default_name
127301
  76.2784813  33.1081158  48.1395233  75.8058640  33.2564540  47.2593360
  75.6741251  33.4151231  48.8882558  76.6598801  32.1729513  48.1496095
  77.4856023  34.0356358  48.1906749  77.3790417  34.7804056  48.9793841
  78.8590058  33.3202601  48.3357558  79.6444753  34.0426193  48.1136404
  79.0659114  32.7608602  49.7358168  78.2810324  32.0380313  49.9584911
  80.0375756  32.2700903  49.7916234  79.0275323  33.5732167  50.4615600
  79.0173404  32.2569693  47.2524165  78.1130818  32.2695492  46.6439286
  79.1067233  31.2910586  47.7495361  80.2089993  32.4790437  46.3779807
  81.1137434  32.4661319  46.9857398  80.2634215  31.6885587  45.6294682
  80.1201028  33.4446243  45.8801339  77.6597952  34.9252118  46.9904331
  77.1708355  34.6825873  45.8804125  78.4610589  35.9280946  47.2335515
  79.0284126  35.9175771  48.0690744  78.5696657  37.0304238  46.3681060
  78.6895716  36.7025285  45.3355332  77.2753858  37.8607422  46.4740762
  76.4742124  37.1691125  46.7345924  77.4194589  38.5719898  47.2873842
  76.9085203  38.6019421  45.2203799  76.8595899  39.6679381  45.4425489
  77.6762659  38.4230898  44.4675979  75.5852681  38.1403490  44.7013227
  74.8051291  38.3949836  45.4187092  75.3774950  38.6304547  43.7501517
  75.5770371  36.7155542  44.4974280  76.3454573  36.1708160  44.8619687
  74.5876488  36.0846236  43.8984294  73.5592855  36.7768813  43.4112128
  73.5425706  37.7825485  43.5031600  72.8009333  36.2929619  42.9520576
  74.6439554  34.7702098  43.7391434  75.4455053  34.2574347  44.0777871
  73.8850607  34.2872873  43.2798359  79.7956845  37.8776928  46.8105167
  79.8015646  38.4366257  47.9090441  80.7920516  37.9919164  45.9266279
  80.7110508  37.5212090  45.0366994  81.9695469  38.7688513  46.1796618
  81.8388556  39.4050342  47.0550419  83.1098835  37.8114826  46.4439788
  82.8574212  37.3923816  47.4179996  83.0663404  37.0265517  45.6889374
  84.5254872  38.3962632  46.4912967  84.8791095  38.4645282  45.4625149
  84.6111979  39.7702964  47.1506572  84.2581528  39.7027302  48.1796824
  85.6458172  40.1132500  47.1438245  83.9909133  40.4774640  46.5999655
  85.4363145  37.4098425  47.2179615  85.4451466  36.4604499  46.6825410
  86.4484753  37.8121813  47.2598583  85.0665583  37.2516099  48.2310468
  82.2638864  39.6026262  44.9542995  82.7262390  39.0677820  43.9742578
  81.9342610  40.9104983  44.9896500  80.8069286  41.5267086  45.7085740
  81.1427665  41.8420367  46.6964410  80.0070607  40.7937900  45.8141232
  80.4064499  42.6992660  44.8257830  79.9829865  43.5062103  45.4237953
  79.6821572  42.3864610  44.0736830  81.6633908  43.1006717  44.2031160
  82.2484600  43.7028523  44.8982214  81.5272428  43.6509112  43.2720951
  82.3836379  41.7764837  43.9272567  82.0774178  41.3303271  42.9810687
  83.8631388  41.9731502  43.9280068  84.4445724  42.4928535  44.9241420
  84.4416140  41.5267396  42.8005575  83.8210050  41.2705393  42.0460344
  85.8604787  41.4443867  42.5747321  86.3765515  41.0546880  43.4521733
  86.1447122  40.5410982  41.3734024  85.5150631  40.8512740  40.5394758
  87.6122189  40.6398831  40.9665493  88.2425185  40.3294029  41.7998710
  87.7969340  39.9909384  40.1104816  87.8468739  41.6699659  40.6982854
  85.7741730  39.0951926  41.7147976  86.4755523  38.7598641  42.4788152
  84.7668956  39.1155727  42.1308221  85.8155018  38.1331825  40.5285369
  86.8226500  38.1119148  40.1122436  85.5393875  37.1327246  40.8616195
  85.1139945  38.4676250  39.7642492  86.3288176  42.8186490  42.2413018
  85.8369690  43.3962964  41.2661873  87.3473233  43.2962108  42.9660349
  87.7719297  42.7319617  43.6881372  87.9092736  44.6113551  42.6984450
  87.1218122  45.2590378  42.3130740  88.5375700  45.2758796  43.8865846
  89.5121619  44.8349167  44.0959204  88.7096782  46.7562128  43.5558619
  87.7353912  47.1980030  43.3468470  89.1657135  47.2677711  44.4034705
  89.3509942  46.8613623  42.6807853  87.6786323  45.0936146  45.1150725
  87.5652565  44.0300950  45.3252487  88.1522100  45.5831546  45.9660568
  86.6975275  45.5358382  44.9419469  89.0079153  44.5546813  41.7218901
  89.0743066  45.3759888  40.8345192  89.9668763  43.6754481  41.9659164
  90.0570936  43.2448256  42.8750503  91.0127261  43.4251128  40.9724727
  90.5871240  43.4433568  39.9691636  92.1127822  44.5262160  41.0671902
  91.6936884  45.3660936  41.6213248  92.9478291  44.1034593  41.6258256
  92.6102232  45.0154041  39.6909647  91.8052387  44.9604178  38.7341375
  93.8012774  45.4533888  39.5862349  91.6217927  41.9758328  41.0262373
  91.5862196  41.2578163  42.0610164  92.1859944  41.5954251  39.8843002
  92.1172826  42.2248123  39.0973760  92.8794061  40.3360758  39.6985564
  92.7193934  39.6814677  40.5552847  92.3317668  39.6449360  38.4451247
  92.7919809  38.6573038  38.4153788  91.2577493  39.5402586  38.5988428
  92.5916854  40.3744360  37.1078655  93.6395539  40.6745167  37.1029584
  92.4168108  39.6541533  36.3086699  91.7067399  41.6064096  36.8875424
  90.7213862  41.2689126  36.5661815  91.6168945  42.1389635  37.8343336
  92.2889938  42.5335449  35.8402957  91.6252482  43.3898710  35.7209312
  93.2665340  42.8766518  36.1791056  92.4345125  41.8325200  34.5337677
  91.5287521  41.5148858  34.2194330  92.8235732  42.4682146  33.8521342
  93.0498567  41.0392442  34.6440589  94.3744393  40.6399989  39.5472843
  94.7634284  41.4686252  38.6905912  95.1982045  40.0989139  40.4458248
  94.8490486  39.5682365  41.2310451  96.6355167  40.3641750  40.3717959
  96.8209102  41.0053785  39.5100613  97.1972371  41.0520492  41.6254674
  98.1719177  41.3133983  41.2134072  96.6612653  41.9621918  41.8946789
  97.3847726  40.1932689  42.8591489  96.2878238  39.7619431  43.6045080
  95.2865267  39.9432217  43.2138142  96.4527425  39.1079946  44.8313764
  95.5779892  38.7841456  45.3953182  97.7421850  38.8671955  45.3352296
  97.9222263  38.2020741  46.5561418  97.0942942  37.9508288  46.9720791
  98.8393585  39.2997834  44.6063737  99.8475575  39.0968979  44.9675838
  98.6520259  39.9993468  43.4027410  99.5111648  40.4064284  42.8695759
  97.3283822  39.0972123  40.0810868  97.7360779  38.4021181  40.9871322
  97.4081486  38.7583926  38.8065910  97.1472750  39.3738937  38.0494895
  97.9166571  37.4666579  38.4827783  97.1825790  36.6975458  38.7229762
  98.2146739  37.4052944  36.9949781  97.3492076  37.8215996  36.4794617
  99.0826789  38.0402970  36.8176676  98.4926133  36.0137717  36.4702197
  99.1539169  35.5087034  37.1742682  97.5466319  35.4755272  36.4109395
  99.1473964  36.0456532  35.0901049  99.5246675  37.0557692  34.9306334
  99.9823197  35.3451724  35.1082462  98.1976041  35.6740165  33.9581713
  98.7803220  35.1224726  33.2203775  97.4361225  35.0194069  34.3821184
  97.5415204  36.8380653  33.3023157  98.2469361  37.4445466  32.9090363
  96.9313075  36.5104294  32.5672001  97.0011643  37.3490293  33.9857118
  99.1662063  37.3454926  39.2760883 100.0828027  38.1354199  39.1504219
  99.1776284  36.3220571  40.1060536  98.3961439  35.6835520  40.0649120
 100.2784002  35.9998141  40.9799058 101.2199624  36.2393783  40.4857713
 100.1936859  36.7892280  42.2674547 100.5742934  37.7880152  42.0537697
  99.1487799  36.8562757  42.5704004 101.0028004  36.1703473  43.3838602
 100.7388002  35.0181025  43.7910871 101.9079809  36.8566263  43.8806403
  99.9509955  34.5825945  41.2599860  98.8181088  34.1855854  41.0550926
 100.9221607  33.7884969  41.7048705 101.8458405  34.1730640  41.8427945
 100.7063913  32.3701465  42.0114513 101.6189247  31.7982901  42.1798621
  99.7991524  32.2061600  43.2225355 100.3057635  32.5842242  44.1105174
  98.8771645  32.7657994  43.0649219  99.4704631  30.7295183  43.4151936
  98.9633882  30.3508367  42.5277388 100.3919859  30.1692607  43.5733368
  98.3913470  30.5179608  44.8528480  98.1853877  28.7501016  44.8272542
  99.1581192  28.2689510  44.9291690  97.5422192  28.4467238  45.6533274
  97.7295231  28.4505243  43.8835688 100.0554664  31.8118528  40.7630211
 100.4251143  32.2295470  39.6620111  99.0578064  30.9487923  40.9122293
  98.7664309  30.5806993  41.8064928  98.3514118  30.5134756  39.7291350
  99.0236263  30.2007081  38.9301335  97.6378251  29.7159016  39.9359420
  97.5907424  31.7552440  39.2796274  97.6300338  32.1606024  38.1223734
  96.9063819  32.3691290  40.2439827  96.9373442  31.9706950  41.1715553
  96.1301243  33.5862182  40.0401027  96.7688127  34.3311242  39.5654540
  94.9127514  33.3421153  39.1429812  94.3163133  32.5339042  39.5662502
  94.0727781  34.5871842  39.0456866  94.6684437  35.3957678  38.6220422
  93.2121085  34.3962802  38.4046696  93.7285911  34.8724943  40.0397862
  95.3520519  32.9892012  37.8323113  94.5894562  32.8361005  37.2696318
  95.6270138  34.0889632  41.3791450  95.6581397  33.3573554  42.3614597
  95.1344232  35.3189645  41.4246689  95.1802395  35.9501927  40.6375532
  94.5514361  35.8184609  42.6934248  93.8630518  35.0660395  43.0782470
  95.6266051  36.1339237  43.8049823  96.0070194  37.1390311  43.6229293
  95.0586866  36.0525024  45.2270892  94.6784727  35.0474840  45.4100544
  95.8454132  36.2793561  45.9466023  94.2479179  36.7727108  45.3368882
  96.7752063  35.1601086  43.7186953  97.2456234  35.2382453  42.7385399
  97.5075135  35.3917625  44.4921048  96.4037055  34.1455811  43.8629935
  93.7261763  37.0615066  42.4218762  93.9982432  37.8365545  41.4710738
  92.7816761  37.2649603  43.3435399  92.8433779  36.7254145  44.1951164
  91.6745599  38.1414552  43.1797854  91.8698416  38.9811935  42.5128493
  90.5034072  37.3346922  42.6193705  90.7426339  36.2763994  42.7237072
  89.2026933  37.6309325  43.3362820  88.9625514  38.6890232  43.2319887
  88.4025758  37.0326233  42.9004626  89.3054573  37.3846689  44.3931147
  90.3694977  37.5966863  41.1272642  91.2881861  37.2991422  40.6217138
  89.5338625  37.0203553  40.7302048  90.1903365  38.6586047  40.9589447
  91.3285306  38.8050524  44.5079629  91.3323130  38.1807643  45.5632146
  90.9145314  40.0530159  44.4075562  90.7728418  40.4344791  43.4831595
  90.6062261  40.8996876  45.5633109  90.9437849  40.4453657  46.4948392
  91.3467588  42.1958511  45.3640006  91.3727283  42.3230795  44.2817632
  90.7965481  43.0225364  45.8133999  92.7480967  42.1789196  45.8988971
  92.9535093  41.2031589  46.3391215  93.7376994  42.4453726  44.7705344
  93.5331950  43.4212251  44.3300930  94.7531935  42.4315826  45.1663655
  93.6353595  41.6741158  44.0071277  92.8128558  43.2126803  47.0370830
  92.1016166  42.9403350  47.8168689  93.8195161  43.2315003  47.4546738
  92.5633671  44.1994412  46.6470093  89.1199644  41.2767204  45.7363119
  88.4410790  41.6062066  44.7666040  88.6984782  41.5030594  46.9628012
  89.2022962  41.2116162  47.7882270  87.4551549  42.2021393  47.1350729
  87.5659758  43.1784105  46.6631486  86.6886800  41.6308961  46.6113394
  87.0340064  42.3934346  48.5525643  87.8237128  42.1831135  49.4708098
  85.8230881  42.9368559  48.7097587  85.4409460  43.5052049  47.9674338
  85.0136756  42.7302004  49.9131397  85.6551814  42.3668574  50.7159793
  84.3382381  44.0183497  50.3738971  85.1175717  44.7548175  50.5697382
  83.7005232  44.3716772  49.5636012  83.4978863  43.8201711  51.6329189
  82.5270741  43.4270826  51.3310811  84.0045419  43.0901882  52.2642090
  83.3012126  45.1159501  52.4121475  82.9706261  45.8849768  51.7140003
  82.5265123  44.9478452  53.1602648  84.5908423  45.5755425  53.1059631
  84.9707222  44.7203527  53.6649286  85.2973627  45.8369016  52.3181691
  84.4216715  46.7412790  54.0314023  83.7673579  46.4991577  54.7617110
  85.3135230  46.9766631  54.4428572  84.0700786  47.5339494  53.5135654
  83.9359996  41.7344126  49.6340374  83.2496115  41.8238801  48.6094682
  83.6755523  40.9093116  50.6429231  84.0698227  41.1224392  51.5480346
  82.8645939  39.7026077  50.5078696  82.7886181  39.3993147  49.4636760
  83.5462968  38.5758854  51.2977677  84.5469720  38.6583408  50.8735631
  83.5676031  38.8899337  52.3413287  83.0726640  37.1167731  51.2119636
  83.9212481  36.4870515  50.9446503  82.4984405  36.6550646  52.5419902
  81.6494675  37.2840655  52.8097615  82.1698975  35.6192763  52.4565336
  83.2637245  36.7303943  53.3144967  82.0941630  36.8650505  50.0793699
  82.5669144  37.1113476  49.1286106  81.8016540  35.8150326  50.0778657
  81.2101977  37.4877365  50.2170888  81.4558542  39.9520337  51.0423534
  81.2560544  39.9750614  52.2624677  80.4987287  40.1576277  50.1325052
  80.6960919  39.9988557  49.1547841  79.2023918  40.7756683  50.4959630
  79.2805748  41.1923136  51.5001509  78.7927411  41.9085741  49.5200451
  78.2972002  41.4209848  48.6805244  78.0729155  42.5259774  50.0574131
  79.9439304  42.7992550  48.9927683  80.8139432  42.1500049  49.0910162
  79.7727323  43.0195084  47.9390706  80.1968341  44.1227285  49.7631524
  79.3336166  44.5971454  50.5526454  81.2581226  44.7459631  49.5091398
  78.0140970  39.7751191  50.6967584  77.1606481  40.0092725  51.5356381
  77.9976378  38.6475076  49.9939174  78.5758298  38.5299739  49.1741741
  77.0758372  37.5608714  50.3587277  76.4435032  37.8981907  51.1799881
  76.1747118  37.1341082  49.1879920  75.6210771  38.0108073  48.8518574
  76.8158788  36.7786478  48.3813614  75.2474785  36.0933883  49.5588174
  74.7080053  35.8601076  48.7997728  77.8460757  36.3488636  50.8809658
  78.5601824  35.6894130  50.1348603  77.6631572  36.0405174  52.1601251
  77.3970755  36.7612168  52.8157868  77.8363040  34.6691937  52.6634715
  77.1615488  34.5554229  53.5119176  77.5289965  33.9964925  51.8627627
  79.2484057  34.3057050  53.1012944  80.1037459  35.1683817  53.2638712
  79.4383186  33.0199233  53.3930622  78.6743394  32.3720008  53.2640987
  80.6901387  32.5112414  53.9259731  81.3465591  33.3457670  54.1725061
  80.4523138  31.6774491  55.2020118  79.6911004  32.1752492  55.8027183
  80.0944883  30.6907577  54.9079011  81.6393186  31.5414310  55.9627704
  81.4582643  31.0191292  56.7476398  81.3605317  31.6712535  52.8586988
  80.7091118  31.1111786  51.9778547  82.6738058  31.5900395  52.9479200
  83.1610591  31.9961976  53.7338711  83.4584983  31.0623157  51.8525428
  82.9162848  30.3611132  51.2181779  84.0228376  32.2016837  50.9901185
  83.1919214  32.7650584  50.5655155  84.8934814  33.1320347  51.8219673
  85.7249307  32.5694327  52.2465514  85.2811826  33.9302637  51.1890227
  84.2988686  33.5637730  52.6270368  84.7424691  31.6355674  49.7644682
  85.8153985  31.6665864  49.9541022  84.4273130  30.6006363  49.6314503
  84.4300262  32.4209039  48.5141086  84.7453445  33.4559036  48.6462067
  84.9614996  31.9848493  47.6682412  83.3572579  32.3899552  48.3235562
  84.5452414  30.0766875  52.3227412  85.5404542  30.4584282  52.9602288
  84.2830552  28.7921065  52.0557130  83.5123766  28.5733418  51.4406554
  85.0583843  27.6876746  52.6138887  85.4046168  27.9539095  53.6125585
  84.2000233  26.3979467  52.7138458  83.9711737  26.0527142  51.7056090
  84.7770770  25.6349917  53.2363481  82.5852237  26.5097139  53.5945065
  82.2460131  25.2348910  53.4252111  86.2350483  27.4669651  51.6735388
  86.1217604  27.7992301  50.4820813  87.3812650  27.0194984  52.2311398
  87.4062154  26.8754121  53.2304976  88.6337169  26.7766663  51.4474800
  88.8907734  27.6836555  50.9003130  89.8198835  26.3957246  52.3541075
  90.0121745  27.2034646  53.0602798  89.5810873  25.4841044  52.9018530
  91.0601947  26.1636564  51.4977216  90.8688101  25.3556882  50.7915628
  91.2998999  27.0750481  50.9499912  92.2341938  25.7866203  52.3950481
  92.4264845  26.5943588  53.1012221  91.9953972  24.8749993  52.9427915
  93.4745054  25.5545543  51.5386612  93.2831214  24.7465869  50.8325015
  93.7142104  26.4659467  50.9909345  94.6061624  25.1911143  52.4036253
  94.3844192  24.3463822  52.9109293  95.4276152  25.0374192  51.8364454
  94.7839414  25.9398448  53.0577632  88.3824234  25.6762134  50.4211560
  87.6676277  24.7127516  50.7124675  88.8643384  25.8828052  49.1941227
  89.4430484  26.6935650  49.0272014  88.5878287  24.9728826  48.0604984
  89.2047233  25.3548230  47.2470725  88.9736228  24.0066572  48.3855691
  87.1417094  24.7909675  47.5515377  86.8906510  23.8700861  46.7591261
  86.2133328  25.6884847  47.9415117  86.5276936  26.5103745  48.4372674
  84.7418640  25.5306808  47.6856083  84.4599843  24.4940809  47.8702797
  83.9279507  26.4425221  48.6385147  84.1552575  26.1832463  49.6725394
  84.1925987  27.4845868  48.4591749  82.4378166  26.2453181  48.3811526
  82.2096491  26.5048553  47.3473824  82.1723061  25.2035161  48.5607489
  81.6020041  27.1254873  49.2994141  82.1441624  27.8692870  50.1138256
  80.2764607  27.0393439  49.1662328  79.6755767  27.6021197  49.7513168
  79.8805649  26.4117918  48.4809983  84.3553985  25.8957746  46.2475291
  84.1716641  27.0601381  45.9661745  84.1838893  24.9167058  45.3502026
  84.2317162  23.9482408  45.6328466  83.9244477  25.2216143  43.9155421
  84.8564400  25.5055695  43.4268101  83.3498371  24.0056171  43.1992465
  82.6702077  23.5144190  43.8956139  82.7867164  24.3745416  42.3419893
  84.4005941  23.0070768  42.7252287  85.2844721  23.1043780  43.3556198
  83.9937718  22.0006417  42.8236466  84.8088924  23.2257038  41.2809864
  86.0112401  23.2855822  40.9604000  83.8098717  23.3469327  40.3896127
  84.0232634  23.4940183  39.4134307  82.8504656  23.2903724  40.7001643
  82.9406450  26.3630004  43.7669346  81.9787380  26.4255431  44.5257668
  83.1942883  27.2593482  42.8017136  83.9769373  27.0978981  42.1840618
  82.3761967  28.4740075  42.5942262  81.3694528  28.2952228  42.9718527
  82.9637414  29.6890265  43.3216911  83.9626639  29.7497736  42.8897618
  82.3914105  30.5721881  43.0378552  83.0706319  29.6198828  44.8397726
  83.6825918  28.7617499  45.1176466  83.7080130  30.8902057  45.3747906
  83.0963337  31.7487878  45.0976912  83.7802252  30.8315467  46.4608132
  84.7056148  31.0033607  44.9504242  81.7270253  29.3579046  45.5402729
  81.3184219  28.4065871  45.1994833  81.8800367  29.3215086  46.6188665
  81.0288639  30.1596538  45.2997155  82.2970333  28.8201354  41.1432339
  82.8965911  28.1481668  40.2933024  81.5976620  29.9096527  40.8591111
  81.0968655  30.3977589  41.5878460  81.5213893  30.4287431  39.5045275
  82.3251033  30.0394960  38.8795238  80.1768051  30.0897666  38.8428339
  79.3785122  30.4515990  39.4908346  80.0384586  30.7284564  37.4575291
  80.8361916  30.3667238  36.8087822  79.0726982  30.4613329  37.0285160
  80.1078971  31.8124685  37.5480706  80.0183602  28.5758362  38.7477814
  80.0479534  28.1433960  39.7478923  79.0637842  28.3386813  38.2780561
  80.8299483  28.1619183  38.1493688  81.6833036  31.9209508  39.5504161
  81.5834958  32.5336739  40.6191831  81.9778314  32.4952093  38.3870716
  81.9977906  31.9363688  37.5460019  82.2998267  33.8996489  38.2839473
  81.8392913  34.4617688  39.0963682  83.7940694  34.0578840  38.3760851
  84.1444970  33.4017226  39.1727983  84.2171904  33.7325828  37.4256916
  84.2294706  35.4696975  38.6615643  83.6060438  36.1808729  38.1196515
  84.1750221  35.6798312  39.7297315  85.8989648  35.6351294  38.1230705
  85.6573466  35.4297763  36.3411444  84.9892983  36.2081597  35.9724578
  86.6184133  35.5056331  35.8325215  85.2186086  34.4516863  36.1437861
  81.8008761  34.5019660  36.9817732  82.1048807  34.0159567  35.8774493
  81.0515893  35.5826704  37.1191640  81.1992495  36.2387778  37.8727016
  79.9442378  35.7746997  36.2762646  79.6027311  34.8164452  35.8848303
  78.7967729  36.4215490  37.0558345  79.0291664  36.3159921  38.1155280
  78.7845127  37.4787249  36.7906387  77.4190841  35.8067092  36.7706492
  76.8915700  35.8062320  37.7244991  76.9248425  36.4930368  36.0830580
  77.3855569  34.1186066  36.0636411  76.0088118  34.2806508  34.9182174
  76.2316427  35.0599336  34.1894076  75.8525465  33.3340432  34.4009013
  75.1065474  34.5463386  35.4690623  80.3763159  36.5590995  35.0644373
  81.5388410  36.6395831  34.7773559  79.4408677  37.2395072  34.4310724
  79.6625602  38.6763389  34.6246568  80.7327268  38.8656704  34.7083069
  79.1649775  38.9954829  35.5404394  79.0568396  39.3043743  33.3909863
  79.6687944  40.1501531  33.0775079  78.0486747  39.6506153  33.6186311
  79.0308400  38.2469838  32.3614528  79.9603215  38.1490466  31.8005861
  78.2085501  38.4347996  31.6710440  78.7658271  36.9726240  33.1501413
  77.7076841  36.8771578  33.3936938  79.2251435  35.7280853  32.3501483
  78.4728809  35.2289828  31.4821929  80.4217021  35.2196763  32.6455343
  80.9221368  35.5505358  33.4580590  81.0709121  34.2307954  31.7869873
  80.6501325  34.2556307  30.7817874  82.5544628  34.5641732  31.7019086
  83.0182766  34.3882003  32.6724804  83.0135174  33.9139695  30.9571911
  82.7993439  36.0099086  31.3015217  81.9080891  36.6821176  30.7804632
  84.0086976  36.4971609  31.5520985  84.2257555  37.4524795  31.3064320
  84.7060577  35.9102641  31.9872328  80.8884917  32.7721089  32.2507141
  81.4131325  31.8327789  31.6377221  80.1708942  32.6022701  33.3555632
  79.8060401  33.4145687  33.8321677  79.8606162  31.2978489  33.8907929
  79.3450197  31.4115377  34.8443831  78.9495540  30.4950151  32.9278268
  79.2100656  30.8323985  31.9246292  79.2409402  29.4514375  33.0467380
  77.4543654  30.6279620  33.1325832  76.9494606  30.0606121  32.3507354
  77.2028833  30.2071838  34.1061357  77.0065939  32.0710308  33.0767341
  75.9175850  32.0613433  33.0312957  77.3267016  32.5364173  34.0089605
  77.5606832  32.8704341  31.8896687  77.3464757  33.9169191  32.1066595
  78.6389976  32.7114860  31.8982005  77.0196688  32.5218875  30.5506856
  76.0205500  32.6695130  30.5424360  77.4522390  33.1068586  29.8501201
  77.2184277  31.5523441  30.3492417  81.1254775  30.5083004  34.0658072
  81.1171725  29.3406814  33.7696540  82.2442708  31.1209563  34.4277607
  82.3264487  32.1250116  34.5000035  83.4494998  30.3092950  34.6214567
  83.4306700  29.4846589  33.9089119  84.7399726  31.1007417  34.4180528
  84.4299713  32.1430501  34.4928304  85.5443936  30.9096195  35.1283197
  85.3198541  30.9262914  33.0625538  86.1579145  29.8810733  32.7535764
  86.4922783  29.1943810  33.4144502  86.4486459  29.9250505  31.4642032
  87.1095640  29.1804467  31.0205236  85.8204983  30.9582918  30.9270404
  85.0803084  31.5812867  31.8992757  84.4555240  32.4371999  31.6440146
  83.4503121  29.6306020  35.9817596  83.4060159  30.2982324  37.0240003
  83.4885220  28.2962015  35.9540413  83.2593161  27.8111449  35.0983053
  83.8495620  27.5039287  37.1211951  83.0863143  27.6251089  37.8898741
  83.9625406  26.0221118  36.7756151  84.3226778  25.9240230  35.7515160
  84.6779537  25.5622768  37.4574038  82.6650047  25.3051099  36.8938011
  81.6027327  25.9095132  37.1345329  82.7259891  23.9996916  36.7199481
  81.8846258  23.4447678  36.7852711  83.6137905  23.5605779  36.5222398
  85.1644097  27.9534261  37.6688015  85.9957907  28.5087879  36.9382347
  85.3906734  27.6121075  38.9253398  84.6918505  27.1024000  39.4468224
  86.6179166  27.9453946  39.5816735  87.4858190  27.5262210  39.0726173
  86.7846531  29.4703650  39.6612868  86.6535005  29.8818294  38.6604895
  85.7745272  30.1003368  40.6034578  85.9053766  29.6896788  41.6046268
  85.9264522  31.1793414  40.6311774  84.7654888  29.8849267  40.2519730
  88.1847583  29.8170182  40.0905918  88.8963390  29.4173485  39.3680829
  88.2913412  30.9005001  40.1435716  88.3821274  29.3846388  41.0715068
  86.5772445  27.3694360  40.9696474  85.5434505  27.4180276  41.6146085
  87.6640325  26.7661133  41.4224239  88.4456640  26.5607396  40.8166408
  87.7253040  26.3075434  42.8223312  86.7307881  26.3529061  43.2661551
  88.2679677  24.8543268  42.9643747  87.6050275  24.1655690  42.4407125
  89.2670404  24.7951799  42.5325698  88.3288234  24.4804271  44.4260847
  88.9919861  25.1685094  44.9503544  87.3299740  24.5388961  44.8584970
  88.8607867  23.0558731  44.5653274  90.1080189  22.9150438  44.6756909
  88.0148401  22.1220926  44.5600006  88.5826539  27.3034231  43.5715468
  89.5821192  27.8178378  43.0263930  88.1540009  27.6438011  44.7868675
  87.2252774  27.4004865  45.1005074  89.0469484  28.3134011  45.7247611
  89.3503370  29.2784785  45.3189530  88.4384820  28.5366467  47.1255141
  88.0406378  27.5927235  47.4981107  89.5107703  29.0531757  48.0876392
  89.9087868  29.9973742  47.7159229  89.0714559  29.2075119  49.0731764
  90.3168491  28.3230395  48.1600249  87.2733184  29.5112013  47.0726640
  86.4975610  29.1156267  46.4170549  86.8668467  29.6470430  48.0748753
  87.6187689  30.4708250  46.6881030  90.2164118  27.3985941  45.9217422
  90.0277392  26.1975053  46.1780121  91.4165815  27.9475588  45.7296891
  91.5231073  28.7357420  45.1071789  92.6051737  27.4027246  46.3596012
  92.4531389  26.3434944  46.5670042  93.8344408  27.5534667  45.4496922
  94.1401266  28.5775073  45.6641596  94.5853206  26.8627782  45.8333964
  93.6971235  27.3680524  43.9322840  93.2386706  28.2530017  43.4909377
  95.0868535  27.1643866  43.3357225  95.5457861  26.2792919  43.7762755
  95.0038490  27.0312637  42.2570708  95.7049942  28.0369233  43.5471039
  92.7786989  26.2185209  43.5593370  91.7829982  26.4027096  43.9627651
  92.7209225  26.1363646  42.4739737  93.1717185  25.2898380  43.9730793
  92.8275627  28.1149129  47.7032280  92.6565302  27.5113235  48.7717591
  93.0959013  29.4213647  47.6399581  92.7972902  29.9547048  46.8359188
  93.8170976  30.1193606  48.7078717  93.8862007  29.4426906  49.5596004
  94.8185402  30.3440558  48.3408237  93.1538743  31.4092220  49.1544558
  92.9202828  32.3211891  48.3511277  92.9729455  31.5272350  50.4598794
  93.3425808  30.8293556  51.0895089  92.2325375  32.6121542  51.0131697
  91.9686849  33.3604463  50.2658144  90.9752591  32.0947572  51.6732518
  91.2438416  31.3678121  52.4397468  90.2104067  33.2535210  52.3155728
  89.9410597  33.9807017  51.5495695  89.3053130  32.8737262  52.7895580
  90.8391079  33.7329403  53.0659000  90.1624476  31.3458185  50.6165407
  90.0570057  32.0144097  49.7621587  90.7463702  30.4730302  50.3243516
  88.7991010  30.9050515  51.0798198  88.2143921  31.7773975  51.3717578
  88.2909082  30.3822403  50.2695682  88.9037568  30.2360193  51.9339527
  93.0715847  33.3516885  52.0109211  93.1572740  32.9613945  53.1778645
  93.6992976  34.4239269  51.5254828  93.4773843  34.7233389  50.5867569
  94.7332554  35.1765519  52.2779905  95.1478357  34.5252733  53.0474439
  95.9315034  35.6916548  51.3415479  95.3457750  36.4721981  50.8559825
  96.5942784  36.1420220  52.0804652  96.8028966  34.9191066  50.2447475
  97.3380237  34.1322590  50.7763588  96.0097581  34.3024738  49.0797907
  95.4746964  35.0888271  48.5473845  96.6964331  33.8037089  48.3958231
  95.2953536  33.5773395  49.4695430  97.9218838  35.7946609  49.6425960
  98.5967327  36.1184110  50.4349749  98.4789716  35.2167955  48.9051503
  97.4814649  36.6681015  49.1617304  94.0788116  36.3917738  52.9815684
  94.7399432  37.4302504  53.1264977  92.8725750  36.1860475  53.4876305
  92.4799463  35.2555089  53.4813055  92.0932164  37.2518321  54.0616987
  91.6753378  37.8815038  53.2762115  90.9439180  36.6582384  54.8747754
  90.1484082  36.3852553  54.1814187  91.3135881  35.7624087  55.3737074
  90.4371282  37.5634347  55.8429142  89.7198989  37.1466730  56.3261239
  92.9184678  38.0982083  54.9683925  93.6038195  37.6304138  55.8642425
  92.8530574  39.3828399  54.6520524  92.2739890  39.6559834  53.8709174
  93.5418121  40.4072737  55.3773236  93.3242811  41.3875037  54.9531438
  93.0786778  40.3900274  56.8164855  92.0691161  39.9811163  56.8574284
  93.7570261  39.7374015  57.3660518  93.0896673  41.7532255  57.4332158
  94.1905184  42.3235998  57.5723884  91.9988223  42.2618637  57.7598874
  94.9939899  40.0365430  55.2773812  95.4062958  39.3958851  54.3188984
  95.7717963  40.3992286  56.2822451  95.4407183  40.9644922  57.0509868
  97.1491058  40.0080110  56.2712354  97.6303421  40.2101029  55.3143291
  97.9516856  40.6955932  57.3767695  97.9687544  41.7708596  57.1989776
  97.4872097  40.4948108  58.3421962  99.3807374  40.1575055  57.3781056
 100.2229743  40.7580976  56.6587116  99.6165027  39.1510084  58.0985069
  97.1321836  38.4940773  56.4438400  97.8968696  37.7711229  55.8203641
  96.2364994  38.0240393  57.3040639  95.6292238  38.6664424  57.7925655
  96.1449030  36.5815235  57.6339493  97.1127859  36.1032087  57.7840050
  95.2890908  36.3879543  58.9211266  95.7436705  36.9632292  59.7276718
  93.8509248  36.8537080  58.7125187  93.3955040  36.2785301  57.9063777
  93.2831140  36.7038462  59.6307957  93.8454525  37.9118981  58.4511655
  95.3201481  34.9488395  59.4094749  96.3474517  34.6636427  59.6362172
  94.7110863  34.8565317  60.3087094  94.9242111  34.2928991  58.6341834
  95.5687070  35.7374097  56.4745891  94.9449337  36.2722201  55.5610204
  95.8345107  34.4318377  56.4817416  96.6569607  34.0831934  56.9530402
  94.9890777  33.4786541  55.7684848  94.3862297  34.0019786  55.0263225
  95.8557037  32.4258253  55.0463270  95.5467779  32.4490377  54.0012790
  96.8843491  32.7768828  55.1284681  95.7630829  30.9984322  55.5713950
  96.7733245  30.6059573  55.6874820  95.2832056  31.0597472  56.5481536
  94.9573261  30.0693357  54.6662173  95.4315974  28.9422684  54.4042632
  93.8428863  30.4472527  54.2354787  94.0598277  32.8632206  56.8115241
  94.4208002  32.7971447  57.9804038  92.8341502  32.5144622  56.4155136
  92.4298479  32.9427153  55.5950026  92.0166957  31.5537933  57.1766446
  92.6471375  30.9783120  57.8544821  90.9062627  32.2524589  58.0052523
  90.4085314  31.5026634  58.6202079  91.4924118  33.3549361  58.9125821
  91.9899367  34.1053882  58.2982610  90.6888486  33.8248791  59.4796260
  92.2129827  32.9142227  59.6015306  89.9322973  32.8208411  57.1239384
  89.2470475  33.2521121  57.6397274  91.3866586  30.5273208  56.2117464
  91.4844757  30.6724166  54.9918579  90.8213345  29.4566758  56.7668058
  90.8112295  29.3646442  57.7725530  90.2454778  28.3625886  55.9573416
  90.8834259  28.1772340  55.0931860  90.1329119  27.0619844  56.7738351
  90.2942849  27.3151494  57.8216735  89.1249210  26.6670313  56.6470819
  91.1346241  26.0240212  56.3493090  92.3434080  26.3511424  56.3459495
  90.7141948  24.8905862  56.0148270  88.8723379  28.7347041  55.4133794
  88.5606966  28.4528917  54.2582537  88.0284775  29.2838093  56.2793051
  88.2708255  29.3232967  57.2590028  86.7522670  29.8391616  55.8625277
  86.7150571  29.9236529  54.7764449  85.5589217  28.9716467  56.3324965
  84.6869880  29.2303954  55.7317628  85.8570045  27.4715770  56.1825417
  86.7285962  27.2119657  56.7833992  84.9971919  26.8940381  56.5220565
  86.0569578  27.2432192  55.1356549  85.2526692  29.2600347  57.7049450
  84.5123535  28.7184743  57.9882207  86.6238587  31.2133976  56.4664355
  87.2427571  31.5081946  57.4792606  85.7958022  32.0494439  55.8666665
  85.2686878  31.7676139  55.0525280  85.6575473  33.4164349  56.3371069
  85.6397984  33.4937910  57.4242133  86.7991344  34.3100469  55.7964060
  87.7558078  33.8445519  56.0334494  86.6772808  34.4782373  54.2914343
  85.7209880  34.9441279  54.0536299  87.4885382  35.1095918  53.9290071
  86.7347645  33.5018325  53.8103614  86.8328795  35.6556324  56.5051253
  86.9908552  35.5008452  57.5724522  87.6460778  36.2590337  56.1017458
  85.8859168  36.1725611  56.3497316  84.3105059  33.9523687  55.9035099
  83.8176186  33.5989244  54.8327390  83.7203005  34.7947418  56.7525223
  84.2521530  35.1420191  57.5377807  82.3205175  35.2121550  56.6217408
  81.7685737  34.5611149  55.9437999  81.6572069  35.1626652  57.9917447
  82.1932901  35.8167692  58.6793949  80.6225168  35.4948958  57.9072497
  81.6803934  34.1408600  58.3705265  82.2672949  36.6290508  56.0272934
  83.3054872  37.2732044  55.9089383  81.0633150  37.1147009  55.6409187
  79.7540549  36.6071741  56.0766339  79.6462254  36.7563321  57.1509825
  79.6830771  35.5435577  55.8490785  78.7808740  37.4303521  55.2787731
  77.8449584  37.5240732  55.8295702  78.5914124  36.9447949  54.3214645
  79.4240302  38.7397616  55.0854107  79.2064787  39.3727737  55.9456817
  79.1048954  39.2445399  54.1735711  80.9344509  38.4442831  55.0213970
  81.3265153  38.3766488  54.0066018  81.6714386  39.5152919  55.7713531
  81.9348989  39.3775588  56.9655823  81.9099565  40.6269138  55.0979356
  81.6557114  40.6974700  54.1230097  82.5432271  41.7803760  55.7341103
  82.0721825  42.6943616  55.3723833  82.4165460  41.7099609  56.8144311
  84.0144668  41.8279178  55.4152300  84.5040460  42.7945910  54.8311606
  84.7016810  40.7355180  55.6984057  84.2438002  39.9297023  56.0997852
  86.1260672  40.7178390  55.5828699  86.5540946  41.5287898  56.1721497
  86.6898536  39.3902711  56.0955484  86.1512695  38.5845427  55.5967216
  87.7436388  39.3471157  55.8202769  86.5512331  39.2322896  57.6218272
  86.7236999  40.2310640  58.0228332  85.5348221  38.9171151  57.8577785
  87.5470284  38.2526797  58.2475611  87.0911274  37.3896819  59.0456847
  88.7777618  38.3754291  57.9878884  86.6073397  41.0539526  54.1557349
  85.8158031  41.2421845  53.2067858  87.9167526  41.2350966  54.0620069
  88.4827021  41.0158250  54.8692990  88.5786811  41.7258699  52.8734443
  87.8442299  41.9900482  52.1125958  89.3940207  42.9779882  53.2237101
  89.7190242  42.8488288  54.2560810  90.2667448  43.0789800  52.5785331
  88.5750076  44.2448075  53.1301020  87.8723608  44.4582238  52.1418419
  88.7100075  45.1277731  54.1244091  88.1830424  45.9892014  54.1057304
  89.3383672  44.9295186  54.8898894  89.5038070  40.6467056  52.3399824
  90.6848276  40.6087480  52.6774654  88.9919406  39.8456911  51.4220993
  88.0972535  40.0524682  51.0015311  89.7017911  38.6910056  50.9707840
  90.3448728  38.3073229  51.7628273  88.7231963  37.6247834  50.5908307
  88.1497592  38.1055262  49.7982681  89.2833271  36.7866832  50.1761723
  87.7798448  37.1204521  51.6604675  88.2052090  36.1958127  52.0506061
  87.5503625  38.0985346  52.8087956  87.1245504  39.0233096  52.4194705
  86.8622841  37.6577603  53.5301602  88.5000797  38.3142658  53.2982827
  86.4602322  36.7549411  50.9976153  86.6303561  35.9779911  50.2522926
  85.7636579  36.3881970  51.7515279  86.0398445  37.6363764  50.5134201
  90.5256928  38.9992388  49.7410774  90.0300283  39.5841921  48.7684252
  91.7540895  38.5131945  49.7392258  92.3119063  38.4950273  50.5810155
  92.3482458  38.0335065  48.5138852  91.8587120  38.5043411  47.6613767
  93.8478552  38.3664896  48.4646109  94.3092218  37.8053484  49.2772367
  94.2108751  37.9866875  47.5095890  94.2118888  39.8450963  48.5960437
  93.7881271  40.3720903  47.7411728  93.7606687  40.2212474  49.5142010
  95.7449977  40.0797848  48.6397531  96.1679550  39.4288607  49.4049353
  96.1587009  39.8129488  47.6672575  96.0937885  41.5399571  48.9606452
  95.5304191  42.1590274  48.2624565  95.7468182  41.7307219  49.9761842
  97.5402847  41.8714043  48.8608276  97.8618929  41.6951152  47.9197696
  97.6787247  42.8459892  49.0869218  98.0624472  41.2981697  49.5080119
  92.1213734  36.5068276  48.4184366  92.1455326  35.7772732  49.4374698
  91.8592816  36.0379146  47.2019899  91.9579225  36.6466684  46.4021223
  91.4964764  34.6447927  46.9699001  91.7587478  34.0062442  47.8134455
  89.9835772  34.4819914  46.6475623  89.7713712  34.9784032  45.7006492
  89.6021489  33.0011938  46.5444072  89.8136517  32.5041802  47.4911620
  88.5394010  32.9141029  46.3183923  90.1817346  32.5306471  45.7501999
  89.0777743  35.2203146  47.6683125  89.6450889  36.0867322  48.0082765
  88.2022150  35.5553719  47.1122262  88.6323171  34.4038009  48.8698108
  89.5073788  34.0687603  49.4266902  88.0050568  35.0186696  49.5152411
  88.0645065  33.5373982  48.5306393  92.2363255  34.1530026  45.7568928
  92.0271181  34.6714430  44.6514536  93.0733487  33.1356428  45.9423685
  93.4010034  32.8834886  46.8638673  93.6333929  32.4339563  44.7936703
  93.8450478  33.1615578  44.0101542  94.9341198  31.6807870  45.1303516
  95.4705556  32.2782410  45.8674979  94.6483374  30.7273363  45.5746042
  95.8494891  31.4263890  43.9077676  95.5588507  30.4653690  43.4834201
  95.6481308  32.2176521  43.1856460  97.3433167  31.4065450  44.2388795
  97.6012229  30.4058792  44.5856524  97.8966090  31.6280887  43.3262539
  97.7309854  32.3774523  45.2720421  97.9756227  33.2996092  44.9405626
  97.8071296  32.1299749  46.5840417  97.5146367  30.9242038  47.0722199
  97.2311141  30.1843454  46.4458617  97.5779332  30.7562119  48.0661373
  98.1535521  33.1070206  47.4205470  98.3565620  34.0282731  47.0597411
  98.2116219  32.9221087  48.4117757  92.6150727  31.4967026  44.1615939
  92.0335089  30.6397974  44.8236558  92.4517087  31.6693443  42.8528086
  93.0790981  32.3112081  42.3896749  91.4597423  30.9618089  42.0417462
  90.7616260  30.4214967  42.6811175  90.6691803  31.9816847  41.2015736
  91.4098962  32.7686764  41.0598582  90.4347531  31.5265414  40.2392907
  89.3954558  32.5823314  41.8060068  88.6594393  31.7879795  41.9300454
  89.6812380  33.2262235  43.1593259  90.4168765  34.0210370  43.0360116
  88.7600181  33.6442583  43.5651605  90.0712820  32.4740445  43.8450320
  88.7610431  33.5721661  40.8246396  88.5072588  33.0550236  39.8992983
  87.8568956  33.9923610  41.2651562  89.4667931  34.3746251  40.6099875
  92.1641622  30.0145839  41.0773425  93.2170704  30.3751323  40.5488635
  91.5836606  28.8314688  40.8127659  90.8151685  28.5060582  41.3816482
  92.0289940  27.9830078  39.6805503  92.8508354  28.4706942  39.1563005
  92.5047810  26.6359418  40.1784667  93.4522133  26.7959009  40.6931359
  91.7628652  26.2716383  40.8890609  92.6959191  25.6064278  39.0717381
  92.5967001  26.1169725  38.1138234  93.7016109  25.1957953  39.1615550
  91.6777646  24.4769464  39.1524054  90.6937118  24.8922403  38.9349887
  91.9340255  23.7356471  38.3955004  91.6573964  23.8136623  40.5275728
  92.2923763  24.3982966  41.1932334  90.6315886  23.8322960  40.8956357
  92.1468004  22.3993564  40.4862496  93.0974698  22.3819075  40.1456282
  92.1147795  22.0047584  41.4154251  91.5582910  21.8573512  39.8698195
  90.9239391  27.7220315  38.7139309  89.9522471  27.0981529  39.0900216
  91.1165773  28.0711694  37.4445475  92.0185765  28.3897681  37.1205234
  90.0155595  28.0012471  36.4781684  89.5131159  27.0405556  36.5909578
  89.3121394  28.8059141  36.6922018  90.4984084  28.1375293  35.0603559
  91.6923452  28.3117218  34.8387570  89.5923907  27.9882459  34.0898775
  88.6628591  27.6575935  34.3060703  89.9564536  28.1782432  32.6681201
  90.9574711  27.8003455  32.4601382  88.9189181  27.5189910  31.6541459
  87.9106233  27.7540938  31.9949812  89.1099401  28.0416411  30.2195448
  90.1179232  27.8064842  29.8778254  88.3833151  27.5674783  29.5597825
  88.9640908  29.1217175  30.2033513  88.9794213  25.9555755  31.6898716
  89.4488615  25.6966955  32.6389278  87.9434018  25.6168250  31.6932286
  89.7311518  25.2784995  30.5503759  90.7674392  25.6164261  30.5466633
  89.7025247  24.1975057  30.6872416  89.2619804  25.5365577  29.6009634
  90.1486021  29.6928974  32.4286632  90.8506141  30.0829166  31.4967870
  89.6299818  30.5317247  33.3378088  89.0931720  30.1686791  34.1124909
  89.7412284  32.0011513  33.1879864  90.3466069  32.2433667  32.3145176
  88.3463915  32.6160469  33.0040424  87.7180299  31.8540363  32.5429558
  87.9644873  32.8484212  33.9981507  88.3288642  33.8809386  32.1426669
  87.5180219  34.5326303  32.4681411  89.2852254  34.3640932  32.3427523
  88.1972731  33.6145675  30.6460964  87.0607149  33.3434140  30.1855551
  89.2149610  33.7346016  29.9238048  90.4836871  32.6937104  34.3553403
  89.9087105  32.8442432  35.4641048  91.7161472  33.1829712  34.0688267
  91.9645632  33.3056459  33.0975699  92.7779925  33.3794969  35.1020422
  92.3321994  33.5036130  36.0889378  93.6755762  32.1609960  35.1265344
  94.2245089  32.1305768  34.1853401  94.3773645  32.2786888  35.9522109
  92.8958228  30.8594036  35.3031016  92.4147694  30.6855422  34.3405733
  93.5986463  30.0519827  35.5085514  91.8188379  30.9032968  36.4185544
  92.1829985  30.9734450  37.6081183  90.5968177  30.8201199  36.1133739
  93.6081221  34.7035673  35.0424408  94.2868018  35.0753430  35.9743371
  93.5057608  35.4186433  33.9520787  93.6112305  34.9571647  33.0598831
  93.2860205  36.8549621  33.9630218  92.7562492  37.1436292  34.8708284
  94.6303947  37.5962148  33.9226308  94.4876426  38.4868060  34.5346507
  95.3420087  36.9305517  34.4110959  95.1766311  38.0060702  32.5373867
  94.5511014  38.7335420  32.0200878  96.0818968  38.4959116  32.8960628
  95.5672035  36.8425197  31.5392040  94.8137488  36.6250618  30.5399898
  96.7117645  36.2917621  31.6173071  92.4221273  36.7950223  32.6656241
  92.0765950  35.6915188  32.2690570  91.9559606  37.9286854  32.2037717
  92.3201268  38.8108285  32.5343861  90.9129280  37.9496309  31.2217161
  91.0211998  38.8489399  30.6153995  90.9484848  36.7413561  30.3068026
  91.8653433  36.8011785  29.7203804  90.9787652  35.8531649  30.9379123
  89.7465247  36.6566289  29.3655922  90.0856267  36.1063874  28.4878992
  88.9533155  36.0965680  29.8608195  89.2146986  38.0182283  28.9367075
  90.0229273  38.9549526  28.8081977  87.9872102  38.1541854  28.7591179
  89.5769825  37.9742574  32.0433779  88.5068134  37.7085271  31.5197725
  89.6697339  38.2751950  33.3430839  90.6043367  38.4098593  33.7015284
  88.5504386  38.4277036  34.2603588  87.6291176  38.2018394  33.7234675
  88.6772185  37.4958158  35.4722214  87.6988403  37.3545363  35.9314780
  89.2132484  36.1653176  35.0144798  90.1918802  36.3057360  34.5554992
  89.3064419  35.4966866  35.8702533  88.5300218  35.7289798  34.2858441
  89.6105357  38.0268628  36.5564377  90.5860917  38.1931735  36.0995656
  89.2057197  38.9774680  36.9036743  89.7565662  37.0911276  37.7197966
  90.1617948  36.1403948  37.3733909  90.4327382  37.5274135  38.4550143
  88.7814218  36.9246874  38.1774984  88.6671482  39.8874022  34.6538876
  89.7540429  40.3248602  34.9659893  87.5849962  40.6398214  34.6581600
  86.6714793  40.2526773  34.4692005  87.6831140  42.0561034  34.9600081
  88.7195226  42.3360154  35.1487030  87.1754374  42.8500188  33.7727294
  86.1590273  42.4753513  33.6517588  87.1425112  43.8897285  34.0983358
  87.9071513  42.7585708  32.4509286  88.8216225  43.3478316  32.5188618
  88.2551874  41.3247312  32.1128403  87.3411260  40.7349095  32.0442762
  88.7798625  41.2931222  31.1579488  88.8955451  40.9122084  32.8924988
  87.0325067  43.3708171  31.3765207  86.8331226  44.4142814  31.6205035
  87.5434539  43.3141891  30.4153612  86.0906253  42.8252001  31.3194192
  86.8786964  42.5038500  36.1370282  85.9440210  41.8476215  36.5344791
  87.2332490  43.6393704  36.7068077  88.6197460  44.1874263  36.7538159
  88.7517598  44.9045405  35.9436185  89.3339260  43.3723397  36.6368550
  88.6990807  44.8274147  38.1082445  89.3736481  45.6831967  38.0818786
  89.0552085  44.1072790  38.8449120  87.2730487  45.2542309  38.4124705
  86.9765272  46.2066183  37.9730023  87.1463264  45.2986719  39.4941664
  86.4176459  44.1245176  37.8322809  86.3868214  43.3022449  38.5471345
  84.9765604  44.5820361  37.5120009  84.6851107  45.2658943  36.4868311
  84.0960730  44.2290352  38.4481416  84.4320856  43.8963023  39.3406010
  82.6623994  44.3033366  38.2371124  82.1525406  44.3292306  39.2001662
  82.4224491  45.2059683  37.6751701  82.1924433  43.1186186  37.4728268
  81.3109582  43.2365051  36.6191918  82.9705376  42.0488612  37.5985790
  83.9713889  42.1276900  37.4882068  82.4156487  40.7520368  37.8844860
  81.3831138  40.7357025  37.5356249  83.1898115  39.5857933  37.2024363
  84.2027046  39.4953790  37.5948292  82.6404700  38.6654288  37.4005604
  83.3166825  39.6992655  35.6974148  82.5712433  40.6295939  34.9581243
  81.8353678  41.2468294  35.4734954  82.7617053  40.7722997  33.5741588
  82.1951486  41.5237069  33.0241575  83.6688055  39.9595059  32.9059273
  83.7999845  40.0456930  31.8272875  84.4164382  39.0254570  33.6283849
  85.1413248  38.3970767  33.1109125  84.2373676  38.8948005  35.0121221
  84.8180804  38.1600794  35.5698474  82.4652352  40.5711877  39.3905613
  83.0434665  41.3950339  40.1335862  81.9849353  39.3843375  39.7675076
  81.8939246  38.7090365  39.0219978  81.6577462  38.9606550  41.1336183
  82.2997036  39.4962733  41.8329772  80.1725151  39.2509199  41.4698164
  79.7919583  38.4377332  42.0878813  80.0201425  40.5619520  42.2115247
  80.4000865  41.3757280  41.5938582  78.9667733  40.7350402  42.4318755
  80.5837114  40.5203150  43.1435954  79.3476827  39.3231455  40.1831692
  79.6996698  40.1949079  39.6315932  79.5703208  38.4200488  39.6148838
  77.8541459  39.4300044  40.3943821  77.6306781  40.3331664  40.9622382
  77.3523355  39.4756735  39.4278420  77.5013295  38.5583077  40.9455312
  81.8509955  37.4288900  41.1365764  81.7854036  36.7937179  40.0957733
  82.1199078  36.8328952  42.2754919  82.4216251  37.3365368  43.0973259
  81.9826312  35.4022634  42.3636830  82.2893572  34.9403644  41.4252441
  82.8473770  34.8667288  43.4668372  82.6269646  35.4859987  44.3363327
  82.6060865  33.8276536  43.6908947  84.3153172  34.9805627  43.1268747
  84.5099470  35.9744783  42.7239457  85.1690466  34.7604995  44.3689907
  84.9752943  33.7665473  44.7722499  86.2233095  34.8460559  44.1057219
  84.9203323  35.5111943  45.1191233  84.6977226  34.0077342  42.0236899
  84.1147745  34.2251037  41.1286919  85.7593300  34.1111850  41.7992150
  84.4937226  32.9881870  42.3508083  80.5236421  35.1223985  42.6484768
  79.8026833  36.0143233  43.0970730  80.0515307  33.9210182  42.3384364
  80.5967174  33.2639478  41.7988723  78.6983984  33.5374694  42.7350916
  78.4356108  34.0771843  43.6448990  77.6458081  33.8546024  41.6521666
  77.7664467  33.1469796  40.8319133  76.6531757  33.7395727  42.0875389
  77.6777746  35.5255986  40.8918827  76.6484991  35.3257498  40.0736219
  78.6576356  32.0718761  43.0518101  79.1672667  31.2426343  42.2964479
  78.0500371  31.7679995  44.1915891  78.0094880  32.4731924  44.9135019
  77.4669740  30.4396035  44.4759313  78.2544304  29.7318552  44.7349754
  76.4823639  30.5422544  45.6670110  77.0565534  30.5145405  46.5930983
  75.9802670  31.5058152  45.5801240  75.4360995  29.4201510  45.6806007
  75.8052299  28.2794449  46.0231244  74.2413584  29.6812728  45.3679873
  76.7360343  29.8646945  43.2376778  75.8790447  30.5315474  42.6499693
  77.0443530  28.6111922  42.8711295  78.1292543  27.7839087  43.4331625
  77.9569775  27.6427916  44.5001709  79.0820903  28.2916600  43.2835262
  78.0374976  26.5096354  42.6650022  77.4389155  25.7964019  43.2316560
  79.0409044  26.1085362  42.5221886  77.4023389  26.8342395  41.3547753
  76.7865884  26.0175792  40.9779247  78.1820351  27.0655046  40.6290413
  76.5274775  28.0793879  41.6015792  76.7419162  28.8327411  40.8435731
  75.0064814  27.7412341  41.5810690  74.4049980  27.6571875  40.5015358
  74.3806414  27.6167052  42.7480998  74.8858580  27.7219188  43.6163081
  72.9672672  27.2230702  42.8084127  72.7592743  26.4796450  42.0388952
  72.6339780  26.6214938  44.1702145  72.5306804  27.3861537  44.9401003
  71.6837920  26.1023802  44.0446450  73.6708154  25.6256750  44.6172705
  74.6053260  25.3130897  43.8719346  73.5624601  25.1763956  45.8623830
  74.2315141  24.5066232  46.2143368  72.8115036  25.5065710  46.4515768
  72.0425127  28.3936049  42.4751714  71.5800914  28.5082658  41.3403744
  71.7826268  29.2668894  43.4479034  71.8748726  29.0029363  44.4184284
  71.2947591  30.6018341  43.1398293  70.7116347  30.5677407  42.2195561
  70.4065056  31.1517164  44.2627952  70.5794270  30.5594989  45.1613918
  70.6760435  32.1901852  44.4552318  68.9178294  31.0893595  43.9151160
  68.2897353  30.0086524  43.8906405  68.3464231  32.2496174  43.6356570
  67.3654136  32.2815611  43.3975399  68.8939095  33.0979560  43.6617513
  72.4951020  31.4888386  42.8913219  73.2258255  31.8286656  43.8183482
  72.8090539  31.6635602  41.6102362  72.3242939  31.1175800  40.9123733
  73.8853529  32.5516926  41.1714295  74.5459951  32.7671823  42.0112005
  74.7174532  31.8976881  40.0429513  75.4384047  32.6851364  39.8232847
  75.2305220  31.0550024  40.5063532  74.0505784  31.4361567  38.7385600
  73.3294262  30.6571494  38.9859220  73.3411737  32.5729950  38.0158280
  74.0618174  33.3522317  37.7677115  72.8864492  32.1945230  37.1003580
  72.5666486  32.9872846  38.6612545  75.0881887  30.8018108  37.8243438
  75.5357622  29.9422287  38.3232387  74.6091643  30.4764856  36.9008719
  75.8640623  31.5316133  37.5930269  73.2938809  33.9011569  40.7352564
  72.1097399  34.1527135  40.9417954  74.1197708  34.7659769  40.1501562
  75.0169349  34.4493261  39.8111454  73.8002468  36.1831870  40.0387921
  73.1147107  36.4779051  40.8333239  75.0777170  37.0104266  40.1647023
  75.7324019  36.8608936  39.3061415  74.8532562  38.0719259  40.2692812
  76.0522865  36.5561083  41.6255333  77.0311717  37.4321374  41.4175546
  73.0853386  36.4794872  38.7307854  73.3392491  35.8243021  37.7137033
  72.1020222  37.3805517  38.8005109  71.8636590  37.7905680  39.6922334
  71.3731896  37.8310365  37.6116647  71.1289022  36.9648044  36.9967949
  70.0622065  38.5649835  37.9740322  70.2441180  39.5014534  38.5013191
  69.5382290  38.7701015  37.0405044  69.1242139  37.7697753  38.8254034
  68.7156732  36.4954199  38.4884481  69.0068546  35.9984871  37.6587669
  67.8932615  36.0410670  39.4173095  67.4694768  35.0396347  39.3422176
  67.7382618  36.9827671  40.3337548  68.4689070  38.0861593  39.9706291
  68.4362767  38.9871723  40.5831747  72.2950989  38.7924265  36.9318888
  73.1859679  39.3393330  37.5804038  72.0763671  39.0190508  35.6394826
  71.3724150  38.4926220  35.1420657  72.9005458  39.9595290  34.8841063
  72.9714753  40.9074555  35.4174951  74.3050389  39.3934968  34.7077670
  75.0294505  40.2014140  34.8107086  74.4855836  38.6439478  35.4782732
  74.4379199  38.8096554  33.4538919  75.3259639  38.4580695  33.3571187
  72.2624083  40.3124118  33.5292203  71.0294511  40.3024961  33.4043678
  73.0871389  40.6322766  32.5343243  74.0749008  40.4386884  32.6176870
  72.6047726  41.2648456  31.3041417  73.1912930  40.9477112  30.4418664
  71.5528530  41.0379401  31.1307102  72.7617356  42.7473282  31.4833004
  73.3861543  43.1475570  32.4359369  72.1553871  43.5578442  30.6071860
  71.4195165  43.1775944  30.0292554  72.6482958  44.9375396  30.3103317
  73.2216695  45.3089907  31.1596644  73.5631491  44.9490429  29.0485143
  74.1886870  45.8326137  29.1754162  74.1757677  44.0532001  29.1498268
  72.9147811  44.9739519  27.6437127  72.2239047  45.8157300  27.5968046
  73.7020593  45.1089697  26.9020489  72.1530278  43.6683660  27.3511594
  72.4384806  43.3088521  26.3625415  72.4274825  42.9258419  28.1004470
  70.6769272  43.8546827  27.3828802  70.3275919  44.6337231  26.8432875
  69.7900613  43.0791565  28.0439051  70.1755603  42.0269812  28.7684502
  71.1561431  41.7935288  28.8321478  69.4849924  41.4688714  29.2498326
  68.4906031  43.3715162  27.9920953  68.1766562  44.1702414  27.4595773
  67.8258838  42.7929788  28.4855945  71.6046550  46.0763524  30.2333886
  71.9661691  47.2348721  30.0821219  70.3168195  45.7319297  30.2894407
  70.0504007  44.7633456  30.1847260  69.2621139  46.7204835  30.5298976
  69.7215822  47.7019881  30.4131200  68.0109981  46.6331693  29.5750116
  67.3683117  45.8135383  29.8963518  67.2324674  47.9366629  29.6262005
  67.8744058  48.7567500  29.3045303  66.3688415  47.8708858  28.9644430
  66.8947619  48.1189475  30.6464102  68.3802069  46.4096040  28.1991724
  67.5881333  46.3639582  27.6586763  68.7805018  46.4705712  31.9123312
  68.8135539  45.3348023  32.3736363  68.2906884  47.5333669  32.5577623
  68.5102166  48.4479183  32.1896558  67.5440743  47.4498111  33.8558840
  66.7356173  46.7260838  33.7523701  68.4625174  47.0066362  35.0403173
  67.9304207  46.7607134  35.9592811  68.9970990  46.1261392  34.6838801
  69.4999001  48.0180645  35.4046947  70.6676526  48.0948875  34.6857855
  70.8452380  47.3876207  33.8756392  71.5994011  49.0438827  34.9774819
  72.5325364  49.0728788  34.4148822  71.3692773  49.9611819  35.9737707
  72.1113656  50.7245242  36.2076799  70.2054545  49.9109053  36.6691459
  70.0174850  50.6333006  37.4634460  69.2624525  48.9504906  36.3739920
  68.3169607  48.9303399  36.9159691  66.7865388  48.7617843  34.2283785
  67.1181771  49.8682303  33.7670171  65.7936972  48.5833800  35.1071295
  65.6532021  47.6470595  35.4587891  64.9378448  49.6436208  35.6103742
  64.9402239  50.4957493  34.9306902  63.5108830  49.1104708  35.7195947
  63.6251888  48.2384929  36.3635574  62.8387011  49.8258284  36.1934462
  62.9249307  48.6753794  34.3687548  63.1350982  49.4056110  33.3648397
  62.1591008  47.6615600  34.3397061  65.3997745  50.0564874  36.9937480
  65.7619017  49.2066345  37.8217214  65.3267390  51.3357731  37.2983445
  65.0747392  52.0611824  36.6423134  65.6939208  51.7178111  38.6170156
  65.1918780  51.0478675  39.3150326  67.1788036  51.5880410  38.8104422
  67.6951430  52.2596800  38.1245889  67.4362440  51.8494368  39.8368422
  67.4833880  50.5607643  38.6103667  65.2604316  53.0811829  38.9265724
  64.9577703  53.8783304  38.0299554  65.3139913  53.3499434  40.2212137
  65.8773519  52.7374900  40.7935991  64.6778554  54.4784727  40.8501579
  63.9529377  54.9290589  40.1722452  63.9459421  54.0171665  42.1124960
  63.5454757  53.0313319  41.8761573  64.7145258  53.9222140  42.8795443
  62.8336391  54.9032622  42.6217035  63.2824398  55.7321630  43.1690628
  62.2602198  55.2922581  41.7802913  61.8718842  54.1491734  43.5684767
  62.2172792  53.1144345  44.1539584  60.6461953  54.6684060  43.7006364
  59.9735140  54.2196070  44.3057652  60.3990312  55.5068755  43.1946916
  65.8065434  55.3771952  41.2323337  66.6337287  55.0222077  42.0664843
  65.7930684  56.5793634  40.6924863  64.9127994  56.9970535  40.4264772
  67.0011284  57.2977463  40.4051431  67.8749650  56.9318295  40.9442289
  67.2542306  57.1974927  38.8900255  66.4150473  56.6601987  38.4482258
  67.3968680  58.5751040  38.2112658  68.2361973  59.1128400  38.6522500
  67.5737284  58.4385115  37.1444183  66.4816262  59.1489181  38.3567616
  68.4893077  56.3228577  38.6377950  69.3357918  56.8399906  39.0896123
  68.3178062  55.3819833  39.1607119  68.7930764  56.0387363  37.1607108
  68.9651605  56.9791761  36.6372035  69.6829714  55.4137604  37.0859367
  67.9471733  55.5211705  36.7083024  66.8905971  58.7619249  40.8880727
  66.4224841  59.6248256  40.1560408  67.3554772  59.0692474  42.0912723
  67.8292114  58.3998997  42.6808898  67.1471834  60.4238903  42.6071778
  66.7364125  61.3563210  42.2199578  67.1442995  60.4858009  44.1324253
  66.2580217  61.0618808  44.3984007  67.1332517  59.1777896  44.8752083
  68.0195245  58.6013096  44.6100814  67.1322833  59.3687666  45.9483473
  66.2399294  58.6141333  44.6061943  67.4983983  61.7904211  44.8089525
  66.7937045  62.5629138  44.5011152  67.4491075  61.6645240  45.8905346
  68.5080745  62.0858798  44.5237174  68.2095209  61.3926568  42.1137981
  69.3421329  61.3580171  42.5325190  67.7689067  62.3314233  41.3089363
  66.7923017  62.3119727  41.0521023  68.5839728  63.3927250  40.7990609
  69.5122569  63.0283449  40.3590439  67.7926863  64.1625788  39.7492758
  66.8129131  64.4078676  40.1591273  68.4945563  65.4111493  39.3664713
  69.4742931  65.1666252  38.9560760  67.9090727  65.9422166  38.6159532
  68.6170519  66.0438579  40.2455468  67.5601163  63.2626210  38.5481829
  66.5850692  62.7968771  38.6912447  67.5271819  63.9119486  37.6733181
  68.6084851  62.1862960  38.3394288  68.6416808  61.5362512  39.2137512
  68.3543572  61.5968235  37.4584973  69.5837944  62.6513230  38.1958268
  68.9536903  64.3482025  41.9005439  68.0765648  65.0186232  42.4853344
  70.2390558  64.3848438  42.2226604  70.8904777  63.7604383  41.7689351
  70.7359420  65.2518964  43.2722765  69.8678864  65.5738341  43.8475459
  71.7031221  64.5123418  44.1851334  71.8398125  65.0882362  45.1004266
  71.1626804  63.1507792  44.5259060  71.0261533  62.5740915  43.6110878
  71.8652047  62.6335664  45.1793976  70.2044524  63.2565123  45.0345499
  73.0189810  64.2802849  43.5071592  72.8575515  63.6563923  42.6280691
  73.4313763  65.2411621  43.1993529  73.9807262  63.5976850  44.4347003
  73.5691974  62.6364630  44.7425903  74.9296302  63.4387675  43.9224254
  74.1430205  64.2212323  45.3138757  71.4099839  66.5121823  42.7981848
  71.2887940  67.5535208  43.4198181  72.1525777  66.4076538  41.7144020
  72.2439608  65.5411071  41.2036717  72.8353635  67.5695287  41.2132392
  72.4752941  68.4774538  41.6971000  74.3031984  67.4073005  41.5236609
  74.3564321  66.9762664  42.5233984  74.6896515  66.6909653  40.7986657
  75.1317291  68.6689373  41.4750365  75.3093469  68.9221855  40.4298484
  74.5732981  69.4735279  41.9534588  76.4594371  68.4856222  42.1827801
  77.3127700  69.3809869  42.0868740  76.6621527  67.4429834  42.8361895
  72.7163887  67.7430911  39.7499911  73.1185672  66.8789982  39.0123300
  72.1603614  68.8525746  39.3189028  71.6382987  69.4616326  39.9325788
  72.1328224  69.1213480  37.9073592  73.1512663  69.0841364  37.5207243
  71.3066691  68.1375687  37.1632771  71.7012407  67.1330916  37.3163726
  70.2630286  68.1690131  37.4762080  71.3183406  68.3787631  35.7050758
  70.9264322  69.5796447  35.1592689  70.6060202  70.3785397  35.6876652
  71.0382397  69.5124951  33.8472003  70.7634070  70.3627266  33.2229630
  71.5034178  68.3181761  33.5286465  71.6901058  67.5923238  34.6748555
  72.0759966  66.5744706  34.6186023  71.7620215  70.5305613  37.5705006
  70.8532740  71.0841455  38.1333296  72.4779557  71.1053989  36.6365408
  73.2734698  70.6185477  36.2489423  72.2431233  72.4679812  36.2251699
  72.1639182  73.0094977  37.1678180  73.4445194  72.9982064  35.4599184
  74.3490082  72.8391234  36.0470231  73.5316898  72.4718575  34.5094142
  73.2635454  74.4899224  35.1998106  72.3594399  74.6497661  34.6123208
  73.1767608  75.0170334  36.1499287  74.4689701  75.0219265  34.4319905
  75.3734597  74.8628424  35.0190934  74.5561384  74.4955783  33.4814861
  74.2879961  76.5136435  34.1718849  73.3838904  76.6734882  33.5843961
  74.2012147  77.0407525  35.1220029  75.4499456  77.0264594  33.4317551
  75.5302856  76.5384571  32.5511309  75.3300887  78.0144163  33.2594892
  76.2877637  76.8788272  33.9761489  70.9905987  72.7282324  35.4405932
  70.4315852  73.8031584  35.4940334  70.5791567  71.7600222  34.6558024
  71.0432472  70.8636427  34.6208306  69.4456694  71.9809807  33.7815977
  68.9024537  72.8720060  34.0963830  69.9156611  72.1791602  32.3478349
  69.0531629  72.4565972  31.7418443  70.6430054  72.9909173  32.3368545
  70.5134576  70.9971823  31.8119677  70.7957479  71.1623366  30.9093958
  68.5396288  70.7614005  33.9126505  68.0737878  70.4975242  35.0295652
  68.4343989  69.9306223  32.8567461  69.1831897  69.8974386  32.1797597
  67.2983184  68.9970379  32.6924464  66.8372313  68.7529564  33.6494846
  66.2057605  69.5371877  31.7098964  66.1524933  68.8654079  30.8531731
  64.8267164  69.6200541  32.3817196  64.8790819  70.2920643  33.2383180
  64.0961023  69.9992571  31.6672205  64.5250947  68.6277219  32.7169812
  66.5928137  70.8761147  31.1104491  66.1597060  71.6598994  31.7318990
  67.6798257  70.9530592  31.1346151  66.1057411  71.0370371  29.6803857
  65.0187051  70.9606674  29.6554808  66.4097494  72.0122328  29.3000286
  66.5388234  70.2538253  29.0581970  67.6346770  67.6679166  32.0641396
  67.1121628  67.3915538  30.9595798  68.1357339  66.7347701  32.8700513
  68.3854854  66.9399891  33.8269257  68.3928587  65.3461135  32.3471749
  69.0151645  65.4038634  31.4541465  69.0334117  64.3747517  33.3571611
  69.7644298  63.7646312  32.8266276  69.7119019  65.1015663  34.4853795
  68.9813743  65.7115838  35.0167069  70.1494583  64.3780922  35.1732968
  70.4973544  65.7425831  34.0850535  67.9903135  63.4126455  33.8873985
  67.0986461  63.9755692  34.1633459  67.7396879  62.6969583  33.1044056
  68.5025127  62.6877012  35.0727950  68.7529333  63.4027475  35.8564391
  67.7381662  62.0018716  35.4381871  69.3939770  62.1241381  34.7974989
  67.1519525  64.5816488  31.8090155  66.1188632  64.5433839  32.4516414
  67.3588860  63.7955515  30.7501706  68.2890189  63.4458816  30.5693857
  66.3322451  63.5772759  29.7430434  65.4582339  63.0725407  30.1546816
  65.9099088  64.9728798  29.2570477  65.0028686  65.2682363  29.7844393
  66.7080498  65.6796569  29.4840652  65.5612350  65.1644229  27.5400259
  65.2601012  66.4583603  27.6028164  66.7758330  62.5399790  28.6229903
  67.9083415  62.5575692  28.1661314  65.8812942  61.5818687  28.2657397
  64.5547383  61.9794160  27.7221675  64.6750067  62.8875714  27.1314988
  63.8783022  62.1747346  28.5542634  64.1147685  60.7956099  26.8859027
  64.4299114  60.9239906  25.8503823  63.0310149  60.6856027  26.9243469
  64.7943493  59.6221901  27.5231285  64.9261338  58.8755345  26.7400338
  64.2805712  59.1709224  28.3719449  66.1656380  60.1631652  27.9663835
  66.6072615  59.7009873  28.8492530  67.0903698  60.0389445  26.8366661
  66.9099071  60.7055721  25.8319657  68.0369728  59.1512147  26.9442040
  67.9863319  58.3799119  27.5943015  69.2152646  59.2656042  26.1013323
  69.6770215  58.2798311  26.0453758  68.8817603  59.5669259  25.1083170
  70.2552167  60.2767944  26.6076651  71.1766854  60.6681422  25.8681765
  70.0980081  60.6821858  27.8732766  69.1766947  60.6302094  28.2838608
  71.1958301  61.2088760  28.6921229  71.6392125  62.0662907  28.1858115
  70.7059740  61.6598923  30.0955350  69.8742325  62.3563431  29.9894139
  70.3404077  60.7176972  30.5038605  71.7433805  62.2500560  31.0352949
  72.3276808  63.4933727  30.7332047  72.0427414  63.9920734  29.8068102
  73.2540419  64.0895198  31.5903382  73.6956024  65.0537251  31.3384767
  73.5759151  63.4631210  32.8166592  74.5393640  64.1017421  33.6048403
  74.8741016  64.9089681  33.2074279  72.9745194  62.2218436  33.1662109
  73.2195294  61.7289232  34.1070085  72.0571587  61.6329856  32.2843415
  71.5736134  60.6925781  32.5487611  72.2182998  60.1261221  28.8448698
  71.9236583  58.9942263  29.3184595  73.4377010  60.5167045  28.5068194
  73.5833405  61.3709896  27.9880848  74.5465099  59.6859743  28.7481866
  74.2268332  58.6587993  28.9237355  75.4316628  59.7107735  27.5515620
  74.9239348  60.5366739  27.0533652  76.4968748  59.9303416  27.6237648
  75.2542953  58.4817305  26.7342082  74.4954216  58.5071795  25.7706019
  75.6711655  57.3389064  27.2971098  75.5786440  56.4683523  26.7934481
  76.0759011  57.3535493  28.2223533  75.2944741  60.0098484  30.0177071
  75.4426850  61.1886922  30.3706613  75.7041568  58.9582438  30.7394555
  75.4211215  58.0278035  30.4669279  76.5087318  59.1133372  31.9659722
  77.2755197  59.8639397  31.7743182  75.6408345  59.5883091  33.1295344
  74.8738101  58.8428158  33.3393284  76.2625637  59.7279701  34.0138691
  75.1658589  60.5335940  32.8669819  77.2104278  57.8264971  32.3372003
  76.9332872  56.7925285  31.7781725  78.1115023  57.9137299  33.3034022
  78.2624517  58.8078085  33.7483034  78.8205878  56.7436879  33.8345946
  78.9775567  55.9735646  33.0793662  80.1996706  57.0906693  34.4894499
  80.0231706  57.5821178  35.4462286  81.0243106  55.8209089  34.7129991
  81.2016229  55.3291203  33.7565446  81.9791588  56.0827344  35.1688641
  80.4802979  55.1452515  35.3730286  81.0074887  58.1435329  33.6981313
  80.4344461  59.0684814  33.6333673  81.9513895  58.3364554  34.2079664
  81.2073262  57.7694775  32.6940156  78.0086151  56.1925345  34.9673450
  77.3312817  56.9355504  35.6512367  78.2092603  54.9259469  35.2614375
  78.9710798  54.4134351  34.8406501  77.3538067  54.2395646  36.1675922
  76.7797892  54.9554375  36.7559196  76.3720010  53.3443901  35.3864353
  75.4958603  53.9769061  35.2436062  76.8367642  53.1449022  34.4208785
  75.9448134  52.0156826  36.0338804  76.7961652  51.3353798  36.0559953
  75.4604800  52.2647557  37.4488436  74.6087874  52.9446551  37.4275043
  75.1594343  51.3202040  37.9019376  76.2645255  52.7087282  38.0357845
  74.8565093  51.3649627  35.2148158  75.2263629  51.1691841  34.2083475
  74.5618424  50.4253890  35.6822277  73.9943683  52.0297788  35.1616048
  78.1821010  53.4136937  37.0754285  78.6910210  52.3907849  36.6852423
  78.2882366  53.8021493  38.3181479  77.8405407  54.6340269  38.6754256
  79.1237382  53.0234603  39.2242773  79.8301080  52.4226665  38.6514007
  79.9050181  53.9423425  40.1474145  79.2145744  54.5717983  40.7088165
  80.5146772  53.3637945  40.8414592  80.8267243  54.8559811  39.4339672
  82.1565419  54.9632714  39.7676479  82.6113411  54.4639390  40.5185971
  82.7323671  55.8229114  38.9460316  83.7909183  56.0603067  39.0519176
  81.8252634  56.2599869  38.0843926  80.6145685  55.7005201  38.3928241
  79.7265119  55.9748832  37.8234547  78.3144773  52.0837068  40.0351417
  77.7658099  52.4870977  41.0407723  78.3568071  50.8189364  39.7004044
  78.9041150  50.4852016  38.9199081  77.6953890  49.8587986  40.5222672
  77.0827425  50.3473677  41.2799371  76.8312534  48.9637779  39.6809625
  77.4636573  48.3636799  39.0267088  76.0197608  48.0539625  40.5676737
  75.3867183  48.6533722  41.2219410  75.3951838  47.4074062  39.9512571
  76.6897917  47.4423280  41.1718765  75.9504237  49.8311749  38.8121728
  75.5521655  50.6310580  39.4364149  76.5751122  50.2595125  38.0283420
  74.8177543  49.0730769  38.1893419  74.1923181  48.6448059  38.9726128
  74.2206242  49.7489513  37.5771910  75.2152652  48.2732586  37.5645414
  78.7753848  48.9994993  41.0989949  79.5316034  48.3974436  40.3672562
  78.8761938  48.9689827  42.4118206  78.3759765  49.6598043  42.9527896
  79.8626953  48.1466118  43.0890376  80.0896330  48.6135333  44.0474648
  79.4090647  46.7106766  43.3411221  80.2664587  46.1918691  43.7698569
  78.5664192  46.6494927  44.0298203  79.0179136  45.9510557  42.1203671
  79.5106917  44.6976958  41.8500047  80.1768732  44.2067127  42.4290016
  78.9795650  44.2498295  40.7296533  79.2564181  43.2725814  40.3341316
  78.1439296  45.1615132  40.2746584  78.1341626  46.2255053  41.1382064
  77.4809655  47.0768412  40.9467330  81.2298841  48.2567773  42.4559970
  81.6785360  49.3464274  42.1592038  81.8765039  47.1289847  42.2139295
  81.4795328  46.2263975  42.4326750  83.1781366  47.1715943  41.6037930
  83.8439979  47.8088539  42.1857106  83.8142055  45.7939607  41.4730184
  84.8530124  45.9153690  41.1660323  83.7618340  45.0558905  42.7707209
  82.7232492  44.9336826  43.0781402  84.2223923  44.0753196  42.6504469
  84.3015910  45.6193580  43.5318170  83.1408442  45.0506448  40.4569401
  83.5429402  44.1826950  40.3758081  83.0704636  47.7360152  40.2207812
  83.8941143  48.5131726  39.8118974  82.0433657  47.3560077  39.4942187
  81.3614813  46.7053874  39.8572974  81.9139060  47.7897170  38.1192578
  82.8315559  47.5719766  37.5728085  80.7736338  47.0684123  37.4514219
  81.0016701  46.0110868  37.3166571  79.8528666  47.1706536  38.0257340
  80.4145100  47.7110421  35.8186886  79.4118607  46.8768704  35.5583996
  81.7426859  49.2602857  37.8909673  81.2785159  49.9661049  38.7414356
  82.1362300  49.6923637  36.7002462  82.5882779  49.0472901  36.0680815
  82.0335199  51.0615796  36.3106857  81.1419518  51.4715028  36.7852048
  83.3016299  51.8671120  36.7906781  84.0941599  51.1632352  37.0447531
  83.7805993  52.7899637  35.7032946  82.9887142  53.4944821  35.4489867
  84.6561819  53.3382639  36.0508903  84.0444084  52.2067048  34.8210741
  82.9932549  52.7735422  38.0220298  83.4623525  53.7331989  37.8049877
  81.9099692  52.8937257  38.0341730  83.4668865  52.2715427  39.3914076
  84.5502037  52.1515527  39.3801801  83.1897742  52.9936625  40.1594252
  82.9978218  51.3120778  39.6093644  81.8187834  51.1603177  34.8061094
  82.7809918  51.2693842  34.0437836  80.5809020  51.0097043  34.3596642
  79.8126309  50.7993090  34.9806252  80.3251627  51.0302936  32.9308211
  81.2700749  51.1805972  32.4086629  79.6904030  49.7362743  32.4279374
  80.2308120  48.9044604  32.8797593  78.6542148  49.7220851  32.7658912
  79.7315517  49.6026794  30.8989255  78.7372510  49.9283988  30.5933541
  80.4789957  50.2748697  30.4775150  79.9856872  48.1518725  30.3807822
  81.0552061  47.5377562  30.7206416  79.1573689  47.6602580  29.5603713
  79.5050150  52.1933700  32.5044411  78.7040753  52.6861563  33.2315719
  79.7759097  52.6720367  31.3103120  80.4837743  52.2353711  30.7372935
  79.0911377  53.8150470  30.7889755  79.0994333  54.6227219  31.5208851
  79.7826030  54.2999625  29.5210197  80.7820249  54.6293683  29.8051799
  79.8596848  53.4450386  28.8492581  79.0621943  55.4262175  28.8207578
  78.2610389  55.7642451  29.4780159  79.7618351  56.2446167  28.6509796
  78.4755913  54.9818190  27.4981483  79.2843596  54.6701297  26.5881853
  77.2202005  54.9596744  27.3605998  77.6979246  53.3570214  30.5066729
  77.4757366  52.1630576  30.3426334  76.7474935  54.2860208  30.5729055
  77.0200156  55.2488192  30.7102015  75.3044265  53.9627843  30.5456489
  75.0807340  53.1474219  29.8577208  74.7761610  53.5772727  31.9661127
  75.3895291  52.7613719  32.3484539  74.8342185  54.7481876  32.9302359
  74.2206749  55.5643684  32.5487729  74.4580590  54.4362552  33.9045576
  75.8656746  55.0859826  33.0307074  73.3739667  53.0391456  31.8876559
  73.3597917  52.1513737  31.2553883  73.0280194  52.7778808  32.8877362
  72.7163946  53.7976171  31.4628963  74.4652695  55.1196139  29.9536138
  74.9283774  56.2818666  29.8341871  73.2562117  54.7616231  29.5360268
  72.9905039  53.7912989  29.6252999  72.2814546  55.6983412  28.9840607
  72.5992290  56.7277612  29.1496295  72.1710112  55.4577442  27.4807472
  73.1329330  55.7491653  27.0589896  72.0316748  54.3836275  27.3584416
  71.0643095  56.1931642  26.7643711  70.1199988  55.9692060  27.2605775
  71.2667494  57.2618688  26.8349943  70.9744713  55.7851984  25.2831506
  72.0078649  55.3351083  24.7111946  69.8613230  55.9098061  24.6881660
  70.9492846  55.4133849  29.6425348  70.6266298  54.2623284  29.9321895
  70.1919646  56.4428091  29.9578015  70.5145342  57.3988925  29.9136126
  68.8716821  56.1914235  30.4713318  68.7909971  55.1441869  30.7626816
  68.5153527  57.0742965  31.6539964  67.6813407  56.6221474  32.1907324
  69.6995249  57.2255241  32.5936960  70.5338375  57.6780657  32.0577583
  69.4191599  57.8622488  33.4327896  69.9963742  56.2449113  32.9656881
  68.0553392  58.4395564  31.1907091  68.7969852  58.8184559  30.4875042
  67.1016410  58.3120541  30.6785546  67.8881084  59.4313393  32.3355666
  68.8415700  59.5597201  32.8479425  67.5567438  60.3913764  31.9398074
  67.1462269  59.0533168  33.0389944  67.9523016  56.3755642  29.3006616
  67.8890091  57.4352901  28.6871298  67.3559949  55.2609719  28.9248382
  67.1485197  54.5626824  29.6244418  66.9624545  55.0007449  27.5600661
  67.6658384  55.4830505  26.8812940  66.9414891  53.4938129  27.2564653
  66.3990478  53.3173543  26.3276380  68.3394861  52.9952970  27.1174669
  68.8824560  53.1710012  28.0461279  68.3250687  51.9268637  26.9021961
  68.8345931  53.5229989  26.3022980  66.2914378  52.7762552  28.3122997
  66.2873172  51.8385513  28.1066429  65.5881410  55.5072890  27.2851180
  65.3662302  56.0915456  26.2205670  64.6213036  55.1039264  28.1272142
  64.4222021  54.1208720  28.2457973  63.7121597  56.0770926  28.7432774
  64.2043141  57.0246815  28.5242833  62.2981722  56.0967926  28.1131478
  61.7893295  55.1579505  28.3316761  61.7255980  56.9253686  28.5299463
  62.3826408  56.2209476  27.0335415  63.6478823  55.9533161  30.2564756
  64.1448238  54.9873718  30.8824418  63.2820197  57.1018108  30.8080457
  63.5429472  57.9477417  30.3218183  62.6240246  57.2228257  32.0861048
  62.9161974  56.4018868  32.7409280  63.0298642  58.5461404  32.7479549
  62.2961841  58.6926834  33.5406326  64.0147179  58.3924405  33.1890213
  63.0619192  59.7854713  31.8463522  63.9200075  59.6761582  31.1831508
  61.7946495  59.9891605  31.0114035  60.9361420  60.0990225  31.6739697
  61.9004155  60.8871381  30.4026749  61.6439939  59.1265235  30.3623576
  63.2723433  60.9857626  32.7080524  64.2169112  60.8883884  33.2432246
  63.2984312  61.8803237  32.0858135  62.4555848  61.0664271  33.4253374
  61.0755172  57.0916645  31.9460989  60.4887624  57.3444904  30.8527820
  60.4658087  56.7460773  33.0963071  60.8439759  57.1578327  33.9374649
  59.2378718  55.9011319  33.2109690  58.8912268  55.5903944  32.2253836
  59.4167786  54.6374540  34.1247106  59.6480394  54.9439385  35.1448508
  58.1197730  53.8527100  34.1149446  57.8880747  53.5454625  33.0951331
  58.2241437  52.9694824  34.7451165  57.3132060  54.4781390  34.4975508
  60.6057531  53.7722828  33.7185353  61.2092802  54.3694369  33.0349690
  61.1748451  53.5747239  34.6269429  60.2397936  52.4514978  33.0512830
  59.6710436  52.6482742  32.1424914  61.1496722  51.9068713  32.7990883
  59.6366062  51.8535619  33.7344649  58.1268026  56.6792216  33.9158374
  57.1709895  57.1218584  33.3045691  58.2715066  56.7912376  35.2218310
  59.1248939  56.4732961  35.6585718  57.2991933  57.3826639  36.0250688
  56.6000922  57.9490141  35.4097606  56.5394436  56.3309573  36.7660179
  56.5454322  55.3759015  36.2407258  56.9176522  56.1904746  37.7786002
  54.8201926  56.7913057  36.9383036  54.4505922  55.7014562  37.6050284
  57.9973611  58.2239533  37.0021107  58.6991932  57.7253876  37.8539775
  57.7089708  59.5014898  36.9594778  57.2330163  59.8814992  36.1537735
  58.0731049  60.4070492  38.0343149  59.1493791  60.5773158  38.0615582
  57.3828810  61.7235527  37.7687015  57.2176870  61.6983489  36.6915873
  56.4290807  61.8575613  38.2790022  58.2981884  62.8679366  38.1086367
  58.8233171  62.6216076  39.0314924  59.3301192  63.1405090  36.9842591
  58.8057112  63.3873776  36.0611388  59.9701121  63.9745546  37.2721443
  59.9411106  62.2515104  36.8278258  57.4128904  64.0593802  38.4913004
  56.7967182  63.7937656  39.3502999  58.0414090  64.9128251  38.7456577
  56.7701309  64.3199661  37.6504353  57.6578521  59.8601752  39.4243764
  56.8791658  58.9568636  39.4658240  58.2230138  60.3512016  40.5392670
  59.1399015  60.7725443  40.4958317  57.6028812  60.1522966  41.8720586
  56.5253626  60.3014167  41.9414566  57.9575341  58.7885892  42.5215950
  57.0377440  58.2113968  42.6161164  58.9640503  58.0038398  41.7061358
  59.8843352  58.5802366  41.6115663  59.1778068  57.0581695  42.2042485
  58.5554123  57.8075398  40.7148826  58.3080976  58.8959406  44.0195288
  57.4573199  59.3058044  44.5638551  58.5455944  57.9061730  44.4094711
  59.1695111  59.5518330  44.1455161  57.8419494  61.2499768  42.8779166
  58.9882238  61.6668937  43.0932241  56.7615224  61.6836793  43.5364769
  55.8561113  61.2942202  43.3159054  56.8263307  62.7943883  44.4894791
  57.5914684  63.5000049  44.1657992  55.4800158  63.5392669  44.5900277
  55.4183925  64.3210927  43.8330269  54.7339182  62.7725381  44.3813045
  55.2104011  64.1585273  46.0024790  56.1203885  64.8092166  46.5997144
  54.0378581  64.0527621  46.4834714  57.3141751  62.2909209  45.8466569
  57.0317314  61.1489568  46.2967341  58.1396371  63.1415336  46.4442358
  58.2247684  64.0801957  46.0812407  58.9797268  62.7579720  47.5618559
  59.3525780  61.7440857  47.4165434  60.1893075  63.7186934  47.6746649
  59.7975668  64.7356756  47.6550254  60.6628204  63.5308355  48.6383012
  61.2072985  63.5506566  46.5729630  61.4200140  62.4893449  46.4446263
  60.7978688  63.9532506  45.6464710  62.4840140  64.2817729  46.9187385
  62.2307254  65.3243716  47.1109148  62.8905901  63.8340832  47.8255843
  63.5307888  64.2080041  45.7984074  63.4224540  63.2243540  45.3414646
  63.2598941  64.9762934  45.0742205  64.9647751  64.4069898  46.2306063
  65.2161258  63.6949170  46.9013335  65.5712848  64.3404910  45.4257312
  65.0654687  65.3185738  46.6536600  58.1634752  62.7395284  48.8524923
  58.2744861  61.8378474  49.6627620  57.3283911  63.7358782  49.0259816
  57.2574438  64.4943605  48.3628297  56.5341526  63.7940050  50.2043620
  57.1659634  63.9308034  51.0819727  55.5814040  64.9646927  50.1075045
  55.2342507  65.0118982  49.0753440  54.7387392  64.7483598  50.7641751
  56.1971441  66.3000152  50.4965405  56.7292022  66.1857673  51.4409782
  56.8974746  66.6093669  49.7206921  55.1052790  67.3627447  50.6514222
  55.1783559  68.0418490  49.8019659  54.1408157  66.8554175  50.6284186
  55.2317777  68.1580481  51.9519451  56.0949463  67.7700042  52.4927431
  55.4091955  69.1998672  51.6850460  54.0070865  68.0652362  52.8274280
  53.8427602  67.0999896  53.0752095  54.1512341  68.6084200  53.6666376
  53.2072211  68.4251519  52.3266534  55.7566047  62.4778652  50.4327896
  55.7940984  61.9129926  51.5227883  55.1101866  61.9679515  49.3783776
  55.2048638  62.4135538  48.4769487  54.1594303  60.8525445  49.5087378
  53.7844603  60.8203436  50.5317040  52.9443125  61.0072982  48.5355159
  52.5055196  60.0179102  48.4063985  52.2224805  61.6637188  49.0214897
  53.2896553  61.5419232  47.2639262  52.5012411  61.6094764  46.7203828
  54.8393060  59.4864743  49.3400655  54.9670958  58.7355010  50.3083056
  55.3443562  59.2155403  48.1248169  55.6970438  59.9819901  47.5696002
  55.4108234  57.8371403  47.5526102  56.4550866  57.5585518  47.4111817
  54.9397314  57.1393748  48.2449216  54.6863245  57.7647834  46.1994267
  54.6633392  56.7028856  45.4986174  54.0641853  58.8910122  45.8501236
  54.3054211  59.7726215  46.2798555  53.0380140  58.8795748  44.8631648
  52.3769583  58.0339994  45.0531830  52.1978464  60.1737946  44.8711229
  51.5632989  60.1489703  45.7570306  52.8883289  61.0141458  44.9428431
  51.3212468  60.3363304  43.6172360  51.9730373  60.7013503  42.8234914
  50.9613057  59.3397415  43.3615955  50.1348665  61.2798064  43.7739807
  49.5422931  61.5937458  42.7161221  49.7892501  61.7024512  44.9242544
  53.7416449  58.7308651  43.5682424  54.3373234  59.6767356  43.0803613
  53.7017973  57.5421431  42.9978835  53.4606217  56.7005090  43.5014564
  54.0514824  57.4280465  41.6028497  55.1067588  57.6634610  41.4647519
  53.8031993  56.0242018  41.1138286  53.1932812  55.5214031  41.8643568
  53.2431305  56.0987308  40.1816975  55.0709888  55.2290933  40.8785815
  54.8719132  54.5035215  40.0899020  55.8458081  55.9208324  40.5480451
  55.5450791  54.4954787  42.1402966  55.8603730  55.2328650  42.8785041
  54.7157041  53.9126565  42.5409894  56.7228583  53.5569002  41.8172058
  57.5726021  54.1913923  41.5653011  56.9428650  53.0007613  42.7284717
  56.4651434  52.5885984  40.6865177  56.2616829  53.1037322  39.8419227
  57.2834124  52.0144822  40.5418578  55.6780553  52.0002838  40.9199216
  53.2609853  58.4017492  40.7556034  52.3634339  59.0615374  41.2273863
  53.6492715  58.5454014  39.5113294  54.3003827  57.9175445  39.0619417
  53.1334608  59.6241781  38.7609533  52.6191725  60.3151379  39.4289213
  54.2201307  60.3651008  38.0521063  54.9370683  60.7621765  38.7707373
  54.7341806  59.7043759  37.3540408  53.6283125  61.4296048  37.3420308
  54.3089800  61.9216939  36.8771223  52.1863886  59.1496607  37.7488285
  52.1880872  57.9960727  37.3607565  51.4816474  60.0973354  37.1787148
  51.8102862  61.0523526  37.1848770  50.2382557  59.8067965  36.5098184
  49.7447075  58.9511339  36.9706339  49.3214385  61.0205463  36.6284084
  49.7467443  61.8187383  36.0200468  48.3464620  60.7405578  36.2295007
  49.1604437  61.5113583  38.0785922  48.2396053  62.0925501  38.1273133
  49.0676422  60.6306144  38.7140293  50.3277132  62.3668246  38.5628041
  50.9579512  61.7695231  39.2216895  50.9106045  62.6943336  37.7019470
  49.8163293  63.5755978  39.3143119  48.8518759  63.3417668  39.7651479
  50.5266385  63.8445152  40.0961325  49.6591796  64.7207778  38.3700107
  49.0007036  64.4719535  37.6457210  49.3176665  65.5273612  38.8728945
  50.5528352  64.9378880  37.9524680  50.5770982  59.5562293  35.1065241
  50.5424730  58.4279512  34.6272711  51.1704659  60.5842625  34.5471310
  51.1515662  61.4813565  35.0107736  51.7665196  60.5037677  33.2587574
  51.2715387  59.7620635  32.6318859  51.6766890  61.8921762  32.5536153
  52.6419903  62.1269302  32.1050796  50.5625782  61.8660145  31.4257351
  49.5968477  61.6317654  31.8736096  50.5112459  62.8415990  30.9423109
  50.8126569  61.1066663  30.6848224  51.3793320  62.9182998  33.5252881
  51.3254280  63.7697671  33.0851767  53.2336802  59.9897289  33.3424459
  53.7988420  59.7874647  34.4281302  53.7739816  59.6786809  32.1631726
  53.1417523  59.5512941  31.3858965  55.2260343  59.6183039  31.9016456
  55.6842783  58.8657796  32.5433767  55.4993969  59.2434999  30.4288201
  54.5188768  59.1040032  29.9736056  55.9833241  60.1151008  29.9881089
  56.3518885  58.0123353  30.1805848  57.3859066  58.2525962  30.4279346
  55.9998959  57.2116142  30.8310070  56.2683853  57.5533125  28.7079696
  55.3285586  57.9056169  28.2828739  57.1017706  57.9885417  28.1564772
  56.3264743  56.1085768  28.5750469  55.6746480  55.6837139  27.9310645
  57.1481505  55.3096852  29.2756169  58.0735849  55.8062164  30.0983289
  58.1666486  56.8063551  30.2039787  58.6768954  55.1797096  30.6117538
  57.0818798  53.9868771  29.1230650  56.4126696  53.5886830  28.4798705
  57.7011877  53.3890250  29.6513919  55.7462212  60.9746348  32.0701159
  55.0250767  61.9277084  31.7944216  57.0440727  61.0733667  32.3544720
  57.8876618  60.1403664  33.1238367  58.6647462  59.7204120  32.4851831
  57.2801834  59.3337712  33.5342914  58.4407765  61.0378779  34.1888997
  59.4870238  60.7777782  34.3495667  57.8796516  60.8689410  35.1079756
  58.2918061  62.4790803  33.7179333  59.3070411  62.8589304  33.6034312
  57.7282023  63.1421622  34.3742661  57.6126453  62.3957074  32.3547951
  56.8230113  63.1315843  32.2029350  58.6144826  62.5071059  31.2530300
  59.3611368  61.5627109  31.0080575  58.5760990  63.6286074  30.5435435
  57.8206403  64.2805217  30.6997139  59.5189730  63.9021139  29.4444839
  59.4645105  63.0415752  28.7776960  59.0513670  65.1602455  28.6687677
  58.0220428  65.0220044  28.3378895  59.1089456  66.0319157  29.3206693
  59.9506974  65.3728685  27.4556639  60.9801876  65.5116527  27.7857996
  59.8932839  64.5017435  26.8030178  59.4907105  66.6105061  26.6925845
  58.4613859  66.4722670  26.3617075  59.5482912  67.4821757  27.3444865
  60.3423112  66.8488470  25.5058365  61.1024452  66.2097287  25.3219250
  60.1523588  67.8661977  24.6704824  59.1732419  68.7490176  24.8461516
  58.5481463  68.6551820  25.6339018  59.0592958  69.5092068  24.1909965
  60.9777899  67.9859655  23.6345191  61.7202978  67.3138412  23.5040166
  60.8583217  68.7484912  22.9830741  61.0509910  64.0219086  29.9183668
  61.9787906  63.9511292  29.0860374  61.2770965  64.0957019  31.2450201
  60.5103467  63.9091985  31.8754252  62.5907888  64.3812755  31.8174791
  63.2807245  63.5588979  31.6283152  63.1289791  65.6069924  31.1810041
  64.1005106  65.8798386  31.5930487  63.2234934  65.4418481  30.1077407
  62.2628669  66.7686953  31.3498446  62.2760382  67.4831719  32.5370850
  62.9038634  67.1345680  33.3570915  61.5181494  68.6080438  32.6884845
  61.5460159  69.1695522  33.6223113  60.7243942  69.0277692  31.6653275
  60.1075270  69.9195109  31.7765557  60.7033810  68.3132681  30.4753479
  60.0803147  68.6623842  29.6519364  61.4585472  67.1759047  30.3303941
  61.4116188  66.6050692  29.4030083  62.5658671  64.6718694  33.3139643
  61.5758398  65.0741084  33.8571168  63.6966312  64.6298931  33.9497745
  64.5836058  64.5252783  33.4781484  63.7010621  64.8271813  35.3502886
  63.1711113  65.4411914  36.0784663  64.1950710  63.5377725  36.0554455
  63.4288390  63.3124686  36.7972176  64.4468859  62.3400116  35.2288263
  65.2133945  62.5644190  34.4870670  64.7864115  61.5231928  35.8657171
  63.5269579  62.0472005  34.7227674  64.8053616  63.6332557  37.4115662
  64.0822212  64.0596678  38.1067947  65.0929678  62.6385236  37.7519931
  65.6879314  64.2715205  37.3692652  64.7106713  65.9006315  35.6005042
  65.8706171  65.6720682  35.2512912  64.3508349  66.9720802  36.3461506
  63.3678587  67.1297546  36.5164324  65.3480927  67.9854481  36.8870732
  66.1973116  68.0583832  36.2076565  64.7113970  69.3652364  37.0214483
  64.1688851  69.3648542  37.9668476  65.5319629  70.0807625  37.0743070
  63.7687269  69.7585947  35.8973254  64.3088174  70.4181905  35.2181078
  63.4773222  68.8518248  35.3672747  62.4960665  70.4841115  36.4216629
  61.6767688  70.2192136  35.7533221  62.2915424  70.0940247  37.4187094
  62.6291787  72.0192882  36.4879258  61.7452036  72.4031155  36.9972049
  63.5159767  72.2460112  37.0797746  62.7498914  72.6685379  35.1344612
  61.9280681  72.4589308  34.5860353  62.8333792  73.6687562  35.2471252
  63.5691791  72.3133283  34.6625577  65.9856935  67.6166719  38.2655413
  65.9703049  66.4733971  38.7126284  66.5654029  68.5958286  38.9350443
  66.5278474  69.5588913  38.6330524  67.3538985  68.2710452  40.1337642
  68.0576723  67.4730966  39.8969527  68.1560252  69.5084466  40.6424561
  68.4325533  70.0621179  39.7451939  67.4449177  70.0938729  41.2252959
  69.4235567  69.2385140  41.4940407  69.1914261  68.9594781  42.5218321
  69.9410025  68.4146755  41.0024697  70.3615780  70.4690923  41.5155601
  71.0720729  70.7503125  40.5472310  70.2897979  71.2343913  42.5742767
  70.8786679  72.0520399  42.6434461  69.6458493  71.0039652  43.3174694
  66.4282692  67.7582743  41.1779315  65.2309455  67.8254013  41.0190104
  66.9748437  67.3884113  42.3154057  67.9034346  66.9930365  42.3540967
  66.2285945  67.5473616  43.5792827  66.7988414  67.1162988  44.4021452
  65.9826106  69.0612242  43.8811403  66.2856041  69.5584537  42.9596974
  64.9282809  69.2616040  44.0717625  66.8330370  69.5993646  45.0627722
  66.7223786  68.9930137  46.1640193  67.5280331  70.6783582  44.9052307
  64.8607516  66.8537948  43.5287272  63.9787578  67.2046698  44.3555547
  64.7839941  65.7816920  42.6855192  65.6738130  65.3502969  42.4800446
  63.5370482  65.1805631  42.0741142  62.6794955  65.3350986  42.7289588
  63.2599049  65.8520181  40.7489087  63.1999949  66.9174184  40.9712421
  64.1405127  65.6581457  40.1365008  62.0099524  65.4204391  39.9916345
  62.0774924  64.3808538  39.6710075  61.1532040  65.5406920  40.6546756
  61.7994378  66.3037419  38.7523307  62.6761283  67.0718251  38.3997714
  60.6862126  66.1731992  38.0817271  60.5236030  66.7421986  37.2632534
  59.9932107  65.5038651  38.3847808  63.7486343  63.6821467  41.8172923
  64.8474120  63.2645935  41.6521806  62.7139285  62.8666160  41.8074611
  61.7695328  63.2142007  41.8934895  62.9147260  61.3987863  41.6498816
  63.9708448  61.1757669  41.4983080  62.4085234  60.5868571  42.8569462
  61.3216324  60.6583861  42.8975761  62.8185303  59.1173770  42.7356674
  63.9053814  59.0450043  42.6954460  62.4497983  58.5642616  43.5994964
  62.3928433  58.6947775  41.8255564  62.9315358  61.1558148  44.1553230
  62.5935975  62.1864720  44.2632379  62.5576261  60.5621638  44.9895110
  64.0212187  61.1298362  44.1511877  62.1573967  60.8941066  40.4405493
  61.1482030  61.4743659  40.0797956  62.6567864  59.8364478  39.7906563
  63.5235718  59.4327620  40.1159565  61.9721620  59.1994204  38.6273574
  60.9040237  59.4095901  38.6822072  62.5071635  59.7280859  37.2929260
  61.9868318  59.2543128  36.4605240  62.3784294  60.8088178  37.2333759
  64.3245812  59.4075023  37.0168757  64.3877487  59.9861386  35.8210127
  62.2659833  57.7371395  38.7042833  63.0214077  57.2976119  39.5818085
  61.6429427  56.9736371  37.8195837  60.9067204  57.3583828  37.2450866
  62.0001103  55.5477156  37.6410977  62.9019474  55.3323122  38.2141513
  60.8789785  54.5501075  38.0456833  60.6892899  53.8610009  37.2227309
  61.3226448  53.7621105  39.2774329  61.5120872  54.4505510  40.1009995
  60.5379941  53.0616080  39.5633003  62.2347802  53.2112797  39.0478821
  59.5910916  55.3278793  38.2991933  59.8655300  56.1495328  38.9607595
  59.2895279  55.7270334  37.3307746  58.4487720  54.5602897  38.9018283
  58.7494502  54.1611927  39.8705461  57.5934884  55.2233055  39.0322091
  58.1734495  53.7386914  38.2405616  62.2901120  55.3956947  36.1942118
  61.7136680  56.1108592  35.3870309  63.3428639  54.6631387  35.8807597
  63.8269339  54.0822495  36.5503441  63.8466598  54.7332894  34.5758802
  63.0359692  54.8021772  33.8505290  64.7068279  55.9411993  34.4441024
  65.5284837  55.8824001  35.1579123  65.1084073  55.9932629  33.4321125
  64.1142790  56.8335886  34.6456623  64.5875846  53.5116371  34.2694781
  65.0025184  52.7931418  35.1907877  64.6197925  53.2075093  32.9698297
  64.1250368  53.8022290  32.3205033  65.2996123  52.0476694  32.4519367
  65.5661534  51.3821444  33.2729919  64.4093942  51.2884563  31.4803822
  63.4404827  51.1598247  31.9628380  64.2933227  51.9117960  30.5937734
  64.9657187  49.9105404  31.0701032  65.9445090  50.0913295  30.6258220
  65.0849616  49.3381052  31.9899951  64.0842343  49.1089576  30.0721001
  64.6547941  48.9753018  29.1530263  63.8767255  48.1349500  30.5152127
  62.8068324  49.7587266  29.7433118  62.8673854  50.6230753  29.2243377
  61.6035062  49.3147859  30.0997059  61.4803483  48.1556737  30.7419185
  62.3034978  47.6121381  30.9589299  60.5642982  47.8248617  31.0093420
  60.5105378  50.0216950  29.7816092  60.6042522  50.8889273  29.2724669
  59.5979780  49.6840768  30.0524363  66.5866772  52.4506168  31.7536048
  66.6905211  53.5426796  31.1906471  67.5660941  51.5491138  31.7859459
  67.3298274  50.5713714  31.8770351  68.9745334  51.9131761  31.6794259
  69.0850890  52.8669279  31.1634469  69.5643080  52.0477028  33.0913740
  68.8880257  51.4812702  33.7316049  70.5279375  51.5405843  33.0429062
  69.7550953  53.4469441  33.6661800  70.1968834  54.0850866  32.9008707
  68.4551312  54.0197424  34.0977406  68.0129238  53.3823484  34.8634300
  68.6146450  55.0182959  34.5046154  67.7820728  54.0797113  33.2424649
  70.6807146  53.4294393  34.8715275  71.6554484  53.0411790  34.5761509
  70.7953463  54.4425402  35.2569979  70.2561261  52.7920264  35.6471100
  69.7341271  50.7985161  30.9123122  69.6720417  49.6372451  31.3209344
  70.4310602  51.1479324  29.8091596  70.2905490  52.0709948  29.4240468
  71.3318055  50.1946185  29.0683834  71.2442685  49.2054817  29.5178774
  70.9691719  50.0892626  27.5640988  70.9678308  51.1016139  27.1600661
  71.7546736  49.5072720  27.0820470  69.6031787  49.4281870  27.2969541
  69.3450489  48.8759634  28.2005685  68.8901909  50.2397414  27.1515926
  69.5550736  48.4828388  26.0887621  69.8823877  47.4951932  26.4136014
  68.5242765  48.4265736  25.7389178  70.4071722  48.9180596  24.9743296
  71.2255564  48.3559550  24.7888972  70.1908617  49.9968423  24.2186031
  69.1354670  50.7837701  24.4226809  68.4823433  50.5659349  25.1616513
  68.9932907  51.5945977  23.8374937  71.0301432  50.2771185  23.2313235
  71.8226026  49.6748341  23.0599712  70.8731987  51.0916314  22.6550980
  72.8144497  50.5421576  29.2168547  73.2846991  51.5880395  28.7739318
  73.5472804  49.6101383  29.7852676  73.0979017  48.7804787  30.1455773
  74.9885054  49.7105794  29.8891518  75.2876126  50.7296367  30.1344194
  75.5252639  48.7595833  30.9869158  76.5123305  49.1012977  31.2984140
  74.6045762  48.7454062  32.1712747  73.6173667  48.4033306  31.8606282
  74.9996517  48.0712232  32.9312035  74.5268093  49.7513511  32.5837402
  75.6617678  47.4203838  30.4723214  75.9949955  46.8441888  31.1641010
  75.6239497  49.2946972  28.5636607  75.5273492  48.1335994  28.1657460
  76.3607104  50.1953746  27.9249206  76.5251782  51.1090414  28.3227430
  76.8596086  49.9252860  26.5611747  75.9665076  49.7251905  25.9692021
  77.5679662  51.1516623  25.9789277  78.4693130  51.3591647  26.5556569
  77.8381096  50.9571572  24.9410016  76.9014231  52.0128765  26.0250756
  77.7718072  48.6860864  26.4589548  78.3709830  48.4418730  25.3890795
  77.8800592  47.9196577  27.5508008  77.6675269  48.3043005  28.4601848
  78.3023597  46.5218299  27.4707142  78.3408230  46.2433626  26.4175876
  79.3006389  46.4482787  27.9021399  77.3746541  45.5631764  28.2028344
  76.2904878  45.2148421  27.6890088  77.8502663  45.0626692  29.3511446
  78.7381281  45.3981012  29.6965230  77.1455805  44.0353247  30.1262616
  76.0716028  44.2211115  30.1138413  77.4078490  42.6094700  29.5787714
  77.9974476  42.7084396  28.6673556  78.1641302  41.6965243  30.5895012
  77.5748893  41.5967006  31.5010549  78.3171694  40.7122998  30.1468044
  79.1302294  42.1409078  30.8288258  76.1597591  42.0108392  29.2436822
  76.3104598  41.1260584  28.9030172  77.5974875  44.0969625  31.5436613
  78.7701033  44.3432458  31.8292846  76.6875269  43.8049023  32.4340358
  75.7907528  43.4310304  32.1581457  76.9195621  44.0524585  33.8188208
  77.9418049  44.4010014  33.9659151  75.9323082  45.1404176  34.2920434
  74.9489023  44.9005383  33.8877278  75.8491709  45.2306215  35.7941634
  76.8321716  45.4709462  36.1991996  75.1411212  46.0109533  36.0731775
  75.5140081  44.2752964  36.1980434  76.3497873  46.5099518  33.7906699
  76.2192155  46.5172584  32.7085431  75.6807320  47.2427172  34.2418011
  77.7853907  46.8614815  34.1285304  78.4551108  46.1293710  33.6773218
  78.0180022  47.8533286  33.7409347  77.9166277  46.8548275  35.2105805
  76.7387862  42.7333638  34.5397973  76.5840506  41.7073742  33.8909343
  76.8542715  42.7309679  35.8658454  77.5723933  43.2817862  36.3141750
  76.0662175  41.7962884  36.6973621  75.2413402  41.3873399  36.1138916
  76.9400149  40.6463956  37.1762959  76.8200223  40.4676823  38.2448288
  76.7311861  39.7271788  36.6290017  78.6895153  40.9932733  36.9211420
  79.1336681  39.8445353  37.4231656  75.2623960  42.4461967  37.8818182
  75.7731345  42.6128830  39.0141344  73.9736611  42.7140235  37.6002082
  73.6256591  42.4337920  36.6944134  73.0522945  43.3597401  38.5239699
  73.5339448  44.2021644  39.0203904  71.8609821  43.8737218  37.7462413
  71.5593680  43.0217838  37.1368728  71.0432589  44.1518434  38.4111301
  72.1992954  45.0440430  36.8453831  73.2788884  45.0943109  36.7037748
  71.5168206  44.8576734  35.4919241  70.4370998  44.8077780  35.6326806
  71.7596164  45.6991776  34.8430623  71.8659550  43.9328579  35.0326618
  71.8237754  46.3713407  37.5215654  72.3765218  46.4730612  38.4554946
  72.0740279  47.2004440  36.8597023  70.7539527  46.3836218  37.7299579
  72.5199113  42.4302731  39.5843496  72.4860298  41.2202295  39.3866190
  72.0650217  43.0277817  40.6917745  72.5331869  43.8640769  41.0104139
  70.9298325  42.5254898  41.4734997  70.4460258  41.7113801  40.9338186
  71.3922687  42.0032584  42.8327613  71.8763059  42.8353671  43.3440364
  70.4968244  41.7116442  43.3816154  72.3539072  40.8204430  42.7637306
  73.1477426  41.1017946  42.0718005  72.7725525  40.6867312  43.7612057
  71.7154340  39.5133457  42.3007991  70.4890637  39.3027041  42.5502282
  72.4811498  38.7039427  41.6864653  69.9166778  43.6334517  41.6925039
  70.2499003  44.8014805  41.6389366  68.6826422  43.2631453  42.0025415
  68.4122407  42.2911872  41.9547933  67.6659951  44.2515612  42.3957941
  67.7945916  45.1515323  41.7944505  66.2273737  43.7263313  42.1966280
  65.5327399  44.5631651  42.2693830  66.0799849  43.0564872  40.8204443
  66.7740261  42.2192124  40.7471143  65.0593454  42.6933299  40.6999832
  66.3019552  43.7814022  40.0372917  65.9136715  42.7712747  43.2076334
  65.0186033  42.4496176  43.0772875  67.8769011  44.6035729  43.8415923
  68.2674331  43.7653262  44.6275721  67.6057671  45.8441403  44.1587545
  67.1748269  46.4719814  43.4952747  67.7863629  46.2935411  45.4871148
  68.8330472  46.1949808  45.7749292  67.3897703  47.7429138  45.6019321
  67.7785336  48.2772657  44.7350812  66.3062703  47.8550505  45.6413426
  67.9348809  48.4329092  46.8089494  68.5398075  47.7367753  47.8166112
  68.6333611  46.6538113  47.7357620  69.0246426  48.3834638  48.9165707
  69.5209023  47.8185092  49.7056546  68.8881252  49.7383746  49.0287695
  69.2713143  50.2562213  49.9080311  68.2708009  50.4428889  48.0375413
  68.1527009  51.5232439  48.1211221  67.7995155  49.7877612  46.9361038
  67.3059536  50.3452592  46.1400557  66.7316768  45.4285049  46.0638942
  66.0083882  44.8093680  45.3086431  66.6801839  45.3066247  47.3776608
  67.3232260  45.8130501  47.9693783  65.6881663  44.4585575  48.0085207
  65.6140811  44.6180517  49.0842400  64.3059597  44.6544168  47.3898755
  63.9613687  45.6702582  47.5833247  64.3621333  44.4890613  46.3139563
  63.3276596  43.6601123  48.0062454  63.6713654  42.6439701  47.8127971
  63.2705979  43.8251676  49.0821649  61.9472188  43.8557195  47.3883895
  61.6026276  44.8715611  47.5818365  62.0033933  43.6903619  46.3124710
  60.9689187  42.8614157  48.0047618  61.3126241  41.8452732  47.8113149
  60.9118562  43.0264741  49.0806794  59.6382652  43.0499672  47.4091875
  59.6908349  42.8966433  46.4122784  58.9903411  42.3914459  47.8174082
  59.3194130  43.9913543  47.5886944  66.1361976  43.0550664  47.7832727
  66.3506734  42.3200497  48.7284497  66.3085343  42.6735272  46.5296284
  66.1362553  43.2895588  45.7480119  66.7781970  41.3312357  46.2554142
  66.0926021  40.6082575  46.6974112  66.8563779  41.0752853  44.7638559
  65.9556668  41.4771553  44.2998308  67.7290831  41.6030039  44.3791499
  66.9744254  39.6138004  44.4433741  67.2479648  38.8252495  45.3656038
  66.7892117  39.2480585  43.2702229  68.1549057  41.2679043  46.8707251
  68.5342752  40.2919306  47.4916664  68.8858418  42.3546170  46.6887146
  68.4742946  43.1122534  46.1626772  70.2180377  42.5368241  47.2273802
  70.2932209  42.0065120  48.1767041  71.2822683  42.0107605  46.2954921
  70.8754728  41.7777924  45.3114482  72.0751331  42.7518391  46.1941615
  71.9188089  40.7773403  46.7914363  72.5281829  40.7703420  48.0193122
  72.5454056  41.6859805  48.6104209  73.1120118  39.6286601  48.5061709
  73.5955935  39.6339625  49.4830134  73.0860443  38.4757425  47.7584948
  73.5497395  37.5652572  48.1381041  72.4724692  38.4732966  46.5277626
  72.4487509  37.5629969  45.9286866  71.8877801  39.6238317  46.0535087
  71.3936551  39.6235484  45.0819429  70.3573332  44.0175548  47.3567414
  69.6065987  44.7342855  46.7093584  71.3185675  44.4832840  48.2349475
  72.2645403  43.9848936  49.3111295  73.2814018  43.9343105  48.9218555
  71.9568115  42.9962368  49.6516580  72.1059335  45.0324900  50.3760401
  73.0978201  45.3666512  50.6803367  71.5972293  44.5826015  51.2286372
  71.3041443  46.1535554  49.8091360  71.7692558  47.1045586  50.0686805
  70.2605193  46.1623059  50.1235719  71.3912577  45.9293092  48.3165463
  70.5690134  46.3261822  47.7211436  72.6945122  46.5109083  47.8243490
  72.7009160  47.3683906  46.9612656  73.8014018  46.0238418  48.3463094
  73.7648222  45.2995185  49.0492440  75.0954232  46.5802258  47.9986838
  75.0969233  47.6540359  48.1858433  76.1932405  45.9408884  48.8312633
  77.0785968  45.8876391  48.1976956  76.3856915  46.6124746  49.6679440
  75.8667285  44.5615130  49.3574188  75.0292164  44.1597185  48.7871247
  76.7343778  43.9135537  49.2331786  75.4887897  44.5856660  50.8155230
  75.5727644  45.6172818  51.4675852  75.0780771  43.4470605  51.3370759
  74.8124170  43.4078502  52.3107230  75.0309050  42.6190218  50.7606835
  75.4405924  46.4777166  46.5387166  76.2541055  47.2227013  46.0284517
  74.8331110  45.5283153  45.8743451  74.1675913  44.9315268  46.3444794
  75.1047938  45.2835090  44.4814620  76.0263901  45.7833781  44.1833169
  75.2620743  43.8166259  44.2524167  74.3025535  43.4293866  43.9096852
  76.0085165  43.6809903  43.4697757  75.6953110  43.0639740  45.5020254
  76.4268178  43.6768272  46.0287223  74.8176859  42.9238747  46.1330947
  76.4213800  41.4615152  45.1356928  76.0437696  41.2350787  43.3749240
  76.4971668  42.0417520  42.7988960  76.4434886  40.2789375  43.0371082
  74.9635518  41.2483655  43.2298232  74.0171227  45.8017570  43.5767479
  74.1103018  45.6851417  42.3513058  73.0078690  46.4220278  44.1729896
  72.9335018  46.4144837  45.1802194  71.9785732  47.1306799  43.4050109
  72.2619583  47.0365083  42.3567153  71.0458232  46.5939861  43.5783218
  71.7699944  48.6102623  43.7333397  70.7947237  49.2091700  43.2942888
  72.5686229  49.1566719  44.6371594  73.1523309  48.5965482  45.2418460
  72.5947625  50.5846928  44.7966934  71.6585719  50.9877864  44.4104787
  72.7613215  51.0416016  46.2633707  72.3627267  52.0549272  46.3122859
  72.1371124  50.3769687  46.8606362  74.1988053  51.0286637  46.8152239
  74.8606038  50.6700377  46.0268642  74.4692259  52.0511827  47.0787189
  74.3398160  50.1279973  48.0503182  73.8147975  49.1985875  47.8297465
  75.4028784  49.9229915  48.1766921  73.8178286  50.6749038  49.2977121
  73.3707781  51.5799813  49.2648496  73.8916789  50.0435383  50.4707704
  73.3985351  50.6204971  51.5721680  72.9712063  51.5336660  51.5120625
  73.4557515  50.1403485  52.4588941  74.4501865  48.8289602  50.5510839
  74.8171419  48.3892244  49.7191726  74.5018828  48.3582568  51.4431962
  73.7325654  50.9830491  43.9598632  74.5805284  50.1831406  43.6535622
  73.6198809  52.1546158  43.4118909  72.8645457  52.7765622  43.6623921
  74.5669588  52.6003806  42.4726575  75.5801909  52.3779596  42.8073048
  74.3200792  51.8794644  41.1722052  75.2020462  51.9311604  40.5338001
  74.0762660  50.8357177  41.3703160  73.1957363  52.4351384  40.3867407
  73.3591396  53.5398726  39.6141045  74.3191171  54.0552110  39.5829665
  72.3078637  54.0055293  38.8710677  72.4716939  54.8660271  38.2223738
  71.0587946  53.4101303  38.9293646  70.2246161  53.7982172  38.3448693
  70.8831020  52.3369089  39.7226629  69.9031719  51.8689781  39.8168855
  71.9650038  51.8272352  40.4240516  71.8496248  50.9237523  41.0228056
  74.4156891  54.0670658  42.2376664  73.3182498  54.6098995  42.3580344
  75.4460000  54.6659847  41.6950830  76.2422246  54.1449352  41.3565079
  75.4579047  56.0702156  41.5575371  74.5050209  56.5172392  41.8408771
  76.5439579  56.6525912  42.4329399  76.1218742  56.8642116  43.4153667
  77.7195839  55.6820663  42.5810177  78.1425095  55.4703201  41.5989805
  78.4836610  56.1303027  43.2161314  77.3704073  54.7539157  43.0334696
  76.9860872  57.8755658  41.8827538  77.6758426  58.2456735  42.4385038
  75.7411003  56.3211217  40.1257996  76.7875575  55.9676928  39.6568579
  74.8255471  56.9391675  39.4057387  73.8548754  56.9806281  39.6817405
  75.2285671  57.6288890  38.1771887  75.6487252  56.8987180  37.4855120
  74.0733034  58.3232695  37.5016352  73.3317432  58.4949436  38.2818377
  74.4153270  59.2808999  37.1091256  73.4491588  57.5106830  36.3803271
  74.1754510  57.3741077  35.5791108  73.0380103  56.1811581  36.9088518
  72.3113242  56.3169102  37.7098496  72.5893311  55.5939914  36.1075884
  73.9118982  55.6576868  37.2966639  72.2512899  58.1968351  35.7508833
  72.5587859  59.1559744  35.3342330  71.8480616  57.5687260  34.9565363
  71.4852148  58.3594582  36.5090267  76.2195246  58.6742084  38.5306989
  76.1625466  59.1785027  39.6362602  77.0988103  59.0238742  37.5863464
  76.9816725  58.6543105  36.6537154  78.2471088  59.9158657  37.8470969
  77.9495927  60.7229312  38.5165956  79.3746478  59.1319396  38.5016995
  78.9279810  58.2594131  38.9784443  80.0467085  58.8071309  37.7073862
  80.1518258  59.9217549  39.5260785  81.2149064  59.8172557  39.3091905
  79.8660487  60.9703772  39.4434673  79.8750374  59.4353212  40.9229634
  80.2930718  60.1516139  41.6302618  78.7957758  59.3747532  41.0630534
  80.4619890  58.1079527  41.1915408  79.9471511  57.3072714  40.8539749
  81.6059669  57.8977109  41.8625803  82.3456162  58.9293149  42.2949704
  82.0411577  59.8754156  42.1152527  83.2037903  58.7554921  42.7983813
  82.0329905  56.6465349  42.0885460  81.4915270  55.8629731  41.7524684
  82.8940769  56.4935992  42.5937586  78.6945367  60.4935762  36.5055624
  78.6903804  59.8003968  35.5168344  78.8704072  61.7980584  36.4157074
  78.7435211  62.3982286  37.2180758  79.2062390  62.4235979  35.1183284
  79.7614067  61.7103238  34.5091256  77.9283287  62.8541150  34.3399209
  77.2515864  62.0096213  34.2097310  77.4582070  63.6004131  34.9803309
  78.2435177  63.4875009  32.9478778  78.6254349  62.7645444  31.9858621
  78.0343390  64.7045322  32.7969368  80.1048171  63.6106537  35.3995419
  79.9045708  64.3145781  36.4104088  81.1229265  63.8139849  34.5566543
  81.1620564  63.3404104  33.6654218  82.1807580  64.7745918  34.8797395
  83.0100795  64.6593879  34.1818477  81.6487116  66.2165467  34.7782231
  80.8060168  66.2698922  35.4675119  82.4545110  66.8551040  35.1402066
  81.2065664  66.6899812  33.3978158  82.1177026  66.9521417  32.8600393
  80.7051898  65.8698420  32.8839167  80.2691299  67.9145479  33.4482967
  80.2722637  68.6905779  32.4770245  79.5546238  68.1274965  34.4634780
  82.6184028  64.5464581  36.3453070  82.7544303  65.5092943  37.1034158
  82.6341574  63.2925913  36.8020638  82.2451302  62.5404595  36.2515595
  83.2139647  62.9690063  38.1112090  83.3253894  61.8854418  38.1508514
  84.1979432  63.4364972  38.1477852  82.3994968  63.4295774  39.3190759
  82.5470802  62.8590890  40.4152160  81.4514573  64.3529372  39.0930373
  81.4653346  64.8907067  38.2382211  80.3526901  64.5893085  40.0511856
  80.7759207  64.8629237  41.0176792  79.4322288  65.7000817  39.5944813
  79.3407783  65.6175116  38.5114678  78.4604414  65.5227319  40.0552160
  79.9094505  67.0711274  39.9507986  79.0815962  67.6441081  40.3684720
  80.7071343  66.9948216  40.6897033  80.4350976  67.7726371  38.7087706
  81.5240530  67.7271364  38.7230765  80.0613959  67.2445786  37.8315017
  79.9880563  69.2302095  38.6532567  80.5707655  69.7308503  37.8800108
  78.9328217  69.2475587  38.3807164  80.1778076  69.9390744  39.9581958
  81.1556086  69.9234864  40.2107071  79.8682182  70.8963493  39.8694309
  79.6376014  69.4755813  40.6747504  79.4775297  63.3935199  40.2192030
  79.2451939  62.6360914  39.2855767  78.8069308  63.3770936  41.3498543
  79.1257603  63.9282743  42.1338485  77.6378284  62.5152425  41.5368122
  77.7163391  61.6483728  40.8807085  77.5419254  62.0215980  42.9978337
  77.2745291  62.8687091  43.6294999  76.5158863  60.9403864  43.1521138
  76.7828718  60.0926935  42.5210552  76.4786007  60.6200548  44.1933134
  75.5388018  61.3208384  42.8543508  78.8287915  61.4977557  43.3973319
  78.7804512  61.1878706  44.3046547  76.3645333  63.2273175  41.1314596
  75.9950046  64.2434332  41.6968996  75.6814285  62.6302251  40.1850428
  75.9404115  61.6972940  39.8975247  74.6152864  63.2732528  39.5026900
  74.4299162  64.2894524  39.8506491  74.9441102  63.2983058  38.0332506
  76.0121936  63.4778740  37.9105574  74.5735237  61.9642773  37.3822832
  73.5054297  61.7842247  37.5041720  74.8169842  61.9975565  36.3203415
  75.1337574  61.1592755  37.8578982  74.2448570  64.4700760  37.3610924
  73.1700547  64.3406639  37.4881883  74.5617665  65.3851993  37.8613094
  74.5714266  64.5633843  35.8817980  74.2543642  63.6487445  35.3807937
  74.0487013  65.4152338  35.4468151  75.6460770  64.6932777  35.7539148
  73.2248632  62.5936789  39.7342255  72.1822930  63.1640718  39.3599563
  73.2244814  61.3875472  40.3415212  74.1215468  60.9551706  40.5101139
  71.9979216  60.6602363  40.7720742  71.3423067  61.3240892  41.3356057
  71.2426738  60.1431385  39.5674807  71.8831951  59.4696855  38.9980128
  70.3541439  59.6054555  39.8984062  70.9457717  60.9811875  38.9369077
  72.3626698  59.4660451  41.6693673  73.4741995  58.9563500  41.6357709
  71.3981397  58.9633266  42.4199589  70.5888586  59.5095806  42.6783582
  71.5629126  57.6388117  43.0224256  72.2236618  57.0661897  42.3715693
  72.1490208  57.6813979  44.4318203  71.6307557  56.9685985  45.0732396
  73.6141253  57.3142533  44.3514238  74.1331779  58.0269256  43.7105001
  74.0507935  57.3391932  45.3498223  73.7157211  56.3116861  43.9359283
  72.0211626  59.0615496  45.0381162  72.8219067  59.1788956  45.7682804
  72.1509910  59.7893592  44.2371561  70.7099849  59.2839215  45.7013158
  70.5796353  58.5567279  46.5027509  70.6785250  60.2911796  46.1166960
  69.9087190  59.1671891  44.9716265  70.3142399  56.8022482  43.0134802
  69.1977892  57.3167576  43.1388786  70.5170941  55.5008436  42.8372069
  71.3811592  55.0858025  43.1553761  69.5255449  54.6339733  42.1921122
  68.5322419  55.0474776  42.3666474  69.7253837  54.6098007  41.1208608
  69.5734644  53.2153317  42.7364115  70.6647254  52.6428812  42.8340474
  68.4220966  52.7022978  43.2126324  67.6264218  53.3110523  43.3407690
  68.2723820  51.2841865  43.5469568  69.2322998  50.8859468  43.8756849
  67.2380207  51.0811519  44.6809557  66.3014361  51.4782585  44.2895288
  67.1521743  50.0011958  44.8010609  67.5418454  51.7348434  46.0632132
  68.1917776  51.0345072  46.5878256  68.0940677  52.6490958  45.8457387
  66.3016986  52.0746937  46.9659278  66.5451230  51.7385539  47.9738234
  66.1970731  53.1596477  46.9606665  64.9550407  51.4183642  46.5079517
  64.8037995  51.7768246  45.4897509  65.1603139  50.3480350  46.4890478
  63.7171605  51.6760550  47.3180289  63.5265303  52.6677511  47.3353128
  62.9354727  51.1901417  46.9021535  63.8569404  51.3435835  48.2614394
  67.7899324  50.6488403  42.2403801  67.1157843  51.3188917  41.4351314
  68.2314398  49.4136981  41.9676864  68.9273078  48.9673186  42.5478695
  67.7850750  48.7204699  40.7689641  67.3617121  49.4074012  40.0361692
  68.8513649  47.8419231  40.0661467  69.0462747  48.2870835  39.0904717
  70.1524448  47.7248160  40.8371156  69.9583949  47.2792804  41.8127916
  70.8484791  47.0952832  40.2827465  70.5867236  48.7156160  40.9706032
  68.2997881  46.4675590  39.7230325  67.4454972  46.5748405  39.0546166
  69.0732238  45.8774328  39.2314556  67.9845759  45.9635318  40.6366509
  66.5900016  47.9040959  41.1360951  66.4832722  47.3562386  42.2485700
  65.6531882  47.8721793  40.2111103  65.8412593  48.2373959  39.2884265
  64.3296869  47.3493530  40.4865847  64.2016195  47.1826983  41.5561286
  63.2850749  48.3569253  40.0222541  63.5021934  48.5062409  38.9645852
  62.2810393  47.9471393  40.1321993  63.3707909  49.6885028  40.7495154
  64.4134262  50.0016954  40.8035791  62.5627566  50.7419598  40.0039633
  61.5198528  50.4296664  39.9498958  62.6297659  51.6930794  40.5321509
  62.9594004  50.8583183  38.9953827  62.9038498  49.5207353  42.1972713
  63.5392343  48.7933459  42.7025344  62.9675831  50.4786462  42.7134554
  61.8716926  49.1705550  42.2084174  64.1222108  46.0245171  39.7865816
  63.9865561  45.0092220  40.4355381  64.0719358  46.0639190  38.4505745
  64.1417216  46.9591855  37.9882682  63.8995991  44.8656116  37.6229244
  63.6675745  44.0153972  38.2643285  62.7525080  45.0416256  36.6018866
  62.1353223  45.8688651  36.9523947  63.2095284  45.3083136  35.6489386
  61.8753910  43.7894736  36.4175231  62.5358901  42.9230210  36.3843334
  61.2194209  43.7126312  37.2846451  61.0269367  43.8361575  35.1359381
  60.7857326  44.8789634  34.9298426  61.6276405  43.4345810  34.3198556
  59.7328116  43.0287646  35.2615964  59.2646161  42.9631965  34.2794588
  59.9783050  42.0269822  35.6141076  58.7914943  43.6741189  36.2176511
  58.5635501  44.6022451  35.8909664  57.9474102  43.1233024  36.2826369
  59.2249816  43.7345852  37.1278883  65.1995241  44.6041186  36.8959133
  66.2394233  45.1773888  37.2215972  65.1517916  43.6967473  35.9411254
  64.3364479  43.1074298  35.8515768  66.2426021  43.4988851  35.0196478
  66.8364776  44.4094287  34.9401405  67.1611457  42.3484078  35.5278294
  66.5474274  41.4829077  35.2781124  68.0447094  42.3629189  34.8897034
  67.6020967  42.2597824  37.0268561  67.5256101  43.2651762  37.4409018
  66.7621363  41.2844464  37.8839420  66.8385068  40.2786917  37.4707547
  67.1359383  41.2853961  38.9078424  65.7190707  41.6008034  37.8782086
  69.0779399  41.8817937  37.0939624  69.6712880  42.6398045  36.5826336
  69.3903379  41.8186816  38.1363278  69.2285896  40.9163344  36.6109593
  65.5793460  43.1595460  33.6738687  64.7369446  42.2896283  33.5995310
  65.8724594  43.9126117  32.6349026  66.6237840  44.5864332  32.6745924
  65.0284489  43.8890175  31.4489171  64.1309653  43.2855551  31.5847680
  64.6065128  45.3281166  31.1147108  65.5101906  45.9201366  30.9698733
  63.7447363  45.4020143  29.8600689  62.8405899  44.8105678  30.0043303
  63.4725191  46.4395215  29.6662206  64.3038166  45.0088836  29.0109640
  63.8584820  45.9018378  32.3058698  64.5096876  45.8995011  33.1799567
  63.5516058  46.9241149  32.0847903  62.9766427  45.2941514  32.5087923
  65.7547170  43.1471167  30.3087873  67.0077500  43.1892304  30.2437286
  64.9801841  42.4213789  29.4387135  64.4272167  42.9775217  28.1817071
  64.8338739  43.9761843  28.0223237  63.3418413  43.0364450  28.2628693
  64.8796775  41.9798919  27.1100047  65.4723573  42.5118294  26.3657789
  63.9964662  41.5541888  26.6337526  65.6889319  40.9104524  27.7956230
  66.7604462  41.1019013  27.7381471  65.4749560  39.9210352  27.3914354
  65.2206302  40.9921775  29.2596436  64.2615350  40.4928717  29.3972243
  66.2463302  40.3904822  30.2107269  65.8606015  39.8573879  31.2474622
  67.4489602  40.5051057  29.9849279  47.4293223  40.1691524  66.5467075
  48.2065490  39.5252096  66.5098654  46.9652487  40.1694852  65.6496367
  46.9005397  39.9918802  67.3887663  47.9771966  41.5488010  66.7079883
  47.6661571  42.1738377  65.8709204  47.4503940  42.1793769  68.0180659
  47.4929885  41.4484866  68.8255832  48.0935637  43.0254343  68.2601809
  45.9903640  42.6881699  67.8862667  45.7345514  43.7526215  67.3116540
  45.0343600  41.9116074  68.3936758  44.0683000  42.1998272  68.3323787
  45.2799556  41.0381530  68.8373660  49.5121131  41.5849209  66.5894996
  50.1362812  40.5748136  66.1908879  50.0763108  42.7902019  66.7329901
  49.5070620  43.5444646  67.0895612  51.4584084  43.0947929  66.3125301
  52.0203205  42.1673315  66.2022151  51.4698217  43.8494936  64.9483082
  52.2426806  43.3473431  64.3663860  50.5254563  43.8129255  64.4052273
  51.8707634  45.3215479  65.0292646  51.2102235  46.2018974  65.8799659
  50.4074708  45.8269764  66.5148850  51.5631789  47.5459566  65.9264033
  51.0777556  48.2076701  66.6437595  52.5258472  48.0443128  65.0672828
  52.7804466  49.1040139  65.0849634  53.1660387  47.1938709  64.1840318
  53.9358134  47.5781008  63.5147677  52.8258423  45.8467197  64.1511092
  53.3051803  45.1809444  63.4334196  52.1791473  43.8915199  67.4173756
  51.5233818  44.4005684  68.3358543  53.5155936  43.9269375  67.3589041
  53.9974495  43.5260316  66.5669516  54.3192116  44.4468753  68.4724578
  53.8518288  44.1570238  69.4135416  55.7428609  43.9083100  68.4502113
  55.6680541  42.8269160  68.3357994  56.2745548  44.3276020  67.5960475
  56.5034960  44.2318560  69.7301884  55.8975669  44.1619280  70.8302393
  57.6963187  44.5856895  69.6350209  54.3324455  45.9831787  68.5124538
  55.0010430  46.6527700  67.7076836  53.6049288  46.5258178  69.4852689
  53.1416036  45.9302662  70.1566462  53.3636345  47.9904069  69.5580279
  53.1141095  48.3939981  68.5767274  52.2170957  48.3545633  70.5535905
  51.5321715  49.0323346  70.0440757  51.4418116  47.1114353  71.0428363
  52.1260351  46.4333668  71.5528961  50.6562493  47.4206224  71.7323247
  50.9952683  46.6018123  70.1890307  52.7504050  49.0651150  71.6784850
  52.0391636  49.2847201  72.2847107  54.5984614  48.8472041  69.9090624
  54.5560859  50.0679321  69.8135564  55.6892546  48.2010099  70.3226471
  55.6530729  47.2017603  70.4650916  56.9487266  48.9047734  70.6245763
  56.7336604  49.8928174  71.0315345  57.7633113  48.1162186  71.6571145
  58.7994720  48.4517801  71.6138848  57.3578297  48.3174957  72.6486649
  57.7066529  46.7228700  71.3973636  58.2233259  46.2532757  72.0562490
  57.8122733  49.1323365  69.3711718  58.7136493  49.9633717  69.3854499
  57.4767859  48.4179556  68.3002296  56.7139893  47.7589265  68.3628497
  58.2599470  48.4608004  67.0581072  59.2927459  48.3060808  67.3703371
  57.8535294  47.3102028  66.1050501  57.9356103  46.3577879  66.6287561
  56.8244943  47.4561288  65.7765806  58.7779286  47.3043120  64.8921710
  58.6960460  48.2563001  64.3676572  60.2176635  47.0995139  65.3513532
  60.3004372  46.1474478  65.8755835  60.8788315  47.0952250  64.4847856
  60.5042416  47.9092807  66.0223607  58.3776378  46.1710628  63.9534812
  57.3486034  46.3169908  63.6250110  59.0380764  46.1664033  63.0863593
  58.4597165  45.2186477  64.4771867  58.2006682  49.8307746  66.3262674
  59.2307661  50.3443693  65.8602589  57.0000737  50.4195223  66.2151188
  55.6733694  49.8948425  66.5658547  55.4421151  50.1462977  67.6009353
  55.6643597  48.8116088  66.4449309  54.7686793  50.5873749  65.5884230
  53.7768532  50.7012691  66.0259251  54.6967558  49.9965862  64.6752434
  55.3984884  51.9086101  65.3181711  55.0914169  52.6071897  66.0964979
  55.1488489  52.3216647  64.3408453  56.9057701  51.6575503  65.4094993
  57.3718716  51.4679457  64.4425982  57.5966398  52.8438424  66.0838256
  58.1302954  53.6950191  65.3921327  57.6019343  52.8841094  67.4179273
  57.1454729  52.1463789  67.9351276  58.1983552  53.9863819  68.1655278
  57.9505650  54.9441289  67.7079035  57.6791768  53.9856861  69.6222441
  56.5900143  54.0220575  69.5998305  58.1340238  52.7306466  70.3844457
  59.2231537  52.6938269  70.4076804  57.7503327  52.7651875  71.4040962
  57.7515700  51.8417292  69.8827929  58.1562558  55.1454173  70.3035724
  57.8321348  55.1416536  71.2071939  59.7477958  53.9655071  68.1903244
  60.3926095  54.9775377  68.5037687  60.3223545  52.8097619  67.8707853
  59.7386641  51.9954415  67.7431642  61.7776583  52.6389409  67.8075625
  62.2647013  53.4064768  68.4090415  62.1852829  51.2589464  68.3483114
  63.1960775  51.0395346  68.0044335  62.1732773  51.2989670  69.4375103
  61.3075059  50.2458514  67.9052370  61.5901625  49.3998281  68.2601308
  62.3569298  52.8723027  66.4034330  63.5586643  52.6970107  66.1940336
  61.4968837  53.2277996  65.4457757  60.5125547  53.1233424  65.6464857
  61.8914921  53.6595058  64.0957664  61.0350131  53.5957991  63.4245852
  62.3828975  55.0816251  64.1145955  63.2170745  55.1369897  64.8140115
  62.7071206  55.4321206  63.1347321  61.3640723  56.0442541  64.5931669
  60.6267567  56.8251516  63.7355827  60.7178303  56.8208684  62.7297064
  59.7928889  57.5698902  64.4353497  59.1299102  58.2767862  63.9364949
  59.9457584  57.2802896  65.7142604  60.9137331  56.3178100  65.8383126
  61.1746792  55.9310793  66.8234256  62.9094703  52.7777980  63.4261452
  63.9191839  53.2516761  62.8823160  62.6143427  51.4819471  63.4261935
  61.7432230  51.1611321  63.8240975  63.5588943  50.4858526  62.9374983
  64.5227046  50.6400786  63.4226613  63.0912282  49.0382152  63.2163608
  63.1664416  48.4605160  62.2951079  63.9554318  48.3870183  64.2983736
  63.8803579  48.9639381  65.2201258  63.6082168  47.3695162  64.4779016
  64.9941727  48.3630932  63.9689112  61.7288054  49.0406319  63.6514910
  61.4459068  48.1393353  63.8224683  63.8394505  50.6587765  61.4369872
  64.8835872  50.2204498  60.9531800  62.9188294  51.3135921  60.7270899
  62.0844514  51.6089189  61.2136027  63.0307449  51.6105957  59.2968250
  63.2131782  50.6976295  58.7299829  61.7181207  52.2336113  58.8121083
  61.7878578  52.2942976  57.7260360  60.9037002  51.5631327  59.0864763
  61.4475091  53.6198776  59.3812816  60.8087680  53.7873541  60.6118369
  60.4988758  52.9030969  61.1687529  60.5688613  55.0415052  61.1234967
  60.0866785  55.1610285  62.0937111  60.9323647  56.1546060  60.3912454
  60.6929150  57.4152083  60.8763502  60.2667740  57.4114153  61.7365764
  61.5517072  56.0220829  59.1702788  61.8352460  56.9040123  58.5959037
  61.8134053  54.7628931  58.6740379  62.3146995  54.6492307  57.7128485
  64.1795157  52.5758015  58.9422710  64.4011470  52.8788822  57.7618772
  64.8690986  53.0800110  59.9615082  64.6550370  52.7728494  60.8995533
  65.8975044  54.0654719  59.7863421  65.7312739  54.6416647  58.8761396
  65.8616474  55.0082043  60.9684280  65.3295467  54.4617109  61.7470891
  66.8923664  55.1744802  61.2815903  65.1854564  56.3389572  60.7358908
  64.1154034  56.1937197  60.5875887  65.4147909  57.2177462  61.9679742
  66.4846753  57.3638227  62.1166614  64.9337190  58.1845751  61.8199455
  64.9895236  56.7315292  62.8459498  65.7212642  57.0354908  59.4841676
  65.5445720  56.4047101  58.6129644  65.2101103  57.9890075  59.3513942
  66.7915231  57.2098787  59.5947739  67.2688306  53.4224833  59.6797211
  68.2454237  54.0557701  59.3482898  67.3469806  52.1659648  60.0436674
  66.5214577  51.6267645  60.2624692  68.6333349  51.5178633  60.1405547
  68.6875842  50.7714134  59.3481099  69.3985949  52.2766768  59.9772193
  68.8839581  50.8466997  61.4631906  68.3126558  51.1663351  62.4905620
  69.7718426  49.8649561  61.4406840  70.4837115  49.8199672  60.7256190
  69.7094572  48.7977352  62.4137028  68.6732548  48.4703777  62.4986784
  70.5561792  47.6198289  61.9201263  71.5980666  47.9295694  61.8386924
  70.4774318  46.7937481  62.6268721  70.1962020  47.2970890  60.9432156
  70.1775730  49.2225982  63.8015284  69.5084862  49.0047524  64.8194061
  71.3638530  49.8161050  63.8306383  71.9462260  49.8035807  63.0055419
  71.8810261  50.4491499  65.0268792  71.0862938  50.5028618  65.7709321
  73.0308443  49.5802392  65.5929085  72.6599636  48.5766154  65.8009617
  73.8381963  49.5245582  64.8627151  73.5544078  50.2066966  66.8833199
  73.0099356  49.8460477  67.9608559  74.4938284  51.0399123  66.7792030
  72.3889793  51.8938830  64.7739882  73.0511701  52.1758692  63.7792937
  72.0247768  52.7956271  65.6793102  71.3526809  52.5547872  66.3937209
  72.6180191  54.0897503  65.7191450  73.2861464  54.2208890  64.8679649
  71.5377542  55.1594251  65.6585918  71.3129864  55.4491236  66.6850681
  71.9577006  56.0118900  65.1246924  70.2630613  54.7097907  64.9697495
  70.5293546  53.9500412  64.2349234  69.6108268  54.2712488  65.7249801
  69.3909197  56.0561678  64.1418929  68.1408248  55.0217345  63.3776439
  67.5791568  54.4981009  64.1512302  67.4616388  55.6429885  62.7938198
  68.6208808  54.2945629  62.7227630  73.3051479  54.2089098  67.0558668
  72.8954521  53.5677169  68.0070318  74.3349627  55.0395488  67.1416244
  74.7226757  55.4424181  66.3005095  74.9618224  55.3817000  68.4360577
  75.3045087  54.4781399  68.9402843  76.1736022  56.3305297  68.2411399
  76.9275836  55.8365904  67.6282489  75.8445457  57.2438618  67.7455127
  76.7655597  56.6739417  69.5871542  76.0122498  57.1683613  70.2004847
  77.0952896  55.7610912  70.0832202  77.9583190  57.6078815  69.3952965
  77.7261933  58.8463147  69.3967766  79.0902004  57.0739642  69.2490878
  73.9213501  56.0510051  69.3355204  73.2204820  56.9528420  68.9354329
  73.8275413  55.5884594  70.5799952  74.4269018  54.8319704  70.8776371
  72.7868850  56.0566430  71.5036881  72.1005495  56.7167036  70.9732518
  71.9866759  54.8779378  72.0819645  72.6088998  54.4179351  72.8496455
  71.0922693  55.2970691  72.5429046  71.5777600  53.8097248  71.0422325
  70.6364037  53.3700082  71.3717750  71.4211502  54.3406557  70.1032517
  72.6275655  52.6862014  70.8319784  73.4081387  52.4054461  71.7777305
  72.6720564  52.0627147  69.7289159  73.4017728  56.9431491  72.5822037
  74.5758984  56.7790267  72.9909322  72.6076568  57.8899638  73.0615915
  71.6463487  57.9444028  72.7565956  73.0858899  58.8790714  74.0288083
  74.0880313  58.6141887  74.3659270  73.1367133  60.2611537  73.3894340
  72.1448837  60.3766612  72.9523628  73.3434200  61.1046782  74.0480984
  74.1025334  60.3485981  72.2749032  73.8626654  59.6541762  71.1195125
  72.9349395  59.0938042  71.0037208  74.7640425  59.6631812  70.1354092
  74.5588024  59.1449443  69.1987088  75.9686679  60.3368405  70.3080497
  76.7008353  60.3205663  69.5007294  76.2426381  61.0129653  71.4678293
  77.1726585  61.5651685  71.6028619  75.3244842  60.9832702  72.4588937
  75.5390318  61.4605417  73.4150742  72.1297656  58.8857007  75.2045448
  70.9590420  59.2379362  75.0559969  72.6524634  58.4744943  76.3720462
  73.5823894  58.0803938  76.3766972  71.8999658  58.4824112  77.6182917
  70.8940006  58.1058270  77.4330418  72.5760316  57.5831095  78.6668809
  72.6344827  56.5628169  78.2878219  73.5811134  57.9529387  78.8697037
  71.8660723  57.5095787  79.9975396  72.3499365  56.7399472  81.0490344
  73.1873464  56.1754515  81.0352896  71.5228441  56.8763554  82.0686972
  71.7190470  56.3514164  83.0035996  70.5500756  57.6831321  81.7238313
  70.7248096  58.1009287  80.4414453  70.0047397  58.7814706  79.9870629
  71.7346653  59.9485345  78.1035754  72.6375158  60.5366481  78.7389597
  70.5734565  60.5044943  77.7978304  70.0065879  60.1314750  77.0497557
  70.0786805  61.6659322  78.5266766  69.0046372  61.7096832  78.3460774
  70.2612267  61.4687557  79.5830372  70.6977099  63.0067164  78.1589740
  70.5471108  63.4945715  77.0320502  71.5168752  63.5642843  79.0513598
  72.4946305  63.5799442  78.7986768  71.1108941  64.1798876  80.3522725
  70.1918473  63.7460786  80.7463055  72.2477014  63.8696037  81.3163379
  72.1232035  64.5088323  82.1904010  72.1525169  62.8253677  81.6140139
  73.6492856  64.1048491  80.7005309  74.2713097  64.4895223  81.5087471
  74.0130366  63.1226492  80.3987518  73.7155988  65.0770902  79.4878616
  73.3737593  64.5693043  78.5859756  73.0863186  65.9472033  79.6749686
  75.0786655  65.5256180  79.2801244  75.5837105  65.1439291  78.4931412
  75.6943473  66.4096441  80.0614226  76.9793451  66.6794915  79.8612022
  77.4804235  66.2130082  79.1186299  77.4494992  67.3499300  80.4524440
  75.0279674  67.0322703  81.0439517  74.0499051  66.8297008  81.1938182
  75.5070028  67.7011006  81.6298610  70.8695185  65.6904377  80.5427667
  70.8580050  66.1705484  81.6768259  70.7895129  66.4334550  79.4626276
  70.6230076  66.0143632  78.5588924  71.0090087  67.8853649  79.5276593
  71.5282523  68.1424822  80.4509014  71.8550439  68.4119617  78.3122185
  72.8545034  68.6467613  78.6783469  71.9572803  67.3723359  77.1505150
  70.9581716  67.1373766  76.7835335  72.5527330  67.7908158  76.3390904
  72.4323651  66.4624533  77.5172690  71.2705907  69.6179949  77.7959064
  71.7917924  69.9341286  77.0542807  69.6712209  68.6235466  79.5950954
  68.9405273  68.6550940  78.5985847  69.3319183  69.1796025  80.7735577
  69.7455472  68.8331275  81.6273525  68.2649943  70.1854440  80.8743406
  67.9281915  70.4562399  79.8736745  67.0532199  69.6458773  81.6755924
  67.5472480  69.1102974  82.4862647  66.4479266  70.4523740  82.0894559
  66.1342112  68.6586623  80.8826834  66.0362444  69.0269291  79.8614670
  66.7124718  67.2332431  80.8601482  66.8103035  66.8640992  81.8810598
  66.0448225  66.5785547  80.3000337  67.6925841  67.2456973  80.3833620
  64.6593914  68.6365631  81.3495768  64.2269329  69.6306640  81.2362524
  64.0969417  67.9251361  80.7449089  64.6137579  68.3382978  82.3969804
  68.8077577  71.4863848  81.4273317  69.6573410  71.4794473  82.2873375
  68.3487428  72.6129970  80.8581847  67.5601726  72.5311422  80.2324402
  68.8156552  73.9468897  81.2096670  69.8414365  73.8707435  81.5703243
  68.7821664  74.9393994  80.0116519  67.8338475  75.3409116  79.6544709
  69.3553944  75.7336883  80.4897887  69.5540651  74.5244101  78.8007575
  70.8890163  74.1772773  78.8540309  71.4281631  74.0875574  79.7033664
  71.3380064  73.9843485  77.6226125  72.3573510  73.6381862  77.4517108
  70.3675089  74.2785062  76.7732511  69.2553631  74.6665951  77.4846916
  68.3628823  75.0056493  76.9587434  67.8004218  74.5541963  82.1681229
  66.5809052  74.4683441  81.9255250  68.2944589  75.1702726  83.2241254
  69.2914479  75.2689484  83.3520920  67.4081894  75.5966159  84.3122177
  66.6519177  74.8300905  84.4813070  68.1895425  75.8185925  85.6279777
  69.2179543  76.0286319  85.3341208  67.7789560  76.6809435  86.1532107
  68.1619018  74.5804161  86.5654856  67.1430228  74.3648129  87.2697738
  69.1794060  73.8593146  86.6178688  66.5605733  76.8363448  83.9196146
  66.9181203  77.6014069  82.9968913  65.4232236  76.9825584  84.5936644
  65.2641287  76.4729677  85.4510474  64.3178155  77.7399881  84.0259822
  64.2067307  77.5085884  82.9666364  63.0273362  77.3728770  84.7414342
  62.8551852  78.0343070  85.5905359  62.2407246  77.5202356  84.0014156
  63.0135201  75.9062266  85.2212287  64.1025554  75.3698690  85.5490588
  61.9134898  75.3192515  85.3332050  64.5923281  79.2634947  83.9788708
  65.3858494  79.8489057  84.7545898  63.9558336  79.8803619  83.0031503
  63.5033140  79.2747355  82.3334176  64.0228418  81.3367622  82.7048346
  63.3799458  81.5517084  81.8512644  63.5614797  82.2074802  83.9053708
  64.0554049  81.8959426  84.8257411  63.8862732  83.2141125  83.6421207
  61.9887604  82.1985489  84.1201545  61.2870727  81.4838476  83.3805826
  61.4710746  82.8445823  85.0845690  65.3636538  81.7907790  82.1230538
  65.5115621  82.9508561  81.7461966  66.2984891  80.8431525  81.9599925
  66.0934545  79.8999172  82.2572588  67.6258061  81.1285679  81.4384316
  68.0950994  81.9167572  82.0271767  68.5102238  79.8654176  81.5112362
  69.5205371  80.1449761  81.2125503  68.5197967  79.5211099  82.5453835
  68.0443079  78.8330136  80.6781675  68.6239979  78.0718827  80.7571558
  67.5942356  81.6713822  79.9921699  66.5615156  81.6202633  79.2955515
  68.7223858  82.2696611  79.5714308  69.4325114  82.5380323  80.2376125
  68.8886482  82.6759736  78.1857530  67.9852643  82.4128118  77.6355326
  69.1327611  84.1650508  78.0328613  69.8530467  84.5444213  78.7576826
  69.4558266  84.4317999  77.0265941  67.6015710  85.0758058  78.3249593
  68.1191824  86.2849355  78.1275206  69.9537115  81.8550158  77.5176919
  71.1229600  81.8956696  77.8863463  69.5209804  81.0991067  76.5163277
  68.5509107  81.1628859  76.2424734  70.3789204  80.1763150  75.7981589
  71.3915306  80.2107825  76.2000689  69.8433742  78.7617533  75.9512585
  68.9771251  78.6859812  75.2940140  70.6279263  78.0936738  75.5959447
  69.4472222  78.3707762  77.3502244  68.8484857  79.0859966  77.9142061
  68.8641437  77.4662645  77.1770770  70.6450066  78.0167321  78.1536261
  70.8043972  76.8764291  78.5865936  71.5812810  78.9238919  78.2020238
  72.4235184  78.7482341  78.7310624  71.4595274  79.7976271  77.7102268
  70.4231092  80.5465061  74.3081388  69.4831364  81.1200514  73.7529336
  71.4969548  80.1358527  73.6660231  72.3561090  79.9842028  74.1748999
  71.5464766  80.1326979  72.2206610  70.6169138  80.4427939  71.7433219
  72.6817684  81.0231284  71.7060416  73.2688140  81.3449527  72.5662194
  73.5918321  80.3063459  70.7075813  73.0055423  79.9846093  69.8468544
  74.3772037  80.9864718  70.3778529  74.0422945  79.4363610  71.1854010
  72.0815675  82.3165735  71.1321780  71.5296850  82.8394249  71.9133017
  72.8826990  82.9570139  70.7632279  71.4060794  82.0718268  70.3124734
  71.4939132  78.6914861  71.7108674  72.2763570  77.8301718  72.1220151
  70.4847022  78.4058781  70.9150967  69.7585075  79.0888355  70.7528938
  70.3561318  77.0852955  70.2768332  71.2219680  76.4698883  70.5211709
  69.1068766  76.4235674  70.7980550  68.2447406  76.8750756  70.3071757
  69.1181518  74.9340954  70.5279457  69.9798096  74.4817854  71.0189265
  68.2031281  74.4869331  70.9163762  69.1796495  74.7595629  69.4537690
  69.0059226  76.6355708  72.2986165  69.8604940  76.1402113  72.7595149
  69.0645686  77.7080076  72.4844645  67.7197203  76.0874899  72.8964819
  67.6605857  75.0149429  72.7114250  67.7106096  76.2713465  73.9708249
  66.8646597  76.5827380  72.4363726  70.3049697  77.1866220  68.7394743
  69.6458606  78.0478016  68.2026820  71.0721187  76.3328870  68.0294397
  71.8648112  75.2237485  68.5923441  71.4104111  74.8675202  69.5168560
  72.8842564  75.5534388  68.7926810  71.7985429  74.2146884  67.4954935
  70.8884158  73.6197755  67.5719553  72.6662622  73.5556394  67.5241122
  71.8027846  75.0480838  66.2562344  71.3990453  74.4664931  65.4274729
  72.7827484  75.4386397  65.9819414  70.8768992  76.1768543  66.5840737
  71.0994919  77.1394030  66.1235841  69.4823015  75.7425686  66.1934498
  68.9052849  74.9499629  66.8886462  68.9552245  76.2499463  65.0956685
  69.4725488  76.9450952  64.5767822  67.6874935  75.7586685  64.5318316
  67.2223082  74.9969967  65.1575775  66.6860684  76.9237733  64.3440212
  67.1083358  77.6479732  63.6473691  65.3612000  76.3998540  63.7925476
  64.9380680  75.6758932  64.4889247  64.6663079  77.2299492  63.6653961
  65.5326022  75.9193752  62.8292911  66.4521833  77.6944744  65.6415155
  67.3961841  78.1116422  65.9921371  65.7428872  78.5024176  65.4619979
  66.0503077  77.0202322  66.3978186  67.9170874  75.2482238  63.1731065
  68.2861965  76.0695854  62.3339637  67.6181035  73.9579841  62.9088905
  67.2748762  73.3260848  63.6181137  67.7774987  73.4366858  61.5044454
  68.7396412  73.7949644  61.1383612  67.7293286  71.9121421  61.3449581
  66.7086867  71.7822972  60.9850560  68.4285262  71.7126240  60.5329143
  67.9905281  70.9435732  62.4877490  67.3828991  71.2485772  63.3397235
  67.6450684  69.5014870  62.1049555  68.2526726  69.1955949  61.2532830
  67.8464508  68.8426251  62.9496133  66.5898602  69.4384174  61.8391391
  69.4348984  71.0042626  62.9414716  69.6670672  72.0131738  63.2824924
  69.5892702  70.3003437  63.7592545  70.0889002  70.7429921  62.1095351
  66.7206431  73.8996564  60.5645771  65.5618858  73.7646381  60.8552324
  67.1218155  74.2625680  59.3935237  68.3249218  73.6704058  58.8144890
  68.1483353  72.6219909  58.5741901  69.1553619  73.7468679  59.5163592
  68.5333272  74.5294735  57.5709719  68.6884703  73.8779763  56.7109829
  69.4136608  75.1558385  57.7151278  67.2696118  75.3891204  57.4033665
  66.9019523  75.2699554  56.3841878  67.4184109  76.4481952  57.6138870
  66.2690042  74.8002529  58.3861450  65.6230631  75.5447980  58.8514524
  65.3858967  73.6962589  57.7021432  65.7191632  72.4522022  57.6422909
  64.2290961  74.1092395  57.2755410  63.9588626  75.0816343  57.3145466
  63.3173809  73.1528562  56.6034841  62.6520816  73.7153841  55.9484739
  64.0561539  72.0911600  55.7618900  64.4546414  71.3996948  56.5043069
  63.2600847  71.6018036  55.2007268  65.1562076  72.5025870  54.8176254
  64.9178317  73.4542679  54.3426714  66.0741814  72.6057388  55.3962322
  65.3817172  71.4529578  53.7247526  66.4979673  70.9528937  53.5326286
  64.3009302  71.0893806  53.0217809  64.3877401  70.4009406  52.2878765
  63.4041673  71.5053504  53.2288723  62.5600118  72.2987613  57.5687565
  61.7148771  71.5185653  57.1086384  62.9148683  72.2615478  58.8476115
  63.7010521  72.7602696  59.2391353  62.1263172  71.4351538  59.7233890
  61.7246366  70.5995294  59.1502540  62.9165336  70.8738080  60.9273308
  63.0109881  71.6474906  61.6892972  62.1877321  69.6804220  61.5079392
  62.0932955  68.9060797  60.7466397  62.7490566  69.2886976  62.3562123
  61.1954224  69.9861343  61.8395459  64.3069914  70.4556000  60.4981673
  64.8386204  71.3181790  60.0963837  64.8502379  70.0626025  61.3575484
  64.2345407  69.6845198  59.7311685  61.0282853  72.3152150  60.1881452
  61.2946384  73.3605599  60.7348763  59.8012271  71.9627056  59.8888458
  59.6123416  71.1253251  59.3566657  58.6847256  72.7720662  60.3085430
  59.0363895  73.4990041  61.0406584  58.0206083  73.5352215  59.1313211
  58.5578497  73.2581948  58.2242779  56.9898341  73.1874613  59.0630024
  58.0356951  75.0552968  59.2877224  56.9888466  75.3555465  59.2423434
  58.4210172  75.2333665  60.2916746  58.9977421  76.0466958  58.0901150
  60.5327569  75.1407340  57.8388630  60.3096799  74.1488228  57.4458646
  61.1611082  75.6792040  57.1294087  61.0583191  75.0447985  58.7889589
  57.6947043  71.8671137  60.9232452  57.1439497  71.0349664  60.2677367
  57.5204631  71.9962484  62.2251216  57.9677528  72.7621469  62.7082683
  56.7121553  71.0960358  62.9847161  55.7204692  71.0439483  62.5353333
  57.3116536  69.6698514  63.0266043  56.6068367  69.0234797  62.5035976
  58.2474868  69.7121225  62.4693527  57.5777006  69.1059487  64.4329910
  58.5401769  69.4918209  64.7689121  56.7902017  69.4717215  65.0918976
  57.6090967  67.2945944  64.4903768  56.3389939  66.9979779  65.7032134
  55.3947772  67.4125597  65.3501189  56.2283307  65.9248873  65.8591971
  56.6154653  67.4747002  66.6436392  56.7001748  71.7221081  64.3615694
  57.6541916  72.4382686  64.7328779  55.5969270  71.5983721  65.0784012
  54.7571079  71.1654437  64.7215032  55.5461479  72.2171901  66.3703543
  56.4097545  72.8776375  66.4484050  54.2739046  73.0249442  66.5514327
  53.4068691  72.3647650  66.5287788  54.3372401  73.7178625  67.8730672
  55.2038218  74.3786171  67.8963082  53.4300860  74.3039009  68.0204821
  54.4241005  72.9774655  68.6682821  54.1677718  74.1010806  65.4284803
  53.6046957  74.9306409  65.8561203  55.1879635  74.4238707  65.2208391
  53.4948080  73.6453791  64.1148186  52.4743568  73.3228576  64.3216011
  53.4769140  74.4751835  63.4082752  54.0576238  72.8160854  63.6863210
  55.7442556  71.1000637  67.3391592  54.9592275  70.1514367  67.3444089
  56.8626302  71.1147597  68.0438806  57.3998537  71.9633007  68.1509713
  57.3640456  69.8945998  68.6691705  56.8905185  69.0152988  68.2324774
  58.8583315  69.8072322  68.4333704  58.9004259  70.1370287  67.3953138
  59.3474729  70.5455656  69.0687478  59.5725664  68.4665788  68.5698626
  60.0337638  68.1940185  67.6205952  60.6550361  68.5940180  69.6446797
  60.1945196  68.8661248  70.5944067  61.1742507  67.6417518  69.7528735
  61.3682250  69.3650531  69.3531891  58.6346655  67.2756883  68.8356739
  57.9277099  67.1783500  68.0117573  59.2222328  66.3614471  68.9195137
  58.0888400  67.4426198  69.7642789  57.0549983  69.9206514  70.1695165
  57.1281675  70.9956981  70.8006503  56.6442832  68.7888386  70.7253311
  56.7087011  67.9125622  70.2272454  56.1403256  68.7713401  72.0853261
  56.0515435  69.7867409  72.4715621  54.8069460  68.0763329  72.1891085
  54.9149357  67.0318776  71.8966161  54.3117691  68.1518933  73.6293653
  54.2030845  69.1961124  73.9224435  53.3473204  67.6503486  73.7093175
  55.0304406  67.6633089  74.2873135  53.7888362  68.6882548  71.2235061
  53.2394360  69.4619946  71.7597774  54.3379970  69.1397417  70.3972607
  52.8094144  67.6556153  70.6780581  52.2595164  67.2039969  71.5037413
  52.1092316  68.1415734  69.9985818  53.3580782  66.8817423  70.1412262
  57.0844634  67.9939025  72.9721268  57.5663312  66.9333150  72.5856146
  57.3697374  68.5349741  74.1602590  57.2115926  69.9391732  74.5288714
  56.1563578  70.2093782  74.4892607  57.7723506  70.5635623  73.8333229
  57.7733274  69.9924490  75.9345690  57.1332081  70.6146975  76.5599914
  58.7779139  70.4147267  75.9103034  57.8006609  68.5719922  76.4202687
  56.8299150  68.2691901  76.8127764  58.5698645  68.3825448  77.1689576
  58.1050588  67.8072463  75.1709250  59.1637435  67.8690856  74.9190109
  57.6946997  66.3520165  75.2715622  56.4908827  66.0409866  75.3733616
  58.6798635  65.4571201  75.1815255  59.6286963  65.7692162  75.0318204
  58.4323727  64.0214964  75.2932310  59.3145822  63.5675445  75.7445993
  57.5756376  63.8835272  75.9528284  58.1520694  63.3452711  73.9785454
  58.2762797  62.1229170  73.8795843  57.7481074  64.1282696  72.9661097
  57.6749817  65.1258369  73.1061509  57.4424239  63.5925914  71.6487166
  56.7469697  62.7594746  71.7504952  56.8104082  64.6465167  70.7530037
  55.8521722  64.9425117  71.1799347  57.4708093  65.5125379  70.7085339
  56.5962384  64.1097794  69.3685799  57.5414164  64.1846878  68.8308735
  56.2889261  63.0651810  69.4183334  55.5646333  64.8725732  68.6227900
  54.6995249  64.2728762  67.9320311  55.6398984  66.2080839  68.7162593
  54.9664204  66.7839289  68.2315622  56.3697238  66.6321007  69.2709358
  58.7229671  63.1547307  70.9966574  59.7408836  63.7765666  71.1811352
  58.6710069  62.1110812  70.1898978  57.8636229  61.5061495  70.1420647
  59.8413907  61.7270266  69.4872934  60.7104706  62.2184465  69.9246784
  60.0633878  60.2357193  69.5207594  59.5603587  59.8217477  70.3946527
  59.4997215  59.5761772  68.2417401  60.0026315  59.9893377  67.3673949
  59.6684606  58.5000936  68.2826110  58.4299702  59.7732865  68.1718787
  61.4667681  59.9869877  69.6273214  61.6231153  59.0400691  69.6497078
  59.8425031  62.3028805  68.0647214  58.8104817  62.4292938  67.4386213
  61.0227361  62.6973723  67.5861450  61.8476939  62.5717876  68.1551551
  61.1771396  63.3111515  66.2650498  60.2426388  63.2089570  65.7133580
  61.5305163  64.8105743  66.3632843  60.5756697  65.2594830  66.6368683
  62.2446740  64.9545434  67.1740567  62.0695924  65.4870937  65.0724491
  62.9445745  64.9288500  64.7394759  61.0242079  65.5183492  63.9477255
  60.1490597  66.0768577  64.2798139  61.4503576  66.0009808  63.0682006
  60.7302317  64.4994222  63.6958006  62.5819119  66.8915872  65.3579257
  63.3903699  66.8427147  66.0873821  62.9522750  67.3383328  64.4352390
  61.7705104  67.5009719  65.7558915  62.3025673  62.6051401  65.4859416
  63.4598069  62.7254790  65.8517558  61.9578846  61.9371861  64.3653407
  60.6429971  61.6066711  63.8098474  60.2045531  62.5001520  63.3653714
  59.9955295  61.2433338  64.6078892  60.9530440  60.5247090  62.7713163
  60.8914274  60.9418117  61.7661657  60.2455260  59.7010016  62.8663211
  62.3165461  60.0828233  63.0853976  62.7813022  59.7414632  62.1604251
  62.4228562  59.3135497  63.8502610  62.9727311  61.3642870  63.5478670
  63.8633759  61.1869020  64.1506808  63.3224458  62.3337465  62.3781491
  62.4524336  63.1210923  61.9065907  64.5958016  62.3193155  61.9677519
  65.2648063  61.7025459  62.4060750  65.0631719  63.2202573  60.9586717
  64.2418357  63.6278997  60.3693215  65.7364085  64.3355936  61.6687797
  66.0251548  63.9551626  62.6485741  66.6146962  64.7343955  61.1611698
  64.7159741  65.4270514  61.8361252  63.7692719  64.9735826  62.1297608
  65.1478932  66.4375195  62.8988656  66.0943564  66.8917759  62.6056808
  64.3875519  67.2126884  62.9942343  65.2701728  65.9295924  63.8555045
  64.4856919  66.0613032  60.4344150  64.1216644  65.2990743  59.7455096
  63.7488931  66.8606766  60.5133517  65.4249383  66.4691881  60.0608577
  65.9850908  62.5536040  59.9342206  66.5927173  61.5097358  60.2181010
  66.0253733  63.1017734  58.7202830  65.2844575  63.7219920  58.4262217
  67.0110693  62.6991211  57.7419729  67.8911179  62.3510536  58.2827711
  66.5574200  61.6045322  56.8013330  65.5104724  61.7903342  56.5615882
  67.1566097  61.6817251  55.8940772  66.7030964  60.2072258  57.3879337
  67.7253403  60.1117045  57.7539853  66.0066929  60.0534254  58.2122332
  66.4590593  59.1287979  56.3355283  67.3135136  58.8818568  55.4719815
  65.2917586  58.5196756  56.3679484  65.0828747  57.7986814  55.6921997
  64.6109090  58.7763860  57.0684089  67.5339043  63.8907025  57.0168810
  66.7857499  64.7018698  56.4364686  68.8464236  64.0628772  57.1523579
  69.4025755  63.3859989  57.6549812  69.4945868  65.3036800  56.7065276
  68.7522930  65.9999405  56.3162451  70.1979430  65.9536559  57.8803365
  70.9852953  65.2812383  58.2209684  70.6351688  66.9122690  57.6010613
  69.1836013  66.1648105  59.0088065  68.6366022  65.2317655  59.1441568
  69.8307266  66.5595275  60.3086389  70.3775686  67.4927934  60.1741870
  69.0632938  66.6952381  61.0706956  70.5207595  65.7768881  60.6239650
  68.1878507  67.2377120  58.5916528  67.6683196  66.9201943  57.6875679
  67.4632872  67.3922786  59.3911640  68.7178376  68.1700999  58.3970618
  70.4036202  65.0632968  55.5088923  71.1277738  64.0617791  55.4277756
  70.2817968  65.9409065  54.5136776  69.7624084  66.7970337  54.6455157
  70.9111455  65.7019482  53.2073388  71.4200973  64.7381368  53.1957263
  69.8417761  65.6930331  52.1516372  69.1739277  66.5524014  52.2113355
  70.3483856  65.6935991  51.1865224  68.9861581  64.4906231  52.1787105
  68.4427265  64.0195965  53.3794194  68.6513044  64.5592914  54.3031751
  67.6573721  62.8955406  53.4043308  67.2383412  62.5275881  54.3408803
  67.3961748  62.2190829  52.2072586  66.8327042  61.2865592  52.2388877
  67.8491799  62.7257145  50.9756090  67.5840095  62.2445456  50.0341944
  68.6456251  63.8567404  50.9740089  69.0140425  64.2625425  50.0318342
  71.9256431  66.8101779  52.8518552  73.0475341  66.5226336  52.3660622
  71.5614896  68.0420108  53.1827676  70.6502921  68.2372435  53.5722580
  72.4283885  69.1607412  52.8675131  72.9106898  68.9910974  51.9048576
  71.6438604  70.4370518  52.7922816  71.2901192  71.0486745  53.6222720
  72.4491031  70.9584628  52.2747733  70.5222346  70.3343228  51.8344483
  69.2993666  69.8449966  52.2282092  69.0349417  69.6655069  53.1863129
  68.5429345  69.6524210  51.1672050  67.5049602  69.3354875  51.2685045
  69.2696728  69.9081893  50.0952885  70.5318950  70.2762049  50.4883592
  71.3044896  70.4568421  49.7409844  73.5654020  69.2363631  53.8370261
  73.3916012  69.0237128  55.0457855  74.7820086  69.4636374  53.2948787
  75.0763261  69.9873861  51.9606461  74.3780378  70.7886383  51.7188022
  74.9819735  69.1893251  51.2242390  76.4821230  70.4733216  52.0967923
  76.4853163  71.5280968  52.3716344  77.0129378  70.3424948  51.1538070
  77.0832714  69.6318654  53.1654883  77.8963682  70.1883041  53.6316948
  77.4465638  68.6533133  52.8515549  75.9454964  69.4691323  54.1443279
  76.0139641  68.5152366  54.6672938  75.8413217  70.5899469  55.1535138
  76.4067432  70.4057128  56.2401183  75.0742544  71.6778230  54.8521993
  74.7535009  71.8408526  53.9084631  74.7537931  72.6808193  55.8814596
  75.7001976  73.1564119  56.1388103  73.7264790  73.7818649  55.5325090
  73.0466847  73.8352869  56.3828766  74.2953522  74.7091110  55.4639664
  72.9553206  73.5908905  54.3030097  72.5424826  72.5833568  54.3534230
  72.1481773  74.3062310  54.1451815  73.8870392  73.6646847  53.1493283
  74.0014833  72.7231420  52.3770919  74.6572866  74.7588378  53.0788582
  75.3106369  74.8644594  52.3159172  74.5810122  75.4729673  53.7890009
  74.2550433  72.0365254  57.1489217  74.9042816  72.1551782  58.1932857
  73.1009450  71.3559366  57.0467155  72.5941463  71.3932598  56.1738688
  72.4979128  70.6350248  58.1691229  72.2999514  71.3222774  58.9916764
  71.1700165  69.9976921  57.7313736  71.4268655  69.1921595  57.0434456
  70.7189720  69.5772232  58.6301867  70.1559923  70.9643282  57.0444074
  69.6311453  71.4882341  57.8432560  70.7504316  71.6769015  56.4725854
  69.1141062  70.2769588  56.0989934  69.2325683  69.0571282  55.7631155
  68.1557269  70.9832651  55.6927638  73.4808064  69.5909049  58.7323427
  73.7396858  69.5714304  59.9211048  74.0416073  68.7731699  57.8479136
  73.8576880  68.9408646  56.8690615  74.9083373  67.6593005  58.2065754
  74.4567600  66.8745681  58.8135121  75.3611492  67.0566983  56.8974261
  75.6014672  67.8701235  56.2128196  76.5787385  66.1661832  57.0721405
  76.3390353  65.3522040  57.7563051  76.8698433  65.7541706  56.1059086
  77.4025421  66.7520731  57.4797951  74.2033457  66.3249309  56.2700151
  73.3858721  67.0232122  56.0904540  74.5200199  65.8860147  55.3238811
  73.8652602  65.5353672  56.9411248  76.1467259  68.0857376  59.0265699
  76.6589811  67.3240687  59.8795670  76.6048648  69.3161725  58.7929876
  76.2227140  69.8595369  58.0321886  77.6569737  69.9190663  59.6182627
  78.4994872  69.2340414  59.7131904  78.1585881  71.2365477  58.9513333
  78.4344847  70.9944331  57.9249996  77.3220358  71.9353044  58.9469356
  79.2800035  71.8367561  59.6194766  79.5351582  72.6392113  59.1584326
  77.1579067  70.2548627  60.9943158  77.7676386  69.8633107  62.0227316
  76.0561203  70.9909829  61.0246426  75.6588239  71.2705542  60.1391513
  75.4739678  71.4981853  62.2117227  76.1040441  72.2310025  62.7157882
  74.1941629  72.2029509  61.7221252  74.3012491  73.2442863  62.0258559
  74.2239462  72.1373481  60.6345088  72.8827757  71.6696347  62.2192845
  72.1098887  71.8535928  61.4730231  72.9700998  70.5973505  62.3944507
  72.4279327  72.4819610  63.7514061  73.8493924  73.5651817  64.1166377
  73.9850800  74.2749716  63.3006192  73.6641139  74.1086228  65.0431605
  74.7495981  72.9601567  64.2246912  75.2642409  70.3930529  63.2845372
  75.5056671  70.6033015  64.4522117  74.8449247  69.2213521  62.8431697
  74.8020959  69.1159211  61.8396014  74.5634396  68.0749854  63.6607108
  73.9448840  68.2686497  64.5370568  73.8482459  67.0495661  62.7731189
  74.4462560  66.8793174  61.8778543  73.6611053  65.7307959  63.5177889
  73.0627571  65.9001715  64.4129941  73.1517870  65.0166588  62.8707160
  74.6349128  65.3322446  63.8023194  72.5318701  67.6051635  62.2661600
  72.7180978  68.5067113  61.6825224  72.0407223  66.8616080  61.6384670
  71.8890312  67.8471917  63.1124940  75.8347420  67.3564312  64.1240293
  76.0190451  67.0662890  65.3220844  76.7014730  67.0602535  63.1534964
  76.4557578  67.2578287  62.1939719  77.9501007  66.3495437  63.4162600
  77.7194711  65.3452249  63.7715807  78.8334584  66.2352885  62.1453411
  78.1737808  66.4207792  61.2976867  79.5705931  67.0353601  62.2132959
  79.5634371  64.8720758  61.9467435  80.4730914  64.8957814  62.5468001
  78.9035265  64.0884845  62.3190402  79.9267110  64.5819471  60.4716718
  79.6674254  65.4606682  59.8811473  81.0019156  64.4118123  60.4160963
  79.2308310  63.4066298  59.9032202  78.6749825  62.8495684  60.5363193
  79.2824905  63.0480164  58.6126243  79.9892646  63.7666067  57.7346310
  80.4894198  64.5874063  58.0448451  80.0199084  63.4854830  56.7650280
  78.6364105  61.9578275  58.1932570  78.1079678  61.4032129  58.8514750
  78.6789593  61.6925466  57.2196480  78.6940485  67.0158109  64.5843318
  79.1839856  66.3167337  65.4984695  78.7211946  68.3470900  64.5808596
  78.3810762  68.8492531  63.7732390  79.2967611  69.1153478  65.6824661
  80.1882276  68.6209811  66.0684560  79.6812770  70.4726594  65.1821125
  78.7655209  70.8863465  64.7597940  80.0516183  71.1351589  65.9644435
  80.7316864  70.3863932  64.0785028  80.4006476  70.1361379  62.9158349
  82.0160052  70.4849658  64.4589154  82.7498307  70.4340075  63.7668149
  82.2421361  70.6096029  65.4353533  78.3975900  69.2614022  66.9096615
  78.8749774  69.3816034  68.0287173  77.0927960  69.2694801  66.6818249
  76.7503624  69.2546205  65.7317630  76.1174074  69.3145591  67.7692637
  76.2757171  70.2212400  68.3531874  74.7148314  69.3147839  67.2588692
  74.7017775  69.7289451  66.2507029  74.2626260  68.3230561  67.2495806
  73.9288310  70.2192578  68.1863277  74.0331922  69.8367142  69.2016454
  74.4187064  71.6648058  68.1344902  74.3142177  72.0482145  67.1195131
  73.8252788  72.2747326  68.8156170  75.4667623  71.7046753  68.4312893
  72.4752923  70.1361100  67.8024948  72.1309206  69.1067676  67.9023030
  71.8885721  70.7801150  68.4575660  72.3526208  70.4611677  66.7693500
  76.2891240  68.1172656  68.6872973  76.1784665  68.2528159  69.9041974
  76.5939247  66.9649870  68.1043087  76.5993317  66.8815171  67.0977786
  76.8011781  65.7749032  68.8895148  75.9111932  65.6270695  69.5012101
  77.0347757  64.5895344  68.0795259  77.9814101  64.6689477  67.5450381
  77.0873689  63.3989541  69.0322370  76.1408466  63.3186104  69.5667847
  77.2616528  62.4854385  68.4637169  77.8972321  63.5410476  69.7477999
  75.8992677  64.4346571  67.0932701  75.5861417  65.4284591  66.7732536
  76.2672398  63.8756245  66.2329338  74.7297623  63.7118645  67.6963032
  74.3609258  64.2705748  68.5564790  73.9360099  63.6217470  66.9547270
  75.0420248  62.7177404  68.0161614  77.9087755  65.9218639  69.9181419
  77.8062399  65.3922607  71.0162570  78.9673218  66.5969280  69.5426501
  79.0637637  66.9918937  68.6180959  80.0654198  66.7191132  70.4497497
  80.3904573  65.7353064  70.7882374  81.2194790  67.3930219  69.7460797
  81.0115792  68.4616576  69.6922783  82.1227704  67.2282589  70.3334619
  81.4205313  66.8468852  68.3470873  80.6357898  67.2638748  67.7158970
  82.3946789  67.1449904  67.9594382  81.3247126  65.3419657  68.3044825
  80.9159702  64.7655853  67.3051196  81.6693482  64.7022007  69.4091762
  81.6253751  63.6936164  69.4395997  81.9749748  65.2250669  70.2174488
  79.7025377  67.4560626  71.6897147  80.0821085  67.0480183  72.7726367
  78.9507439  68.5307405  71.5503216  78.7075572  68.9023747  70.6432121
  78.5980558  69.2990115  72.7224925  79.3289908  69.0015287  73.4743816
  78.7615215  70.7960243  72.4466615  79.7667402  70.9893571  72.0721523
  78.0302110  71.1108159  71.7022213  78.5412304  71.5777360  73.7374066
  77.5359901  71.3852556  74.1122989  79.2725200  71.2637998  74.4822298
  78.7040572  73.0689172  73.4626506  79.7092749  73.2622510  73.0881396
  77.9727452  73.3837079  72.7182118  78.4837679  73.8506281  74.7533971
  77.4785283  73.6581477  75.1282906  79.2150593  73.5366931  75.4982171
  78.6407203  75.2880288  74.4885493  77.9628953  75.5792206  73.7987230
  78.4948252  75.8057526  75.3434041  79.5722722  75.4666592  74.1415601
  77.2289993  68.9625500  73.2942740  77.0260065  67.8890245  73.8349864
  76.3016873  69.8939799  73.1661652  76.5677509  70.7352239  72.6746186
  74.9537347  69.8018323  73.6906777  74.9661987  69.6385009  74.7682986
  74.2401675  71.1158118  73.4061245  74.6934623  71.5424980  72.5113832
  73.1887297  70.9024121  73.2136685  74.3522650  72.0915418  74.5356214
  74.3868349  71.6453736  75.6957179  74.3915615  73.3061942  74.2655023
  74.0458947  68.7195835  73.1787703  73.2007190  68.2144917  73.8943493
  74.1645347  68.4037231  71.9150778  74.8781649  68.8024105  71.3218834
  73.1847815  67.4855171  71.3085901  73.5023590  67.2763189  70.2870815
  73.0365855  66.1423652  72.0657439  72.5740443  66.3979684  73.0190654
  72.3398455  65.5513275  71.4713300  74.2792094  65.3482193  72.3121260
  74.8957807  65.3643479  71.4134155  74.8304041  65.7972155  73.1383759
  73.9303641  63.9198872  72.6573355  73.4354831  63.4614351  71.8011734
  74.8490035  63.3767269  72.8790964  73.0457066  63.8306375  73.8104069
  72.0620445  63.9674640  73.6265954  73.4326404  63.5794065  75.0701688
  74.7190259  63.4114686  75.3904657  75.4271493  63.4732305  74.6729375
  74.9773243  63.2235383  76.3486222  72.5204406  63.5002661  76.0307585
  71.5439179  63.6293445  75.8075047  72.8069088  63.3113221  76.9806716
  71.7509639  68.0062404  71.1344994  70.8853427  67.2957608  70.6290941
  71.4918661  69.2362162  71.5764652  72.2413961  69.7825823  71.9762005
  70.1601899  69.8381247  71.4976643  69.4649692  69.0985612  71.1004072
  69.5635240  70.4222734  72.8416923  68.7530219  71.1015198  72.5774750
  69.0423446  69.3555304  73.7642649  69.8524403  68.6761220  74.0293098
  68.6462917  69.8180559  74.6683177  68.2499392  68.7979829  73.2649303
  70.5291621  71.2014156  73.5383856  70.1415372  71.5425660  74.3476839
  70.1589961  70.9905270  70.5514753  71.0765383  71.8561874  70.5717320
  69.1183412  70.9930947  69.7299737  68.4518404  70.2373006  69.7981747
  68.8701118  72.0418778  68.7636238  69.5901078  72.8466087  68.9123290
  69.0005604  71.5355356  67.3568535  68.7073908  72.3541197  66.6995325
  70.0077427  71.2071176  67.1002889  68.1070002  70.4177441  67.0570046
  68.2529397  69.2140189  67.7247180  68.9223006  69.1514390  68.5827037
  67.5691036  68.1168404  67.3171243  67.7212033  67.1540155  67.8049097
  66.6770284  68.2272017  66.2781242  66.1328941  67.3455778  65.9393660
  66.4685994  69.4417562  65.6658165  65.7308387  69.5349191  64.8688660
  67.1871945  70.5287768  66.0583228  67.0275607  71.4917651  65.5732759
  67.4458040  72.5140335  68.9668630  66.7139784  71.9061496  69.7334179
  67.0711422  73.5582264  68.2478707  67.6541262  73.8612162  67.4807813
  65.8615745  74.3009046  68.5246304  65.3871423  73.9826675  69.4529291
  66.2385603  75.7507242  68.6502717  66.7066645  76.0864665  67.7249308
  65.3442078  76.3440594  68.8405011  66.9385414  75.8743723  69.4766111
  64.8250379  74.1047867  67.3828179  65.1573018  74.1738159  66.1809458
  63.5826248  73.8404079  67.7757599  63.3552159  73.7747303  68.7576311
  62.5271047  73.6689260  66.8205880  62.8340054  73.7236188  65.7761170
  61.9390088  72.3293240  67.0727107  61.5704414  72.2787303  68.0972582
  60.7978571  72.0996952  66.1171526  61.1657595  72.1496843  65.0923357
  60.3631442  71.1168215  66.2990443  60.0375598  72.8661472  66.2674886
  63.0410549  71.2790237  66.9604889  63.8172301  71.4858933  67.6972785
  62.6211313  70.2900034  67.1437998  63.4728395  71.3101447  65.9601418
  61.5000816  74.7433128  67.0547705  61.1056422  74.9807968  68.2084775
  61.0147106  75.3706212  65.9752441  61.3164995  75.0954859  65.0514891
  60.1904407  76.5672320  66.1057613  60.1084295  76.8381277  67.1583718
  60.8063857  77.7579911  65.3357156  60.7720881  77.4338161  64.2956034
  60.1687668  78.6326304  65.4643559  62.2791842  78.1253482  65.7191833
  62.9153664  77.2769929  65.4668615  62.7733052  79.3613800  64.9919312
  62.1378514  80.2103151  65.2441346  63.7992925  79.5743482  65.2920902
  62.7383492  79.1889477  63.9162242  62.5268626  78.3369743  67.2015149
  62.2833805  77.4240814  67.7450611  63.5754682  78.5867581  67.3631794
  61.8998711  79.1522866  67.5624117  58.7173131  76.3190841  65.7469930
  58.4149962  75.6988529  64.7693490  57.8422385  76.8966347  66.5479685
  58.1528301  77.2029094  67.4589174  56.4633492  77.0862734  66.2002464
  56.0599791  76.2550318  65.6219480  55.6465104  77.2430932  67.4475538
  56.0326920  78.0775808  68.0328693  54.6078122  77.4373737  67.1802310
  55.7042954  76.3285048  68.0377133  56.3723573  78.3535331  65.2980012
  56.8823193  79.4485432  65.6232959  55.8712189  78.1387015  64.1097934
  55.7381566  77.1932640  63.7803368  55.4622610  79.2272058  63.2516635
  55.7596290  80.1882941  63.6711643  56.1577131  79.0484522  61.8902545
  56.0471649  78.0427436  61.4847568  55.5438017  79.7412240  61.3146852
  57.6174084  79.4724149  61.8040265  58.6579302  78.5738434  62.0746586
  58.4202918  77.5686311  62.4227616  59.9764615  78.9524693  61.9037765
  60.7903874  78.2608689  62.1212976  60.2576479  80.2310968  61.4202998
  61.5439535  80.6679377  61.2947887  62.1907515  80.0135053  61.5685959
  59.2483891  81.1006905  61.0794117  59.4748987  82.0882938  60.6776237
  57.9429693  80.7121618  61.2504484  57.1327676  81.3772112  60.9514793
  53.9249287  79.0946255  63.0950113  53.4597024  78.0681284  62.5687546
  53.1419669  80.1524229  63.4049427  53.3868360  80.7799387  64.1575132
  51.8697683  80.4059294  62.6537494  51.2566421  79.5053686  62.6878923
  51.0561654  81.5804475  63.2456602  50.4330653  81.2009883  64.0555097
  51.7501488  82.3231164  63.6392716  50.2198959  82.1893560  62.2410320
  49.7261217  82.9139168  62.6319264  52.3218538  80.7077637  61.1892775
  53.1874582  81.5431720  61.0116852  51.7342588  80.1108943  60.1713148
  50.9627547  79.4684408  60.2814699  52.2393333  80.3589728  58.8290578
  53.2671374  80.0048929  58.7494001  51.3997245  79.6529008  57.7778558
  51.4276256  78.5772868  57.9521412  50.3695584  80.0037680  57.8390929
  51.9263215  79.9325180  56.3775001  52.9107395  80.6496505  56.2129301
  51.2667316  79.3631269  55.3660858  51.5747162  79.5163103  54.4164647
  50.4627511  78.7817734  55.5551470  52.2443152  81.8314856  58.5683468
  53.0165041  82.3351001  57.7773439  51.3693041  82.5331085  59.2453705
  50.7281728  82.0931015  59.8899198  51.2956509  83.9630376  59.0772724
  51.1177029  84.1934614  58.0268732  50.1466094  84.5538202  59.9115052
  49.2025637  84.1087860  59.5971463  50.3833648  84.2530446  61.3876844
  51.3270717  84.6981851  61.7029117  49.5692379  84.6715570  61.9794150
  50.4232495  83.1741025  61.5373339  50.0909572  86.0634523  59.7028471
  49.9217688  86.2789493  58.6478407  49.2767164  86.4826858  60.2939096
  51.0345552  86.5092740  60.0174369  52.5893723  84.6408539  59.5084523
  52.9007744  85.7369753  59.0605778  53.3488484  83.9978661  60.3798499
  53.0794537  83.0962901  60.7468466  54.5438599  84.6306202  60.9144066
  54.1855020  85.5267699  61.4209582  55.2173969  83.7259284  61.9421739
  54.4950706  83.4452870  62.7087144  55.5895803  82.8283122  61.4483472
  56.3812072  84.4696119  62.5887842  57.1042233  84.7501948  61.8228718
  56.0097149  85.3671684  63.0832414  57.0810325  83.5990756  63.6226582
  56.6895142  82.4550708  63.8426719  58.1205341  84.1445847  64.2583309
  58.6203310  83.6097096  64.9541852  58.4024210  85.0896695  64.0404875
  55.5500222  85.0614841  59.8766187  56.1192476  86.1420094  59.9984361
  55.7792257  84.2503696  58.8582853  55.3336706  83.3480214  58.7725661
  56.7374084  84.6453653  57.8391634  56.9227173  83.8109566  57.1627597
  56.2214311  85.8277411  57.0248171  55.2917869  85.5495783  56.5283430
  56.0398407  86.6741513  57.6871725  57.2498875  86.2119210  55.9880995
  58.1797290  86.4906731  56.4838744  57.4316740  85.3661018  55.3250438
  56.7334329  87.3953960  55.1729987  57.0097000  88.5499284  55.5952934
  56.0675785  87.1336159  54.1358347  58.0564151  85.0027347  58.4976172
  58.6375123  86.0457208  58.2159809  58.4934638  84.1249663  59.3917230
  57.8382687  83.4115512  59.6778307  59.7626802  84.2305695  60.1124640
  59.9782372  83.1691499  60.2350311  60.8275887  84.8415233  59.2243141
  60.8127861  84.3532455  58.2499092  60.6304597  85.9062722  59.0996148
  62.1970136  84.6503608  59.8675534  62.2127330  85.1387966  60.8418656
  62.3950618  83.5857704  59.9921582  63.2687462  85.2652309  58.9737139
  63.2539433  84.7769551  57.9993082  63.0716172  86.3299798  58.8490169
  64.6141987  85.0984236  59.5672913  64.6938966  84.6223661  60.4544874
  65.7231352  85.5467727  58.9857902  65.6988990  86.1828587  57.8180112
  64.8180674  86.3364512  57.3482826  66.5614367  86.5093839  57.4062958
  66.8808158  85.3423633  59.6077977  66.8957170  84.8589759  60.4944851
  67.7397352  85.6714630  59.1906053  59.8185998  84.8783328  61.4798263
  60.8553035  84.7993364  62.1264136  58.7426571  85.4935153  61.9403010
  57.8864712  85.5675210  61.4096710  58.7785291  86.0668376  63.2667898
  59.7521380  86.4326470  63.5929317  57.7659385  87.1877200  63.4117822
  58.0644303  88.0305966  62.7884356  56.7840114  86.8338946  63.0975739
  57.7042288  87.6266348  64.8552662  57.4053319  86.7843474  65.4792159
  58.6857492  87.9810512  65.1700773  56.6852829  88.7545484  65.0011694
  55.4946686  88.4263889  65.2508696  57.1072569  89.9335475  64.8615301
  58.4213368  84.9027864  64.1522769  57.3389650  84.8507969  64.6995515
  59.3205491  83.9427530  64.2815015  60.2185090  83.9823407  63.8208495
  59.0208720  82.7679139  65.1415205  58.0046062  82.3992541  65.0022614
  59.9836105  81.6342913  64.8896569  61.0052519  81.9856673  65.0341692
  59.7778766  80.8208385  65.5854072  59.8643678  81.2760484  63.8671392
  59.1589820  83.2290337  66.5804504  60.0885383  83.9999356  66.8858571
  58.2147594  82.8388459  67.4416514  57.4900400  82.1952676  67.1575950
  58.0809266  83.5134832  68.7576732  58.9875916  84.0845546  68.9575114
  56.8558044  84.4889730  68.7979740  55.9908018  83.9359013  68.4319393
  56.6961792  84.7635896  69.8406655  57.0461860  85.7791337  67.9446209
  58.1116320  85.9516400  67.7924130  56.5763028  85.5457723  66.9891868
  56.4095087  87.0764497  68.5060690  56.7963023  88.1815678  68.1073186
  55.4025358  86.9383556  69.3749008  54.9598090  87.7582541  69.7645940
  55.0892497  86.0147797  69.6375046  58.1279609  82.5431024  69.9203635
  58.6802699  82.8712268  70.9727504  57.7823755  81.2880363  69.6647566
  57.3562017  81.0683271  68.7758230  57.9467052  80.1930113  70.6577808
  58.7021779  80.4901410  71.3851555  56.6089267  79.8658854  71.4257778
  55.9136885  79.2790378  70.8254837  56.8878338  79.3000698  72.3146893
  55.8336435  81.1007521  71.9154798  55.0676665  81.8822627  71.0311533
  55.0229967  81.5946218  69.9807404  54.3693705  83.0130086  71.4788098
  53.8162845  83.6283604  70.7692052  54.3824853  83.3471962  72.8200185
  53.8423512  84.2248760  73.1750301  55.0893789  82.5571304  73.7169530
  55.0852872  82.8121426  74.7766946  55.8050982  81.4380200  73.2678665
  56.3495901  80.8176748  73.9797656  58.4622812  78.9284079  69.9590215
  58.4598578  78.8205965  68.7249973  58.8983205  77.9687533  70.7647552
  58.8886967  78.1154041  71.7640051  59.4029080  76.6798732  70.2513602
  58.6249440  76.2619348  69.6124559  60.2869847  76.8969157  69.6518602
  59.7636088  75.6701423  71.3086282  59.4635559  75.8684229  72.4702895
  60.5706532  74.6988926  70.9424870  61.0245171  74.7339031  70.0408878
  60.8367517  73.5334023  71.8182050  60.7899742  73.7417023  72.8870933
  59.7806940  72.4993640  71.4793821  60.0745539  71.9719366  70.5718762
  59.6378024  71.5056628  72.6179623  59.3434872  72.0323274  73.5257633
  58.8768218  70.7678763  72.3636422  60.5903483  71.0022282  72.7832210
  58.5371819  73.1919818  71.1827879  57.8571899  72.5499774  70.9658973
  62.2576007  72.9749212  71.5599299  62.6759805  72.8007477  70.4130528
  63.0025880  72.7163588  72.6372916  62.7008276  73.0160075  73.5533979
  64.2997158  72.0756693  72.5152657  64.8382288  72.4953403  71.6655722
  65.1833791  72.2325656  73.7928000  66.1477558  71.7541956  73.6218033
  65.3964926  73.7037984  74.1037258  64.4325211  74.1827737  74.2753105
  66.0140891  73.8012490  74.9965735  65.8960339  74.1847686  73.2627581
  64.5850991  71.5883611  74.9301208  65.1511055  71.7026582  75.6970454
  64.0746069  70.6136457  72.1750773  63.1909106  69.9620333  72.7361156
  64.8506407  70.1066351  71.2196608  65.4307013  70.7148837  70.6596049
  64.8964508  68.6990378  70.9623919  64.2760962  68.1190232  71.6456506
  64.4359221  68.4410606  69.5626698  65.0535519  69.0080088  68.8661044
  64.5225286  67.3772809  69.3413730  63.3956520  68.7496543  69.4591941
  66.3168301  68.2316443  71.1255581  67.2570877  68.8606294  70.6506757
  66.4747743  67.1125352  71.7902727  65.6411663  66.5644118  71.9476188
  67.7598646  66.5637348  72.2293934  68.5609925  67.2957541  72.1272118
  67.6160648  66.2034012  73.6978382  67.2948461  67.1247970  74.1835826
  66.8062841  65.4745188  73.7307871  68.8242608  65.6475895  74.4199414
  69.2740233  64.7157785  74.0770963  69.5192177  66.4699458  74.2500471
  68.5180748  65.5453872  75.8906099  68.8468594  66.5024240  76.6438113
  67.7436393  64.6291206  76.2357796  68.0027398  65.2899043  71.4797905
  67.1278768  64.4227034  71.4928820  69.1691570  65.1495314  70.8298024
  69.8071967  65.9236963  70.7128697  69.4159786  63.9425786  70.0836356
  68.4485212  63.5828133  69.7333581  70.3373623  64.1252665  68.9096483
  71.3718216  64.1624722  69.2511307  70.1561091  62.9359058  67.9559449
  69.1219312  62.8983160  67.6136533  70.8181886  63.0532554  67.0980518
  70.3993360  62.0105170  68.4780518  69.9820083  65.4319081  68.1830471
  69.3444542  65.1672895  67.3394817  69.4185267  66.0467832  68.8848423
  71.1799438  66.2060002  67.6850762  71.7437022  65.5918964  66.9828279
  70.8439134  67.1140283  67.1844088  71.8177762  66.4713882  68.5281889
  69.8102728  62.7789336  70.9880673  70.7440188  62.8622719  71.7800957
  69.0538240  61.6859882  70.8777470  68.2516572  61.6954586  70.2641201
  69.3243957  60.4650787  71.6535415  70.0925448  60.6688329  72.3995511
  68.0638393  59.9832985  72.3697813  68.2456052  59.2755010  73.1785353
  67.7896361  60.9511675  72.7894743  66.9167738  59.4652767  71.4830163
  66.8482194  58.1368549  71.1129070  67.6621999  57.4735792  71.4054827
  65.7819629  57.6430487  70.3895816  65.7712110  56.6035735  70.0617438
  64.7046755  58.4619819  70.1216018  63.6247045  57.9916950  69.3770925
  63.7309023  57.0795872  69.0971264  64.7141276  59.7726152  70.5548339
  63.8653534  60.4259590  70.3527827  65.8024982  60.2527693  71.2449090
  65.8020440  61.2763686  71.6195346  69.8541510  59.3052535  70.8234488
  70.2119263  58.2579959  71.3746959  69.8239417  59.4602769  69.5125620
  69.4568693  60.3073231  69.1028428  70.3093742  58.4253019  68.6275338
  71.1361645  57.8549748  69.0509059  69.1992788  57.4733049  68.2754769
  68.3675731  58.0285930  67.8418632  69.5625677  56.7416848  67.5537752
  68.8621222  56.9587937  69.1753119  70.8224963  59.1113175  67.3970411
  70.3077316  60.1501309  67.0251486  71.8406410  58.5518347  66.7645812
  72.2859974  57.7112388  67.1039270  72.3737658  59.1773927  65.5795832
  71.5820251  59.5739538  64.9439850  73.2407006  60.3257293  66.0448198
  72.5855172  61.1457077  66.3388764  73.7304817  59.9177135  66.9289792
  74.2758906  60.8324864  65.0908152  74.0232514  60.9431340  63.7472064
  73.0515792  60.6313940  63.3640998  74.9747271  61.4387709  62.8869314
  74.7653432  61.5146264  61.8199234  76.1816504  61.8445261  63.3755467
  77.1452346  62.3320095  62.5314243  76.8671927  62.3453570  61.6126675
  76.4473696  61.7617623  64.7103008  77.4111025  62.0850708  65.1037355
  75.4928686  61.2680841  65.5580453  75.6901444  61.2141263  66.6286857
  73.1492598  58.1984149  64.7423732  73.7515999  57.2810126  65.2698771
  73.1278317  58.3902447  63.4337632  72.5930276  59.1514949  63.0405940
  73.8685047  57.5382859  62.5344752  74.7513155  57.1469486  63.0400436
  73.0190089  56.3805686  62.0851095  72.1618499  56.3162603  62.7553648
  72.6734062  56.5936868  61.0735565  73.7628943  55.0721553  62.0955445
  74.6502537  55.1778468  62.7196626  73.1141871  54.3028943  62.5144938
  74.1739127  54.6772740  60.7023041  74.4931363  55.5602323  60.1486075
  74.9951715  53.9621574  60.7496488  73.0626480  54.0633870  59.9982880
  72.7104816  54.5262330  59.1725449  72.4841360  52.9386486  60.3867881
  71.4775969  52.4381873  59.6900625  71.1531154  52.9170328  58.8621018
  71.0380303  51.5794518  59.9891513  72.9087542  52.3204890  61.4802574
  73.6729003  52.7109503  62.0129119  72.4660966  51.4620069  61.7754886
  74.2416236  58.3852362  61.3579926  73.4518857  59.1987362  60.9283627
  75.4365716  58.1858807  60.8232566  76.0464190  57.4814839  61.2131422
  75.9207287  58.9709137  59.6853845  75.1174075  59.5915528  59.2884193
  77.1010940  59.8864233  60.0848419  76.7733115  60.5894424  60.8506238
  77.9169787  59.2784710  60.4757718  77.5786741  60.6496701  58.8726242
  77.9070746  59.9472794  58.1065294  76.7634092  61.2582523  58.4813825
  78.7443222  61.5537616  59.2670993  79.9041547  61.0692259  59.1798345
  78.4637943  62.7202969  59.6519366  76.3703628  58.0250112  58.5833457
  77.4819543  57.5768725  58.6129063  75.5092296  57.7748364  57.6024602
  74.5361590  58.0180156  57.7211905  75.8690752  56.9324343  56.5017270
  76.8423761  56.4869406  56.7074450  74.8619292  55.8130069  56.2605686
  75.4201637  55.0582135  55.7067090  74.6303381  55.4349799  57.2563402
  73.5705150  56.1275674  55.5258727  73.0455162  56.7788089  56.2247014
  73.7135436  56.6503922  54.5802004  72.7399229  54.8568033  55.2877038
  72.1684102  54.3262872  56.3013821  72.7776341  54.3287621  54.1268987
  76.2691735  57.7097622  55.2657898  75.6290923  58.6958498  54.8289222
  77.3561369  57.2433540  54.6745988  78.0468851  56.7241845  55.1975034
  77.6675344  57.6119078  53.2640195  76.8151478  58.1450147  52.8429100
  78.9169138  58.5131798  53.1535443  79.2269063  58.4608208  52.1098669
  78.5732841  59.5225586  53.3797588  80.1069082  58.1630350  54.0587945
  79.7825305  57.5045021  54.8645329  80.8442929  57.6475034  53.4434953
  80.7608288  59.3977006  54.6716327  81.2734340  60.2451750  53.9562719
  80.7115602  59.5136674  55.9995368  81.1312521  60.3146819  56.4493546
  80.2547867  58.7999328  56.5491205  77.7631238  56.3886832  52.3610056
  78.6773565  56.2775204  51.5543691  76.7270648  55.5706741  52.3718631
  75.9275457  55.7798057  52.9524943  76.7261692  54.3213783  51.6167949
  77.7339574  53.9079187  51.5778927  75.8100884  53.3075774  52.2872901
  74.8634609  53.8237778  52.4470802  75.6489372  52.4468609  51.6382157
  76.3495574  52.8489204  53.5919233  77.1003259  53.6568547  54.2328662
  76.0720032  51.6709390  53.9399816  76.3165192  54.5606079  50.1888992
  77.1129410  54.3305316  49.2471103  75.0855437  55.0667385  50.0402486
  74.4897314  55.1869502  50.8468812  74.5355337  55.3863624  48.7122770
  74.4409887  54.4610780  48.1439380  73.1677238  56.0582536  48.7808286
  73.0333662  57.0758835  49.1475390  72.9251825  56.0203123  47.7188332
  72.1641203  55.2229829  49.4739461  71.6343695  54.1007515  48.8182192
  71.8858326  53.9237653  47.7724936  70.7866649  53.2091296  49.4977694
  70.3330111  52.3766122  48.9599834  70.5241523  53.3878752  50.8620711
  69.8566495  52.7024159  51.3842640  71.1210083  54.4497935  51.5558538
  70.9287132  54.5867406  52.6199817  71.9713061  55.3410709  50.8736285
  72.4873046  56.1293809  51.4217278  75.5684458  56.2447618  48.0434713
  75.8090331  56.0429341  46.8724686  76.2749378  57.0932697  48.8093437
  76.1813472  57.0813826  49.8149275  77.2076846  58.0667368  48.2039364
  78.0668783  58.1776206  48.8654424  77.5384435  57.6744779  47.2422551
  76.5617438  59.4463619  47.9865793  76.8348838  60.1799615  47.0129977
  75.7176987  59.8262928  48.9114969  75.0273245  59.1949173  49.2920854
  75.7611347  61.1715973  49.4143278  76.7057399  61.6434256  49.1437758
  74.5847644  62.0616036  48.9390893  74.9189088  62.6629763  48.0936316
  73.3930267  61.2080219  48.5161454  73.0580047  60.6066684  49.3612695
  72.5803754  61.8554794  48.1867562  73.6880723  60.5512224  47.6978167
  74.1971531  63.0705721  50.0561233  73.8492569  62.4794821  50.9032842
  75.1109892  63.5968814  50.3318074  73.1246331  64.0834946  49.6687182
  72.2102883  63.5579120  49.3933342  72.9240393  64.7421618  50.5137146
  73.4720201  64.6753100  48.8218553  75.7028423  60.8630487  50.8872222
  75.2732242  59.7591599  51.2902790  76.3035313  61.7306452  51.6871291
  76.7885726  62.5271440  51.2992837  76.3308978  61.5377686  53.1623723
  76.4925160  60.4771282  53.3547800  77.4203362  62.3426491  53.8957676
  77.0805915  62.4169999  54.9287946  78.3169681  61.7243738  53.8523298
  77.7409496  63.7493904  53.3588740  78.1345123  63.6026277  52.3530560
  76.8163771  64.3242913  53.3063957  78.7747324  64.5157156  54.2081354
  78.7252171  65.7858429  54.1954167  79.6515744  63.8548548  54.8543158
  74.9730272  61.9188640  53.6705215  74.3209876  62.8308414  53.1101157
  74.4636644  61.0868256  54.5432933  75.0327411  60.3480020  54.9310959
  73.0667132  61.2089223  55.0035525  72.5733528  62.1526994  54.7712176
  72.2700913  60.0374707  54.3649786  72.9834211  59.2660854  54.0747620
  71.2451263  59.4467679  55.3101760  70.5311294  60.2174994  55.6004898
  70.7179709  58.6327022  54.8126772  71.7474171  59.0642868  56.1987205
  71.6374323  60.4674482  53.0335103  72.4218579  60.9672527  52.4652034
  71.3446652  59.5516969  52.5199088  70.4298734  61.3909895  53.1532269
  70.7219922  62.3072167  53.6663489  70.0584616  61.6351576  52.1579709
  69.6447998  60.8916613  53.7210567  73.1791081  61.0793179  56.5093377
  73.9627307  60.2669787  56.9885887  72.4486977  61.9104817  57.2567730
  71.9177609  62.6542889  56.8267075  72.4372972  61.8062974  58.6841330
  73.0132322  60.9296658  58.9806377  73.0362397  63.0406891  59.3689389
  72.3916136  63.9037306  59.2024584  73.1454156  62.7764543  60.8358614
  73.7903071  61.9137699  61.0031679  73.5705290  63.6488961  61.3320714
  72.1551472  62.5737064  61.2437381  74.4128674  63.3781439  58.8331531
  74.3474970  63.5815704  57.7643002  74.7975401  64.2589509  59.3472596
  75.0852430  62.5369990  59.0019342  71.0047284  61.5914197  59.1573773
  70.1059938  62.3980608  58.8711828  70.7953706  60.4607976  59.8405765
  71.5433037  59.7893047  59.9395350  69.5139811  60.1479906  60.4240192
  68.7848749  60.8753689  60.0670540  69.0225572  58.7551682  60.0713179
  69.3532034  58.1026120  60.8793667  67.9338523  58.8082773  60.0702848
  69.4932725  58.2098161  58.7699078  68.8193238  58.5234511  57.9727083
  70.4988384  58.5738089  58.5590797  69.5106020  56.7005039  58.8498925
  70.4006788  56.3992883  59.4022796  68.6211919  56.3782793  59.3913908
  69.5267334  56.0519310  57.4650084  70.0726393  56.7195126  56.7983584
  70.0643457  55.1078330  57.5530483  68.1622684  55.7981352  56.9080191
  67.6640922  56.6728842  56.8259559  68.2448339  55.3709063  55.9965596
  67.6564048  55.1792180  57.5253866  69.6425081  60.2760082  61.9470272
  70.5822809  59.7612732  62.5475460  68.7230585  61.0191693  62.5464636
  68.1224047  61.6111690  61.9907201  68.7068751  61.1805730  63.9723619
  69.2089159  60.3283828  64.4304297  69.4165983  62.4792597  64.4321793
  69.6768564  62.3900975  65.4868902  70.6528642  62.6992704  63.6334003
  70.3933420  62.7889989  62.5785553  71.1426605  63.6145848  63.9656647
  71.3293425  61.8555940  63.7701074  68.5426388  63.7006956  64.2739550
  67.6392437  63.5816615  64.8721274  69.0866716  64.5833799  64.6101042
  68.2703179  63.8198726  63.2252706  67.3143354  60.9857294  64.5655659
  66.2956595  61.1325835  63.8970621  67.3032870  60.5914539  65.8291425
  68.1747329  60.3204308  66.2618410  66.0926656  60.5390000  66.6282103
  65.2247923  60.7981148  66.0217825  65.9074094  59.1272644  67.1638854
  66.7300923  58.9371031  67.8531826  64.9650353  59.1149625  67.7114983
  65.8851066  58.0669258  66.1106529  65.0732249  58.2687578  65.4119306
  66.8342346  58.0700407  65.5746973  65.6743233  56.7213419  66.7483835
  66.4244051  56.5452589  67.5194030  64.6794687  56.6624093  67.1898480
  65.8078067  55.6768315  65.6703088  65.2398981  56.0287653  64.8090753
  66.8642652  55.6175366  65.4086245  65.3242004  54.3419817  66.0649809
  64.3451717  54.3966230  66.3070900  65.4453867  53.6989603  65.2956063
  65.8505966  54.0155064  66.8627402  66.2260219  61.5079139  67.7885391
  66.9882331  61.2562220  68.6862063  65.4762878  62.6039260  67.7478303
  64.9419390  62.8140462  66.9169150  65.4362301  63.5499510  68.8502826
  66.2709419  63.3357508  69.5177208  65.5880912  64.9468325  68.3260143
  64.7546509  65.1792827  67.6631084  65.5957254  65.6494017  69.1593442
  66.5244253  65.0285059  67.7740116  64.1577391  63.4456614  69.6593890
  63.1811759  62.9073707  69.1977089  64.1792290  63.9770507  70.8715460
  65.0439240  64.3672444  71.2181736  63.0164077  64.0004876  71.7404473
  62.1002939  63.7618912  71.2001637  63.2148598  62.9893742  72.8858313
  63.4537065  62.0184583  72.4518093  64.3281423  63.4135953  73.8117387
  64.0897794  64.3842846  74.2465328  64.4400230  62.6771989  74.6075425
  65.2600026  63.4861969  73.2509672  61.9367803  62.7928301  73.6821731
  62.0007301  63.4144208  74.5752778  61.1036081  63.1290556  73.0650216
  61.7134535  61.3388840  74.0895598  62.5460535  61.0020708  74.7071631
  60.7856678  61.2581152  74.6559425  61.6489338  60.7167050  73.1969063
  62.8364016  65.4120630  72.2880309  63.7850109  66.0153560  72.7576029
  61.6329088  65.9576544  72.1680427  60.8844008  65.4479702  71.7207652
  61.3517782  67.3006228  72.6735320  62.0163574  67.9993528  72.1653882
  60.3169388  67.5432530  72.4320006  61.5536584  67.4303118  74.1822040
  61.0735901  66.5827694  74.9668710  62.2509046  68.4932667  74.5915052
  62.5862288  69.1734509  73.9244172  62.6113760  68.6624161  75.9864156
  62.2364978  67.8063793  76.5474561  64.1138167  68.7663144  76.2041491
  64.4806942  69.4968658  75.4831812  64.2537219  69.1515048  77.2141763
  64.8876156  67.4651855  76.0460162  64.4838199  66.9693066  75.1633193
  65.9260052  67.7418873  75.8635742  64.8167260  66.5201370  77.2346726
  65.8242298  66.1984524  77.4984034  64.3688020  67.0406178  78.0811732
  64.0033600  65.3257627  76.9293482  63.1158434  65.4999707  76.4798315
  64.3515084  64.0560027  77.1885301  65.5206478  63.7559592  77.7613274
  66.1630303  64.4952224  78.0081768  65.7567452  62.7912469  77.9448701
  63.5082897  63.0745775  76.8780519  62.6187419  63.2929428  76.4524684
  63.7616791  62.1157873  77.0693997  61.9612820  69.8687130  76.6549875
  61.2123509  69.7116180  77.6048340  62.2751776  71.0671301  76.2027098
  62.8908967  71.1829554  75.4105142  61.7952510  72.2783321  76.8999171
  61.0232120  72.0153115  77.6230181  62.9309370  72.9245128  77.6271865
  63.5050523  73.5181035  76.9157507  62.5219373  73.5777079  78.3980012
  63.8275622  71.9005014  78.2630590  63.3032204  71.0746513  78.7438272
  64.4412518  71.5155907  77.4486078  64.7117125  72.5415743  79.2581524
  65.3182528  73.5511029  78.9576417  64.7076748  72.0403793  80.4847283
  65.2973576  72.4487712  81.1957779  64.1149317  71.2522651  80.7029782
  61.1270463  73.2875091  75.9935764  61.4817455  73.4586655  74.8317004
  60.2045479  74.0296584  76.5539272  59.8671261  73.8154934  77.4814935
  59.5913573  75.1361157  75.8352990  59.6248955  74.9462210  74.7624923
  58.1468352  75.2952402  76.2528972  58.1466959  75.5976735  77.3000998
  57.7227567  76.0940578  75.6444994  57.3098561  74.0342478  76.0891441
  57.3027964  73.7485438  75.0372771  57.7565047  73.2341446  76.6794338
  55.8835008  74.2742773  76.5584175  55.5708976  75.2729142  76.2532902
  55.2280035  73.5332802  76.1008743  55.7661133  74.1707232  78.0044416
  55.5754352  73.2489001  78.3704792  55.8731462  75.1860900  78.8618774
  56.1099713  76.4246311  78.4732645  56.2173574  76.6304322  77.4903026
  56.1827655  77.1611205  79.1605664  55.7556395  74.9415922  80.1386565
  55.5872142  73.9974864  80.4555118  55.8336886  75.6976542  80.8037711
  60.3717946  76.4201581  76.0676213  60.7783525  76.7202670  77.1819418
  60.4948467  77.2024895  75.0129172  60.2218697  76.8764353  74.0967996
  61.1149764  78.4961960  75.1196168  61.0971283  78.8178396  76.1609266
  62.5739275  78.4669912  74.6398360  63.0346943  79.4547385  74.6520223
  63.1205383  77.8033673  75.3098509  62.7644042  77.9072779  73.2099110
  62.5491779  78.7082453  72.0768273  62.2472592  79.7479557  72.2031105
  62.7173308  78.1876671  70.8101202  62.5716918  78.8234827  69.9368341
  63.0710232  76.8578712  70.6476590  63.1099779  76.4335172  69.6444112
  63.3713951  76.0748495  71.7376130  63.7216425  75.0514436  71.6031983
  63.2264488  76.5939256  73.0098149  63.4716435  75.9832919  73.8787833
  60.3763933  79.6108540  74.4028563  59.5862432  79.3588623  73.4951289
  60.7449176  80.8339694  74.7737843  61.3826100  80.9075486  75.5535495
  60.3327726  82.0533967  74.1050403  59.4418309  81.8732746  73.5034774
  60.0117438  83.1110829  75.1409117  59.7607730  82.5704987  76.0535352
  60.9342399  83.6713727  75.2931495  58.8709311  84.0858829  74.7916480
  59.2573166  84.8414305  74.1075758  58.0741454  83.5262964  74.3016504
  58.3100323  84.7782721  76.0640751  57.9464987  83.9957129  76.7300656
  59.1357363  85.3061287  76.5412332  57.1770764  85.7640278  75.7696133
  56.3326507  85.2047258  75.3668392  56.8842768  86.2387797  76.7060845
  57.5955249  86.8179681  74.7834919  57.8664694  86.3782894  73.9155221
  56.8236197  87.4472925  74.6155240  58.3777057  87.3366257  75.1567031
  61.4977616  82.5449349  73.2702271  62.6440453  82.5840001  73.7188758
  61.1969401  82.9284783  72.0376514  60.2585821  82.7956741  71.6884429
  62.1892727  83.5381458  71.1484671  63.1669414  83.0616054  71.2203856
  61.7382887  83.5057552  69.6956732  60.6948329  83.8161952  69.6415782
  62.5949973  84.4476525  68.8467940  63.6385981  84.1375481  68.9000249
  62.2581433  84.4114767  67.8107819  62.4993489  85.4657979  69.2240647
  61.7776000  82.0602812  69.1999821  61.1101326  81.4490448  69.8074189
  61.4562726  82.0237230  68.1590634  62.7944675  81.6758888  69.2795038
  62.4128790  84.9832636  71.5551682  61.4871468  85.7436235  71.7193992
  63.6645002  85.3469390  71.7026422  64.3947187  84.6508696  71.6539845
  64.0485519  86.7398263  71.9224630  63.2274200  87.3330285  72.3248964
  65.1498568  86.7026409  72.9313257  66.0207660  86.2224958  72.4851453
  65.4319014  87.6844125  73.3116879  64.6284003  85.8438344  74.0788014
  63.9553260  85.1024534  73.6481901  65.7165721  85.1423681  74.8610622
  66.3898231  85.8831702  75.2923906  65.2675663  84.5516762  75.6595468
  66.2775697  84.4860689  74.1957401  63.8121887  86.7260746  74.9929200
  62.9786293  87.1543892  74.4363010  63.4277719  86.1332238  75.8228916
  64.4401489  87.5283573  75.3803569  64.5416466  87.3529922  70.6090437
  63.8602975  88.1847391  69.9890643  65.6846234  86.8427570  70.1185437
  66.1645287  86.1416428  70.6646473  66.2340105  87.2004438  68.8178366
  65.5606328  87.8713196  68.2843694  67.5419407  87.9042832  69.0317841
  67.7954934  87.7921382  70.0859349  68.2846732  87.3885563  68.4231182
  67.5268128  89.3459811  68.6774194  67.1936141  89.4350327  67.6434226
  66.8431793  89.8923199  69.3272335  68.8906606  89.9127045  68.8073524
  69.8068919  89.1398773  69.2063366  69.0290667  91.1226196  68.5412150
  66.5583701  85.9812578  67.9308500  66.9211606  84.9210081  68.4276999
  66.6285858  86.2334750  66.6378851  66.3558138  87.1494944  66.3113838
  67.1073025  85.2596599  65.6539864  67.4460242  84.3466097  66.1435843
  65.9590923  84.9155501  64.7298811  65.3992512  85.8454423  64.6299934
  66.3916259  84.6471400  63.7660498  65.0321667  83.8179242  65.1875835
  64.7580669  83.9833365  66.2295091  63.7783375  83.8235121  64.3268826
  64.0516092  83.6576849  63.2848064  63.1071524  83.0304701  64.6565729
  63.2763361  84.7863931  64.4215141  65.7354171  82.4770895  65.0992529
  66.6205757  82.4878893  65.7352380  65.0595178  81.6891431  65.4315207
  66.0322985  82.2892168  64.0674272  68.2466306  85.8192677  64.7967446
  68.0251383  86.6866771  63.9230375  69.4422488  85.2659050  64.9897232
  69.5575355  84.5787994  65.7209512  70.6294870  85.6132347  64.1498205
  70.4719475  86.5553169  63.6246904  71.8529384  85.7653244  65.0800122
  72.2526802  84.7638755  65.2394036  72.5848168  86.3664934  64.5405218
  71.5556412  86.4166710  66.4323372  72.2992640  87.1959989  66.5989926
  70.5645669  86.8669104  66.3761401  71.5964233  85.4191195  67.5879803
  70.8988613  85.7440751  68.3599324  71.2975681  84.4381373  67.2185768
  72.9351083  85.3110273  68.1792979  73.4462247  84.4607269  67.9899609
  73.5113207  86.2458901  68.9471870  74.7189493  86.0337822  69.4498992
  75.2000598  85.1680559  69.2520338  75.1526820  86.7388238  70.0285976
  72.8897327  87.3877956  69.2251605  71.9663404  87.5599312  68.8539247
  73.3437741  88.0778945  69.8062875  70.9426196  84.5094631  63.1084919
  70.7270706  83.3703497  63.3849287  71.3705658  84.8955269  61.9065818
  71.5627700  85.8742366  61.7475716  71.4288602  83.9748940  60.7546153
  71.0965634  82.9731507  61.0269909  70.5193321  84.5061328  59.6037422
  71.0095259  84.3127282  58.6495908  69.1329485  83.8007748  59.6264479
  68.6419192  83.9941239  60.5801806  68.5151361  84.1865097  58.8155129
  69.2690205  82.7267681  59.4995839  70.3362240  85.9419621  59.7171736
  69.7749977  86.2504516  59.0020096  72.8694750  83.6502885  60.2562288
  73.3110805  84.1239612  59.1867388  73.5661086  82.7863444  61.0039529
  73.2756834  82.5525191  61.9426106  74.8086552  82.1901534  60.4894646
  75.6720400  82.8440843  60.6121026  75.1153516  80.8339868  61.1677988
  75.3026967  80.9924937  62.2298142  74.2634402  80.1651079  61.0455366
  76.3479476  80.2099325  60.5221303  76.1611799  80.0506902  59.4601225
  77.2004375  80.8780737  60.6444015  76.6836347  78.8708967  61.1630531
  75.9939223  78.4271013  62.0783575  77.7480371  78.2266522  60.6790901
  78.0144972  77.3338622  61.0689956  78.2819830  78.6349833  59.9252540
  74.5753526  82.0547440  58.9506942  73.4582448  81.6635118  58.5151287
  75.5147755  82.5522692  58.1274620  76.3905036  82.9129657  58.4783148
  75.2641157  82.6146300  56.6731172  74.2726365  83.0311363  56.4953793
  76.2911700  83.4874448  55.9691137  76.0277842  83.5627440  54.9140985
  76.2785836  84.4806480  56.4179889  77.5774938  82.9342316  56.0922534
  78.2122310  83.4970567  55.6428801  75.2887419  81.2468556  56.0544948
  75.2428244  81.1302244  54.8523372  75.5515677  80.2456212  56.8946699
  75.9582861  80.5001627  57.7834264  75.4501310  78.7973491  56.5522310
  75.7563604  78.6412957  55.5178374  76.3868472  77.9354858  57.4924285
  76.4961344  76.9232176  57.1032386  77.3479619  78.4475875  57.4464895
  75.9043088  77.8734838  58.9652715  74.9894963  77.0993854  59.2225862
  76.4853270  78.5287465  59.8635473  73.9789726  78.2305801  56.4969601
  73.7446509  76.9908516  56.5973225  73.0193279  79.1216296  56.2204699
  73.2443936  80.1039402  56.1533089  71.6534178  78.7187821  56.0121059
  71.0800905  79.5592216  55.6208816  71.6201113  77.8940970  55.3001477
  71.0335508  78.2650273  57.3241491  69.8881120  77.8223812  57.3432372
  71.7963828  78.3561271  58.4122774  72.7317131  78.7292270  58.3344770
  71.3292472  77.9384162  59.7204544  70.3715249  77.4183775  59.6997883
  72.3640629  77.0634838  60.3978218  73.3539236  77.4400449  60.1399888
  72.2019956  77.0647375  61.8872168  71.2124736  76.6878406  62.1458587
  72.9623913  76.4259509  62.3364949  72.3130410  78.0813340  62.2644429
  72.3200909  75.6545246  59.7894029  71.5441031  75.6914782  59.0248259
  73.2907937  75.5118550  59.3145545  72.0441904  74.4972585  60.7352523
  71.0733813  74.6389998  61.2101616  72.0409715  73.5622682  60.1750005
  72.8200712  74.4593781  61.4998920  71.0826638  79.1567130  60.5779102
  71.8710746  80.0987991  60.5977160  70.0074267  79.0878006  61.3765147
  69.3414434  78.3388509  61.2514547  69.7852161  80.0425867  62.4728390
  70.1815807  81.0192826  62.1952431  68.3225496  80.1845941  62.7636548
  67.8572002  79.2131298  62.5969027  68.2201342  80.4605913  63.8131483
  67.6505254  81.2112660  61.9111689  67.3781156  82.0123204  62.5983410
  68.2808924  81.6126385  61.1176706  66.4069708  80.6646251  61.3005194
  65.8245187  79.6903778  61.8179610  66.0405777  81.2001057  60.1283545
  65.2057780  80.8706093  59.6650586  66.6008352  81.9308423  59.7133402
  70.4006864  79.5951245  63.7540099  70.4225267  78.4604592  64.0338431
  70.8561869  80.5604503  64.5437537  71.1050342  81.4575022  64.1519984
  71.0911486  80.3372429  65.9721964  70.7457634  79.3358459  66.2291250
  72.5968865  80.4621995  66.3664822  72.6016675  81.0141354  67.3063987
  72.9318843  79.4402792  66.5441205  73.5407800  81.1426911  65.3703792
  72.9332914  81.6183308  64.6004276  74.1239075  81.9012594  65.8925272
  74.5114935  80.1554524  64.6920814  74.7995030  79.0838394  65.2468680
  75.0322202  80.5176786  63.4930944  75.6721301  79.8986963  63.0161481
  74.7776944  81.4047401  63.0826801  70.1983406  81.3479967  66.7371935
  70.1005414  82.5326009  66.3892548  69.4010020  80.7938692  67.6415319
  69.6112014  79.8488401  67.9293434  68.2476338  81.4585335  68.2388855
  68.0050962  82.3711873  67.6945164  67.0573025  80.5174206  68.1635193
  67.2815606  79.6024766  68.7118676  66.1841042  80.9992437  68.6033734
  66.8510403  80.2743909  67.1211702  68.4956779  81.8317885  69.7198189
  68.8041857  80.9343617  70.5213786  68.3711943  83.1382163  70.0330987
  68.3091646  83.8104135  69.2818314  68.4429225  83.6224645  71.3646996
  69.1747401  83.0335686  71.9176406  68.8518609  85.0750062  71.4192872
  69.4046067  85.2877449  70.5042387  67.9362224  85.6661353  71.4357983
  69.7151769  85.4368313  72.6331328  69.0936172  85.3722396  73.5262131
  70.5271885  84.7130619  72.7031124  70.3058700  86.8665169  72.5169667
  71.3761983  86.7572243  72.3421770  69.8423641  87.3345877  71.6485362
  70.0763892  87.7475890  73.7577880  70.3906317  88.7603952  73.5056455
  69.0078385  87.7422104  73.9728921  70.8294399  87.2774008  74.9618086
  71.8196334  87.2827200  74.7628409  70.6389953  87.8929587  75.7395742
  70.5380939  86.3390883  75.1958732  67.1084611  83.3553497  72.0795867
  66.0285202  83.7455173  71.6164172  67.1925796  82.6202951  73.1851163
  68.0505229  82.5691185  73.7156006  66.0633729  81.7673398  73.5983820
  65.0900054  82.1762880  73.3274274  66.1968937  80.3532538  72.9772742
  66.9425130  80.3999376  72.1835666  66.6149690  79.3145927  74.0037980
  65.8695508  79.2670025  74.7976417  66.6956553  78.3397217  73.5229479
  67.5801311  79.5906735  74.4284664  64.9015783  79.9531762  72.2893461
  64.6735943  80.6681021  71.4987727  65.0108922  78.9580703  71.8581682
  64.0901974  79.9460998  73.0171591  65.9657994  81.7406795  75.1198762
  66.9506229  81.4387869  75.7983343  64.7996669  82.1344952  75.6474074
  64.0887440  82.5431907  75.0577837  64.5716634  82.1068468  77.0870722
  65.5052126  81.9026074  77.6113539  64.0403473  83.4512209  77.5487178
  64.8374667  84.1706056  77.3611398  63.1898680  83.6760495  76.9051052
  63.6150889  83.5383923  78.9905886  63.5126078  82.5385645  79.4124212
  64.3741822  84.0900846  79.5451289  62.2726579  84.2716097  79.1337861
  61.9474112  85.1783813  78.3581586  61.4852620  83.8638691  80.1175036
  60.5897823  84.3084893  80.2607879  61.7838819  83.1101739  80.7198915
  63.6600639  80.9248031  77.4677049  62.5151508  80.8233653  77.0149608
  64.1890741  80.0275910  78.3016939  65.1244203  80.1549379  78.6608728
  63.4464442  78.8569879  78.7201735  63.1182032  78.2809670  77.8549816
  64.2323322  77.9674747  79.6459366  64.2931973  78.4338692  80.6292331
  63.5403757  76.6056818  79.7688326  63.4795524  76.1384388  78.7859363
  64.1132225  75.9657255  80.4399535  62.5354753  76.7428835  80.1681446
  65.6568327  77.8437606  79.1389503  66.1402037  78.8113307  79.2740852
  66.1615184  77.0972568  79.7522398  65.7377069  77.4401414  77.6884607
  65.2336027  78.1864554  77.0744622  66.7831487  77.3693856  77.3882206
  65.2549150  76.4723820  77.5526165  62.1803831  79.2383871  79.4627003
  62.2204584  80.0632557  80.3941502  61.0658927  78.6309249  79.0814463
  61.0604907  78.0543259  78.2522275  59.8227408  78.7843394  79.8235848
  59.7999088  79.7629004  80.3031642  58.6208546  78.6697837  78.8930164
  58.6895047  77.6715993  78.4605651  57.7039593  78.7499285  79.4769512
  58.6036514  79.7168661  77.7654400  59.5326533  79.6584256  77.1983060
  57.4332053  79.4422431  76.8455942  56.5037518  79.5009684  77.4119565
  57.4178590  80.1822310  76.0454172  57.5340146  78.4455023  76.4161228
  58.5301033  81.1570813  78.2858128  59.3971856  81.3617774  78.9137995
  58.5211086  81.8484087  77.4431464  57.6196509  81.2864703  78.8709913
  59.7394004  77.7176562  80.8876178  59.7866406  76.5518738  80.5908709
  59.5214120  78.1436606  82.1664169  58.9818657  79.4826178  82.4746190
  58.0476982  79.6303112  81.9327537  59.7018759  80.2422327  82.1702022
  58.7863332  79.4439727  83.9554021  57.7186963  79.5208014  84.1611879
  59.3022872  80.2996202  84.3910168  59.3584450  78.1433635  84.4797815
  58.6563707  77.8058909  85.2422138  60.3659361  78.1584868  84.8955131
  59.3067403  77.2187895  83.2904701  60.0541023  76.4259491  83.2596111
  57.9202186  76.6106615  83.1816451  56.9903331  77.3139222  82.7705341
  57.7511371  75.3276958  83.5369825  58.5411293  74.7097974  83.6562011
  56.4003681  74.7707051  83.6973428  55.7536568  75.1763234  82.9193084
  56.3935188  73.2356685  83.5916001  56.6161625  72.9920875  82.5527559
  57.1996697  72.8739539  84.2298660  55.0737161  72.5639540  84.0034769
  55.2884286  71.5707859  84.3979595  54.6817563  73.1944128  84.8015924
  54.0355786  72.4544198  82.8837257  54.3695141  71.9467175  81.7906514
  52.8614109  72.8307098  83.1190065  55.8617925  75.2401276  85.0429307
  56.4007943  74.9173519  86.1195244  54.7677150  76.0109869  84.9435510
  54.3306980  76.1612323  84.0454743  54.2766191  76.7580858  86.0773548
  55.1044201  76.9687512  86.7544552  53.6415924  78.0942758  85.6451531
  53.5392460  78.7428449  86.5152005  54.2827579  78.5759971  84.9069447
  52.0055102  77.9981529  84.8987480  51.8668051  79.3057257  84.6989671
  53.3344062  75.8551511  86.9063613  52.2794984  75.3843271  86.4467688
  53.8097005  75.5439031  88.1152178  54.6572365  75.9874733  88.4392971
  53.1751258  74.5544816  88.9762201  52.3375810  74.0507177  88.4936853
  54.1407487  73.4902274  89.5204311  53.8032012  73.1732786  90.5071957
  54.1796997  72.2892092  88.5884348  54.5176235  72.6053107  87.6015263
  54.8674967  71.5426551  88.9855403  53.1819351  71.8575857  88.5092609
  55.5208416  74.0797901  89.7872782  55.4384382  74.8809854  90.5217153
  56.1807298  73.3019215  90.1714237  55.9316501  74.4786568  88.8597856
  52.4933895  75.1938105  90.1704877  53.0747189  75.9935115  90.9282235
  51.2434352  74.7286869  90.3367501  50.9622503  73.9822285  89.7172065
  50.2932823  75.1690090  91.3798033  50.6479921  76.0983252  91.8255067
  48.8870331  75.4109908  90.7868616  48.5999052  74.3852690  90.5554497
  48.3045175  75.7679920  91.6361707  48.6157025  76.3057806  89.5678670
  48.5513051  75.6905722  88.6703858  47.3054884  77.0449962  89.7691859
  47.3692861  77.6608185  90.6662876  47.1100970  77.6808966  88.9057314
  46.4948019  76.3249017  89.8803241  49.7231998  77.3074800  89.2814945
  50.6548029  76.7750167  89.0899277  49.4587813  77.9021512  88.4071089
  49.8510688  77.9643744  90.1418655  50.1236885  74.0570533  92.4217508
  50.1209261  72.8717454  92.0554949  49.9617361  74.4382750  93.6993338
  49.7120386  75.8168947  94.1331367  48.8409490  76.2063708  93.6062481
  50.5821855  76.4298967  93.8982501  49.4833937  75.6911015  95.6083711
  48.4649286  76.0180961  95.8178997  50.1877872  76.3516880  96.1138971
  49.6954180  74.2720498  96.0187359  48.8618142  74.0180405  96.6734747
  50.6350567  74.0581538  96.5280759  49.6068723  73.4636659  94.7301490
  50.3059863  72.6279718  94.6992748  48.1943319  72.9528143  94.4755388
  47.6438347  73.2140859  93.4031993  47.6037226  72.2200192  95.4197512
  48.1090979  71.9068065  96.2362025  46.2022450  71.8200471  95.2748512
  46.0481905  71.3977427  94.2818631  45.8085412  70.7694081  96.3207958
  46.1947421  69.8003719  96.0046994  46.2552105  71.0437930  97.2764628
  44.4004688  70.6930660  96.4623869  44.1805769  70.0301362  97.1210002
  45.3154565  73.0584810  95.4175031  45.7451821  74.0710806  95.9750576
  44.0781536  72.9679120  94.9582778  43.7944111  72.1703114  94.4074395
  43.1290011  74.0417233  95.1491494  43.5406479  74.9792102  94.7752984
  41.8581232  73.7145900  94.3573899  40.9956439  73.8325941  95.0133661
  41.7129853  74.6407275  93.1568816  42.5749312  74.5229380  92.5001666
  40.8037967  74.3889390  92.6109166  41.6562190  75.6740098  93.4992350
  41.9369226  72.3570001  93.8781932  41.1430019  72.1464973  93.3812237
  42.8309559  74.2963649  96.6393171  42.4071877  75.4007953  97.0219278
  43.0915708  73.2947126  97.4785242  43.5362355  72.4542038  97.1380573
  42.6939614  73.3466160  98.8766035  41.8936760  74.0740998  99.0122857
  42.1894827  71.9787605  99.3218322  42.9534440  71.2454467  99.0635430
  42.0668103  72.0089147 100.4044874  40.8712648  71.5866438  98.6734780
  41.0645152  71.3627377  97.6243731  40.5023098  70.6911747  99.1735873
  39.6195556  72.8871030  98.7829671  38.5865278  72.4943469  97.3678378
  38.1794105  71.4897187  97.4821912  37.7687237  73.2121320  97.3039491
  39.1834525  72.5424259  96.4570850  43.8109825  73.8077945  99.8152064
  43.5533842  74.3038548 100.8877115  45.0499216  73.6053450  99.4199596
  45.1939008  73.0722420  98.5742820  46.2177892  74.0422788 100.1661259
  46.3276825  73.4599366 101.0809483  47.4607541  73.8370793  99.3052470
  47.4497801  74.5582792  98.4880264  48.3477203  73.9969133  99.9183083
  47.4839646  72.5220209  98.7745337  48.2705057  72.4081209  98.2360360
  46.1924586  75.4853414 100.6670827  47.0670729  75.8739761 101.4241466
  45.2106768  76.2745675 100.2413178  44.4974671  75.8923455  99.6368860
  45.1269084  77.7003395 100.6063589  46.0948837  78.0863729 100.9258918
  44.6476778  78.5172156  99.3958501  43.6751467  78.1483292  99.0699574
  44.5621594  79.5670701  99.6761934  45.3653787  78.4163891  98.5817011
  44.1417785  77.8763581 101.7803825  44.2869748  78.7191089 102.6458339
  43.1220068  77.0575185 101.7409705  43.1880720  76.2555403 101.1305888
  41.9160366  77.2367382 102.5027462  41.7956276  78.1200978 103.1298639
  40.7730604  77.2069538 101.4692146  41.1988535  77.4361299 100.4923432
  40.0645802  75.8482337 101.4115905  39.6381028  75.6185663 102.3880488
  39.2688889  75.8840558 100.6674852  40.7824260  75.0748857 101.1382193
  39.8441348  78.3756817 101.6648527  40.3998606  79.3059080 101.5467432
  39.0454895  78.3336319 100.9242466  39.4136301  78.3347774 102.6653992
  41.7763625  76.0977833 103.5468964  40.8362285  76.1098610 104.3624933
  42.7349160  75.1680509 103.5275092  43.5656253  75.3272921 102.9755458
  42.6185201  73.9008635 104.2608484  41.6493524  73.4390204 104.0723965
  43.7206756  72.9407766 103.7860986  43.6439100  72.8960241 102.6997269
  44.6697831  73.3989952 104.0641824  43.6511873  71.5332185 104.3572042
  44.6447026  71.0848646 104.3598770  43.2888980  71.6185643 105.3816867
  42.7106108  70.6246902 103.5837178  42.8533763  70.4477004 102.3774875
  41.7656432  70.0190820 104.2865286  41.1123853  69.4034787 103.8235080
  41.7025451  70.1755868 105.2823329  42.7373187  74.1097237 105.7587797
  43.7171503  74.6480598 106.2501636  41.7376204  73.6378811 106.4761616
  40.9031683  73.3120191 106.0096823  41.7952283  73.5507672 107.9244843
  41.8517297  74.5478598 108.3611914  40.5218519  72.8533336 108.4500981
  40.5988993  71.8858628 107.9539497  40.5631611  72.7115565 109.5300485
  39.1935766  73.5156749 108.0729897  39.1170515  73.4905726 106.9859688
  37.9608512  72.8338921 108.6890776  38.0364403  72.8590161 109.7761627
  37.0592979  73.3603569 108.3758090  37.9116585  71.7982794 108.3526451
  39.2416080  75.0141149 108.3897175  40.0466720  75.4804229 107.8218018
  38.2917488  75.4742054 108.1173475  39.4206196  75.1551457 109.4556275
  43.0030251  72.7337730 108.3284514  43.2419061  71.6981059 107.7330796
  43.7691164  73.2185839 109.3073506  43.5521408  74.1082634 109.7333684
  45.0052497  72.5427932 109.7034053  45.5770399  72.2884524 108.8109560
  45.8707940  73.4297813 110.6028091  45.2015417  73.9456983 111.2913076
  46.5341595  72.7729130 111.1654548  46.7040082  74.4590604 109.8339139
  45.9808177  75.0951792 109.3235717  47.2791258  75.0578315 110.5401803
  47.6507547  73.8354001 108.8044433  48.7307545  73.3397291 109.1993923
  47.3363320  73.8824380 107.5911825  44.7428923  71.1928350 110.3533826
  45.5203283  70.2578016 110.1673239  43.6462925  71.0855294 111.0995886
  43.0585772  71.8903922 111.2635579  43.3085230  69.8259200 111.7784640
  44.1551531  69.5025527 112.3840631  42.0881991  69.9957880 112.6927570
  42.0432562  69.1402594 113.3666637  42.2197179  70.9086883 113.2736320
  40.8813855  70.0772003 111.9512290  40.1418438  70.1827159 112.5541755
  43.0718456  68.6640106 110.7959060  43.3144049  67.5025897 111.1410099
  42.6102541  68.9868716 109.5827634  42.4358772  69.9594160 109.3733610
  42.2693596  67.9896971 108.5729079  42.0404925  67.0350327 109.0465480
  41.0410886  68.4539812 107.7915453  41.3915208  69.3253727 107.2383966
  40.7390244  67.6763198 107.0900469  39.8398608  68.8507527 108.6644727
  40.1000809  69.7486159 109.2250332  38.6027449  69.1225302 107.8159686
  38.3416207  68.2249174 107.2554294  37.7712520  69.4005756 108.4635882
  38.8096144  69.9366845 107.1213766  39.5472302  67.7796741 109.7063628
  40.4183096  67.6490117 110.3484279  38.6930818  68.0841492 110.3111989
  39.3205163  66.8380171 109.2063809  43.4425052  67.6906253 107.6269040
  43.3590794  66.7746725 106.8079593  44.5402138  68.4219583 107.7864096
  44.5467925  69.2219973 108.4028459  45.7719224  68.0857216 107.0739205
  45.6493595  68.3033847 106.0129303  46.9610197  68.9005910 107.6084457
  46.8494022  69.0986579 108.6744712  47.8433361  68.2818476 107.4448163
  47.1544418  70.2197836 106.8885015  47.4526721  71.2394088 107.5150532
  47.0516009  70.1971229 105.5629856  47.1720403  71.0499944 105.0355348
  46.8535201  69.3271423 105.0897007  46.1266139  66.6048391 107.2264559
  46.5063227  65.9394158 106.2560106  45.9795234  66.0970373 108.4479102
  45.6942100  66.7184102 109.1912751  46.3542380  64.7268953 108.7951188
  47.3881407  64.5358959 108.5076061  46.2205498  64.5204758 110.3062506
  45.2102227  64.8043137 110.6008253  46.3776085  63.4634322 110.5209397
  47.2350242  65.3568818 111.0918814  48.1983662  64.8516773 111.0223005
  47.3003175  66.3309433 110.6070689  46.8645097  65.5434712 112.5579429
  46.5044467  64.5855465 112.9332213  47.7697762  65.8264652 113.0950708
  45.7956488  66.6055576 112.7710946  46.1450318  67.2934580 113.5410460
  45.6596602  67.1473564 111.8351136  44.4964460  66.0074071 113.1919712
  44.6221438  65.5056792 114.0594786  43.8148082  66.7410839 113.3230751
  44.1723134  65.3702735 112.4784602  45.6023365  63.6692779 107.9815054
  46.0123903  62.5136438 107.9529288  44.5421706  64.0665046 107.2831485
  44.2662907  65.0380623 107.2750708  43.7180351  63.1088383 106.5593407
  43.9791086  62.0921375 106.8530401  42.2466943  63.3457504 106.8796155
  41.8715475  64.2267799 106.3588937  41.6441893  62.4792547 106.6070847
  41.9417369  63.6354500 108.6400519  40.6255062  63.7909759 108.5293866
  43.9341208  63.1746677 105.0508705  43.3158221  62.4175032 104.2992923
  44.7821481  64.1008725 104.6314682  45.3520038  64.6080422 105.2933917
  44.8597058  64.4770031 103.2145251  43.8529089  64.5328005 102.8005856
  45.5453240  65.8480351 103.0308388  45.9753549  66.1171646 103.9955885
  46.3451473  65.7056257 102.3041323  44.6180154  66.9692408 102.5553121
  43.6349448  66.8784724 103.0173015  45.0861638  67.8991314 102.8781783
  44.4415601  67.0123207 101.0307182  44.0650934  66.0143052 100.4092748
  44.6523722  68.1889318 100.4338435  44.5490486  68.2693884  99.4323683
  44.9140916  68.9925445 100.9868452  45.5743571  63.4157943 102.3864923
  45.3015375  63.2825049 101.1911822  46.4587732  62.6439518 103.0240301
  46.7965489  62.8968656 103.9416582  47.0083896  61.4490422 102.3889185
  47.0370919  61.5877226 101.3081580  48.4247552  61.0799226 102.9000087
  48.3391569  60.5392186 103.8425651  49.1328548  60.1988463 101.8697202
  49.2192437  60.7390830 100.9269679  50.1278463  59.9419186 102.2331496
  48.5568396  59.2867205 101.7137326  49.2437959  62.3474546 103.1928139
  49.0504727  63.0452205 102.3780442  48.8618931  62.7634977 104.1251004
  50.7391406  62.1168513 103.3170366  51.1218698  61.7012205 102.3849050
  51.2374421  63.0640269 103.5235630  50.9332900  61.4194953 104.1319603
  46.0479639  60.2716128 102.6135905  45.5723350  60.0317983 103.7280106
  45.7663942  59.5561798 101.5273916  46.0933886  59.8798967 100.6282913
  45.0022763  58.3052673 101.5802572  44.5474832  58.1880378 102.5638829
  43.8984337  58.3207180 100.5328566  44.2681339  58.0121761  99.5549901
  43.1020827  57.6468552 100.8488216  43.2782497  59.6534960 100.3502406
  42.7452392  60.3316211 101.4422022  42.7805934  59.8625193 102.4254588
  42.1794565  61.5766076 101.2940994  41.7576963  62.0993668 102.1525525
  42.1486039  62.1636435 100.0450734  41.7025571  63.1501654  99.9189121
  42.6849193  61.4989355  98.9501016  42.6567694  61.9643942  97.9648829
  43.2516914  60.2536862  99.1074214  43.6815934  59.7381204  98.2486572
  45.8901256  57.0808964 101.3041171  46.9477095  57.2025035 100.6625400
  45.4343418  55.8819692 101.7325523  44.8639341  55.6561160 103.0729084
  43.8154616  55.9541182 103.0723407  45.4107317  56.2542625 103.8018338
  45.0458684  54.1678066 103.2936843  44.1601090  53.7661187 103.7857983
  45.9185724  54.0016931 103.9252659  45.2417937  53.5612204 101.9438608
  44.2651038  53.3899094 101.4912811  45.8166668  52.6352860 101.9275547
  45.9847642  54.6479594 101.1765263  47.0564386  54.6185204 101.3733653
  45.7426477  54.5816705  99.6704006  44.6623036  54.9181531  99.1920733
  46.7535392  54.1483314  98.9298058  47.5962025  53.8126983  99.3740673
  46.7263667  54.2346359  97.4681030  46.3728556  55.2204872  97.1660662
  48.1184476  54.0167337  96.8857471  48.8455912  53.9953958  97.6974773
  48.1385167  53.0645849  96.3555491  48.4429031  55.0612457  95.9902756
  49.3205457  54.9132272  95.6305064  45.7101835  53.2586391  96.8251450
  45.3356596  52.2252800  97.4097181  45.2692947  53.6389258  95.6328995
  45.7129914  54.4324010  95.1928660  44.1414458  53.0106007  94.9513002
  43.2990294  52.9185369  95.6368350  43.7006857  53.8657406  93.7376444
  42.6242440  53.7251967  93.6395637  43.9085776  54.9024089  94.0025968
  44.3813509  53.5330987  92.4082621  45.4534663  53.4440214  92.5835749
  43.9916390  52.5797669  92.0513514  44.1270442  54.6057548  91.3649113
  44.3097617  54.1914078  90.3734327  43.0903342  54.9349977  91.4351314
  45.0499401  55.7883863  91.5966266  44.9042981  56.1423447  92.6172158
  46.0787151  55.4499869  91.4733093  44.7769843  56.8908626  90.6491088
  43.8238770  57.2048657  90.7635132  45.4084012  57.6572970  90.8334751
  44.9122976  56.5632036  89.7033662  44.4652069  51.5860665  94.4931571
  45.4829111  51.3525549  93.8594061  43.5534075  50.6339278  94.7595020
  42.5118139  50.6804738  95.8053745  42.1205973  51.6946520  95.8859498
  42.9408193  50.3800749  96.7613107  41.4871193  49.7059717  95.3072382
  40.7812627  50.2198322  94.6546948  40.9515845  49.2748506  96.1530741
  42.2489054  48.6557314  94.5672225  41.6399864  48.3060889  93.7335159
  42.5186203  47.8097244  95.1993820  43.5271256  49.3436840  94.0325727
  44.4437256  48.8067831  94.2768679  43.4249023  49.5140572  92.5097157
  42.8110453  50.4769428  92.0560266  44.0232980  48.5976063  91.7514524
  44.4678726  47.7989163  92.1810418  44.2033348  48.8025102  90.3003996
  44.2885765  49.8591985  90.0469378  45.4535578  48.0548940  89.7459427
  45.6161724  48.3560769  88.7110781  46.6900267  48.3921672  90.5736911
  46.5283325  48.0908325  91.6086564  47.5529046  47.8611255  90.1717745
  46.8734629  49.4658454  90.5328485  45.2397278  46.5461236  89.6914841
  44.3937018  46.3217525  89.0418691  46.1359264  46.0655523  89.2990824
  45.0364803  46.1710037  90.6945176  42.9316365  48.4789214  89.4883236
  42.4739270  47.3283880  89.3961550  36.0520254  50.6349194  92.6838559
  35.1939574  51.1668456  92.7134046  36.9980387  50.8998808  91.5926784
  38.0148605  50.9131520  91.9851021  36.9032351  49.8092767  90.5063304
  37.5165506  50.1171842  89.6594914  37.2961014  48.8805767  90.9201812
  35.5672498  49.6059287  90.0732521  35.5498178  48.9222294  89.3995673
  36.7197148  52.2842121  90.9913035  37.5217462  52.8093363  90.1920688
  35.5442304  52.8209426  91.3369751  34.8517765  52.2116473  91.7485163
  35.1532174  54.1908546  91.0053970  36.0454441  54.8116774  90.9240966
  34.3859957  54.2492096  89.6623707  34.8285169  54.9726656  88.9776185
  34.5798601  53.2400256  89.2989640  32.9005283  54.4769729  89.7409789
  32.3913946  55.7312730  90.0420922  33.0854898  56.5459017  90.2487598
  31.0339255  55.9566466  90.0824811  30.6451221  56.9322446  90.3742728
  30.1659850  54.9420940  89.7466966  28.8212366  55.1705335  89.7907982
  28.6012851  56.0634883  90.0662122  30.6424852  53.7028323  89.3731340
  29.9557653  52.9031532  89.0955919  32.0058659  53.4805534  89.3530299
  32.3959768  52.5151783  89.0305946  34.4088631  54.8004750  92.1984869
  34.2724016  56.0281243  92.2590961  34.0310365  53.9758425  93.1922108
  33.9358231  52.9880451  93.0043544  33.6915521  54.4650400  94.5342425
  32.9186098  55.2291853  94.4521364  33.1719754  53.3368679  95.4352539
  32.4721104  53.7996915  96.1310144  32.6338494  52.6488163  94.7832527
  34.2352111  52.5692762  96.2183061  34.8030721  51.9575273  95.5173082
  34.9008013  53.2910216  96.6917776  33.6130455  51.6731523  97.2875381
  34.3556158  50.9286720  97.5746573  33.3723137  52.2963853  98.1487745
  32.3500224  50.9695710  96.8004674  31.5631095  51.7166789  96.6970341
  32.5610844  50.5277253  95.8266478  31.9035914  49.9064445  97.7408330
  31.7075517  50.3157276  98.6431387  31.0677439  49.4681506  97.3811700
  32.6324531  49.2138335  97.8364865  34.9217316  55.1274164  95.1544013
  34.8071131  56.0996417  95.9210215  36.0949792  54.5983359  94.7898758
  36.1100031  53.7471229  94.2464513  37.3649866  55.1745146  95.2044289
  37.4220926  55.1723625  96.2929294  38.5399464  54.3894500  94.6562236
  38.3667082  53.3832455  95.0378521  38.7143556  54.3447204  93.5811977
  39.7984088  54.8633692  95.2693836  40.2493446  54.5737419  96.5266055
  39.6598276  53.8646001  97.1077143  41.4039593  55.2759555  96.7928760
  41.9562836  55.2043259  97.6354355  41.6880886  56.0824423  95.7203768
  42.7451441  56.9686892  95.5184754  43.4917208  57.0765910  96.3052912
  42.7776593  57.6535354  94.3324866  43.5880251  58.3574553  94.1430029
  41.7895447  57.4715040  93.3498152  41.8243992  58.0233353  92.4104714
  40.7415341  56.5852202  93.5455368  40.0244896  56.4460563  92.7364748
  40.6809688  55.8709188  94.7514901  37.4852462  56.6300035  94.7817851
  38.0431120  57.4349347  95.5164751  36.9552700  56.9723794  93.6131025
  36.6019196  56.2611418  92.9890961  36.9789225  58.3527687  93.1449821
  37.9087991  58.8269725  93.4589238  36.8862448  58.4204445  91.6147004
  36.1218955  57.6874430  91.3566729  36.6312541  59.3823915  91.1700233
  38.1370562  57.9731682  90.9664321  38.4345411  56.7132137  90.5685311
  37.6446441  55.9682663  90.6645296  39.7233652  56.6534162  90.1124326
  40.1770263  55.8336557  89.7352272  40.2938153  57.8901135  90.2373779
  41.5687476  58.3244577  89.9075254  42.2673439  57.6051768  89.4800948
  41.8707412  59.6380004  90.1413785  42.8615236  60.0163665  89.8898046
  40.9325728  60.5123475  90.6990434  41.1822198  61.5560275  90.8901138
  39.6606719  60.0791224  91.0245881  38.9654494  60.7971245  91.4596045
  39.3239821  58.7448484  90.7818253  35.9193729  59.2028455  93.7940778
  36.1081748  60.4025455  93.9616475  34.8069485  58.5882685  94.1787050
  34.5903739  57.6491750  93.8765489  33.8188608  59.3028762  94.9668595
  33.6704124  60.2933591  94.5367363  32.4720166  58.5759720  94.9974006
  32.6748572  57.5051159  94.9824947  31.9767795  58.8384524  95.9322505
  31.5629892  58.9398064  93.8184825  30.7127760  59.5084331  94.1951814
  32.1367130  59.5590006  93.1288873  31.0396473  57.7251212  93.0620024
  29.8518732  57.6231092  92.7662793  31.9316156  56.8038817  92.7395982
  31.6404812  55.9773024  92.2374938  32.8999795  56.9310078  92.9969144
  34.3687439  59.5389949  96.3599472  34.1718468  60.6200702  96.9307334
  35.0758899  58.5340959  96.8769612  35.0701369  57.6369678  96.4130351
  35.7982474  58.6557043  98.1383640  35.0812474  58.9515951  98.9041700
  36.4265172  57.3161443  98.5461325  35.6473076  56.5581614  98.6260924
  37.1535118  57.0111261  97.7934421  37.1245253  57.4711826  99.8931188
  37.9042311  58.2287254  99.8138178  36.3980277  57.7757581 100.6464694
  37.7488109  56.1401226 100.2983000  36.9696024  55.3821386 100.3782584
  38.4758063  55.8351064  99.5456100  38.4468171  56.2951614 101.6452878
  39.2265224  57.0527046 101.5659880  37.7203184  56.5997338 102.3986367
  39.0485888  55.0121073 102.0358542  39.7221234  54.7299169 101.3381298
  39.5108740  55.1147877 102.9279580  38.3262081  54.3101129 102.1098073
  36.8762854  59.7642999  98.0642352  36.8495342  60.7256747  98.8404264
  37.7923152  59.6157920  97.1063998  37.7943625  58.7440812  96.5962867
  38.8097864  60.6245251  96.7684829  39.6225837  60.6014066  97.4943791
  39.3939595  60.3162289  95.3566290  39.7031393  59.2709986  95.3558179
  38.5692415  60.4511744  94.6568220  40.5720929  61.1968315  94.9322815
  41.7977364  61.1227379  95.5935545  41.9162074  60.3959616  96.3972089
  42.8524212  61.9495634  95.2471073  43.7982134  61.8904115  95.7856981
  42.7064070  62.8396579  94.2118810  43.7574457  63.6651833  93.8908507
  44.5255461  63.5294305  94.4504868  41.5147020  62.9071382  93.5152041
  41.4037656  63.6103670  92.6898177  40.4628104  62.0816561  93.8660551
  39.5299317  62.1186173  93.3034972  38.2459459  62.0456001  96.7775203
  38.7604674  62.9293739  97.4738682  37.1883971  62.2554670  95.9970510
  36.8317901  61.5079792  95.4189568  36.5548340  63.5719449  95.8985141
  37.2998449  64.3009002  95.5796377  35.4053039  63.5822963  94.8998132
  35.8190824  63.3567004  93.9169637  34.7085471  62.7956782  95.1894023
  34.6706477  64.9176226  94.8473839  34.2145688  65.1786302  95.8023540
  35.4279084  65.6589679  94.5923048  33.6089594  64.9336826  93.7891831
  33.7502464  65.5940868  92.7764579  32.5721641  64.1339658  93.9797678
  31.8280037  64.1056336  93.2974746  32.5297155  63.5555568  94.8066551
  36.0409059  64.0757724  97.2411353  36.1789451  65.2627773  97.5435531
  35.4370207  63.1822201  98.0309460  35.2892429  62.2391540  97.7009653
  34.8374041  63.5728185  99.3103165  34.2698313  64.4751142  99.0826703
  33.8750980  62.5140390  99.8558152  33.1192715  62.2873716  99.1038528
  34.4302395  61.6075326 100.0969874  33.1965152  63.0441415 101.1144419
  33.9517271  63.2706138 101.8670813  32.6407568  63.9504511 100.8739476
  32.2381155  61.9896584 101.6577286  31.4822897  61.7629889 100.9057663
  32.7932583  61.0831534 101.8989020  31.5595314  62.5197628 102.9163543
  32.3147426  62.7462363 103.6689939  31.0037719  63.4260696 102.6758579
  30.6356988  61.5033093 103.4400476  31.1505463  60.6635702 103.6633636
  30.1862747  61.8543946 104.2736285  29.9355697  61.2936224 102.7429468
  35.8916038  63.9681055 100.3340709  35.6559948  64.8830323 101.1197480
  37.0467630  63.2962355 100.3131919  37.1856304  62.5689494  99.6262638
  38.0976063  63.5158237 101.3181926  37.5903101  63.8344891 102.2287980
  38.8591885  62.2097963 101.6105126  38.1539167  61.4392031 101.9217633
  39.3798211  61.8829310 100.7104010  39.8725893  62.4507282 102.7243325
  40.5785247  63.2209278 102.4136096  39.3526216  62.7771974 103.6249731
  40.6268244  61.1573044 103.0138310  39.9215534  60.3867100 103.3250801
  41.1474578  60.8304412 102.1137195  41.6214157  61.3532887 104.0921535
  41.7040302  62.2686034 104.5110487  42.4113852  60.3791545 104.5347722
  42.3612848  59.1483680 104.0332197  41.7078957  58.9340130 103.2934667
  42.9768561  58.4337212 104.3944005  43.2702645  60.6658055 105.5089685
  43.3057602  61.6014625 105.8876319  43.8830549  59.9465150 105.8656305
  39.0802744  64.6195213 100.9268295  39.5018832  65.3946789 101.7758723
  39.4452556  64.6897478  99.6466174  39.0901663  64.0186123  98.9805933
  40.3858573  65.7052685  99.1734969  41.2573025  65.7306348  99.8277438
  40.8527019  65.3931928  97.7481991  41.1393249  64.3418407  97.7235972
  40.0018694  65.5528863  97.0858683  42.0287171  66.2527823  97.2830109
  41.6366353  67.2179173  96.9622508  42.6988440  66.3969294  98.1305093
  42.7963518  65.6075855  96.1316504  43.0748059  64.5970915  96.4307559
  42.1366059  65.5606933  95.2652579  44.0491807  66.3934175  95.7728553
  43.7753279  67.4429439  95.6651536  44.7647386  66.2869891  96.5881767
  44.6651868  65.9083697  94.5050900  44.0024468  66.0073025  93.7493865
  45.4910672  66.4531830  94.3021121  44.9194080  64.9359890  94.6048224
  39.8011040  67.1190255  99.1807732  40.4581069  68.0757729  99.5894131
  38.5716424  67.2430913  98.7194482  38.0558889  66.4261425  98.4250127
  37.9360407  68.5479983  98.5830437  38.6848020  69.3377745  98.6439485
  37.2486790  68.6425057  97.2589488  36.5155722  67.8439752  97.1449199
  36.7513448  69.6078239  97.1645057  38.1705211  68.5319119  96.1216845
  39.2366997  69.3777851  96.0269079  39.4133107  70.1187551  96.8065693
  40.0778587  69.2976287  94.9626422  40.9227020  69.9813422  94.8797181
  39.8603912  68.3475452  93.9852553  40.5445680  68.2858233  93.1389737
  38.7968776  67.4867830  94.0710755  38.6076547  66.7465563  93.2936700
  37.9718469  67.5672841  95.1479413  37.1424588  66.8678078  95.2525750
  36.9428436  68.8078531  99.6793858  35.9690300  69.5465744  99.4824216
  37.2027786  68.2479783 100.8531690  38.0241857  67.6744183 100.9813043
  36.2964676  68.4118040 101.9743351  35.3230712  67.9873292 101.7285305
  36.8415280  67.6990871 103.2064608  36.8308348  66.6293820 102.9973775
  37.8543781  68.0081822 103.4647143  36.0079200  67.9038875 104.4279679
  36.1321372  69.0162370 105.2342463  36.7986073  69.7606393 105.0866571
  35.2503197  68.9473279 106.2139995  35.1933101  69.7345911 106.9657080
  34.5521084  67.8341115 106.0692920  34.9957670  67.1710521 104.9497031
  34.5271572  66.2336929 104.6499304  36.0638710  69.8723392 102.3109917
  34.9196636  70.3223528 102.4832074  37.1547276  70.6203675 102.3746050
  38.0584721  70.2106009 102.1863590  37.1032374  72.0203993 102.8164938
  36.4143890  72.1227956 103.6550056  38.4932001  72.4779529 103.2665409
  39.2507687  72.2071393 102.5311165  38.5156990  73.5552792 103.4307420
  39.0129703  71.7239631 104.8211351  40.1957752  72.3292212 104.8805775
  36.5357123  72.9930245 101.7806943  36.6899802  74.2126358 101.9286697
  35.9049492  72.4694695 100.7305057  35.9507302  71.4743605 100.5638879
  35.1532728  73.2914323  99.7950214  35.8089734  73.9917643  99.2776326
  34.4702347  72.4101006  98.7604233  33.8032704  71.7094070  99.2627053
  33.8938570  73.0324242  98.0758780  35.2234168  71.8560120  98.2002432
  34.1136342  74.0940046 100.5379461  33.7750693  75.2147900 100.1435099
  33.6188736  73.5214695 101.6392914  33.8785503  72.5766816 101.8843289
  32.5711701  74.1652466 102.4030743  31.7781159  74.4705947 101.7204859
  31.9652824  73.2392106 103.4810981  31.4033194  73.7749518 104.2461329
  31.2860641  72.6100668 102.9058238  32.9953034  72.3443566 104.1687193
  33.8322787  72.8059173 104.9430778  32.8438446  71.0445744 103.9900562
  33.4925860  70.4000220 104.4187595  32.0799768  70.7011508 103.4255501
  32.9898251  75.5046778 102.9780796  32.1293388  76.3057554 103.3476008
  34.3070087  75.7447555 103.0054112  34.9249840  75.0108902 102.6897410
  34.9012324  77.0004044 103.4728191  34.2971966  77.4159052 104.2794162
  36.2977618  76.7665607 103.9883767  36.8389476  76.4497026 103.0968510
  36.6537751  77.7488512 104.2989569  36.5333805  75.7703213 105.1013353
  37.1493871  74.9416691 104.7520901  37.2571621  76.5044842 106.2097121
  36.6415319  77.3330539 106.5598129  37.4475773  75.8195464 107.0359705
  38.2042990  76.8902610 105.8326070  35.2574957  75.1581380 105.6340974
  34.7410058  74.6353142 104.8291174  35.4969927  74.4527723 106.4298371
  34.6134642  75.9444103 106.0279226  34.9625744  78.0145045 102.3422723
  35.2042720  79.2056685 102.5610980  34.7494491  77.5232461 101.1238381
  34.4653787  76.5588040 101.0276358  34.8384208  78.3348064  99.9287838
  35.2733812  79.3058512 100.1653858  35.6750746  77.6791897  98.8153943
  36.2882902  78.4515193  98.3510949  36.5658603  76.5812866  99.3467158
  35.9532827  75.8083122  99.8107838  37.1373854  76.1473876  98.5262344
  37.2506898  76.9946967 100.0871218  34.7989783  77.1511671  97.8068193
  35.3204129  76.7421857  97.1122399  33.4659336  78.4982223  99.3442994
  32.4962254  78.0903376  99.9139249  33.4032052  79.0744658  98.1603384
  34.2472458  79.3909416  97.7047752  32.1298942  79.3300451  97.5068613
  31.3110882  79.1310668  98.1982828  32.0472238  80.8028908  97.0557193
  31.2771008  80.8773108  96.2879489  31.7588984  81.4037270  97.9182530
  33.2803831  81.2808667  96.5369534  33.1814048  82.1977219  96.2701584
  31.8942536  78.4023296  96.3082360  31.2192984  78.7869131  95.3326249
  32.4798741  77.2140708  96.3183627  33.2466525  77.0267055  96.9484773
  32.1343363  76.1918725  95.3154529  31.1256676  76.3576893  94.9370462
  33.1089902  76.2765315  94.1530242  34.1256325  76.5698424  94.4147615
  33.1256745  75.2972118  93.6747412  32.6517528  77.2158286  93.1555375
  31.4887391  77.1592565  92.4417197  30.8487382  76.2953286  92.6209599
  31.3778959  78.2460330  91.6234731  30.6386404  78.4209886  90.9578971
  32.4609459  79.0466784  91.8319881  32.7988142  80.2271036  91.2407874
  32.1183060  80.6682360  90.5124952  33.9781432  80.7801001  91.6059339
  34.2983114  81.7109829  91.1379064  34.8094511  80.1816341  92.5812306
  35.7495662  80.6485803  92.8749044  34.4672507  79.0227635  93.1740534
  35.1590087  78.5794465  93.8903227  33.2754099  78.4199899  92.8031889
  32.0127846  74.7626650  95.8299042  32.4701396  74.4424619  96.9193497
  31.4071768  73.8730305  95.0187219  30.6329709  74.1882757  93.8018133
  31.2830510  74.6896581  93.0847973  29.8063413  74.8480972  94.0652866
  30.1637025  72.8505768  93.3158320  30.8548278  72.4719531  92.5627789
  29.1695776  72.9480872  92.8795881  30.1332442  71.9753209  94.5111435
  30.3178787  70.9402025  94.2238475  29.1816237  72.0412482  95.0385634
  31.2634510  72.4742488  95.4105658  31.0082879  72.4651971  96.4702394
  32.5098227  71.6223878  95.1805563  33.3637937  71.9928734  94.4048624
  32.5493665  70.4685616  95.8362677  31.8591616  70.3135403  96.5571594
  33.5961050  69.4365792  95.6306889  34.5662186  69.8190065  95.9480659
  33.2671604  68.1852220  96.4583595  32.3163211  67.7838840  96.1077435
  34.0544323  67.4496707  96.2932313  33.1681177  68.4985956  97.9510821
  34.0153526  69.1366014  98.2025625  32.2405837  69.0506356  98.1028537
  33.1774376  67.2747731  98.8403315  33.5393277  66.4150671  98.2763809
  33.8303717  67.4485508  99.6956548  31.8341636  66.9812563  99.3295235
  31.5848734  67.3644699 100.2301350  30.9251110  66.2641836  98.6699714
  31.2135771  65.7136927  97.4957141  32.1323185  65.8382720  97.0950966
  30.5128031  65.1731599  97.0090524  29.7205098  66.0853326  99.1999508
  29.5015078  66.4930885 100.0976553  29.0289951  65.5423883  98.7028415
  33.7795869  69.0849341  94.1630724  34.9042163  69.0362720  93.6753339
  32.6669784  68.8745447  93.4614830  31.7730522  68.9742591  93.9208871
  32.6851360  68.4225415  92.0573575  33.3752206  67.5836772  91.9668642
  31.2858977  67.9691761  91.5626403  31.3393954  67.6338502  90.5268827
  30.9336555  67.1511986  92.1910813  30.2253337  69.0414540  91.6150521
  29.3410832  69.2315386  92.5990876  29.3466803  68.5005531  93.4076224
  28.5990949  70.3437142  92.3611968  27.8703537  70.7025778  92.9614073
  28.9579673  70.8640630  91.1557746  28.4392728  71.9468074  90.4577907
  27.6351064  72.5228588  90.9155896  28.9695491  72.2204524  89.2432099
  28.5672377  73.0393604  88.6468584  30.0193157  71.4772237  88.7387129
  30.4801015  71.7403041  87.7865759  30.5191854  70.3778208  89.4228361
  31.3455831  69.8220675  88.9797721  29.9701009  70.0588592  90.6493188
  33.2209733  69.4561651  91.0949445  33.5707412  69.1085600  89.9554784
  33.2987014  70.7156597  91.5306733  32.8684829  71.0156659  92.3938115
  33.9211456  71.7269275  90.6786482  33.7608553  71.4439351  89.6383014
  33.3763676  73.0942786  90.8884052  32.2956531  73.0325748  90.7605459
  33.6022321  73.5439675  91.8552895  33.9697792  73.9511127  89.7799111
  34.6295741  73.3311347  89.1729524  32.8747789  74.5385115  88.9003056
  32.2148082  75.1590305  89.5065180  33.3252598  75.1466550  88.1158763
  32.2991713  73.7310032  88.4478606  34.8617534  75.0111382  90.4078936
  35.6608041  74.5278273  90.9700571  35.2943669  75.6333459  89.6244369
  34.2701905  75.6329401  91.0798421  35.4158614  71.7122399  90.8443557
  36.1529460  71.5680840  89.8822007  35.8625937  71.8500310  92.0805818
  35.2217966  72.0702200  92.8295779  37.2679875  71.7543520  92.3891878
  37.8039116  72.5883065  91.9359721  37.4851476  71.7976085  93.8961422
  36.7924701  71.1187469  94.3935797  38.5070718  71.4524577  94.0531198
  37.3303014  73.1747854  94.4661917  38.3545953  74.0872206  94.3928899
  39.2826353  73.7848775  93.9076788  38.2302968  75.3671033  94.9176108
  39.0738531  76.0564801  94.8819139  37.0470069  75.7619002  95.4818388
  36.9078950  77.0458290  95.9890615  37.7029455  77.5752452  95.8930778
  35.9996347  74.8714453  95.5374134  35.0523401  75.1730572  95.9843628
  36.1489819  73.5855086  95.0231761  35.3156585  72.8838307  95.0595133
  37.8404015  70.4607389  91.7776747  39.0349526  70.3676460  91.4789517
  36.9667809  69.4875506  91.5589018  36.0250267  69.5590546  91.9167921
  37.3823088  68.2352675  90.9686624  38.3533211  67.9769592  91.3911682
  36.4235468  67.0698529  91.2008762  35.7708021  67.3048281  92.0415964
  35.8211268  66.9174717  90.3053484  37.1609190  65.8765050  91.4884836
  36.5502327  65.1499955  91.6328654  37.7183479  68.4004785  89.5079780
  38.6175270  67.7478248  89.0252657  37.0557259  69.3204261  88.8226463
  36.3412617  69.8524125  89.2987037  37.3435496  69.6416775  87.4098855
  37.3719238  68.7270144  86.8176985  36.2571677  70.5520363  86.8484271
  36.4100026  71.4713473  87.4137659  36.5206881  70.7201958  85.8042148
  34.8122018  70.1409078  86.9409262  34.4135337  70.3608173  87.9312819
  34.0485321  70.9409818  85.8986944  34.4463552  70.7212336  84.9079642
  32.9931491  70.6707603  85.9340172  34.1575823  72.0056109  86.1055117
  34.6477776  68.6367294  86.7292926  35.2104247  68.0983397  87.4919618
  33.5928837  68.3721968  86.8022484  35.0225558  68.3650247  85.7424710
  38.6528367  70.4125292  87.1765339  38.9267070  70.8369135  86.0692873
  39.3790245  70.7292365  88.2426964  38.9744049  70.6250586  89.1622231
  40.7231606  71.3454717  88.1318246  41.0599499  71.3323666  87.0952435
  40.6621398  72.7943882  88.6064005  40.3833499  72.8930906  89.6555112
  41.7065436  73.0796608  88.4801454  39.7754318  73.7108021  87.7536353
  38.4026727  73.5680218  87.7275573  37.9613024  72.7267113  88.2618686
  37.5840286  74.4655728  87.0415179  36.5030548  74.3261040  87.0536046
  38.1297489  75.5471953  86.3942675  37.3227691  76.4447884  85.6660743
  36.3919089  76.2106618  85.6829197  39.4957267  75.7113368  86.4297112
  39.9483982  76.5541757  85.9073976  40.2998897  74.8094298  87.1269454
  41.3765215  74.9699907  87.1833745  41.7959207  70.5301631  88.8734354
  42.8692492  71.0247782  89.2300683  41.4782666  69.2658151  89.1406618
  40.6015307  68.9122267  88.7851217  42.3352621  68.3577102  89.8955182
  43.0105552  68.9378974  90.5243753  41.5206025  67.4351076  90.7815538
  40.8140015  68.0054142  91.3845170  40.9731844  66.7906274  90.0937466
  42.3989865  66.5731419  91.7011029  43.4126382  67.0845979  92.2466779
  42.0281205  65.4022562  91.9245196  43.1056333  67.5077396  88.9141141
  42.5343113  66.6213436  88.2938768  44.4080311  67.7573817  88.8223327
  44.7893824  68.5127919  89.3737181  45.3036171  67.0333768  87.9292680
  45.1486523  67.3827135  86.9084600  46.7354392  67.3272540  88.3295776
  46.9085817  66.9749046  89.3464215  47.4158758  66.8168772  87.6479458
  46.9131442  68.4016478  88.2826934  45.0472926  65.5242264  87.9420706
  44.8747791  64.8998153  86.9042633  44.9870259  64.9640216  89.1355686
  45.0657218  65.5308016  89.9678347  44.8429585  63.5256694  89.2921870
  45.6725533  63.0116705  88.8067214  44.8429337  63.1582138  90.7824267
  43.9025492  63.5214623  91.1969466  44.8680768  62.0699766  90.8390634
  46.0088637  63.7365153  91.5825228  46.0772044  64.8034024  91.3699616
  45.7753397  63.5909308  92.6372127  47.3348218  63.0711120  91.2617306
  48.3806997  63.6060794  91.6863647  47.3397021  62.0074741  90.6023638
  43.5337080  63.0440459  88.6248033  43.5157876  62.0372937  87.8896531
  42.4552759  63.7953190  88.8287100  42.4990549  64.6053233  89.4304373
  41.1577970  63.4208242  88.2617399  40.9333551  62.3722027  88.4569783
  40.0338638  64.2823581  88.8566647  40.2271900  65.3274278  88.6146843
  38.6635152  63.8683824  88.2861923  38.4692695  62.8234878  88.5281916
  37.8840067  64.4928561  88.7226534  38.6665963  63.9955656  87.2036419
  40.0357034  64.1483105  90.2883703  39.3335015  64.6864815  90.6610427
  41.1519916  63.5076310  86.7406890  40.8236686  62.5465371  86.0635949
  41.5258761  64.6707226  86.2214005  41.8251630  65.3997162  86.8531402
  41.5652833  64.9377793  84.7919892  40.5556039  65.0040669  84.3867084
  42.2720319  66.2657033  84.5569589  43.2426040  66.1350266  85.0355117
  42.4085155  66.3607480  83.4797223  41.6087307  67.5181016  85.0942706
  41.3772727  67.3687966  86.1488967  42.5219661  68.7182100  84.9427951
  42.7535090  68.8684374  83.8883197  42.0249639  69.6054437  85.3351037
  43.4451249  68.5450486  85.4958713  40.3090469  67.7389399  84.3486766
  39.6537247  66.8807806  84.4977228  39.8213192  68.6377530  84.7259803
  40.5154016  67.8574460  83.2849694  42.3505166  63.8705283  84.0656799
  41.8812294  63.3332169  83.0710006  43.5418201  63.5644722  84.5728906
  43.8890788  64.1084516  85.3498058  44.4164916  62.5347947  83.9979750
  44.6867666  62.8132133  82.9793810  45.6944508  62.3827799  84.8171922
  45.4295467  62.4076799  85.8742187  46.1427190  61.4184151  84.5781188
  46.6957039  63.4982655  84.5167171  46.9973437  63.3606132  83.4783693
  46.1432491  64.4329258  84.6131842  48.1609471  63.5689251  85.5527333
  48.8241090  61.9081144  85.3542333  49.0488659  61.7293422  84.3027468
  49.7363310  61.8078804  85.9423701  48.0894373  61.1795832  85.6971632
  43.6714739  61.2011830  83.8673058  43.7748195  60.5176978  82.8365019
  42.9046952  60.8668989  84.9034166  43.0025213  61.3669422  85.7754751
  42.0744206  59.6689278  84.8830872  42.6664405  58.8481590  84.4781796
  41.5658461  59.2699940  86.2447453  41.9486504  60.0468847  86.9065617
  40.4772836  59.2521476  86.2977863  42.1084966  57.9389408  86.6708435
  43.2950898  57.9051565  87.0423489  41.3958434  56.9169964  86.5403787
  40.9575293  59.7281360  83.8383350  40.7281026  58.7705946  83.1321737
  40.2827977  60.8596996  83.7308077  40.4531864  61.6063326  84.3892956
  39.2409505  61.0548629  82.7080240  38.4907837  60.2692157  82.7980659
  38.5496699  62.4146159  82.8765470  39.3336921  63.1391748  83.0965987
  38.0929148  62.6546486  81.9164120  37.4869340  62.4661671  83.9726783
  36.5944376  61.9499498  83.6190250  37.8723589  61.9596683  84.8575561
  37.1351576  63.9026386  84.3243712  36.3852284  63.9036890  85.1153859
  38.0315894  64.4150254  84.6736121  36.5979715  64.6304495  83.1648483
  36.3421409  64.0905563  82.3504986  36.4418918  65.9514398  83.1256347
  36.7749102  66.6725272  84.1951887  37.1391566  66.2124020  85.0172041
  36.6616063  67.6760231  84.1791307  35.9478182  66.5590261  82.0383430
  35.6875269  66.0102503  81.2313773  35.8379525  67.5630032  82.0307116
  39.8287336  60.9414634  81.3070898  39.1901243  60.4110905  80.4079242
  41.0508166  61.4338002  81.1338540  41.4869285  61.9439808  81.8885868
  41.7786576  61.3061443  79.8716518  41.1063580  61.5926374  79.0629281
  43.0158190  62.2116478  79.8523347  43.5743600  62.0823327  80.7793784
  43.8938756  61.8445242  78.6809924  43.3361328  61.9740387  77.7534960
  44.7727114  62.4891967  78.6689165  44.2078324  60.8048165  78.7733950
  42.5850799  63.6635068  79.7042055  42.2672963  63.7917294  78.6694721
  41.7309943  63.8057442  80.3663277  43.6510437  64.6810131  80.0327055
  44.5053221  64.5396905  79.3706359  43.2494539  65.6852745  79.8974876
  43.9690217  64.5537036  81.0674915  42.1963206  59.8462512  79.6440411
  42.0659117  59.3369747  78.5357767  42.6795830  59.1780814  80.6912735
  42.8873605  59.6600126  81.5542162  43.0396903  57.7619865  80.5824064
  43.8839569  57.6642505  79.8999398  43.4269346  57.1592114  81.9240077
  42.9409117  57.7426346  82.7059913  43.0546121  56.1351258  81.9509269
  44.9331645  57.1578401  82.1537395  45.4061034  56.6772801  81.2972982
  45.2669471  58.1934404  82.2187265  45.3207613  56.4187668  83.4283807
  44.5787827  56.6404822  84.1954589  45.3197100  55.3486545  83.2211173
  46.7000310  56.8390807  83.9199592  47.1682872  55.9609654  84.3646505
  47.2738364  57.1540442  83.0483834  46.6679963  57.9486796  84.9231431
  46.1367043  57.6568756  85.7310286  47.6111375  58.1755546  85.2044124
  46.2345227  58.7625934  84.5111431  41.9472534  56.9348636  79.9140133
  42.2141139  56.2129999  78.9674171  40.7241404  57.0627397  80.3869154
  40.5612112  57.6890349  81.1623557  39.5841215  56.2989662  79.8556311
  39.7250320  55.2331128  80.0350745  38.2963523  56.7494010  80.5611195
  38.2697137  57.8374536  80.5016946  37.4646350  56.3344777  79.9917471
  38.1795181  56.3166859  82.0209172  37.9825014  55.2448349  82.0414295
  39.1314538  56.5200540  82.5113882  37.0579569  57.0558274  82.7572651
  37.5124232  57.8203632  83.3873798  36.4196351  57.5316047  82.0127649
  36.2193802  56.1175690  83.6210101  35.2973546  55.8976967  83.0828415
  36.7841674  55.1964242  83.7645608  35.8909898  56.7087297  84.9453374
  35.3672720  57.5620687  84.8125522  35.3374435  56.0534802  85.4785676
  36.7452165  56.9121477  85.4443534  39.3870721  56.4414861  78.3423758
  39.1005430  55.4638255  77.6585872  39.5666585  57.6485591  77.8170973
  39.7510738  58.4462379  78.4085353  39.5096240  57.8582328  76.3569096
  38.5695867  57.4502924  75.9854077  39.5945503  59.3469406  75.9551716
  40.6449532  59.6225316  76.0489932  39.3001660  59.3909659  74.9066013
  38.7427311  60.3151650  76.7616434  38.6565007  59.8916071  77.7622752
  39.2257989  61.2904786  76.8208961  37.3514867  60.4980056  76.1919863
  36.8945751  61.6289662  75.9880429  36.6484541  59.3890687  75.9800000
  35.7142457  59.4517144  75.6012764  37.0520156  58.4894003  76.1987149
  40.6713337  57.1475043  75.6849806  40.4860285  56.4494491  74.7081807
  41.8742552  57.3300436  76.2253808  41.9475844  57.8946204  77.0596321
  43.1007496  56.6926410  75.7002654  43.2818786  57.0357168  74.6816436
  44.3194755  57.0486502  76.5614824  43.8865538  56.9183958  77.5533049
  45.0391681  56.2521887  76.3722955  45.0228077  58.3945787  76.4886654
  44.4240855  59.1472844  77.0015658  46.3956199  58.2878232  77.1626121
  46.9951229  57.5355858  76.6499388  46.9019082  59.2517616  77.1116659
  46.2672935  58.0001092  78.2060935  45.1360068  58.8717386  75.0469080
  44.1390956  58.9742136  74.6182281  45.6427286  59.8364647  75.0216538
  45.7073330  58.1465500  74.4674369  43.0195627  55.1699926  75.7455275
  43.7543928  54.4844362  75.0367051  42.1628514  54.6564666  76.6274519
  41.6601707  55.2913265  77.2310780  41.9724624  53.2239796  76.8191546
  42.9487891  52.7394402  76.8088126  41.2724504  52.8863943  78.1390987
  41.8227824  53.3822164  78.9387201  40.2621699  53.2923899  78.0881000
  41.2041117  51.3776300  78.4238042  40.6058670  50.9212181  77.6352027
  42.2212564  50.9883928  78.3789373  40.5916184  51.0458754  79.7841027
  39.5055295  51.0925724  79.7045460  40.8913652  50.0380372  80.0713543
  41.0255818  51.9776976  80.8234415  40.3271485  52.6101850  81.1871033
  42.2622807  52.0405952  81.3207841  43.2037081  51.1977102  80.9042769
  42.9820243  50.5032020  80.2052672  44.1357185  51.2562416  81.2890240
  42.5629302  52.9595831  82.2362775  41.8532421  53.6057567  82.5507654
  43.4992831  53.0062528  82.6119955  41.1998769  52.6302855  75.6521032
  41.3324753  51.4413625  75.3532372  40.3208869  53.4741302  75.1301736
  40.2399649  54.3851582  75.5586347  39.4553036  53.1616681  74.0169269
  38.9011697  52.2479815  74.2318954  38.4644745  54.2814427  73.7656035
  39.0227849  55.2106870  73.6520523  37.9316017  54.0629405  72.8401828
  37.4671187  54.4261378  74.9015304  37.0526748  53.4406664  75.1140941
  38.0070303  54.7890209  75.7761220  36.3494029  55.3796995  74.5706641
  35.6239645  55.7991132  75.4948254  36.2023860  55.7089087  73.3790512
  40.3601911  52.9460140  72.8532075  40.1384010  52.0739490  72.0327901
  41.4095031  53.7445610  72.7874265  41.4820786  54.5739129  73.3592723
  42.3858258  53.5471266  71.7388333  41.8750766  53.4699153  70.7790037
  43.3610021  54.6939779  71.6744497  43.7040223  55.0401023  72.6494545
  44.2224218  54.4776086  71.0425950  42.6441887  55.8415951  71.0414613
  41.7071174  55.7563048  70.0636639  41.4602100  54.7565131  69.7065179
  41.2617409  56.9966363  69.7293443  40.5699347  57.2044164  69.0234186
  41.9084522  57.9188812  70.5017831  41.7968142  59.2890809  70.5247336
  41.0919807  59.7682944  69.8452759  42.5808018  59.9621166  71.4021630
  42.5216245  61.0495858  71.4469831  43.4556633  59.3040092  72.2438185
  44.0786113  59.8600528  72.9444260  43.5679310  57.9491673  72.2262291
  44.2795805  57.4809681  72.9062623  42.7829692  57.2268273  71.3392528
  42.9457967  52.1432297  71.9615801  43.3479608  51.4678512  71.0298860
  42.9376166  51.7170728  73.2230718  42.8781217  52.4432473  73.9225218
  43.2025877  50.3584720  73.6620255  42.7146074  50.1579533  74.6158424
  42.6428896  49.3898657  72.6116994  41.7120297  49.8055073  72.2259000
  43.3735948  49.3264451  71.8053820  42.3869786  48.0179271  73.1634712
  42.6845990  47.7840951  74.3542229  41.8748887  47.1748926  72.3995630
  44.4977882  49.7642595  74.1317488  45.5997379  50.1413041  73.7671869
  44.2448936  48.7983539  75.0023593  43.2996928  48.8258304  75.3572392
  45.1739972  47.8767008  75.6045728  44.6655695  47.2967657  76.3748168
  45.7383238  46.9184729  74.5682052  46.2109296  47.5177599  73.7900033
  46.4924514  46.3065796  75.0631579  44.6865052  46.0186963  73.9448075
  44.0217429  46.6398256  73.3444824  45.2160152  45.3213166  73.2956698
  43.8690276  45.2404776  74.9650233  43.5159681  45.7962807  76.0262607
  43.5610359  44.0611867  74.6931115  46.2613884  48.4421324  76.4584092
  47.2147653  47.7434054  76.7653588  46.1464209  49.6799338  76.8921791
  45.4212578  50.3474613  76.6716234  47.2613637  50.1190361  77.7314274
  48.1459353  50.1926777  77.0988064  46.9598599  51.5039063  78.3149435
  46.7686528  52.2066745  77.5039836  46.0818395  51.4444555  78.9580965
  48.1319033  52.0185671  79.1383053  49.1501785  51.3421157  79.2646786
  47.9858305  53.2209941  79.6996039  48.7337463  53.6092365  80.2563710
  47.1280714  53.7369496  79.5649191  47.5814833  49.1260219  78.8638334
  48.1000584  49.5136059  79.9169799  53.1458118  52.0733026  83.5112913
  53.7343294  52.8033231  83.8865466  52.3050853  52.3855725  82.3442942
  52.3653643  51.5769456  81.6158794  50.8294501  52.5519093  82.7771553
  50.8110917  52.8170247  83.8342627  50.3908071  53.3606157  82.1926159
  50.0784282  51.3579629  82.5740807  49.1708806  51.4994283  82.8532666
  52.8181180  53.6230812  81.5566834  53.5545272  53.4742897  80.5877420
  52.4741264  54.8291547  82.0334449  51.8262035  54.8554950  82.8077843
  52.9014396  56.1118979  81.4324139  53.8636808  55.9853711  80.9362464
  51.8691196  56.5890074  80.3911498  52.1480083  57.6335302  80.2522528
  52.0452236  56.0403424  79.4659179  50.3845625  56.5019185  80.7616506
  50.0932384  55.4518827  80.7872608  50.1181920  57.1343870  82.1176039
  50.4088562  58.1846201  82.0926311  49.0566868  57.0572103  82.3528723
  50.6977127  56.6156031  82.8812264  49.4946305  57.1361720  79.6961294
  49.6402133  56.6209732  78.7466689  48.4504491  57.0531231  79.9976081
  49.7567847  58.1880130  79.5820914  53.1395039  57.1211098  82.5810247
  53.2751267  56.6975949  83.7371041  53.3448707  58.4296077  82.2650506
  52.9245147  59.2528204  81.1115474  51.8738984  59.0578124  80.8964251
  53.5279266  58.9875012  80.2434467  53.1685376  60.6679208  81.5703169
  52.2251131  61.1010996  81.9025899  53.5607173  61.2492156  80.7358153
  54.1557780  60.6001482  82.6803860  53.9812809  61.4163384  83.3814446
  55.1904658  60.6301529  82.3388886  53.8697410  59.2620115  83.3597150
  54.7742859  58.7844568  83.7363291  52.8714523  59.4377462  84.5060662
  51.6585055  59.3108018  84.3147543  53.4069425  59.7083520  85.7002055
  54.4134723  59.7451953  85.7753031  52.6063448  59.9802458  86.9061947
  51.6192067  59.5312025  86.7965692  53.2835694  59.3873030  88.1721405
  53.9875343  60.1312127  88.5451432  52.5023125  59.2229075  88.9142401
  53.9707004  58.1645735  87.9281168  54.3655477  57.8508777  88.7449953
  52.4870324  61.4981550  87.1060379  51.4990366  61.9940099  87.6454573
  53.5358379  62.1874081  86.6867536  54.3562489  61.6833361  86.3818987
  53.5845107  63.6271230  86.6999028  53.2564403  64.0076726  87.6671933
  55.0253070  64.0931258  86.4527479  55.6254610  63.8679984  87.3343555
  55.4110427  63.5356315  85.5992210  55.1395871  65.5815033  86.1535245
  54.1931512  66.3568233  86.3151966  56.3277775  65.9860964  85.7247239
  56.4774004  66.9607820  85.5063187  57.0774335  65.3176256  85.6185940
  52.6254485  64.1822216  85.6508288  52.7316854  63.8597761  84.4544624
  51.7010212  65.0504553  86.0940088  51.6368815  65.5847258  87.4695037
  52.6451344  65.6671622  87.8753738  51.0482241  64.9126883  88.0939611
  50.9778877  66.9207572  87.2873490  51.7183907  67.6812565  87.0395687
  50.4483601  67.2119109  88.1945046  50.0243034  66.7016213  86.1612554
  49.8062531  67.6365246  85.6450104  49.0932074  66.2517809  86.5059341
  50.7512432  65.7387066  85.2121059  50.0774755  64.9798558  84.8142608
  51.4043656  66.5010045  84.0514341  50.8715143  66.4783071  82.9632450
  52.5336226  67.1559008  84.2782830  52.8894648  67.1972235  85.2226177
  53.2876266  67.8264437  83.2253560  52.7499918  68.6809676  82.8144582
  54.6355926  68.2929318  83.7860577  55.1811340  67.4265298  84.1599996
  55.4537463  68.9790950  82.7110667  54.9090180  69.8459276  82.3369372
  56.4066870  69.3024835  83.1299040  55.6349354  68.2831909  81.8919287
  54.4032551  69.2196829  84.9868257  54.0962532  70.1853141  84.5850708
  53.5842050  68.7895585  85.5632365  55.6063259  69.4066704  85.8834199
  56.4256956  69.8372190  85.3077803  55.3481464  70.0763160  86.7037962
  55.9136489  68.4414623  86.2859443  53.5394547  66.8718455  82.0354808
  53.2055120  67.1677102  80.8740488  54.1083598  65.7190385  82.3380964
  54.4551446  65.5420146  83.2700310  54.4435490  64.7769569  81.2902222
  54.8983256  65.3074706  80.4536621  55.4252361  63.7315191  81.7937528
  55.0284883  63.4655544  82.7735248  55.4651649  62.8421366  81.1648612
  56.8394341  64.3087288  81.9539498  57.0526713  65.1466288  82.8572020
  57.7042443  64.0115870  81.1039174  53.1943661  64.2281623  80.6179474
  53.0946251  64.2223248  79.4020508  52.2381126  63.8061105  81.4222455
  52.3710385  63.8469573  82.4226263  51.0051095  63.2530931  80.9183435
  51.2082028  62.3148492  80.4020581  50.0248966  62.9801113  82.0611355
  50.4678684  62.4906909  82.9285126  49.6280650  63.9515438  82.3559973
  48.8553717  62.1473668  81.6518077  47.9098853  62.6528425  80.7811582
  48.0067339  63.6803627  80.4305553  46.8568471  61.8781571  80.3565335
  46.0983306  62.3047569  79.7002058  46.7592496  60.5639490  80.7593992
  45.9337560  59.9414811  80.4141544  47.7129774  60.0375685  81.6037226
  47.6448909  58.9971841  81.9216292  48.7558711  60.8290104  82.0473818
  49.5094847  60.4130232  82.7160530  50.3823281  64.2109179  79.9273289
  50.0476851  63.8208505  78.8404804  50.2751996  65.4759154  80.3128606
  50.6612682  65.7303982  81.2107965  49.6324143  66.5249765  79.5078911
  48.5933648  66.2598935  79.3124267  49.6642238  67.8629124  80.2594559
  48.9871587  68.5531868  79.7562628  49.3158554  67.6906604  81.2778216
  50.9695683  68.4214762  80.2941011  50.9486189  69.2544762  80.7708316
  50.3247954  66.7357983  78.1733258  49.6729791  67.0138069  77.1733139
  51.6515677  66.6017827  78.1729044  52.1349186  66.4695048  79.0498159
  52.4539299  66.6616914  76.9322454  52.0910100  67.4728158  76.3010041
  53.9121459  66.9079467  77.2442797  54.0129495  66.1780738  78.0475377
  54.5873991  66.6464223  76.4295785  54.2585483  68.2702748  77.7616197
  54.0057323  69.4254283  77.0118808  53.4615944  69.3367708  76.0715866
  54.4367986  70.6701892  77.4496218  54.1947271  71.5775432  76.8962576
  55.1677857  70.7489028  78.6209936  55.6442970  71.9316958  79.1201165
  55.4173341  72.6878742  78.5739646  55.4691360  69.6134565  79.3371163
  56.0520721  69.6877770  80.2551372  55.0362750  68.3876796  78.8963119
  55.3058107  67.4850107  79.4446178  52.3964957  65.3851372  76.0567222
  52.5118461  65.4521765  74.8377169  52.2654191  64.2340708  76.7021842
  52.3364513  64.2364295  77.7096802  52.1099597  62.9534942  76.0233559
  52.8830786  62.8185617  75.2669304  52.2443212  61.8297483  77.0713985
  53.3136193  61.6941154  77.2335851  51.7844622  62.2105264  77.9833402
  51.6188759  60.5050039  76.7082259  51.6870664  59.8503615  77.5770724
  50.5703506  60.6815372  76.4683662  52.3031704  59.8485624  75.5268662
  52.2026316  60.4769722  74.6419413  53.3600941  59.6967991  75.7459087
  51.6943082  58.5574662  75.2528160  51.0713554  58.4982644  74.4600207
  51.9032693  57.4614397  75.9800883  51.2514085  56.3444800  75.6815510
  50.6031886  56.3333238  74.9070921  51.4065881  55.5108182  76.2302103
  52.7563881  57.4753361  77.0079347  53.2503349  58.3255193  77.2388138
  52.9035642  56.6355966  77.5494837  50.7768775  62.8702539  75.2497843
  50.7401405  62.3999280  74.1256318  49.6882576  63.3158375  75.8506495
  49.7085656  63.6218456  76.8129624  48.4000966  63.2946247  75.1563729
  48.3164976  62.4216172  74.5090953  47.2254502  63.2940403  76.1297976
  46.2956416  63.1742510  75.5737350  47.3762849  62.1483331  77.1166410
  48.3057082  62.2676902  77.6734419  46.5350659  62.1520119  77.8097771
  47.3964273  61.2023292  76.5755564  47.1303189  64.6181794  76.8539092
  46.9864175  65.4196282  76.1292891  46.2860816  64.5962054  77.5430247
  48.0497918  64.7945135  77.4120998  48.2714706  64.4470531  74.1913147
  47.5209769  64.3713499  73.2305431  49.0156745  65.5110100  74.4340537
  49.5249041  65.5759500  75.3038626  49.0978239  66.6274257  73.5000256
  48.1142822  67.0818997  73.3808694  50.0582328  67.6798215  74.0256192
  51.0497369  67.2421223  74.1415461  50.1084107  68.5105875  73.3217653
  49.7068778  68.0431990  74.9913344  49.5506359  66.1427427  72.1244756
  48.9894714  66.5371241  71.0975454  50.5591732  65.2807237  72.1063190
  51.0114671  65.0201217  72.9709670  51.0929925  64.7362918  70.8483950
  51.1914678  65.5725638  70.1562600  52.4617603  64.1451207  71.0888682
  52.3783173  63.3007156  71.7730593  52.8826304  63.8051576  70.1426158
  53.1136297  64.9022105  71.5247358  50.1931630  63.6862194  70.1917032
  50.3021797  63.4398389  69.0005705  49.3175159  63.0591375  70.9685920
  49.3294127  63.2406070  71.9620842  48.3167335  62.1023083  70.4412688
  48.7928024  61.4029111  69.7540272  47.6925052  61.3041480  71.6020479
  47.1951574  61.9904627  72.2874066  46.9644203  60.5967851  71.2050214
  48.8431097  60.3283141  72.6132489  47.9222297  59.8394492  73.4390149
  47.1820413  62.8003099  69.6954750  46.6002041  62.2831741  68.7621669
  46.8348456  63.9963578  70.1446282  47.3606355  64.3720292  70.9208468
  45.8184894  64.8153688  69.5525429  44.8532748  64.3116708  69.6049665
  45.7185028  66.1394370  70.3022362  46.7623822  66.4194272  70.4437306
  45.2449392  66.8401006  69.6145531  45.0018747  66.1777896  71.6331638
  45.5812140  65.6556642  72.3946438  44.8504395  67.6399158  72.0254917
  44.2707731  68.1626293  71.2646656  44.3359912  67.7080324  72.9840343
  45.8359059  68.0981081  72.1092552  43.6549916  65.4816679  71.5430715
  43.8018945  64.4409660  71.2541795  43.1587544  65.5224604  72.5127033
  43.0363401  65.9812840  70.7975830  46.0980099  65.2297020  68.1309588
  46.9424396  66.0550461  67.9337618  45.2991903  64.7468789  67.1701679
  44.0155625  64.0855257  67.4546633  43.3923119  64.7461401  68.0573634
  44.1970657  63.1598528  68.0008183  43.4402566  63.8397716  66.0804126
  42.5338636  64.4351561  65.9705578  43.1927636  62.7820948  65.9900334
  44.4930626  64.2391744  65.0612409  43.9739257  64.7216818  64.2331210
  45.1253553  63.4391152  64.6762593  45.3387400  65.2557095  65.8013402
  46.3799976  65.3321674  65.4882344  44.6791867  66.6214875  65.7026590
  43.4503788  66.7018955  65.5716908  45.4632198  67.6764082  65.8438698
  46.4457992  67.5519792  66.0417444  44.9402699  69.0332011  65.7707380
  43.9250574  69.0229012  65.3740812  44.9504340  69.7492099  67.1428962
  45.0637604  70.8218093  66.9854542  43.6581008  69.4822810  67.8802820
  43.5442923  68.4098485  68.0385123  43.6772633  69.9911960  68.8439930
  42.8195676  69.8530506  67.2907980  46.1468338  69.3168004  67.9987856
  45.9198758  68.3319907  68.4071246  47.0129915  69.2459581  67.3408710
  46.4515144  70.2769751  69.1341822  45.5859227  70.3479864  69.7928233
  47.3086901  69.9114851  69.6996608  46.6790363  71.2619550  68.7265693
  45.7502437  69.8422640  64.7688071  46.6506668  69.3030088  64.1351305
  45.3889587  71.1096157  64.5768235  44.5622849  71.4770211  65.0259595
  46.0149879  71.9034381  63.5222703  46.6671910  71.2648618  62.9264930
  44.9444405  72.5385194  62.5817268  45.2081279  72.5131876  61.5244063
  44.1104733  71.8607494  62.7640084  44.5403647  73.9583414  62.9712161
  45.2916725  74.9174997  62.6582864  43.3914114  74.1305150  63.4332979
  47.0917080  72.8695546  64.0580898  47.0196039  73.3304671  65.1941997
  48.1369941  73.0722423  63.2494807  48.1380543  72.6522185  62.3309612
  49.3433744  73.7553630  63.6981074  49.8326252  73.0523737  64.3723024
  50.2866459  74.0317155  62.5018741  50.4856806  73.0998506  61.9726178
  49.8143002  74.7411339  61.8223780  51.6009010  74.6162477  63.0144995
  52.5193816  73.8031816  63.3024550  51.6738259  75.8702539  63.1132419
  49.0585101  75.0378093  64.5243960  49.8466213  75.3834124  65.4046324
  47.9343581  75.7141490  64.2783208  47.3510889  75.4793255  63.4879068
  47.6208845  76.9248202  65.0356540  48.5250583  77.4453860  65.3512171
  46.7241822  77.9210283  64.2425461  46.9184610  77.7823960  63.1789972
  45.2414500  77.7000073  64.5210421  45.0463018  77.8389326  65.5843943
  44.6528305  78.4160671  63.9475562  44.9637555  76.6867946  64.2305471
  47.1269749  79.3632683  64.5594086  48.1684254  79.5202388  64.2786185
  46.4925993  80.0497656  63.9987047  47.0071577  79.5483454  65.6268781
  47.0545312  76.6425069  66.4324443  47.3462834  77.3638957  67.3729867
  46.2597396  75.5911053  66.5622093  46.0282694  75.0668427  65.7305426
  45.7857237  75.0870310  67.8572703  45.2943795  75.8758139  68.4269208
  44.7705795  73.9704529  67.5907958  44.9397489  73.8345536  66.5226140
  45.1339878  73.0955693  68.1298812  43.2875647  74.1423679  67.8490619
  42.7114026  73.8824298  66.9610471  42.9142070  73.2023472  68.9898253
  43.4896673  73.4619800  69.8783831  41.8501186  73.2973633  69.2061320
  43.1355256  72.1746773  68.7017054  42.9008186  75.5947400  68.1229391
  43.1627043  76.2095845  67.2618458  41.8273121  75.6580474  68.3009205
  43.4361133  75.9542945  69.0017332  46.8916033  74.4105588  68.6740382
  46.9028626  74.4960551  69.9026804  47.7808925  73.6898457  67.9953716
  47.6732258  73.5660033  66.9987923  48.8959797  73.0062180  68.6661051
  48.5333020  72.3410379  69.4497501  49.6369438  72.1676186  67.6147302
  48.8949082  71.4721294  67.2225860  49.9243754  72.8704739  66.8327599
  50.8621122  71.3942096  68.0759036  51.4044450  71.0847306  67.1824839
  51.4791232  72.0811512  68.6551365  50.5351481  70.1674814  68.9225082
  51.4206932  69.9417569  69.5166103  49.7146154  70.4435371  69.5847912
  50.1497731  68.9592379  68.1714738  49.2389032  68.5820191  68.3908396
  50.9220607  68.2976692  67.3037315  52.1026959  68.7693018  66.9262595
  52.4343043  69.6479905  67.2977998  52.6647833  68.2476229  66.2689860
  50.4641980  67.1859926  66.7447449  49.5406447  66.8503424  66.9781720
  51.0410781  66.6799301  66.0880799  49.8259868  74.0179210  69.3510123
  50.3711877  73.7376024  70.4416046  49.9851048  75.2021577  68.7366858
  49.4879887  75.4286510  67.8871708  50.8133252  76.2443140  69.3578742
  51.6580107  76.0500760  70.0188411  51.0538054  77.5752227  68.5863425
  50.2723776  78.2758082  68.8807079  52.4254808  78.1912184  68.8733997
  53.2074816  77.4913522  68.5788442  52.5345314  79.1163441  68.3074040
  52.5125175  78.4051993  69.9386395  50.3152075  77.7409086  67.2535025
  50.6212040  76.9204650  66.6043960  49.2474055  77.6628950  67.4579829
  50.6045788  79.0699598  66.5632494  51.6721979  79.1484989  66.3580159
  50.0502203  79.1215567  65.6261669  50.2984013  79.8909294  67.2116043
  50.1783904  76.8012274  70.6182199  50.8775314  77.2578248  71.5287477
  48.8498358  76.7692283  70.6726869  48.3411579  76.4795926  69.8496090
  48.0834933  77.2255403  71.8406563  48.3933190  78.2347359  72.1120074
  46.5827695  77.2405352  71.5315200  46.4711832  76.9420913  70.4891290
  46.1194741  76.4923597  72.1747081  45.9028511  78.5901559  71.7497445
  46.0791060  78.8762769  72.7866485  46.3296178  79.3437411  71.0878672
  44.3971091  78.5273952  71.5104286  43.6572150  77.9535683  72.3096335
  43.9420059  79.0824723  70.3846909  42.9528158  79.0663754  70.1813556
  44.5889956  79.5159424  69.7415663  48.3522272  76.4145192  73.0893336
  48.6989603  76.9868453  74.1008789  48.1866826  75.0869039  73.0209696
  47.9525027  74.6948479  72.1201083  48.4636402  74.1660362  74.1299039
  47.7068842  74.2653990  74.9080726  48.4368374  72.7367776  73.6046665
  48.7273857  72.8624528  72.5616484  49.2477208  72.2558908  74.1517643
  47.1964404  71.8748491  73.6817741  46.3871949  72.4420915  74.1416205
  46.7848916  71.4508155  72.2780270  47.5935098  70.8830869  71.8176798
  45.8909461  70.8295745  72.3329986  46.5752677  72.3358865  71.6773544
  47.4915320  70.6517333  74.5264809  47.7827981  70.9638277  75.5294069
  46.6005118  70.0266670  74.5854417  48.3038341  70.0837240  74.0730167
  49.8891111  74.3365866  74.6206853  50.1942012  74.3596510  75.8311964
  50.7735495  74.3574940  73.6298430  50.4559806  74.2227796  72.6805794
  52.1862758  74.5350642  73.8595243  52.5812619  73.7104817  74.4529456
  52.9279034  74.5647445  72.4958467  52.2920230  73.8161176  72.0232865
  52.7363650  75.5392394  72.0466556  54.4187459  74.1831266  72.2875046
  54.5262468  73.8921200  71.2425837  55.4278606  75.3091397  72.6153275
  55.3212691  75.6003762  73.6602765  56.4423121  74.9509298  72.4401853
  55.2319522  76.1705407  71.9768069  54.7472733  72.8771106  73.0007290
  54.1213466  72.0781011  72.6033638  55.7966755  72.6293643  72.8411105
  54.5591159  72.9883886  74.0685833  52.4364331  75.8388300  74.6353915
  53.2379100  75.8569531  75.6047807  51.7292594  76.9029545  74.2467923
  51.2397986  76.8978211  73.3633325  51.8212206  78.1610846  74.9791007
  52.8687393  78.3620311  75.2036544  51.2555537  79.3424925  74.1836226
  50.4718733  78.9610393  73.5290711  50.8238850  80.0482053  74.8933630
  52.3239065  80.0531458  73.3416694  53.1470254  80.3210231  74.0041028
  52.6783908  79.3489516  72.5889720  51.7967379  81.3057181  72.6558385
  51.2744820  81.9073096  73.3997710  52.6478010  81.8659691  72.2686567
  50.8464064  80.9739105  71.5141403  51.3760437  81.1308656  70.5744861
  50.5643067  79.9246151  71.6007315  49.6202302  81.8216645  71.5407136
  49.8813819  82.7939781  71.4600550  49.0196301  81.5692189  70.7689294
  49.1290835  81.6760545  72.4111570  51.2598875  78.0664848  76.4021865
  51.6343387  78.8720682  77.2486962  50.3993435  77.0767061  76.6699850
  50.1118483  76.4605357  75.9231383  49.7467868  76.9394230  77.9727528
  49.4911164  77.8972669  78.4258166  48.4880624  76.0832067  77.8485610
  48.5794948  75.4474754  76.9678873  48.3039870  75.2131333  79.0856809
  48.2120098  75.8482186  79.9667641  47.4017118  74.6114289  78.9763557
  49.1663631  74.5564102  79.2002292  47.2932512  77.0083289  77.5707277
  47.1535132  77.6179115  78.4634667  47.5786267  77.6480402  76.7356051
  45.9972844  76.2929477  77.2394019  45.7110061  75.6533533  78.0743052
  45.2121777  77.0272341  77.0590408  46.1361206  75.6834798  76.3464443
  50.7126427  76.4253713  79.0567696  51.4564170  75.4300707  78.8548126
  50.7246407  77.1258979  80.1938300  49.9803460  77.7752936  80.4045669
  51.8058860  76.9761687  81.1607342  52.6579982  76.5522860  80.6293892
  52.0606838  77.9741091  81.5175150  51.4805257  76.1004600  82.3438559
  52.3811155  75.6261450  83.0350108  50.1851792  75.8072597  82.5209776
  49.4720571  76.2777794  81.9823057  49.7710194  74.8651818  83.5233902
  50.5880151  74.6991115  84.2255568  48.5644128  75.3785551  84.2942192
  48.8143552  76.3327746  84.7580007  47.7310467  75.5171603  83.6054598
  48.1984928  74.4499372  85.2953092  47.4368648  74.7816354  85.7764525
  49.4458175  73.4890362  82.9491326  48.7204897  73.3577070  81.9507653
  49.9208381  72.4621190  83.6566512  50.6040705  72.6341693  84.3803166
  49.5188748  71.0974230  83.4046212  49.8176382  70.7900743  82.4024354
  50.1767885  70.1728314  84.4115820  49.8798782  70.4623570  85.4196094
  49.8634797  69.1462173  84.2218420  51.2603648  70.2446926  84.3177866
  48.0104010  70.9757873  83.4872374  47.4214476  70.3815338  82.6096717
  47.3936153  71.5577799  84.5238251  47.9465895  72.0761346  85.1913783
  45.9504762  71.4463963  84.7544355  45.6363965  70.4047947  84.8216610
  45.5265719  72.1900669  86.0244690  45.6023925  73.2653147  85.8626240
  44.0980240  71.8307439  86.3546142  44.0214964  70.7556368  86.5170609
  43.7899486  72.3570245  87.2580626  43.4496742  72.1197499  85.5274399
  46.4737512  71.8914714  87.2151479  47.4790930  71.8132950  86.8012914
  46.4208095  72.7542739  87.8791272  46.1495512  70.6323368  87.9960853
  46.2027497  69.7689952  87.3328273  46.8681143  70.5118594  88.8067958
  45.1444646  70.7099734  88.4106614  45.1545738  71.9940218  83.5807662
  44.2628319  71.3276481  83.0705256  45.4893154  73.2165299  83.1624158
  46.2746070  73.6769574  83.5999348  44.8483791  73.8725772  82.0136109
  43.7831840  73.9971142  82.2084160  45.4642533  75.2502453  81.7663185
  46.5252012  75.0595906  81.6046415  45.0124555  75.5981235  80.8373624
  45.3008734  76.3004202  82.8255223  44.2586806  76.5514735  83.0227714
  45.7527760  75.8912356  83.7291008  46.0428013  77.5711467  82.4439320
  47.2643194  77.5560687  82.2162543  45.2988784  78.6637850  82.2829408
  45.7381021  79.5371744  82.0292185  44.2988192  78.6141241  82.4152917
  45.1283717  73.1320023  80.7083374  44.3469703  73.2138980  79.7470228
  46.2821418  72.4570191  80.6640836  46.9741088  72.5727794  81.3906375
  46.6244831  71.6458655  79.5113299  46.3796725  72.2045621  78.6079889
  48.1146363  71.2684212  79.4670094  48.6569877  71.9305005  80.1419948
  48.2184524  70.2383691  79.8080593  48.6884586  71.3979399  78.0571407
  48.0639790  70.8029037  77.3907639  48.6267231  72.4478771  77.7709192
  50.1153608  70.9336116  77.9540964  50.2888641  70.1186727  78.6568554
  50.3175563  70.5877646  76.9403872  51.0301657  72.0217683  78.2667688
  51.1408158  72.7415376  77.5669202  51.7077634  72.1338793  79.4041379
  51.6091568  71.2053176  80.3514730  51.0124292  70.4031891  80.2079243
  52.1314641  71.3066632  81.2099738  52.5042238  73.1779767  79.5898168
  52.5899388  73.8786472  78.8674499  53.0213765  73.2676166  80.4527284
  45.7258118  70.4134925  79.4399672  45.0868411  70.1741680  78.4304444
  45.6503058  69.6635487  80.5291155  46.2257819  69.9087058  81.3221001
  44.7824043  68.4829923  80.6367898  45.0699430  67.7245935  79.9086058
  44.9310568  67.9001358  82.0271371  44.7425290  68.7519528  82.6805622
  44.1316366  67.1685927  82.1449169  46.2576617  67.2631405  82.3971188
  47.0231380  67.7018974  81.7570881  46.6395640  67.4705733  83.8639464
  45.8747368  67.0316425  84.5046321  47.5979181  66.9904611  84.0618108
  46.7185229  68.5376204  84.0719764  46.1534599  65.7901731  82.0850853
  45.9493863  65.6568527  81.0226923  47.0918824  65.2971970  82.3389338
  45.3437480  65.3511650  82.6679554  43.3185525  68.8102733  80.3927062
  42.6489857  68.0845933  79.6733510  42.8210277  69.8824841  81.0144965
  43.3988054  70.3723677  81.6825431  41.4412718  70.3326278  80.8290100
  40.7573539  69.5342961  81.1171454  41.1374208  71.5820784  81.6953458
  42.0932706  71.9823209  82.0333639  40.6460884  72.3113524  81.0512557
  40.2463833  71.2910678  82.9108338  39.2532053  71.0504944  82.5315940
  40.6635735  70.4189518  83.4142898  40.1460292  72.4514892  83.9014266
  39.3839559  72.2083283  84.6418428  41.1099376  72.5664570  84.3971708
  39.7914737  73.7235948  83.2622875  40.5603996  74.3332420  83.0231584
  38.5507525  74.1164438  82.9647668  38.3463600  75.3065927  82.4002615
  39.1322005  75.9083351  82.1991131  37.4065913  75.6011556  82.1762813
  37.5204062  73.3195818  83.2117010  37.6759418  72.4119503  83.6265670
  36.5846616  73.6238035  82.9838198  41.1559428  70.6102000  79.3537100
  40.3474329  69.9246159  78.7236471  41.8375323  71.6052880  78.8074512
  42.4345377  72.1855064  79.3793169  41.6872327  71.9447489  77.4061096
  40.6916259  72.3468439  77.2185302  42.7204745  73.0030932  77.0262520
  42.2572507  73.9886660  76.9796769  43.5344236  73.0186484  77.7510587
  43.4805341  72.7381517  75.4346615  44.2683134  73.8089103  75.4768306
  41.7944676  70.7165787  76.4858642  41.0616519  70.5993233  75.4974901
  42.7015733  69.8125006  76.8259933  43.2936675  69.9989447  77.6227131
  42.8575601  68.5278182  76.1266361  43.0984372  68.6922857  75.0763848
  44.0075558  67.7347863  76.7772667  44.1864116  68.1913538  77.7507429
  43.6423829  66.7171106  76.9154142  45.3036398  67.7041266  75.9872696
  45.2602660  66.8234663  75.3464445  45.3514811  68.6006271  75.3691294
  46.5462813  67.6290585  76.8714935  47.6084492  68.1316768  76.4495763
  46.4710755  67.0541202  77.9742791  41.6455687  67.5966189  76.1945968
  41.3561060  66.8927322  75.2495339  40.9805182  67.5485989  77.3406770
  41.3335180  68.0024154  78.1710631  39.7445075  66.7759205  77.4456806
  39.9147866  65.7669794  77.0699919  39.2783427  66.6851694  78.8708120
  39.6777192  67.5665024  79.3726583  38.1906881  66.6886799  78.9421926
  39.8210192  65.4424200  79.5304128  40.8239890  65.2397907  79.1547884
  39.8761923  65.6496434  81.0349102  38.8734513  65.8518783  81.4113546
  40.2684442  64.7514006  81.5117740  40.5263101  66.4944941  81.2622307
  38.9764530  64.2345662  79.1513466  38.9963982  64.1016651  78.0696632
  39.3784275  63.3436509  79.6338274  37.9487488  64.3920220  79.4786546
  38.6696987  67.3724785  76.5852169  37.8830552  66.6443851  75.9896769
  38.6415083  68.7041395  76.5127250  39.2641235  69.2570111  77.0843740
  37.6625263  69.3983380  75.6877234  36.6640778  69.1273958  76.0309289
  37.8054728  70.9315272  75.7499445  37.1977606  71.2841157  76.5832910
  38.8529370  71.1653635  75.9403108  37.3448935  71.6385553  74.4337261
  36.4584458  71.1128635  73.7019080  37.8854265  72.7270209  74.1341972
  37.7357345  68.9201767  74.2394032  36.7424875  68.4585199  73.6784109
  38.9195457  69.0124189  73.6507068  39.6833505  69.4386411  74.1557179
  39.1460966  68.6049769  72.2720271  38.5263400  69.1815635  71.5853330
  40.6233309  68.8290382  71.9365966  41.2294045  68.4499606  72.7594425
  41.0024561  68.1228895  70.6710291  40.3970837  68.5017886  69.8475849
  42.0566494  68.2995650  70.4575747  40.8298896  67.0527684  70.7857504
  40.8846980  70.3264692  71.7933745  41.1644020  70.5098120  70.7559489
  39.9499737  70.8420792  72.0136840  41.9701167  70.8423287  72.7051395
  42.9053217  70.3274785  72.4850922  42.0995457  71.9130387  72.5472550
  41.6908940  70.6597434  73.7428278  38.7177222  67.1585223  72.0112789
  38.0854306  66.8735364  70.9969163  39.0430494  66.2608736  72.9439342
  39.5066678  66.5683632  73.7869096  38.7337265  64.8295730  72.8003828
  39.1711810  64.4462887  71.8785228  39.3045012  64.0462370  73.9712085
  39.0841703  64.6293641  74.8653652  38.7545622  63.1058083  74.0067204
  40.7676857  63.7641002  73.9101502  40.9993361  63.1876953  73.0144961
  41.3275241  64.6992172  73.8946840  41.2409432  62.8163414  75.3612499
  42.8591324  63.5109342  75.6752968  42.7663999  64.5815825  75.8575384
  43.2977328  63.0306627  76.5499794  43.5007359  63.3444192  74.8100113
  37.2329474  64.5371946  72.7748848  36.7922040  63.6176036  72.1042063
  36.4617906  65.3068605  73.5303652  36.8713322  65.8856967  74.2496174
  35.0140597  65.2247945  73.4540678  34.7055934  64.2015705  73.2396845
  34.4041127  65.6490345  74.7889948  34.8158549  66.6323140  75.0164349
  33.3176714  65.7152043  74.7309691  34.7772419  64.6855821  75.9259926
  35.9571911  64.4510064  76.2051470  33.7697613  64.0762643  76.5376531
  33.9567613  63.4319491  77.2926291  32.8204801  64.2595583  76.2454728
  34.4627560  65.9914292  72.2594106  33.6764990  65.4477842  71.4924569
  34.9206728  67.2296232  72.0694718  35.6416552  67.5749844  72.6867314
  34.3415098  68.1579455  71.0845429  33.2649885  68.0141114  71.1768070
  34.6858323  69.6557059  71.4624277  34.3803039  69.8510661  72.4903314
  35.7594087  69.8176873  71.3660136  33.9432109  70.6004256  70.5234695
  34.2485837  70.4059614  69.4953489  32.8694789  70.4393431  70.6196675
  34.2750012  72.0436688  70.8875976  33.9694750  72.2390296  71.9155017
  35.3485773  72.2056494  70.7911815  33.5323775  72.9883880  69.9486400
  33.8377489  72.7939239  68.9205191  32.4586470  72.8273062  70.0448413
  33.8522036  74.3795792  70.2996347  34.8470473  74.5291679  70.2101421
  33.3603670  75.0052627  69.6777689  33.5689293  74.5601055  71.2521393
  34.7231218  67.8762215  69.6145777  34.0416951  68.3278953  68.6857319
  35.7796451  67.0905101  69.3733078  36.2679528  66.6583324  70.1445908
  36.2609280  66.8310847  68.0131673  35.6957069  67.4269690  67.2965460
  37.7587149  67.2106493  67.9004279  38.2065881  67.2031093  68.8941341
  38.2667583  66.4826620  67.2679515  38.1302689  68.8323752  67.1957019
  39.4525294  68.7260530  67.2917280  36.1301938  65.3449304  67.5866474
  37.1344402  64.6179259  67.4280676  34.9188752  64.9788821  67.2004287
  34.1507128  65.6303754  67.2751439  34.6360015  63.6246699  66.7245645
  35.1623984  62.8928093  67.3372516  33.1491251  63.3571608  66.8218599
  32.8780515  62.5983517  66.0878108  32.7832688  62.8706005  68.2094237
  33.0536387  63.6291284  68.9440224  31.7104633  62.6841068  68.2584914
  33.3221490  61.9480555  68.4253390  32.4514905  64.5744853  66.5498744
  31.5056081  64.4210265  66.6078151  35.1117933  63.3351697  65.2814821
  35.4993924  62.1949049  64.9917837  35.0547391  64.3113670  64.3901877
  34.9014798  65.2616505  64.6960836  35.2984943  64.0672427  62.9450975
  35.2383583  63.0004493  62.7296099  34.2492360  64.7906052  62.1151261
  33.8426954  64.1039024  61.3726550  33.4477420  65.1335987  62.7693912
  34.8377172  65.9137752  61.4535121  34.1692684  66.3644245  60.9322719
  36.6115171  64.6316799  62.4462631  37.0669210  65.6335236  62.9508465
  37.1422574  64.0343351  61.3783305  36.6228452  63.2818613  60.9492693
  38.4295319  64.4391818  60.7644400  38.7488761  65.3904517  61.1901209
  39.5227942  63.3978185  61.0186128  39.0302523  62.4654942  60.7424371
  40.3492975  63.5881672  60.3339524  40.0558643  63.2877247  62.4373762
  39.2424873  63.5087291  63.1285172  40.6033914  61.8944392  62.7263163
  41.4171694  61.6728883  62.0358242  40.9753282  61.8547671  63.7501278
  39.8096734  61.1581505  62.5998602  41.1104708  64.3707673  62.6488590
  40.6599512  65.3517471  62.4978286  41.5023023  64.3038375  63.6637924
  41.9233220  64.2312161  61.9361899  38.2565723  64.5457659  59.2529991
  37.9161346  63.5897477  58.5765907  38.5260415  65.7143960  58.7394349
  38.9711774  66.4177840  59.3114477  38.1074026  66.0853760  57.3733294
  37.6239362  65.2459889  56.8735407  37.0962467  67.2475792  57.4755136
  37.6291231  68.1949616  57.5568063  36.4608463  67.2635252  56.5900125
  35.9270946  67.1751749  58.9580755  35.2703401  68.2957866  58.6720664
  39.3288695  66.4097323  56.5250831  40.4363613  66.6184733  57.0376325
  39.1439706  66.3767164  55.2148071  38.2511775  66.0463853  54.8773145
  40.1331740  66.8136459  54.2379257  41.0413909  66.2122520  54.2775069
  39.4739456  66.6204653  52.8570401  39.3079455  65.5539400  52.7051619
  38.5156185  67.1397810  52.8615616  40.3501137  67.2023099  51.3960414
  39.4236268  66.8258910  50.5192124  40.4321256  68.2872931  54.4870858
  39.5068068  69.0826583  54.4782433  41.6854147  68.6439836  54.7959488
  42.4511334  67.9854316  54.7868061  41.9465553  69.9944222  55.2497353
  41.2042708  70.2688801  55.9992590  43.3282334  70.1272980  55.8640312
  43.2759427  69.7380202  56.8808044  44.0111165  69.5145059  55.2755955
  43.8367469  71.5693475  55.8961305  43.8853098  71.9269132  54.8675931
  43.1127757  72.1640400  56.4531840  45.2047882  71.7015390  56.5429006
  45.5239201  70.7201970  56.8939300  45.9115809  72.0680863  55.7984634
  45.1572192  72.6744811  57.7231991  46.1875048  72.8567782  58.0287803
  44.7183852  73.6019436  57.3553171  44.3654413  72.1785503  58.9016839
  44.7721676  71.3193749  59.2429920  44.3818143  72.8732561  59.6346340
  43.4106212  72.0099749  58.6188412  41.7525805  70.9800466  54.0906670
  41.2515929  72.0955283  54.2915800  42.1203756  70.5380151  52.8836459
  42.4872128  69.5993163  52.8175066  42.0982930  71.3550282  51.6826575
  42.6066698  72.3058683  51.8425175  42.8376558  70.5829528  50.5845281
  43.8690990  70.9349794  50.6018929  42.8079301  69.5323899  50.8735505
  42.2787208  70.7368209  49.1956112  42.9138051  70.1900453  48.4986138
  41.2661219  70.3354299  49.1552265  42.2403017  72.1725959  48.7813010
  41.1816410  72.7036896  48.4121954  43.3938508  72.8195675  48.8207650
  43.4330916  73.7925305  48.5526148  44.2298017  72.3374597  49.1188582
  40.6569792  71.7451615  51.2504660  40.3353773  72.9330078  51.1901795
  39.8029492  70.7636508  50.9523208  40.0993981  69.7988550  50.9895541
  38.4519441  71.0543968  50.4859024  38.4151424  72.0373768  50.0163333
  38.0410623  70.0129244  49.4628758  37.1043251  70.2853024  48.9766321
  38.8149116  69.8744799  48.7078325  37.7666439  68.3849697  50.2046270
  37.4407285  67.7691606  49.0717296  37.4688255  71.1197173  51.6690309
  36.2561260  71.3210437  51.5007228  38.0256845  70.9169208  52.8555159
  38.8982194  70.4086333  52.8761534  37.4006547  71.2822811  54.1366777
  38.0870722  71.0924042  54.9618304  37.0525709  72.7721658  54.1232153
  37.6194412  73.2295401  53.3123109  35.9864332  72.8534324  53.9114458
  37.3665902  73.4899755  55.4297172  36.5407891  73.3719402  56.1313018
  38.2638142  73.0309291  55.8448889  37.6280989  74.9778472  55.2314170
  38.2885029  75.3675479  54.2697134  37.0784052  75.8185781  56.1229042
  37.2249725  76.8136561  56.0310390  36.5209518  75.4519296  56.8811363
  36.1771990  70.4649134  54.5638958  36.1847979  69.7971266  55.6075160
  35.1217350  70.5099484  53.7599502  35.1427150  71.0611182  52.9138586
  33.8285056  69.8916455  54.1686530  33.8338453  69.7492642  55.2493001
  32.5973084  70.7720299  53.7876664  32.7426404  71.0693159  52.7491102
  31.7232736  70.1248819  53.8608973  32.3797609  72.0339539  54.6601748
  33.3552228  72.3260986  55.0490531  32.0080204  72.8108363  53.9920715
  31.3980029  71.8497818  55.8270385  31.0725174  72.8551591  56.5165547
  30.9463807  70.7114604  56.0524574  33.6808806  68.4445629  53.6605420
  32.5854720  67.9837644  53.3387071  34.7690396  67.6879100  53.6712360
  35.6504037  68.1267116  53.8965135  34.7601331  66.2384201  53.3917391
  33.7605003  65.8694627  53.1621656  35.7254520  65.8935922  52.1664228
  36.7173988  66.2837565  52.3942682  35.8171953  64.3683863  51.9097667
  34.8256333  63.9775601  51.6813826  36.4839283  64.1804952  51.0681829
  36.2066573  63.8725753  52.7989188  35.3137144  66.5549302  50.9546501
  35.9159265  66.3239912  50.2435888  35.2682001  65.4230447  54.6266447
  36.4204673  65.5080813  54.9705039  34.4373472  64.4872602  55.1039285
  33.4667434  64.5035627  54.8250706  34.8401357  63.5639011  56.1837699
  35.5385026  64.0957908  56.8298938  33.6581670  63.0239810  57.0606886
  33.2431985  63.8711829  57.6067191  32.9040258  62.6250291  56.3823020
  34.0869096  61.9169539  58.0686032  34.0070228  60.9933566  57.4952910
  35.1287633  62.0861446  58.3406594  33.2314342  61.8023339  59.3519196
  33.7373566  61.2259851  60.3356505  32.0507320  62.2291615  59.3747380
  35.7616713  62.4166733  55.6765277  35.4776053  61.6619899  54.7069786
  36.8808500  62.2865568  56.3386263  37.1750603  62.9816268  57.0097578
  37.7885687  61.1616847  56.0547277  37.5864961  60.6766345  55.0997449
  39.2511787  61.6563979  56.0810867  39.4178281  62.1745803  57.0254465
  40.2519866  60.5036384  55.9478423  40.0862482  59.9852313  55.0034454
  41.2675192  60.8989096  55.9713975  40.1150860  59.8056410  56.7737703
  39.4905935  62.7420789  54.9767560  38.9314594  63.6201154  55.3000543
  40.5579973  62.9610838  55.0047797  39.0823988  62.3752947  53.5468317
  38.0149562  62.1565929  53.5179228  39.2998345  63.2103288  52.8808444
  39.6414929  61.4975594  53.2226490  37.5357561  60.0273338  57.0536510
  37.3713775  58.8619452  56.6698332  37.5037218  60.3816559  58.3260690
  37.6051866  61.3572111  58.5671009  37.5202833  59.3947866  59.4063910
  36.7938756  58.6003674  59.2351338  38.9615603  58.7411171  59.5588566
  39.5033064  58.8950161  58.6256221  39.7460771  59.3440735  60.7018902
  39.2051425  59.1901496  61.6355907  40.7230480  58.8649076  60.7653499
  39.8764753  60.4125109  60.5300225  38.8711439  57.3125521  59.7508979
  39.7535955  56.9451485  59.8397461  36.9248647  60.0162323  60.7180404
  36.5631404  61.2034711  60.7744451  36.7529539  59.1860842  61.7345293
  37.1404083  58.2555099  61.6712050  36.1582563  59.6029661  62.9995828
  35.8793008  60.6563156  62.9724181  34.9219042  58.7849836  63.2457862
  34.1736472  59.4258768  63.7121206  34.3384116  58.1846166  61.9017960
  35.0859874  57.5431980  61.4350925  33.4452615  57.5999276  62.1220705
  34.0817491  58.9968542  61.2217261  35.2910809  57.7326848  64.1305922
  34.5244210  57.1846033  64.3134571  37.0350671  59.2531932  64.1891952
  38.0159328  58.5179350  64.0359276  36.6611421  59.7586894  65.3693900
  35.9329078  60.4574562  65.4081086  37.3558928  59.4128963  66.6074100
  38.4178631  59.6038566  66.4529676  36.8937008  60.1890878  67.8454836
  37.0566322  61.2475800  67.6426366  35.8263492  60.0024724  67.9639550
  37.6364875  59.7920207  69.1508795  38.1218956  58.8324993  68.9725585
  38.3942242  60.5522228  69.3406954  36.6878177  59.6750436  70.3991066
  36.6017019  60.6735235  70.8277333  35.7140765  59.3536830  70.0294379
  37.1802562  58.6837471  71.4904974  36.4154923  57.9093982  71.5506679
  38.1028701  58.2530327  71.1014372  37.4307437  59.2495179  72.8641474
  36.5758459  59.6482945  73.2250170  37.7446332  58.5127602  73.4795834
  38.1396677  59.9667690  72.8086800  37.2399721  57.9400992  66.8148153
  38.2348541  57.3067587  67.0720868  36.0382688  57.3858017  66.6531846
  35.2482913  57.9950056  66.4953700  35.7912682  55.9397515  66.7734369
  35.7542652  55.6658190  67.8278045  34.4308934  55.5337586  66.1013289
  34.5634933  55.3920268  65.0287486  34.1464433  54.5867620  66.5600070
  33.2874769  56.5580422  66.3285664  32.6839294  57.0659236  65.3577024
  32.9473227  56.8144084  67.6001275  32.2087077  57.4739760  67.7989197
  33.4312946  56.3467575  68.3532375  36.9259990  55.0797895  66.1913938
  37.2775702  54.0483444  66.7551497  37.4781915  55.5127960  65.0593996
  37.1671858  56.3870744  64.6606362  38.3891325  54.6807021  64.2781294
  38.2246266  53.6298929  64.5165342  38.1511640  54.8865507  62.7690106
  38.5991498  55.8458367  62.5098226  38.6850550  54.0864403  62.2562887
  36.6459835  54.8766191  62.3279281  36.2357134  55.4565404  63.1546509
  36.4880515  55.4150919  61.3934744  35.9240495  53.4828170  62.2572944
  35.5047628  53.0866662  61.1287993  35.6125534  52.8581602  63.3261980
  39.8695934  54.8248854  64.6712283  40.6834057  53.9717400  64.3233514
  40.2046930  55.8471932  65.4086875  39.4872733  56.4984506  65.6937701
  41.5529645  56.0577684  65.8901271  42.3205229  56.0947116  65.1170886
  41.5518401  57.3567335  66.6603903  40.6319674  57.4200714  67.2417018
  42.7406114  57.4308829  67.5898039  43.6609250  57.3680706  67.0091335
  42.7186838  58.3750763  68.1339720  42.7011187  56.6030748  68.2978104
  41.4805887  58.5449754  65.6913881  42.3707218  58.5124288  65.0631329
  40.5938963  58.4126399  65.0714175  41.4082785  59.8913007  66.3992527
  42.2949190  60.0245629  67.0190990  41.3599891  60.6896233  65.6586796
  40.5180941  59.9247730  67.0273859  41.9678024  54.9569700  66.8527331
  41.2584965  54.6528697  67.7941348  43.1265292  54.3756668  66.6255244
  43.6115943  54.5173468  65.7510315  43.7582991  53.5165159  67.6443182
  43.4325834  53.8161136  68.6404355  43.3679081  52.0915800  67.4228536
  43.6635292  51.4004528  68.2121891  42.2815940  52.0970269  67.3334546
  43.9019195  51.5290951  66.1371618  43.2621116  51.8052186  64.9359579
  42.3735914  52.4365711  64.9410177  43.7308361  51.2986014  63.7618296
  43.1932936  51.4671763  62.8286997  44.8941414  50.5684707  63.7619585
  45.2744566  50.1643589  62.8237933  45.5792515  50.3454403  64.9359443
  46.5076562  49.7744321  64.9252379  45.0955592  50.8394476  66.1125132
  45.6532530  50.6893561  67.0369321  45.2642279  53.5720513  67.5991490
  45.8400798  53.9384697  66.5730568  45.8475843  53.1598738  68.7153026
  45.2752456  52.7158298  69.4191156  47.2875972  53.3160980  68.9827832
  47.6717327  54.1924028  68.4606442  47.5279755  53.5011374  70.5066941
  46.7115236  53.0064514  71.0328038  48.4693433  53.0109544  70.7549830
  47.5867571  54.8687977  70.9007790  47.7362522  54.9228557  71.8475254
  48.0313318  52.1044925  68.5189385  48.1589445  51.1608897  69.2721999
  48.4816739  52.0958559  67.2699539  48.2099132  52.8090355  66.6084251
  49.3820458  51.0691121  66.8313463  48.9676930  50.0915074  67.0777199
  49.5981490  51.1390800  65.3406770  49.3409373  52.1618371  65.0651608
  50.6638276  50.9768802  65.1790593  48.8077549  50.1748109  64.4889398
  47.8282819  50.6007403  64.2714134  49.5479777  49.9218119  63.1905879
  50.5274298  49.4954208  63.4072977  48.9771565  49.2257174  62.5760016
  49.6723926  50.8621102  62.6535029  48.5990985  48.8623391  65.2108195
  48.0529635  49.0395025  66.1373448  48.0272899  48.1850639  64.5764422
  49.5664436  48.4151701  65.4396913  50.6959830  51.2596794  67.5134718
  51.3446480  50.3061631  67.8856832  51.1156875  52.4999272  67.6103249
  50.5709709  53.2570439  67.2228232  52.3533805  52.8195201  68.2755621
  53.0778204  52.0317257  68.0690044  52.9449581  54.1724251  67.8041749
  53.1735994  54.0910859  66.7415337  52.1898861  54.9439662  67.9548095
  54.1420677  54.5240187  68.5276267  54.4748164  55.3651606  68.2061326
  52.0700922  52.9056055  69.7355792  51.0102342  53.3223395  70.1437518
  53.0668546  52.5752950  70.5436595  53.9416569  52.2198307  70.1852386
  52.9161861  52.7019530  71.9580490  52.0719632  52.0859815  72.2678327
  54.1610440  52.2653738  72.7515491  54.1573598  51.1856624  72.6021867
  55.0964776  52.6803695  72.3762592  54.0263035  52.5806742  74.2774523
  53.0036597  52.9123025  74.4572388  54.3371437  51.3719324  75.1729564
  55.3598437  51.0400013  74.9940564  54.2257300  51.6561137  76.2193448
  53.6467398  50.5607515  74.9418109  54.8413858  53.8237836  74.6869446
  54.4877349  54.6907715  74.1289459  54.7177127  54.0044291  75.7547336
  55.8957385  53.6561964  74.4670492  52.6255084  54.1683171  72.2316690
  51.7745730  54.5063574  73.0240924  53.3123071  55.0322725  71.5245527
  54.0567149  54.7278194  70.9135988  53.2189905  56.4137419  71.8344568
  53.1798123  56.5326960  72.9172375  54.3813189  57.1844497  71.3128706
  54.8031420  56.8049995  70.3821817  54.2178527  58.2585963  71.2257618
  55.6576322  56.9741408  72.5607883  56.5798302  57.7051347  71.9410327
  51.9076147  57.0491105  71.5822479  51.5804866  57.9874925  72.2982391
  51.1297689  56.5823057  70.6255211  51.4336976  55.8765180  69.9700896
  49.7949912  57.0933066  70.5042091  49.2207515  56.7693570  71.3721979
  49.8421417  58.1821364  70.4861611  49.1224403  56.6225119  69.2818602
  49.6915114  55.8781201  68.4935684  47.9581106  57.1792675  69.0200883
  47.1279337  58.0185977  69.9030188  47.7389619  58.8190574  70.3201627
  46.7288829  57.4073319  70.7124702  46.0471411  58.5333107  68.9841206
  46.3039085  59.5392234  68.6519924  45.0986903  58.5594134  69.5206474
  45.9841290  57.5755616  67.8318571  45.6542597  58.0988101  66.9343627
  45.3293723  56.7239480  68.0166478  47.4200996  57.0983530  67.6547799
  47.4869356  56.0582426  67.3357163  48.1647177  57.9837723  66.6596546
  47.8975930  57.9452916  65.4785879  49.0555134  58.8248967  67.1823570
  49.1389213  58.8725321  68.1877790  49.9325537  59.6518710  66.3810732
  49.9571620  59.2766917  65.3579729  49.4583630  61.0496928  66.3596442
  48.4008609  61.0578569  66.6236934  50.0219876  61.6151297  67.1017415
  49.6392420  61.6705065  65.0225626  50.6659329  62.0170564  64.9046227
  49.4073854  60.9494786  64.2386854  48.5182687  63.0782899  64.8842319
  49.4883225  64.4232390  65.5497134  50.3940662  64.5470843  64.9560892
  48.9048418  65.3433585  65.5176044  49.7586533  64.2008849  66.5819833
  51.3450481  59.6975222  66.9254532  51.5692213  59.8470909  68.1339356
  52.2938469  59.5945739  65.9774424  52.0095419  59.3237321  65.0468970
  53.7100333  59.8593188  66.2194363  53.8868500  60.4940465  67.0877426
  54.4747391  58.5499485  66.4079292  54.3148535  57.9073341  65.5421444
  55.5389897  58.7617324  66.5109755  54.1166566  58.0454039  67.3053203
  54.2337060  60.5997755  64.9940287  53.5744049  60.6704547  63.9745874
  55.4839063  61.0428085  65.0671028  55.9544085  61.0754104  65.9602233
  56.1987557  61.5331112  63.8880355  55.5001471  61.8918533  63.1321590
  57.1100972  62.7023208  64.3110186  57.8212847  62.3563628  65.0611022
  57.6520331  63.0742133  63.4414775  56.5022648  63.5042640  64.7299769
  57.0262979  60.3895114  63.2406111  57.6121493  59.5309005  63.9064215
  56.9814787  60.3574166  61.9075131  56.3006592  60.9074212  61.4034505
  57.8259770  59.4418913  61.1518273  58.6262972  59.0747412  61.7943128
  57.0190728  58.2333907  60.6291744  56.3037952  58.6457737  59.9175442
  57.7013315  57.5607701  60.1093623  56.2710677  57.4613925  61.7121984
  56.9111492  56.5385608  62.5266991  57.9829959  56.3842109  62.4025215
  56.2071417  55.8123992  63.4935801  56.7253673  55.0718432  64.1027770
  54.8388154  55.9952342  63.6380775  54.1466206  55.3069980  64.6029274
  54.7059870  54.7253183  65.1228866  54.1758089  56.9154143  62.8450574
  53.1045004  57.0804952  62.9597169  54.8954132  57.6367470  61.8890585
  54.3846269  58.3610916  61.2546119  58.5330299  60.2251065  60.0366304
  57.9259042  61.1273635  59.4170954  59.8255378  59.9118756  59.7744958
  60.3753971  59.3285350  60.3888799  60.4639290  60.4377077  58.5522453
  59.9438726  61.3064225  58.1485434  61.9691870  60.7297516  58.5645590
  62.3782196  60.4792130  57.5857730  62.2503988  62.1992088  58.8725727
  61.8420382  62.4503918  59.8514750  63.3267323  62.3712726  58.8734328
  61.7833774  62.8260377  58.1129161  62.7196974  59.7555413  59.4134792
  62.5714629  58.7469715  59.0275834  63.7819995  59.9989312  59.3941098
  62.3538469  59.8090943  60.4388505  60.3287018  59.5286448  57.3868800
  60.4759041  58.3353656  57.5430895  60.1468389  60.1105408  56.2029574
  59.8442149  61.0715538  56.1324447  60.2361352  59.3247137  54.9829373
  60.0980545  58.2731352  55.2343644  59.1580918  59.7313453  53.9195093
  59.2186775  58.8805481  53.2408543  58.1419292  59.8166973  54.3045142
  59.4932635  61.0018077  53.1406466  60.2046347  61.8387116  53.6163060
  58.8191851  61.2035782  52.0301850  59.0005333  62.0280404  51.4756810
  58.1230871  60.5331941  51.7366999  61.6538391  59.3856014  54.4448384
  62.5433523  59.9857520  55.0806957  61.9287227  58.7020697  53.3197814
  60.9951632  57.8881766  52.5472636  60.4212253  58.5215713  51.8708712
  60.3148167  57.3643776  53.2187264  61.8978309  56.9683040  51.8320800
  61.4370809  56.6600928  50.8935629  62.0879297  56.0897742  52.4486425
  63.1471458  57.7300091  51.5970935  63.0290547  58.3477343  50.7068300
  64.0270801  57.0965559  51.4850567  63.2960449  58.6033489  52.8076023
  63.9123558  58.2116933  53.6168395  63.8781970  59.9174640  52.3197380
  65.0909677  60.1031121  52.4117329  63.0449660  60.8123618  51.7952200
  62.0881300  60.5552986  51.5990502  63.5203856  62.0931810  51.3248071
  64.5580580  62.0133809  51.0008207  62.6891858  62.5451727  50.1625070
  61.7381644  62.2595732  50.6120518  62.6240364  63.5695569  49.7957747
  62.8724048  61.6820623  48.9762038  63.9026778  61.8955993  48.0918326
  63.9307470  60.9041208  47.2161274  64.6408883  60.9145447  46.3892721
  63.0068688  60.0224364  47.5540216  62.7766971  59.1749443  47.0551447
  62.3995279  60.4451647  48.7070037  61.6830279  59.7989554  49.2140959
  63.6486722  63.1226400  52.4271912  63.9922932  64.2900333  52.1755697
  63.4466570  62.6767585  53.6636845  63.0980760  61.7396483  53.8065659
  63.7142481  63.5045608  54.8407335  63.9969095  62.8244417  55.6442506
  64.5622889  64.1415556  54.5894094  62.5556283  64.3829363  55.3165021
  62.7023778  65.1809236  56.2359518  61.3713646  64.1094407  54.7479621
  61.3859032  63.4312073  53.9997059  60.0894686  64.7085951  55.1155157
  60.2294961  65.7665899  55.3371878  59.0476673  64.5735628  53.9345646
  59.0608350  63.5659820  53.5189846  58.0931070  64.7489454  54.4307053
  59.2305225  65.5891063  52.8109787  59.1937276  66.9459344  53.0943667
  58.9046805  67.2464136  54.1014732  59.5112399  67.9149125  52.1409606
  59.5013738  68.9674398  52.4241404  59.8217536  67.5586968  50.8748336
  60.0967308  68.6134808  49.9887634  60.0285811  69.4775349  50.4015172
  59.8556399  66.1904484  50.5400051  60.1276171  65.8884866  49.5285963
  59.5399386  65.2142666  51.5058140  59.5369510  64.1588998  51.2332485
  59.4619037  64.0600463  56.3494880  59.3666054  62.8382746  56.4499778
  58.9238719  64.9076120  57.2330831  58.8829789  65.9007773  57.0540588
  58.3602754  64.4032251  58.4921827  58.7152898  63.3955385  58.7081265
  58.6208026  65.2842440  59.7119762  57.7642483  65.9356246  59.8855192
  58.8360294  64.3939082  60.9290915  59.6927632  63.7425175  60.7564693
  59.0228891  65.0145540  61.8054377  57.9466616  63.7866550  61.0975256
  59.7836431  66.2482006  59.4942086  59.5624719  66.9001018  58.6490990
  59.9283624  66.8520223  60.3900631  60.6918505  65.6819741  59.2876955
  56.8401400  64.2674320  58.4370979  56.1195190  65.1743103  57.9394582
  56.3434461  63.1639921  58.9817939  56.9306228  62.4727007  59.4261350
  54.8962514  62.8908513  58.8782918  54.3612017  63.8031119  58.6144709
  54.6405025  61.8468789  57.7985066  55.3999172  61.0701439  57.8883476
  53.6507810  61.3982227  57.8837065  54.7461278  62.3903363  56.4074076
  53.9387102  63.4071428  55.9396870  53.2117715  63.8560743  56.4783152
  54.2690457  63.6913054  54.6906674  53.7353780  64.4632354  54.1362109
  55.2721817  62.9078934  54.3379099  55.5935128  62.0895203  55.3962887
  56.4081453  61.3714469  55.3022376  54.3808386  62.4539508  60.2120435
  54.6805453  61.3496881  60.6653698  53.5505250  63.3108024  60.7995116
  53.4333199  64.2527609  60.4544371  52.8392951  62.9265587  61.9968377
  53.4641185  62.2551034  62.5857712  52.4814699  64.1462845  62.8587891
  51.4654492  64.4261893  62.5804825  52.4922785  63.8003404  63.8923779
  53.4001081  65.3591722  62.7183815  54.4033261  65.0043439  62.4822640
  53.0181377  65.9484725  61.8847611  53.4498601  66.2272740  63.9747532
  53.5289317  65.6524261  65.1104550  53.4279551  67.4929159  63.7976096
  51.5872469  62.1466353  61.5104266  50.5749785  62.7339507  61.0927013
  51.6841741  60.8290872  61.5086752  52.5365637  60.3619537  61.7831157
  50.6508783  60.0537140  60.9245928  49.8965261  60.7066213  60.4855438
  51.1396980  59.0964722  59.8608802  51.4232910  59.6631966  58.9740326
  52.3148989  58.3318740  60.3569623  52.0319376  57.7644940  61.2435922
  52.6567959  57.6464805  59.5814359  53.1185098  59.0234667  60.6099638
  50.0582655  58.2137009  59.4940500  50.3597805  57.6018520  58.8185279
  49.7929493  59.3825288  61.9661984  50.2833392  58.9305162  62.9947427
  48.4919981  59.3517769  61.6678389  48.2218324  59.6570484  60.7437615
  47.4559275  58.8769064  62.5656700  47.8144085  58.8035799  63.5924191
  46.3441847  59.8939505  62.5150238  46.8556109  60.8458520  62.6579432
  45.9578215  59.8388851  61.4972854  45.1967539  59.7856279  63.4965597
  44.7784004  58.7814586  63.4278197  45.6526398  60.0471320  64.9208584
  46.0707178  61.0513533  64.9904939  44.8019704  59.9605995  65.5968573
  46.4130100  59.3174620  65.1992811  44.1583814  60.8142153  63.0729530
  43.8224423  60.5958983  62.0592558  43.3079073  60.7742302  63.7535382
  44.5999595  61.8103338  63.1022069  46.9158123  57.5323137  62.0967532
  46.4533192  57.4141122  60.9810379  46.9748364  56.5434918  62.9631731
  47.3329803  56.7272158  63.8894980  46.5827536  55.1788228  62.6317493
  46.8339640  54.9891181  61.5881955  47.4840427  54.2531738  63.5450711
  46.8764512  53.4656610  63.9908922  48.5188244  53.6569690  62.7200192
  49.1271564  54.4439090  62.2741974  49.1496909  53.0151162  63.3349432
  48.0577801  53.0635372  61.9304766  48.1853451  55.0390054  64.5461259
  48.7250355  54.4587525  65.0880124  45.0661430  54.9892487  62.8883056
  44.6392731  55.1515435  64.0008196  44.2982583  54.7026885  61.8496116
  44.7214731  54.6285300  60.9355607  42.8700674  54.5992464  61.9486488
  42.5475946  54.4528572  62.9795129  42.1998700  55.8925472  61.3962907
  41.1184319  55.7567439  61.3841097  42.5491791  57.0773690  62.2697656
  43.6305003  57.2140950  62.2820704  42.0745135  57.9746483  61.8726723
  42.1945542  56.8982238  63.2847778  42.5943832  56.2063398  59.9724074
  42.3010481  55.3812644  59.3233257  42.0932524  57.1185479  59.6486112
  43.6739472  56.3459670  59.9163126  42.3693648  53.3240752  61.2450827
  43.0524641  52.8485515  60.3499053  41.2855843  52.7163150  61.7586520
  40.7297598  53.1883801  62.4574460  40.8785930  51.3757574  61.3382710
  41.7564906  50.7410803  61.2175234  39.9977157  50.7721850  62.3504170
  39.6322262  51.6612857  62.8642424  39.1548926  50.2249136  61.9282284
  40.7144792  49.9075313  63.3117583  41.4298461  48.7952316  62.8760318
  41.5368330  48.6155035  61.8062883  42.0045176  47.9185094  63.7890283
  42.6022372  47.0773095  63.4380072  41.8494230  48.1438891  65.1688427
  42.3888115  47.2675868  66.0868321  42.8525374  46.5336023  65.6771680
  41.1150882  49.2281807  65.6196942  40.9815003  49.4051941  66.6868966
  40.5459246  50.0947512  64.6954013  39.9528478  50.9430924  65.0369818
  40.1297465  51.3707659  60.0260763  40.4883995  50.6377451  59.1504637
  39.0851370  52.1673349  59.8491020  38.5227811  52.4960004  60.6210049
  38.6237006  52.4633361  58.4612581  39.2722201  51.8814907  57.8062944
  37.1699468  52.0095659  58.2430782  37.0783616  50.9514644  58.4882976
  36.5074303  52.5895600  58.8855567  36.7826550  52.2283328  56.7843902
  36.8735549  53.2863479  56.5385406  37.4444837  51.6482510  56.1412807
  35.3416350  51.7785395  56.5681211  35.2500483  50.7204386  56.8133421
  34.6791194  52.3585353  57.2105987  34.9543447  51.9973048  55.1094320
  35.0452452  53.0553195  54.8635812  35.6161718  51.4172209  54.4663250
  33.5652955  51.5637354  54.9009639  32.9518218  52.1014298  55.4964758
  33.3087947  51.7086212  53.9348814  33.4809428  50.5832776  55.1283101
  38.8444554  53.9316356  58.0917707  39.4538877  54.7412598  58.8481832
  38.3444035  54.2939249  56.9091602  38.0389501  53.5881716  56.2544009
  38.2732286  55.7146012  56.4945723  37.5798424  56.2260111  57.1622360
  39.6389092  56.3656105  56.6221550  40.3421206  55.8701860  55.9527161
  39.5656908  57.4199973  56.3556820  39.9907576  56.2746835  57.6497902
  37.7512853  55.8854751  55.0499830  37.9708158  55.0267729  54.1517614
  37.0332518  56.9743518  54.8521464  37.0437517  57.7309094  55.5211828
  36.1560003  57.0820471  53.7112289  36.0799337  56.1173188  53.2096192
  34.7286076  57.5225175  54.1645211  34.7556594  58.6017758  54.3147505
  34.0435159  57.2866133  53.3502124  33.9757587  56.8147648  55.6853990
  32.8343526  57.4925908  55.6038982  36.7171004  58.0535656  52.6631786
  37.6271571  58.8359700  52.9399766  36.1146995  58.0084128  51.4749466
  35.4770405  57.2484027  51.2855397  36.3468936  59.0079597  50.4139607
  35.8159425  58.7183036  49.5071590  35.8391560  60.3775593  50.8604496
  36.4233421  60.6140386  51.7497772  35.9900269  61.1537978  50.1102551
  34.3948947  60.3485949  51.2326220  34.0795222  60.1927328  52.3869154
  33.5075962  60.3930131  50.2411371  32.5196856  60.3755088  50.4504838
  33.8264164  60.4440135  49.2841348  37.7884389  59.1654892  50.0338110
  38.2509005  60.2805441  49.8308682  38.5168162  58.0587862  49.8944515
  38.1334457  57.1652989  50.1679599  39.8883171  58.0968761  49.3694502
  40.1309448  59.1256103  49.1031106  40.9313475  57.5921552  50.3857762
  40.5142982  56.6199421  50.6483991  41.8958875  57.4532550  49.8974429
  41.1183964  58.4280987  51.6575231  40.1304890  58.6817020  52.0420035
  41.9115317  57.6810762  52.7386821  42.8997898  57.4275277  52.3550704
  42.0157665  58.3167360  53.6179843  41.3830692  56.7677258  53.0118467
  41.7403556  59.7742526  51.3076694  41.0861576  60.3094523  50.6194211
  41.8700570  60.3622707  52.2162471  42.7104409  59.6154569  50.8366944
  40.0085007  57.2412271  48.1079948  39.3103972  56.2362659  47.9090765
  40.9903779  57.5979709  47.2991926  41.4581793  58.4822041  47.4384510
  41.4826178  56.7089073  46.2374908  40.7519094  55.9151557  46.0821751
  41.7042229  57.4300661  44.9179939  42.3783596  58.2736771  45.0661813
  42.1630599  56.7144727  44.2357221  40.4401428  57.9319443  44.3034227
  39.3803602  57.8565133  44.8939319  40.5542526  58.4838833  43.1175798
  39.7341030  58.8426772  42.6499032  41.4616508  58.5471008  42.6785663
  42.8488949  56.1782546  46.6393372  43.6569123  56.8853037  47.2695225
  43.1417423  54.9857223  46.1475121  42.4065817  54.4314598  45.7322635
  44.4650986  54.4365642  46.1905196  45.1030324  55.0454972  46.8310978
  44.4213428  53.0600656  46.7369645  44.0393079  52.4697810  45.9040703
  45.4124308  52.6996827  47.0125890  43.4983971  52.9258561  47.9080534
  43.0131971  53.8854919  48.0863253  42.4136408  51.8377713  47.6343486
  42.8980927  50.8776931  47.4564304  41.7536626  51.7566096  48.4980282
  41.8304524  52.1179685  46.7571478  44.3492791  52.6583885  49.1430477
  45.0376389  53.4892844  49.2975542  43.7030950  52.5556580  50.0148240
  44.9167796  51.7385770  49.0016654  45.0540184  54.4173571  44.7628552
  44.3372481  54.3139302  43.7587231  46.3356152  54.7288770  44.7001334
  46.8066551  55.0383104  45.5382693  47.0814996  54.7128064  43.4601156
  46.4985160  54.2378334  42.6710466  47.4597512  56.1300865  43.0308221
  48.2165772  56.0705713  42.2486631  46.2497858  56.8740632  42.5063115
  45.4926545  56.9343912  43.2881129  46.5429897  57.8802495  42.2067765
  45.8414432  56.3438842  41.6459245  48.0798148  56.9212289  44.1789723
  47.5655875  57.8798220  44.2480389  47.9262240  56.3598835  45.1006017
  49.5670012  57.1581551  43.9722758  49.7213618  57.7198889  43.0510116
  49.9655884  57.7247610  44.8138133  50.0819982  56.1999497  43.9035721
  48.2941124  53.8376166  43.6478442  48.9578220  53.9072386  44.6968516
  48.5886520  53.0217894  42.6403735  48.0270326  53.0088897  41.8010186
  49.7446267  52.1125535  42.7211349  50.0138690  51.7867980  41.7164005
  50.5855928  52.6426263  43.1682347  49.4221031  50.8874031  43.5703457
  48.2569692  50.6656767  43.9512177  50.4563693  50.1098289  43.8877380
  51.3759574  50.3562290  43.5504785  50.2964590  48.8568550  44.5841655
  49.2578705  48.7279005  44.8888027  50.6880638  47.6848666  43.6564792
  51.3595006  48.0887487  42.8987516  51.2252992  46.9600112  44.2680858
  49.4876513  46.9881758  42.9645538  49.4222740  45.9800215  43.3737623
  48.5923447  47.5481439  43.2346721  49.6027067  46.9124768  41.4245941
  48.6929837  46.4513908  41.0400129  49.6838709  47.9296581  41.0413786
  50.7623166  46.1356245  40.9512883  51.5062739  46.6575260  40.5105553
  50.9043880  44.8115273  41.0868509  52.0156824  44.2201204  40.6841255
  52.7568177  44.7702484  40.2740309  52.1186143  43.2207980  40.7883340
  49.9551578  44.0786661  41.6456634  49.1091835  44.5203698  41.9763072
  50.0808725  43.0808807  41.7390387  51.0611344  48.8537154  45.9153689
  52.0140826  49.6223632  46.1301018  50.5976004  48.0245397  46.8299562
  50.1661993  46.6813000  46.4385919  50.9973245  46.1472032  45.9780794
  49.3421141  46.7515080  45.7286248  49.7490240  46.0809251  47.7342449
  50.0165434  45.0242857  47.7274924  48.6678023  46.1808444  47.8295185
  50.4554235  46.8190526  48.8372229  51.1894435  46.1312598  49.2570500
  49.7979035  47.1761410  49.6298482  51.1667548  47.9991078  48.1793418
  50.9716884  48.9585454  48.6584315  52.6743857  47.7483494  48.1375168
  53.1353140  46.8556801  47.4432937  53.4227060  48.5642621  48.8890732
  52.9611792  49.2801249  49.4318741  54.8622481  48.4896623  48.9391071
  55.2159044  47.5457164  48.5243873  55.4327869  49.6310490  48.1071047
  55.5301551  49.2966146  47.0742580  54.7443271  50.4749217  48.1518486
  56.6890694  50.0266444  48.5906744  57.0275932  50.7453242  48.0516933
  55.3566710  48.5815029  50.4188781  54.8516276  49.3888584  51.2073001
  56.3683061  47.7789734  50.7078264  56.7184150  47.1796162  49.9741412
  56.9991598  47.7118665  52.0076299  56.3051004  48.0861828  52.7601376
  57.3778268  46.2694554  52.3646136  56.4769649  45.7182956  52.6343745
  58.0345931  45.6085805  51.1963896  58.9358467  46.1589478  50.9263206
  58.2999199  44.5846107  51.4594234  57.3477738  45.5994220  50.3500468
  58.2939337  46.2614581  53.4656869  58.5256672  45.3554419  53.6825612
  58.2607169  48.5440579  52.0344883  59.0372916  48.4514762  52.9794166
  58.4900541  49.3333856  50.9974348  57.8425571  49.4214719  50.2273128
  59.6950846  50.1274916  50.9725317  60.5688474  49.4862876  51.0887007
  59.8041808  50.8643666  49.6387614  60.0176425  50.1163393  48.8752246
  58.8323947  51.3169807  49.4416010  60.8805818  51.9409918  49.6090310
  60.7830273  52.5253330  50.5239787  61.8466063  51.4361658  49.6022143
  60.7841636  52.8572145  48.4151618  59.8228464  52.7286881  47.6425978
  61.6756081  53.7097725  48.2506911  59.6659543  51.1611596  52.0597100
  58.7570813  51.9533504  52.1345063  60.6875414  51.1642346  52.8934009
  61.4076446  50.4587403  52.8315255  60.8150943  52.1820564  53.9012491
  61.6568407  51.9806098  54.5638059  61.0644501  53.5011554  53.1858222
  61.7503454  53.3639709  52.3498633  60.1131310  53.8833208  52.8156308
  61.6480451  54.5701174  54.0452749  61.6043057  55.9021487  53.6982322
  61.1772296  56.2617440  52.8565690  62.2010213  56.6164721  54.6291642
  62.2667448  57.7011011  54.5433768  62.6384595  55.7938753  55.5636428
  62.3071635  54.5092113  55.2210314  62.5876680  53.6817650  55.8727606
  59.5521582  52.2761937  54.6976351  59.1524020  53.3604006  55.0795870
  58.9023691  51.1597619  54.9684934  59.1682557  50.2479100  54.6250845
  57.6646973  51.2774468  55.7321345  57.1716284  52.2027985  55.4342983
  56.7183462  50.1483375  55.5298510  56.3843661  50.1085161  54.4930430
  57.1879694  49.2014889  55.7963687  55.6040504  50.3778596  56.3766353
  54.9699398  49.6648192  56.2713887  57.8905473  51.4479435  57.2397226
  58.7081378  50.7475442  57.8492565  57.1321780  52.3749971  57.8071482
  56.3996231  52.7921571  57.2508748  57.2509968  52.7723572  59.1978333
  58.2827882  53.0148951  59.4521578  56.3997146  54.0107840  59.3947189
  55.4102084  53.7669622  59.0080308  56.3150004  54.3282814  60.4340066
  56.8630608  55.1554092  58.6501537  58.1185386  55.4398178  58.3674801
  58.8704988  54.7134503  58.6757751  58.1926655  56.6312558  57.7251595
  59.0480868  57.0856362  57.4389909  56.9350520  57.1343936  57.5611642
  56.5019080  58.3254916  56.9557091  57.2533705  58.9631287  56.4900680
  55.1720129  58.6135659  56.9855953  54.8028605  59.5370624  56.5395229
  54.2796586  57.7564879  57.5714325  53.2136322  57.9830187  57.5906982
  54.7115771  56.5548387  58.1677131  53.9609226  55.9057188  58.6185588
  56.0723417  56.2490568  58.1565755  56.7125141  51.7467227  60.1783343
  56.8986042  51.8637393  61.3866131  55.9710566  50.7930104  59.6493025
  55.8831714  50.7448816  58.6442855  55.3067737  49.7813299  60.4462427
  55.5423639  49.9122019  61.5024003  53.8023103  49.9123109  60.2639575
  53.5906834  49.8685199  59.1955964  53.2513026  49.1231974  60.7756121
  53.2549888  51.1928635  60.7504555  53.2801088  51.5022393  62.1038810
  53.6758580  50.7693328  62.8069675  52.8232575  52.6912504  62.5534291
  52.8815621  52.9568757  63.6089596  52.2801162  53.5682746  61.6571284
  51.9196249  54.5393475  61.9964855  52.1875304  53.2245553  60.3197302
  51.7190866  53.9111755  59.6145967  52.6761616  52.0409280  59.8872130
  52.6006704  51.7724710  58.8334902  55.7233636  48.3844325  59.9593939
  55.0826495  47.8230688  59.0453577  56.7900055  47.8332950  60.5668471
  57.0229156  48.0096940  62.0154748  56.0671799  47.9690718  62.5379873
  57.4888607  48.9801586  62.1863332  57.9288794  46.8669704  62.3796265
  57.3755860  46.1772288  63.0169819  58.7821143  47.2640474  62.9295550
  58.3762091  46.1974626  61.0984519  58.3757065  45.1246150  61.2910567
  59.3493871  46.4955996  60.7084022  57.2830478  46.5442606  60.0912500
  57.6640158  46.6487463  59.0753541  56.1291934  45.5289007  60.1030493
  55.4082114  45.3893782  61.1147347  55.9182089  44.8908504  58.9575575
  56.5334458  45.0531288  58.1731796  54.8218148  43.9569398  58.7895310
  55.2240317  42.9942025  58.4741621  54.3084737  43.8405818  59.7440158
  53.8326310  44.4389602  57.7550602  53.1066529  43.6236049  57.1753657
  53.8111504  45.7564819  57.5338906  54.4869445  46.3456921  57.9988993
  52.8238128  46.3933681  56.6442477  52.1150359  45.6491196  56.2811655
  52.0577568  47.4662212  57.3966501  52.8743890  47.9872773  57.8963617
  51.5044842  48.1703542  56.7752112  51.1436475  46.8807954  58.4179800
  51.6341092  46.5106101  59.6558597  52.6690513  46.7404291  59.9091925
  50.8337186  45.8604776  60.5621283  51.2322034  45.5564599  61.5300564
  49.5486278  45.5205873  60.2101792  48.7827194  44.9271775  61.1526627
  49.2409299  44.8076780  61.9877451  49.0321801  45.8447607  58.9792018
  48.0111491  45.5773611  58.7070004  49.8263716  46.5171798  58.0857347
  49.4388942  46.7778126  57.1008327  53.4271794  47.0547203  55.4042328
  54.5570894  47.4978400  55.4193738  52.6638133  47.0746676  54.3334325
  51.8123110  46.5322164  54.3615378  52.9812407  47.8018701  53.1075441
  53.9991657  48.1903873  53.1388871  52.8578251  46.8693851  51.9304785
  51.8412861  46.4792032  51.8804132  53.0842491  47.4108885  51.0119980
  53.5585307  46.0425260  52.0463009  52.0437246  48.9896123  52.9406430
  50.8757974  48.9449599  53.3031030  52.5194758  49.9991281  52.2632606
  53.4496746  49.9536589  51.8724129  51.7666065  51.2399663  52.1145075
  50.8403053  51.1893758  52.6867887  52.6063428  52.4226988  52.6394113
  52.0432140  53.3388997  52.4617567  52.7876860  52.3097758  53.7082719
  53.9850051  52.6165525  51.9760615  55.1885367  52.2660378  52.4858997
  55.1987965  51.8236103  53.4820184  56.1690188  52.5603381  51.5925760
  57.1593383  52.4419074  51.7517644  55.6030114  53.1191620  50.4747270
  56.1871484  53.5914022  49.3148174  57.2609909  53.4561210  49.1857436
  55.3826263  54.1979477  48.4029498  55.8209452  54.6470187  47.5117081
  54.0290527  54.2586086  48.5778583  53.3811155  54.6679248  47.8027860
  53.4472922  53.8087484  49.7278438  52.3617795  53.8677085  49.8071316
  54.2496460  53.2298027  50.7091920  51.3335551  51.4854843  50.6743307
  52.0425432  51.1560656  49.7106688  50.1773909  52.0980756  50.5474836
  49.5917137  52.2366153  51.3585867  49.6783428  52.5445876  49.2477128
  50.4689448  52.5348641  48.4974108  48.6100677  51.5806930  48.8300701
  47.6405926  52.0008080  49.0978793  48.6534569  51.3155855  47.3093280
  49.6225331  50.8950012  47.0408138  47.8654899  50.6122695  47.0399697
  48.5030185  52.2521007  46.7722916  48.8534476  50.3452504  49.5451159
  48.1862535  49.6987662  49.3032261  49.1916281  53.9265960  49.3918739
  48.5471180  54.2448713  50.3959265  49.6113838  54.8025827  48.4744239
  50.1572100  54.4965555  47.6816311  49.3006972  56.2457689  48.5981793
  49.6493459  56.5448654  49.5866551  49.9829428  57.1413753  47.5427722
  50.1182678  56.5590422  46.6313587  49.1462161  58.3812913  47.2347172
  49.0108443  58.9644110  48.1456216  49.6572088  58.9886824  46.4876811
  48.1725579  58.0769863  46.8506732  51.2994674  57.6418395  48.0562821
  51.9494272  56.7951927  48.2772877  51.7688330  58.2720896  47.3009145
  51.1387336  58.2226339  48.9645460  47.8170007  56.4199497  48.4644793
  47.1923674  55.8444984  47.5611177  47.2762115  57.1978173  49.3865265
  47.9384131  57.6548646  49.9970149  45.8610421  57.5037202  49.5497598
  45.1569736  56.9030826  48.9738941  45.5566609  57.3264926  51.0228692
  46.2477558  57.9290678  51.6122681  44.5341681  57.6460195  51.2241437
  45.6687010  56.2766687  51.2938229  45.6563112  58.9335439  49.1914312
  46.3437837  59.6981130  49.7642633  44.6916272  59.2938473  48.3343266
  44.2690242  58.6342637  47.6967879  44.3305075  60.7084030  48.2106434
  44.5975673  61.2272903  49.1312597  45.0485756  61.3737746  47.0540156
  44.9150073  62.4503617  47.1599352  46.1073074  61.1293146  47.1401923
  44.5366417  60.9320418  45.6950410  43.9216461  60.0841468  45.9966292
  43.9370208  61.6223162  45.1016794  45.6651299  60.4277484  44.8476871
  46.0803625  59.2790665  44.9933225  46.3281172  61.3464119  44.1403468
  47.0987032  61.0660325  43.5506977  46.0558583  62.3172953  44.1983286
  42.8491875  61.0344515  48.1206194  42.0627219  60.2238791  47.6925045
  42.4781212  62.2411636  48.5153531  43.2135078  62.8745695  48.7948218
  41.0816658  62.7142343  48.5884715  40.5479568  62.1510524  49.3540302
  41.0161279  64.2270645  48.9476367  41.7029222  64.4201580  49.7717287
  41.3227159  64.8061419  48.0765608  39.3857734  64.9126641  49.4694138
  39.8124722  66.1582625  49.6573263  40.3884348  62.4972088  47.2573176
  40.7473165  63.1387653  46.2340429  39.4260155  61.6142019  47.2798995
  39.3793333  60.9887687  48.0715771  38.4802674  61.4205637  46.1910144
  38.9754429  60.7768650  45.4639982  37.2154275  60.6923393  46.7176548
  37.5069235  59.7586597  47.1986661  36.7037123  61.3282880  47.4400237
  36.2791287  60.3924759  45.5518715  35.9868149  61.3257743  45.0706151
  36.7900239  59.7561442  44.8292582  35.0359762  59.6767404  46.0694809
  35.3274713  58.7430616  46.5504941  34.5242611  60.3126906  46.7918482
  34.0996787  59.3768755  44.9036963  33.8073652  60.3101731  44.4224387
  34.6105740  58.7405421  44.1810863  32.9013609  58.6869553  45.4026386
  32.4275718  59.2766045  46.0719200  32.2812558  58.4883549  44.6305456
  33.1719674  57.8219071  45.8482423  38.0871501  62.7290254  45.4589709
  38.0170544  62.7605222  44.2367252  37.8444371  63.7960916  46.2106898
  38.0234855  63.7490288  47.2035776  37.3490184  65.0595677  45.6521737
  36.6702517  64.9247714  44.8100306  36.6593939  65.9773801  46.7442371
  37.4155949  66.6025837  47.2189801  35.6101507  66.8612210  46.0887440
  34.8533051  66.2366835  45.6141514  35.1398412  67.4896943  46.8450053
  36.0840373  67.4918070  45.3364861  36.0866455  65.2033400  47.9753655
  36.8239409  64.4394771  48.2223667  36.0284124  65.9275852  48.7878785
  34.7195026  64.5470988  47.7790043  34.7770687  63.8223402  46.9669015
  34.4239909  64.0400644  48.6975293  33.9815402  65.3104487  47.5324109
  38.5233835  65.8898420  45.0598207  38.6263733  66.1451631  43.8445811
  39.4161257  66.2795679  45.9599202  39.3467224  65.9266382  46.9037015
  40.4318290  67.2873295  45.6708799  40.1365934  67.8855123  44.8088402
  40.5875170  68.2037334  46.8648540  41.3214530  68.9900218  46.6882532
  39.6409801  68.6520979  47.1667433  41.1723996  67.2908253  48.2742610
  41.2016339  68.3264047  49.1082987  41.7928677  66.7244707  45.2370612
  42.6594410  67.4905234  44.7586984  41.9806998  65.4075916  45.3693279
  41.2830526  64.8654741  45.8587117  43.1939412  64.7206616  44.8979284
  42.9950862  63.6489608  44.8942740  43.5493353  65.1542623  43.4827452
  43.7600717  66.2236424  43.4719544  44.4297382  64.6075461  43.1449698
  42.7130466  64.9425316  42.8164940  44.3530749  64.9598809  45.8289371
  45.4537816  64.4089206  45.6354031  44.1350437  65.8210533  46.8228700
  43.2463369  66.2941556  46.9033293  45.2035256  66.1955523  47.7424041
  46.0989530  66.4214196  47.1633591  44.8425379  67.4451579  48.6131415
  45.7776310  67.8768169  48.9700319  44.3366087  68.1607989  47.9650723
  44.0065639  67.1383902  49.7251659  43.8214765  67.9414784  50.2174989
  45.5966052  65.0023572  48.6034847  44.7480120  64.3617964  49.2303988
  46.8850468  64.6816904  48.5914404  47.5098685  65.2133360  48.0023307
  47.4065407  63.4696340  49.2489823  46.7940086  62.6191758  48.9496090
  48.9275350  63.1640656  48.8645682  48.8890830  62.5295510  47.9791237
  49.5089813  64.0593524  48.6443820  49.6999869  62.3931560  49.9175384
  50.5036766  63.0006546  50.8640020  50.7101369  63.9891102  50.8847249
  50.9483731  62.0957497  51.7192991  51.5691739  62.3854458  52.5671089
  50.5073656  60.9154966  51.3342641  49.7169175  61.0743799  50.2178202
  49.2463100  60.2068012  49.7552871  47.1624366  63.4745415  50.7888414
  47.7898331  64.2121370  51.5528810  46.2762298  62.5997443  51.2061045
  45.9143664  61.9169816  50.5557282  45.7932762  62.5638738  52.5963038
  45.8489980  63.5545750  53.0474197  44.3357093  62.0443850  52.6703575
  44.3178082  61.0432751  52.2395920  43.7809440  61.9929664  54.1290136
  43.7981008  62.9938609  54.5603098  42.7564127  61.6211327  54.1157386
  44.4004997  61.3279619  54.7306936  43.4337449  62.9164687  51.8178576
  43.9520957  63.1087411  50.8784724  42.5212653  62.3539616  51.6202052
  43.0801864  64.2386130  52.4812284  43.9921927  64.8019220  52.6787819
  42.4332542  64.8156789  51.8204918  42.5613640  64.0471422  53.4205164
  46.6124233  61.6447499  53.5136381  46.5642020  61.7805118  54.7076764
  47.2936337  60.6715354  52.9367959  47.3447996  60.6089914  51.9300339
  47.9929294  59.6572706  53.7330027  48.9246885  60.1015931  54.0830054
  47.3604272  59.4198117  54.5883703  48.3041823  58.3927948  52.9905397
  48.6854408  58.4161266  51.8214894  48.1453882  57.2728605  53.6858667
  47.8168875  57.3257924  54.6394835  48.4399932  55.9346182  53.1165722
  48.3213515  55.9392777  52.0330587  49.8776210  55.5816093  53.4450855
  49.9782094  55.6230111  54.5296440  50.1545258  54.5880061  53.0926986
  50.9021865  56.5443427  52.8773628  51.4964492  56.4842112  51.6545340
  51.2060404  55.6605317  51.0023725  52.3723190  57.5263824  51.5088590
  52.9568807  57.6984302  50.7033860  52.3585774  58.2736488  52.6545719
  53.0673381  59.4115868  52.9835117  53.7482996  59.8293252  52.2419695
  52.8678961  59.9491512  54.2337731  53.3652602  60.8797832  54.5069999
  52.0588414  59.3421280  55.1432857  51.9607317  59.7345867  56.1554370
  51.3337513  58.2055537  54.8117978  50.6498793  57.7981495  55.5564062
  51.4862249  57.6586040  53.5478663  47.5293626  54.8674711  53.6788524
  47.2257819  54.8935640  54.8671213  47.1752597  53.8982468  52.8368848
  47.3178331  54.0332874  51.8461597  46.5361244  52.6818197  53.2763653
  46.0439047  52.8168494  54.2394779  45.4874361  52.3266901  52.2423147
  45.3747826  53.1888241  51.5849462  45.8692874  51.4813720  51.6698402
  44.1464062  51.9677836  52.8351848  44.3082110  51.5685036  53.8364318
  43.5443133  52.8741605  52.8989581  43.4218286  50.9392341  51.9931027
  42.3924916  51.2713999  51.8580832  43.9150681  50.8827056  51.0227323
  43.4294242  49.5621320  52.6477218  44.4035619  49.3995719  53.1089490
  42.6557056  49.5354250  53.4150193  43.1707896  48.4927272  51.6454212
  43.8878657  48.5170253  50.9345687  43.1810077  47.5925535  52.1033328
  42.2679930  48.6429321  51.2182258  47.5712541  51.5487473  53.4725377
  48.4386005  51.3214207  52.6361582  47.5372097  50.9401861  54.6487142
  46.7935228  51.1617815  55.2951851  48.5138273  49.9637846  55.0431152
  49.3407520  49.9765843  54.3330934  49.0527237  50.2423882  56.4088658
  48.2540928  50.3175837  57.1468588  49.7385189  49.4454309  56.6963442
  49.7966159  51.4712999  56.4809037  49.1916761  52.6565125  56.2001140
  48.1726597  52.6554856  55.8131975  49.8459778  53.8390474  56.3976220
  49.3329127  54.7890622  56.2481667  51.1443160  53.8238683  56.7827255
  51.6838213  54.7579146  56.9395424  51.7773090  52.6293710  56.9745275
  52.8378345  52.6136407  57.2258009  51.0892475  51.4611881  56.8530938
  51.5855483  50.5125514  57.0577246  47.8930852  48.6014376  55.0676486
  46.8269744  48.4102152  55.5955374  48.6392252  47.6733092  54.5823344
  49.6066396  47.8866468  54.3856217  48.1475825  46.3832391  54.2322608
  47.1569425  46.2499247  54.6669550  48.0071483  46.4643892  52.7122635
  47.9458945  45.4587772  52.2962193  46.7273879  47.2423867  52.3624304
  46.7881113  48.2483203  52.7777734  46.6229973  47.3028398  51.2791266
  45.8627832  46.7281607  52.7821099  49.0968239  47.2418811  52.1956316
  49.0223922  47.3019923  51.2404108  49.1503808  45.3459580  54.7873548
  50.3395865  45.6143220  54.8540758  48.6463387  44.2176324  55.3120583
  47.6489639  44.0849326  55.3999992  49.5257038  43.1991720  55.8527296
  50.3014362  43.7159238  56.4178012  48.7834302  42.2806246  56.7844906
  48.0091071  41.7492241  56.2311939  49.4789294  41.5612608  57.2168063
  48.3236398  42.8648660  57.5815816  50.2157194  42.4063697  54.7595233
  49.7312955  42.3364121  53.6327822  51.3962698  41.8856162  55.0720075
  51.7960530  42.1104097  55.9718634  52.1548601  40.9799931  54.1704596
  51.7530515  41.0262816  53.1582806  53.6601649  41.3715919  54.1262596
  54.1208180  40.8833975  53.2674435  53.8382272  42.8946059  54.0062711
  53.3782004  43.3834936  54.8650283  54.9008767  43.1355744  53.9778240
  53.3619703  43.2456121  53.0908070  54.3224671  40.9136749  55.3132473
  55.2497749  41.1594579  55.2773139  52.0768030  39.5234125  54.6438750
  52.2460858  38.5764190  53.8716725  51.7432921  39.3724021  55.9201416
  51.6741401  40.1888683  56.5106501  51.4549927  38.0584745  56.5115457
  51.7036626  37.2711035  55.7999915  52.2854125  37.8475605  57.7874545
  52.0125383  38.6538773  58.4682571  51.9657614  36.8940186  58.2077889
  53.7988185  37.8359547  57.5940755  54.0417050  37.1839038  56.7550662
  54.1336250  38.8497478  57.3744617  54.5009883  37.3297276  58.8513533
  53.8108446  36.6813798  59.3912106  55.3757304  36.7550604  58.5469137
  54.9346310  38.4706580  59.7546677  54.2535453  39.3083436  59.6046491
  54.8737011  38.1343841  60.7897071  56.3300238  38.9048009  59.4545179
  56.3865995  39.2168433  58.4955974  56.5867538  39.6626140  60.0708854
  56.9613458  38.1288435  59.5938799  49.9650177  38.0081734  56.8713084
  49.3907325  39.0093676  57.3261541  49.3572887  36.8415183  56.6907362
  49.8723346  36.0502377  56.3319855  47.9135617  36.6941841  56.8999874
  47.4146553  37.6476407  56.7264590  47.3382328  35.6570668  55.9304321
  47.1282053  34.7607364  56.5140240  46.4041716  36.0670503  55.5463185
  48.2608410  35.2983906  54.7559588  49.0775334  34.7019889  55.1626767
  47.6763485  34.6902701  54.0655532  48.8342895  36.5082994  54.0106586
  48.7396949  37.3847300  54.6517670  49.8883706  36.3198793  53.8069177
  48.1044575  36.7561130  52.7060177  48.5128081  37.6493873  52.2333536
  48.2493698  35.8991078  52.0482627  46.6474269  36.9488853  52.9568815
  46.5129049  37.7432215  53.5660067  46.1736753  37.1129092  52.0800944
  46.2687565  36.1211031  53.3944709  47.5744416  36.3502884  58.3601392
  46.4145764  36.0657785  58.6775724  48.5725384  36.4591069  59.2400524
  49.4902858  36.7361543  58.9221158  48.4020292  36.1188163  60.6482488
  47.3742011  35.8061968  60.8324708  49.3411717  34.9689871  61.0357603
  49.0064151  34.4847047  61.9530977  49.2781724  34.2620746  60.2084721
  50.7596450  35.4206302  61.1990790  51.2575407  36.1115601  60.2873856
  51.3556741  35.1511985  62.2597886  48.6362823  37.3375274  61.5291815
  48.4577819  37.2717989  62.7544604  48.8768804  38.5048713  60.9044337
  49.0590115  38.4939313  59.9110516  48.9066593  39.7904791  61.6005851
  49.3625685  39.6598695  62.5820061  49.7110358  40.8216538  60.8244239
  49.6202304  40.5856523  59.7641612  49.2719000  41.8004886  61.0171471
  51.1571075  40.8395894  61.2090435  51.3070420  41.5998869  61.9755734
  51.4258441  39.8622638  61.6099390  52.1981825  41.2052042  59.8097813
  53.7527479  41.4300902  60.6785141  54.0104335  40.5121562  61.2068077
  54.5386442  41.6692058  59.9620705  53.6545179  42.2456672  61.3949542
  47.5072136  40.3543431  61.8179832  46.6473000  40.2696802  60.9343414
  47.3099944  40.9836036  62.9770970  47.9697172  40.8921882  63.7363785
  46.0937140  41.7602702  63.2059637  45.3182423  41.4300190  62.5148219
  45.5892566  41.5861378  64.6140584  45.6635670  40.5321373  64.8817523
  46.2163802  42.1754613  65.2830231  44.2455918  42.0088596  64.7339970
  43.9513439  41.8867163  65.6395902  46.2945547  43.2616387  62.9048714
  47.4000701  43.7819968  63.0022992  45.1912234  43.9986882  62.6924684
  45.0282229  44.9084232  63.8310605  45.6807971  44.6014111  64.6483675
  43.9923587  44.8973673  64.1701213  45.4275907  46.2439625  63.2380064
  46.4261809  46.4927023  63.5972351  44.7196352  46.9973327  63.5834533
  45.3969420  46.1261295  61.7442748  46.3879522  46.2419536  61.3054324
  44.7204934  46.8637811  61.3125491  44.8729906  44.7208496  61.4764072
  43.7867639  44.7154904  61.3859572  45.4901768  44.1518928  60.2060142
  46.7018379  44.1886880  60.0166773  44.6549491  43.6006632  59.3548089
  43.6922265  43.4628122  59.6273189  45.0627431  43.1899194  58.0016058
  46.0144897  42.6599810  58.0395912  44.0123316  42.2612014  57.4102146
  43.0654773  42.4759690  57.9056347  43.9270823  42.4929813  56.3485599
  44.3436521  40.8212065  57.5778166  44.5083205  40.5885059  58.6298791
  43.5144852  40.2233492  57.1994636  45.5724655  40.4678173  56.8142646
  45.6595709  40.7533487  55.6212292  46.5503100  39.8581632  57.4979334
  47.4047609  39.5972144  57.0268487  46.4285029  39.6623347  58.4812521
  45.1879226  44.4108083  57.0894810  45.9263286  44.4120997  56.1080046
  44.3904045  45.4284851  57.4158884  43.7011203  45.2797360  58.1389792
  44.4636750  46.7480747  56.7883802  45.4845911  46.8890660  56.4334846
  43.5004795  46.9413496  55.6043379  43.7211850  46.2047712  54.8317833
  42.4734720  46.8122407  55.9459322  43.6730359  48.3445185  55.0325288
  43.4520381  49.0816967  55.8044285  44.6997498  48.4742276  54.6902770
  42.7183063  48.5360959  53.8588959  42.9390097  47.7995168  53.0863415
  41.6912994  48.4069886  54.2004917  42.8908650  49.9392647  53.2870860
  42.6698684  50.6764435  54.0589852  43.9175773  50.0689708  52.9448326
  41.9705667  50.1239328  52.1557824  41.0191116  50.0042106  52.4727988
  42.0848518  51.0532438  51.7770743  42.1754581  49.4412170  51.4402282
  44.1268412  47.8253537  57.7806131  43.5352829  47.5820071  58.8111408
  44.5328696  49.0281982  57.4372663  45.0427531  49.1522614  56.5742909
  44.2819705  50.2150862  58.2788835  43.2096127  50.3209115  58.4430448
  44.9847001  50.0918805  59.6567113  44.5656126  50.6901721  60.4657305
  44.8647679  49.0335655  59.8884131  46.4595968  50.3633966  59.6418624
  46.9274826  51.6505412  59.6332202  46.2251790  52.4838965  59.6135067
  48.2843836  51.8929447  59.6494110  48.6420406  52.9207874  59.5884074
  49.2018042  50.8351852  59.7430819  50.2741228  51.0304193  59.7538722
  48.7366356  49.5413210  59.8217631  49.4286735  48.7014946  59.8840149
  47.3660955  49.3135172  59.8211231  46.9814480  48.3034027  59.9618883
  44.8051630  51.4063310  57.5407240  45.7155080  51.2480292  56.7416235
  44.3169284  52.6004463  57.8676058  43.5164738  52.6915187  58.4767672
  44.8506960  53.7882852  57.2627489  45.4828078  53.5148460  56.4179028
  43.7669476  54.6683660  56.7765256  42.9900727  54.4195411  57.4994716
  43.9199797  55.7475124  56.7653735  43.2497541  54.3100070  55.4731133
  43.4416787  54.9886320  54.2955492  44.1576271  55.8101167  54.3216327
  42.6672631  54.4692203  53.3134107  42.6433979  54.7610078  52.3467722
  41.9007993  53.4880142  53.8615812  40.9000420  52.7176679  53.2784892
  40.7010294  52.8432661  52.2141970  40.2245408  51.8450691  54.0843965
  39.4264420  51.2277013  53.6720915  40.5437374  51.7261439  55.4562114
  39.9918299  51.0436180  56.1024745  41.5837823  52.4851461  56.0298804
  41.7192741  52.4392406  57.1104522  42.2765080  53.3600503  55.2239259
  45.7862289  54.5377574  58.1722012  45.6139889  54.5964213  59.3893967
  46.8223771  55.0805505  57.5692371  46.9942617  54.8601383  56.5986839
  47.7484545  56.0009633  58.2508783  47.4896513  56.0933349  59.3056709
  48.7758036  55.6485565  58.1588854  47.6336300  57.3563640  57.5964095
  47.9472239  57.5186853  56.4051687  47.1274368  58.3311574  58.3471986
  46.9545880  58.1930014  59.3326607  46.7620076  59.5936282  57.7608130
  46.9434418  59.5514384  56.6868479  45.2775413  59.9355436  57.9965240
  45.2320870  60.0612369  59.0782977  45.0340638  60.8805342  57.5109199
  44.2688215  58.8638534  57.5637732  44.6289173  57.8880608  57.8897498
  42.9024112  59.1318165  58.1795196  42.5414306  60.1073029  57.8536082
  42.2017456  58.3603876  57.8600420  42.9844188  59.1198742  59.2663648
  44.1657940  58.7331552  56.0415320  45.1389765  58.4608735  55.6330250
  43.4382704  57.9611026  55.7910414  43.8466956  59.6843253  55.6154444
  47.6172400  60.7033965  58.3004172  47.7132344  60.8914511  59.5071560
  48.2149219  61.4555721  57.4091612  48.1612183  61.2363432  56.4247051
  49.0617776  62.5672544  57.8245151  49.6671026  62.3474467  58.7039271
  50.0069299  63.0356198  56.6722876  50.4755738  62.1608357  56.2214816
  49.2036926  63.8116025  55.5862035  48.7351100  64.6868395  56.0361925
  49.8791293  64.1296838  54.7920317  48.4340288  63.1619953  55.1693959
  51.1298214  63.8149139  57.1988007  51.6954458  64.0910555  56.4739454
  48.2144754  63.7247055  58.3571716  47.2911573  64.1720530  57.7367992
  48.6216728  64.2230465  59.5146151  49.3000014  63.6748791  60.0240089
  48.0466605  65.3968565  60.1693190  46.9722767  65.2542614  60.2853591
  48.6832677  65.6342825  61.6003305  48.3543887  64.7856767  62.2001688
  49.7602588  65.5725470  61.4441933  48.3426469  66.9568278  62.3434789
  48.4569258  67.7536210  61.6085219  47.2948919  66.8783572  62.6335717
  49.2001374  67.2791482  63.5907827  48.5431372  67.5560233  64.4152764
  49.7766180  66.3962660  63.8669866  50.1395538  68.3994860  63.3344062
  50.7978836  68.2286795  62.5877293  50.1972635  69.5809281  63.9869414
  51.1079668  70.5195378  63.6132431  51.7390986  70.3298231  62.8478797
  51.1489988  71.4020104  64.1027919  49.3816663  69.8463708  64.9975454
  48.7032427  69.1573913  65.2893479  49.4423877  70.7363858  65.4711327
  48.0599276  66.6772654  59.3331808  47.1770553  67.4574097  59.4519298
  49.0273345  66.8769209  58.4733892  49.7958005  66.2216881  58.4582454
  49.0844840  68.0304861  57.5824878  49.0107192  68.9508149  58.1618434
  50.4548343  68.0421018  56.7853987  50.2775853  68.6351748  55.8882107
  51.1720141  68.5568493  57.4247643  50.9866216  66.7428117  56.4096148
  51.8126486  66.8603141  55.9347755  47.8940976  68.0690314  56.5895189
  47.5104192  69.1257827  56.0747397  47.3528232  66.8944230  56.3308472
  47.7606460  66.0619358  56.7317774  46.2869899  66.7406614  55.3802170
  46.3741498  67.5635777  54.6707728  46.4809831  65.4361033  54.6346595
  46.3874715  64.6021182  55.3302345  45.7235042  65.3458661  53.8560818
  47.4717404  65.4204247  54.1805084  44.8706677  66.8816825  56.0304673
  43.8497576  66.8509765  55.3228561  44.8154539  67.0433796  57.3377464
  45.6583987  67.2343765  57.8603012  43.5397236  66.9253639  58.0813931
  42.7484714  66.6143359  57.3992782  43.6498001  65.8985926  59.1988200
  44.4132737  66.3566271  59.8276376  42.7205293  65.8112700  59.7617859
  44.1135135  64.5116031  58.7653491  45.1562745  64.5584875  58.4514188
  43.9770315  63.5345567  59.9420152  42.9343954  63.4867846  60.2562230
  44.3083982  62.5434184  59.6322705  44.5912795  63.8789131  60.7740118
  43.4030963  64.0344616  57.4824375  43.6127210  64.7304079  56.6701471
  43.7659069  63.0425377  57.2130741  42.3278189  63.9927134  57.6560309
  43.0578401  68.2328268  58.7198210  43.8574306  69.0766940  59.0808599
  41.7589824  68.2940925  58.9761041  41.1799694  67.5449256  58.6245471
  41.1152777  69.3774742  59.7223999  41.8487808  69.9651203  60.2744365
  40.4143283  70.2963007  58.7036199  41.2382426  70.5790848  58.0484118
  39.6908737  69.7050286  58.1422727  39.7399910  71.5473515  59.2367616
  39.8309761  72.3257529  58.4791906  38.2695212  71.3263416  59.5626563
  38.1777527  70.5483455  60.3205478  37.8371548  72.2531035  59.9398464
  37.7392553  71.0190994  58.6612570  40.5058054  72.0616814  60.4545719
  41.5305985  72.2969240  60.1672403  40.0208196  72.9599713  60.8366261
  40.5131538  71.2956246  61.2299440  40.1049109  68.7573693  60.7027315
  39.0852520  68.2574696  60.2877834  40.4120842  68.7399946  62.0116821
  41.7791059  68.4493870  62.4610873  42.4167858  69.3087235  62.2537099
  42.1572816  67.5791151  61.9247021  41.6173362  68.1865551  63.9563742
  42.2930077  68.8514426  64.4944185  41.8947133  67.1509070  64.1528336
  40.2208233  68.4322803  64.3230075  40.1201306  69.4458559  64.7111114
  39.8307968  67.7236116  65.0536015  39.4502150  68.3003971  63.0026956
  39.1930528  67.2625368  62.7910074  38.1777262  69.1545470  62.9876608
  38.2533733  70.3886778  62.8874629  37.0042708  68.4956417  63.0246384
  36.9539526  67.5124417  62.7990607  35.7759507  69.2283451  63.1532939
  36.0363131  70.2447545  63.4486287  34.9039052  69.2925777  61.8529340
  34.4317380  68.3212688  61.7055654  33.7800046  70.4192445  61.9573106
  34.2514606  71.3909662  62.1042320  33.1944673  70.4353395  61.0380794
  33.1248459  70.2025625  62.8010621  35.7310479  69.5995837  60.7289535
  35.1917381  69.6376049  59.9356694  34.9869088  68.7996718  64.3781030
  35.1265620  67.6464712  64.9020049  34.3930758  69.8414518  64.9571770
  34.8386274  70.7399955  64.8380038  33.1957110  69.7751606  65.7443372
  33.0528616  68.8963322  66.3731089  33.1739425  71.0480069  66.6246760
  33.9548201  70.9665556  67.3807820  33.4175314  72.3157118  65.7648628
  32.6367343  72.3980985  65.0087748  33.3980146  73.1982796  66.4042327
  34.3892721  72.2429169  65.2764777  31.8981419  71.0906865  67.4798889
  32.0439931  71.8678096  68.2301608  31.0805050  71.3748158  66.8174390
  31.5589908  69.7787155  68.1690288  32.3760189  69.4941558  68.8320452
  30.6449121  69.8988325  68.7505194  31.4125330  69.0011611  67.4193229
  31.9447543  69.7024851  64.8209897  31.5306276  70.7180168  64.1900433
  31.3103886  68.4963250  64.7699584  31.7758108  67.2794868  65.4522611
  32.3049732  67.5442067  66.3676904  32.4416358  66.7164962  64.7981833
  30.5042446  66.5636005  65.7162221  30.0346266  66.9542981  66.6189476
  30.6931843  65.4970338  65.8380362  29.6722043  66.8190684  64.5208510
  28.6107217  66.8010510  64.7678914  29.8774739  66.0783509  63.7479981
  30.0687328  68.2159934  64.0255452  30.3369509  68.2638315  62.9701453
  28.8932129  69.1417204  64.2911752  28.8801443  69.7551136  65.3299279
  28.0019913  69.3006489  63.3088011  28.1220819  68.7188497  62.4919858
  26.9570653  70.3678841  63.2708580  26.1848064  70.0673822  62.5627521
  26.2921520  70.6272303  64.6496226  26.9974230  71.0527904  65.3634788
  25.5209567  71.3623025  64.4193474  25.6547665  69.4022220  65.2447960
  26.2792178  68.3183327  65.1800617  24.5770786  69.5522914  65.8666578
  27.3518399  71.7550284  62.6536208  28.5508927  72.0575992  62.3494215
  26.2758115  72.5314422  62.4207482  25.4247826  72.0397231  62.1882370
  26.2667105  74.0094483  62.3737063  27.2736250  74.4191141  62.4536833
  25.6017811  74.5496508  61.0270370  26.2704987  75.2996167  60.6045822
  25.3512405  73.4138159  59.9667492  24.6821922  72.6636637  60.3883483
  24.8977347  73.8434764  59.0735395  26.3000353  72.9465581  59.7030084
  24.3594366  75.2227828  61.2847179  23.9866578  75.5344778  60.4567792
  25.5686800  74.6137335  63.6430435  24.9040637  75.6416153  63.5396114
  25.8238265  74.0327692  64.8358346  26.5018860  73.2847540  64.8642565
  25.0675316  74.3608846  66.0992120  24.2840431  75.0874734  65.8840055
  24.4149281  73.0896337  66.6788601  25.1680585  72.3031181  66.6310372
  24.1823476  73.3063406  67.7214744  23.1454252  72.6248755  65.9588676
  23.2165506  72.8718348  64.8995975  23.1392356  71.5415590  66.0792262
  21.8442570  73.2126998  66.5364788  21.7981157  74.4468853  66.7619319
  20.8486707  72.4469677  66.7091791  25.8737086  75.0992291  67.2469272
  25.2424715  75.5981105  68.2088108  27.2259482  74.9675231  67.2462248
  27.5895604  74.0272879  67.1842299  28.2119251  76.1119113  67.4857019
  27.7364255  77.0346036  67.1530786  28.6606201  76.2890839  68.9886548
  29.7379725  76.3797667  68.8501346  28.2783981  77.1931351  69.4626778
  28.3604158  75.0785031  69.8808025  27.1615935  74.7401530  70.0470353
  29.3122901  74.5844841  70.5490739  29.4960610  76.0890791  66.5739593
  30.5382311  76.6301795  66.9620607  29.3815009  75.5574489  65.3482422
  28.4686071  75.2954002  65.0046513  30.5577084  75.2409199  64.5184789
  31.2344566  74.6450381  65.1308808  30.1332502  74.3989370  63.2853888
  29.6209810  73.4967675  63.6197084  29.4624620  74.9855661  62.6576870
  31.3591385  74.0162375  62.4911349  31.8717171  74.9179516  62.1560592
  32.0302350  73.4291515  63.1180788  30.9415966  73.1879759  61.2781348
  30.6842909  73.8130929  60.2148269  30.8839295  71.9380613  61.4264186
  31.3389840  76.5208900  64.0957143  32.4548942  76.8049840  64.5812997
  35.5643759  77.0910912  63.2647864  35.5776225  77.1043841  62.2549611
  36.8478605  77.2336454  63.9845069  37.5494075  76.4817752  63.6230902
  37.4771012  78.6372720  63.7812202  37.6689410  78.7998717  62.7206269
  36.5153487  79.7044211  64.2929321  36.3233780  79.5427429  65.3536433
  36.9569283  80.6907164  64.1503505  35.5773419  79.6436379  63.7410713
  38.7891672  78.7228484  64.5537380  39.4769382  77.9602436  64.1883518
  39.2316501  79.7087538  64.4112632  38.5980530  78.5607973  65.6145470
  36.6263067  76.9942415  65.4853603  36.1425020  77.8952950  66.1858584
  36.8540364  75.7314723  65.9132505  36.8249687  75.0115367  65.2054744
  37.0787095  75.3228367  67.3264441  36.1052325  75.3119255  67.8166713
  37.7011089  73.8878421  67.3714816  37.0426785  73.1892910  66.8551521
  39.0634055  73.9029179  66.6862479  39.7225785  74.6009479  67.2023348
  39.4974116  72.9035317  66.7173414  38.9453204  74.2150661  65.6485974
  37.8670499  73.4510902  68.8231485  38.5257699  74.1489519  69.3400408
  36.8935727  73.4401808  69.3133758  38.4736188  72.0526004  68.8670410
  39.4473869  72.0628205  68.3773768  38.5924431  71.7399327  69.9044507
  37.8151903  71.3540494  68.3507094  38.0003754  76.3401654  68.1023500
  38.8617338  76.9764663  67.4977048  37.7539848  76.5693535  69.4028894
  36.8630642  76.3010655  69.7958033  38.7472174  77.2213140  70.2918672
  39.6968148  77.4055116  69.7894379  38.2039946  78.5517542  70.8125473
  38.0460301  79.2326069  69.9761347  37.2576478  78.3823513  71.3261915
  39.2067473  79.1648648  71.7842504  39.3648865  78.4847400  72.6212230
  40.5306959  79.4025997  71.0657314  40.3734339  80.0830436  70.2288542
  41.2478115  79.8408343  71.7598470  40.9184855  78.4540839  70.6941974
  38.6647634  80.4922697  72.3037449  37.7184178  80.3228653  72.8173902
  39.3811388  80.9309388  72.9983505  38.5067968  81.1731225  71.4673330
  39.0259975  76.2538647  71.4642667  38.0950622  75.7318147  72.0473063
  40.2911736  75.9539123  71.7701652  41.0463315  76.3454966  71.2256493
  40.6334542  74.9978711  72.8804153  40.1491190  74.0366502  72.7084480
  42.1661430  74.7732173  72.9611981  42.5219310  74.3504270  72.0216436
  42.6644346  75.7255986  73.1422374  42.7363186  73.6529296  74.2634875
  44.0310073  73.7530460  73.9759874  40.0793841  75.5611667  74.2373953
  40.0248844  76.7852712  74.4160455  39.6279828  74.6948607  75.1599286
  39.6084446  73.7063468  74.9536330  38.9906132  75.1692171  76.4356496
  38.9549962  76.2524873  76.3200802  37.5342735  74.6365041  76.5869861
  36.9604237  74.8877049  75.6949694  37.5540539  73.5539642  76.7127482
  36.8826845  75.2778780  77.8075170  37.4557552  75.0267237  78.7000484
  36.8542723  76.7924288  77.6315749  36.2809467  77.0443958  76.7394375
  36.3886232  77.2513703  78.5037242  37.8729112  77.1655914  77.5256280
  35.4572646  74.7564740  77.9556423  35.4770465  73.6739346  78.0814061
  34.9910593  75.2146085  78.8279190  34.8834144  75.0076725  77.0636254
  39.8470349  74.8781164  77.7115804  40.7366543  75.6677187  78.1063254
  39.5965924  73.9076724  78.4228866  58.9898576  58.8620938  48.4416655
  59.1717407  57.5305556  48.0814734  58.6706598  56.5266828  48.9010442
  58.3073529  59.1809265  49.6117967  57.7916532  58.1763136  50.4206556
  57.9821169  56.8470971  50.0636229  56.7316015  56.9910097  52.0177451
  56.9707095  55.0445435  55.0855630  61.1109512  56.3334343  47.1908107
  56.7792459  59.2386954  52.2226442  57.3196201  55.9855087  51.1315505
  57.0911970  58.2080043  51.6286844  56.1194017  56.6773900  53.3116957
  55.0181294  55.6395013  53.1067265  54.5262116  55.0948402  54.4457332
  55.6875841  54.5372771  55.2621047  57.2149334  56.0951648  54.1930191
  59.9496847  57.1583502  46.8021465  62.3745065  56.6648743  46.9200031
  58.3600058  56.5102345  54.0492819  65.3676516  55.1351646  46.5518420
  66.7147834  55.3792353  46.3262068  67.6942728  54.2037921  45.5262699
  67.2886446  56.5729835  46.7418491  68.7751350  56.8240619  46.4851803
  66.5136310  57.5297551  47.3902427  65.1638178  57.2887930  47.6154949
  64.5893310  56.0938031  47.1863224  63.3052113  55.8477918  47.4093697
  62.6668875  57.6561480  46.2529958  55.4991394  53.6325097  56.0706883
  59.9927078  59.3073429  48.5281174  58.3293643  59.2491226  47.6509676
  60.1209159  57.5102608  48.6371437  57.9859589  55.9278657  48.2833834
  59.5800702  56.0364235  49.2783298  59.0036194  59.7611102  50.2348454
  57.4046972  59.6898398  49.2420211  56.8531268  58.1964898  49.8469134
  58.9261800  56.8304595  50.6273240  57.2881768  55.3670291  56.0104525
  61.0580358  56.2383750  48.2152685  55.8251365  59.1933258  52.4844491
  56.5459851  55.3357171  50.6966610  58.0135119  55.2998048  51.6402099
  56.1783240  58.2825943  51.0193468  55.6795642  57.5738670  53.7742948
  54.1759804  56.1081809  52.5768722  55.4261849  54.8060999  52.5169725
  54.0449143  55.9067171  55.0106207  53.8083365  54.2841640  54.2545853
  55.8766501  53.7866904  54.4807931  57.4627479  55.3683281  53.4046681
  59.2989109  56.5880520  46.1236118  60.2868659  58.0686898  46.2846906
  62.4156498  57.2634030  47.8423894  58.4353310  57.4147155  54.4454184
  64.9084789  54.9519429  45.5692107  65.3764570  54.3002575  47.2671417
  66.9601632  54.9226330  47.2965105  67.5330784  56.1169602  47.7130303
  69.3040899  56.9096861  47.4456038  69.1942649  55.9858500  45.9093983
  68.8960947  57.7573189  45.9155320  66.9752676  57.6997961  48.3739696
  66.5075232  58.3733339  46.6846653  65.0080626  57.3435387  48.7037606
  64.6637438  58.0475042  46.9952398  64.3615767  56.5526904  46.2129985
  63.1111021  54.9127525  47.0250039  61.8426617  58.1536301  46.0220297
  54.5275377  53.5270038  56.2279578  85.3375127  47.0244995  67.4207506
  85.8813321  43.9631011  70.7967782  85.9728335  44.8587554  74.6976346
  87.9327985  48.1115745  77.0270600  90.2564225  51.0410406  79.9260133
  88.7047337  53.9967725  78.7340766  85.6567428  52.5187581  78.9064402
  87.1979118  48.8256155  81.2141334  84.8397875  45.9693729  80.9867611
  81.6404548  44.7507672  77.1629369  79.2043542  41.4295216  77.5085530
  81.8652241  39.4597583  78.9999990  85.1737587  40.9013451  75.6420733
  90.1530746  41.4636054  74.2507651  90.0706544  43.5220774  70.8672153
  89.4806250  47.7290144  68.3565839  90.6139191  52.3952780  66.2333366
  91.3753443  57.5566064  63.5255186  93.5038661  58.6070889  61.3450007
  94.5245798  53.3687016  64.5768365  95.5873465  55.1485135  68.1686540
  93.8264772  54.6219116  74.8253148  91.0730661  53.1826327  75.6708822
  76.6425459  41.9692186  82.1967289  71.6349878  40.0718720  80.0679210
  74.8173674  37.1895663  78.9064402  77.0426612  37.8061837  75.6070347
  80.7312078  40.8783187  75.0460282  73.0674019  44.0605419  84.5626382
  68.9484419  43.2431823  86.0216724  70.8097140  44.6175898  91.1017177
  74.9734660  42.2324894  90.4334502  77.3855951  40.6981690  84.6149387
  71.2848740  43.5603328  80.9301394  68.7237984  42.6033914  81.3347841
  70.5522719  40.1275432  82.7061859  70.6677436  41.2215518  85.5091593
  68.3649786  49.0941176  90.7840224  63.0643499  47.8167912  99.6970892
  59.3807651  45.0326359  99.1281524  65.9060917  49.5499542  92.6037751
  63.4974793  49.0965659  97.0216962  59.7128963  47.7921391  95.9816552
  63.9779918  44.8541623  92.1819095  66.2032857  45.4707797  88.8825040
  67.4363552  42.7866986  88.3970123  62.4716578  40.4840979  89.9861167
  67.2477411  51.8391216  96.6017073  63.5099090  50.8453016 100.2004396
  60.9253174  49.2769676 101.7392354  57.7890959  47.4007324 102.4545948
  58.4247973  40.9762849  91.0867729  60.1685573  43.8973476  95.0029573
  56.0101936  46.1586962 107.2253333  82.5638273  42.6277573  71.0036232
  63.4059901  49.4079761  93.7890430  63.4680696  54.1628843  97.1818848
  61.3083506  54.6219118 101.3762534  71.9666697  51.7908977  95.1025674
  73.7747165  50.9519948  97.0150806  57.0613417  44.4022459 111.0424350
  55.6332618  47.1769156 115.3359866  55.8229744  51.9755865 116.2567506
  55.3507579  55.8871648 117.6751920  66.5462195  48.3627649  97.8904080
  69.5689507  47.9827956  94.5662687  74.1864319  48.1939538  97.0265888
  92.2051253  53.3075925  69.6457456  92.2310229  47.7921390  69.4307166
  93.4485351  45.6321299  70.3750817  94.3132897  43.6411867  73.1175622
  85.1468208  38.8336924  70.6309462  87.8919810  38.6511038  71.4250985
  62.9802502  65.9060501  97.6454626  65.0410142  67.2883441  99.8864247
  62.4716577  63.4778856 103.2615860  64.3565625  56.2729071 104.7263005
  64.5569481  57.8855315 107.8480249  62.6908851  64.8344719 107.2769428
  64.0934166  68.8336693 109.2445219  68.2205090  55.2901859 132.0091234
  67.5466789  55.5933556 132.6176191  68.6070912  56.0930939 131.6596691
  72.1861831  52.8687342 133.2831057  72.8812735  53.4894035 133.5018371
  72.5284981  52.0182693 133.5583435  66.2776699  52.9749094 132.1906150
  65.7050666  53.5939281 131.7376622  66.8509493  53.5248456 132.7246072
  69.4973959  53.2586244 133.3214733  70.4304632  53.1931806 133.5247608
  69.4097172  54.0942511 132.8629265  72.1261975  52.5752114 130.2818680
  72.0475607  52.2411978 131.1754438  72.9471642  53.0673882 130.2810153
  69.6965927  49.8920110 129.9028659  70.4001777  50.0970112 130.5186314
  68.9728576  50.4596872 130.1677742  71.6052625  50.3302639 131.9527119
  72.4398229  49.8983838 131.7704593  71.4436968  50.1584653 132.8804013
  73.0666480  56.7840186 132.4662071  72.2303792  57.1214873 132.7871346
  72.9271250  56.6489166 131.5289208  72.9404860  56.6287414 129.6659978
  72.0634327  56.5076215 129.3022225  73.4162613  55.8373492 129.4138867
  70.6423329  57.5686416 133.2241633  69.9492573  57.6430771 132.5681669
  70.3975080  56.8046760 133.7463150  75.6860169  57.5651801 129.4677088
  74.7791625  57.2684913 129.5439802  75.9636150  57.2681619 128.6011374
  74.4558954  54.4238736 129.6089067  75.3178118  54.7493634 129.8684885
  74.6409298  53.6370232 129.0962133  75.4088397  51.6634779 132.8968776
  75.3967067  52.6076619 133.0537047  76.3011819  51.4804924 132.6028238
  68.2205091  32.2963981 118.7336540  67.5466790  32.5995678 119.3421498
  68.6070913  33.0993062 118.3841997  72.1861832  29.8749465 120.0076363
  72.8812736  30.4956158 120.2263678  72.5284982  29.0244816 120.2828741
  66.2776700  29.9811217 118.9151457  65.7050667  30.6001404 118.4621929
  66.8509494  30.5310578 119.4491379  69.4973960  30.2648367 120.0460039
  70.4304633  30.1993928 120.2492915  69.4097173  31.1004634 119.5874572
  72.1261977  29.5814237 117.0063987  72.0475608  29.2474101 117.8999745
  72.9471644  30.0736005 117.0055459  69.6965929  26.8982232 116.6273965
  70.4001779  27.1032235 117.2431621  68.9728577  27.4658994 116.8923049
  71.6052626  27.3364762 118.6772425  72.4398230  26.9045960 118.4949900
  71.4436969  27.1646775 119.6049320  80.2336901  37.8534413 128.7727602
  80.8715311  37.7341160 128.0690942  80.1157744  38.8015257 128.8315554
  72.9013423  39.6597317 124.6986018  72.3378288  39.5687254 123.9302305
  72.7865818  38.8397222 125.1788510  78.4812982  43.3268285 120.0100483
  77.8300961  43.9122365 119.6234496  79.2757345  43.8574480 120.0695520
  72.4068609  40.4157422 120.4087617  73.1799485  39.8686409 120.2700493
  72.7594008  41.2801671 120.6202078  74.7434887  36.5750088 118.0406067
  74.9960407  36.0531609 117.2789530  73.8059446  36.4116234 118.1432750
  79.7878170  35.5785867 125.8480810  80.5741259  35.1605290 125.4971227
  80.0516874  36.4831959 126.0162458  79.9588247  41.0158717 120.5469467
  79.3234080  41.0893343 121.2590371  79.6285653  41.6052316 119.8688546
  74.4631175  38.4778194 120.2430442  74.3467434  37.8023098 120.9111526
  74.5733435  37.9910568 119.4262595  76.8062716  37.9388341 123.9477131
  76.4420924  37.4118962 124.6590052  77.6629832  37.5486810 123.7743616
  76.4468203  32.9678241 118.9438480  76.6142606  33.8358477 119.3108951
  76.2565372  33.1305523 118.0199769  76.4257424  35.4235898 119.9285146
  76.3057049  35.8692949 120.7670627  75.7310013  35.7721216 119.3698684
  74.1864316  48.1939540 123.5775278  74.1088346  49.1447365 123.6563758
  73.5825960  47.8485413 124.2350204  82.1242490  35.8957372 120.7565480
  83.0360346  36.1284758 120.5813178  81.6152137  36.4794416 120.1940559
  80.7312073  40.8783190 128.1479062  80.1020935  41.0428904 127.4455130
  80.3437735  41.2924800 128.9190026  84.6101305  41.8137628 125.5023426
  83.9252343  42.1936529 124.9520459  84.6945154  42.4232955 126.2355373
  76.2840035  40.6157598 125.4129147  76.7478380  40.8945301 124.6233769
  76.0196833  39.7141043 125.2302238  75.2208921  36.7380751 122.2218712
  75.9232964  37.1901794 122.6892638  74.8889549  36.0964569 122.8498605
  76.4602685  43.5521693 122.2980817  76.3248360  44.3973229 122.7265665
  77.0012498  43.7540971 121.5346751  69.9132083  41.0697131 122.8708742
  70.4256603  41.8640381 123.0214307  70.5654795  40.3723422 122.8042344
  71.7226967  44.1862888 124.9531496  71.8993596  45.1080852 124.7652479
  72.5183801  43.8721307 125.3825875  72.8458283  45.7041061 130.9541838
  73.3965708  45.5758125 130.1818832  72.0069759  46.0035950 130.6036731
  67.8780999  39.3985786 123.6468313  68.7156221  39.8082794 123.4302021
  68.0559267  38.4585228 123.6168507  79.7745432  37.0660866 119.3352146
  79.2592055  37.8365471 119.5740533  79.5022740  36.3926002 119.9585207
  77.3592543  31.9110567 124.3937384  76.5034139  31.5217417 124.2143023
  77.7719494  31.9902528 123.5337170  84.7479706  39.8193221 121.2705319
  83.9709148  39.4804380 120.8260481  85.4271187  39.8245844 120.5960284
  79.5631735  34.9387958 121.1611927  79.2581870  35.2534107 122.0122070
  80.5162177  35.0169378 121.2039260  78.0078167  41.0978182 122.8104881
  77.4799528  40.3630941 122.4978118  77.5065669  41.8752858 122.5644849
  82.9871013  39.2927202 127.9271927  82.3294687  39.9826463 128.0152056
  83.7911412  39.6823634 128.2705914  81.7976471  37.6471575 125.9775869
  82.3108353  38.2801567 126.4797579  82.4477695  37.0472770 125.6119229
  73.0666481  33.7902309 119.1907378  72.2303794  34.1276995 119.5116653
  72.9271251  33.6551289 118.2534515  76.1530767  38.9158392 115.8139854
  75.2457828  38.6847645 116.0131003  76.6501799  38.1196011 116.0013836
  79.0598846  47.6255899 118.7336540  78.3860544  47.9287596 119.3421498
  79.4464668  48.4284979 118.3841997  79.0592350  36.5212446 123.3536890
  79.8064169  37.0333843 123.0444012  79.3283940  36.1996499 124.2141283
  77.3319000  39.0170987 120.3363844  76.4230219  38.7330020 120.4336314
  77.3614084  39.4370065 119.4767151  82.5638268  42.6277576 124.1055012
  82.1100595  41.7868486 124.1620202  81.9332234  43.2638975 124.4429792
  81.5071187  33.5569562 125.3355679  80.7693944  33.0446948 125.6665922
  81.7597961  33.1169944 124.5238956  81.0071207  44.4654073 125.0404830
  81.2994181  45.0259130 124.3217196  81.5169827  44.7582634 125.7957989
  75.8803894  36.6299607 126.4373640  75.9352504  35.6773444 126.3616116
  75.0695096  36.7859046 126.9214938  77.0295088  40.5579730 117.6751923
  76.5914518  39.8415589 117.2157560  77.7705529  40.7855845 117.1137014
  73.8196254  35.2476667 124.1964018  73.0064120  35.5470838 124.6029211
  74.3155248  34.8532356 124.9138501  75.9704832  45.2434424 126.1298283
  75.9281011  45.4695270 125.2006815  76.8867531  45.0097799 126.2784084
  85.1468203  38.8336927 123.7328241  85.0086101  39.0238523 122.8049431
  84.7904422  39.5956310 124.1896292  74.0870633  42.1197453 125.9260246
  74.8811231  41.6247773 125.7242821  73.3762325  41.5915316 125.5627951
  78.9065477  44.5015549 130.2772613  78.9602500  45.0706485 131.0450329
  78.0380259  44.6717434 129.9126651  70.3953396  36.2640535 122.0019998
  69.4650984  36.2024990 122.2189961  70.4910868  35.7416488 121.2056640
  76.6641909  42.6926475 129.6058083  76.5252994  42.3245259 130.4784021
  75.8756505  43.2074114 129.4342041  77.2590061  47.7935571 120.9483619
  77.4341816  47.3223615 121.7629242  76.5722849  48.4201338 121.1764880
  78.2147124  42.0708078 126.9946921  77.8796957  42.0308848 127.8904571
  77.7151070  41.4052794 126.5217331  81.1506316  39.4164112 117.2683980
  80.5335486  38.6910940 117.1717033  80.6822804  40.1773472 116.9251055
  71.8251146  50.9424934 127.7223480  72.0647744  51.5743458 128.4002498
  70.9820343  50.5912974 128.0088839  72.9404861  33.6349536 116.3905285
  72.0634328  33.5138337 116.0267531  73.4162615  32.8435615 116.1384173
  76.3379008  46.7504057 130.1264984  76.2649179  47.5559028 130.6384288
  75.8956401  46.9496022 129.3013005  76.1268788  45.9875827 123.6367805
  75.3436309  46.5297507 123.7306030  76.8261533  46.5049806 124.0362046
  78.7977691  46.6490891 132.2823142  79.5105664  47.2838356 132.2099044
  78.3067720  46.7454757 131.4663144  80.5195218  40.5542143 123.8540434
  79.5851497  40.6743606 123.6845138  80.6971887  39.6514610 123.5900444
  83.9067770  36.3959463 124.3890468  84.3728222  37.2287454 124.3150771
  84.3575270  35.9304444 125.0935727  81.9744001  42.7403284 121.3876620
  82.2503845  42.6259879 122.2970494  81.1048500  42.3420769 121.3488793
  78.6098065  46.9889635 125.0309434  78.7920459  46.1711291 125.4937186
  79.4331051  47.2057327 124.5934324  78.9440230  45.9157820 122.2924482
  79.4727997  45.4050275 121.6794644  79.2068450  45.6000350 123.1570015
  72.2995978  46.9672937 125.0522258  71.6306354  47.4519064 124.5686298
  72.1608848  47.2142157 125.9665637  76.4401247  49.0016680 131.6504916
  76.9919555  49.1648302 132.4154002  76.7807440  49.5921118 130.9784941
  67.6683555  35.2291392 121.8318190  67.9636996  34.3202070 121.7785244
  66.7671591  35.2079131 121.5099193  79.5769634  46.9498656 128.6368599
  79.4520774  46.1488395 128.1279544  80.2348725  47.4444849 128.1482569
  81.6404542  44.7507676 130.2648149  80.6934878  44.6313027 130.1926475
  81.9887316  43.8630174 130.3474410  78.6450976  44.5460392 126.4652501
  78.4975938  43.6177099 126.6460071  79.4704469  44.5680483 125.9809576
  72.5113220  33.1978459 122.3232993  72.8509293  33.7264380 121.6011601
  72.9585341  33.5358865 123.0991560  82.2485098  45.3688951 127.5517374
  83.1731645  45.1631812 127.4141825  82.0800401  45.1205352 128.4606715
  74.4981367  31.6953081 120.5226286  75.2189730  32.0734333 120.0190003
  73.8746671  32.4141957 120.6261264  78.6412490  32.3998230 121.4584618
  78.8576104  33.2822867 121.1573446  78.1606557  32.0084443 120.7290260
  82.0380414  45.8874618 122.9079465  82.2117291  45.3221041 122.1553318
  82.5309305  46.6875513 122.7258955  87.8919805  38.6511041 124.5269765
  88.3350951  37.9018366 124.1288888  87.0146315  38.6421177 124.1443497
  83.0255586  45.2041383 120.0076363  83.7206491  45.8248075 120.2263678
  83.3678736  44.3536734 120.2828741  84.9247009  42.6541088 121.5363694
  85.4498334  42.9928361 120.8113014  84.8369362  41.7188103 121.3526829
  76.6087670  48.7213071 125.8958947  76.1692660  48.2289450 126.5891804
  77.3595787  48.1786039 125.6551023  69.0880009  44.9124612 125.8983575
  69.9138029  44.6128384 125.5182219  68.7374061  44.1432235 126.3473364
  74.0561542  44.2651080 127.9681249  73.4341552  43.6021785 127.6683477
  74.7266409  44.2912212 127.2854897  73.6175049  42.8155004 121.4439710
  73.7663170  43.4990468 120.7906382  74.4241493  42.7960094 121.9589165
  71.3727682  38.8420181 122.4500779  71.1273724  37.9382511 122.6480989
  71.5423597  38.8437332 121.5080257  70.6423330  34.5748539 119.9486940
  69.9492575  34.6492894 119.2926976  70.3975082  33.8108883 120.4708457
  77.1170455  45.3103134 118.9151457  76.5444422  45.9293321 118.4621929
  77.6903248  45.8602496 119.4491379  80.3367715  45.5940284 120.0460039
  81.2698388  45.5285846 120.2492915  80.2490927  46.4296551 119.5874572
  82.9655731  44.9106155 117.0063987  82.8869363  44.5766018 117.8999745
  83.7865398  45.4027923 117.0055459  77.5017253  36.6463947 116.2567510
  78.4476358  36.5170155 116.3255928  77.1231498  35.9078609 116.7336938
  75.6860170  34.5713923 116.1922395  74.7791626  34.2747036 116.2685108
  75.9636151  34.2743741 115.3256681  77.3022236  29.1150813 122.3466636
  76.4922964  28.7697898 122.7221882  77.9906653  28.8058357 122.9354248
  74.4558955  31.4300859 116.3334374  75.3178119  31.7555757 116.5930191
  74.6409299  30.6432354 115.8207440  82.6091592  30.3029385 123.4769597
  82.0290261  30.9614189 123.0947649  82.3427524  29.4806730 123.0657014
  81.3916470  32.4629475 122.5325945  80.5042325  32.7479126 122.3146140
  81.8070459  32.3023239 121.6853222  69.4000720  47.0437227 127.6197390
  69.2655188  46.2837627 127.0535388  68.9832782  47.7678126 127.1526179
  80.5359683  42.2274150 116.6273965  81.2395533  42.4324153 117.2431621
  79.8122332  42.7950912 116.8923049  81.3657493  37.9784011 122.7476235
  81.3092695  38.4352563 121.9083868  81.9185836  37.2174696 122.5699078
  85.1762299  33.7673743 123.5726355  84.9199233  33.3670379 124.4034563
  84.5515167  34.4817537 123.4476494  72.5569846  47.9406544 127.8315833
  72.4402230  48.8851976 127.7294523  71.7362292  47.6380105 128.2201632
  82.4446380  42.6656679 118.6772425  83.2791984  42.2337878 118.4949900
  82.2830723  42.4938693 119.6049320  82.0992273  39.1688793 120.0428765
  82.0441076  39.0033064 119.1017209  81.4738328  39.8764826 120.1990954
  75.4088398  28.6696902 119.6214083  75.3967068  29.6138742 119.7782354
  76.3011820  28.4867047 119.3273544  73.5824360  48.5934805 131.0471761
  74.4851607  48.6258416 131.3638256  73.3561730  47.6635256 131.0618097
  75.3377962  47.3465792 127.7081840  74.3873593  47.3467654 127.5946212
  75.6410448  46.5998527 127.1917874  83.7407177  54.9889235 124.6986018
  83.1772043  54.8979172 123.9302305  83.6259573  54.1689139 125.1788510
  81.2871609  56.4840427 127.5370238  82.0792901  56.1431251 127.1216537
  81.5268260  56.5935402 128.4572391  89.3206736  58.6560203 120.0100483
  88.6694716  59.2414283 119.6234496  90.1151099  59.1866398 120.0695520
  83.2462363  55.7449340 120.4087617  84.0193239  55.1978327 120.2700493
  83.5987762  56.6093589 120.6202078  85.5828641  51.9042006 118.0406067
  85.8354162  51.3823527 117.2789530  84.6453200  51.7408151 118.1432750
  90.6271924  50.9077784 125.8480810  91.4135013  50.4897207 125.4971227
  90.8910628  51.8123876 126.0162458  90.7982001  56.3450635 120.5469467
  90.1627834  56.4185261 121.2590371  90.4679408  56.9344233 119.8688546
  85.3024930  53.8070112 120.2430442  85.1861188  53.1315015 120.9111526
  85.4127190  53.3202486 119.4262595  87.6456471  53.2680259 123.9477131
  87.2814678  52.7410880 124.6590052  88.5023587  52.8778728 123.7743616
  87.2861958  48.2970159 118.9438480  87.4536360  49.1650395 119.3108951
  87.0959127  48.4597440 118.0199769  83.4949772  53.2100934 126.6441014
  82.5700269  53.0777149 126.8518706  83.7434186  53.9895154 127.1410957
  87.2651179  50.7527816 119.9285146  87.1450804  51.1984867 120.7670627
  86.5703767  51.1013134 119.3698684  80.8558584  52.8534208 127.4784803
  80.9850965  53.1068687 128.3924215  80.1756035  53.4461916 127.1589458
  92.9636245  51.2249289 120.7565480  93.8754101  51.4576676 120.5813178
  92.4545892  51.8086334 120.1940559  87.1233789  55.9449516 125.4129147
  87.5872135  56.2237219 124.6233769  86.8590587  55.0432960 125.2302238
  86.0602675  52.0672668 122.2218712  86.7626718  52.5193712 122.6892638
  85.7283304  51.4256487 122.8498605  79.8028009  50.3256221 127.5235846
  79.0127063  50.5813749 127.0475956  80.2939256  51.1404559 127.6287886
  81.7542754  50.6900800 124.4819322  80.9573918  50.8019494 125.0002818
  81.5268347  51.0287452 123.6160213  78.0865712  50.5786711 129.9550836
  78.3373750  51.4633721 130.2208412  78.6225260  50.3991313 129.1825928
  87.2996440  58.8813611 122.2980817  87.1642115  59.7265147 122.7265665
  87.8406252  59.0832889 121.5346751  80.7525837  56.3989049 122.8708742
  81.2650358  57.1932299 123.0214307  81.4048550  55.7015339 122.8042344
  82.5620722  59.5154805 124.9531496  82.7387350  60.4372770 124.7652479
  83.3577555  59.2013224 125.3825875  78.7174754  54.7277703 123.6468313
  79.5549976  55.1374712 123.4302021  78.8953022  53.7877145 123.6168507
  90.6139186  52.3952784 119.3352146  90.0985809  53.1657388 119.5740533
  90.3416494  51.7217920 119.9585207  88.1986297  47.2402485 124.3937384
  87.3427893  46.8509335 124.2143023  88.6113249  47.3194445 123.5337170
  85.9728330  44.8587558 127.7995126  86.8381326  44.6630366 127.4401015
  86.0405838  44.6297909 128.7264483  95.5873460  55.1485139 121.2705319
  94.8102903  54.8096298 120.8260481  96.2664941  55.1537762 120.5960284
  90.4025489  50.2679876 121.1611927  90.0975625  50.5826025 122.0122070
  91.3555931  50.3461296 121.2039260  88.8471921  56.4270099 122.8104881
  88.3193283  55.6922859 122.4978118  88.3459424  57.2044776 122.5644849
  83.5790649  47.0889766 125.1711493  84.1534401  46.8664947 124.4384686
  84.1661631  47.1578460 125.9240094  83.9060236  49.1194227 119.1907378
  83.0697548  49.4568913 119.5116653  83.7665005  48.9843206 118.2534515
  85.8813316  43.9631014 123.8986562  85.2277729  43.6480032 123.2743177
  85.8393791  43.3406755 124.6246385  86.9924521  54.2450310 115.8139854
  86.0851583  54.0139563 116.0131003  87.4895553  53.4487929 116.0013836
  89.8992600  62.9547817 118.7336540  89.2254299  63.2579513 119.3421498
  90.2858422  63.7576897 118.3841997  89.1151057  50.4512948 128.2234210
  88.1973618  50.6727895 128.0655898  89.5311200  50.5259258 127.3645917
  89.8986104  51.8504364 123.3536890  90.6457923  52.3625761 123.0444012
  90.1677694  51.5288416 124.2141283  88.1712755  54.3462904 120.3363844
  87.2623974  54.0621937 120.4336314  88.2007838  54.7661983 119.4767151
  92.3464942  48.8861480 125.3355679  91.6087698  48.3738866 125.6665922
  92.5991715  48.4461862 124.5238956  78.7400925  52.0668419 124.3179046
  78.5425325  51.4737779 123.5930113  78.1847589  51.7620629 125.0354985
  86.7197649  51.9591525 126.4373640  86.7746258  51.0065361 126.3616116
  85.9088851  52.1150964 126.9214938  87.8688842  55.8871648 117.6751923
  87.4308272  55.1707507 117.2157560  88.6099283  56.1147763 117.1137014
  84.6590009  50.5768585 124.1964018  83.8457874  50.8762755 124.6029211
  85.1549003  50.1824274 124.9138501  95.9861957  54.1628845 123.7328241
  95.8479856  54.3530441 122.8049431  95.6298176  54.9248228 124.1896292
  84.1504083  48.1486940 129.8125253  84.7903463  48.0075699 129.1148217
  83.3181614  47.8621454 129.4363855  84.9264387  57.4489371 125.9260246
  85.7204986  56.9539691 125.7242821  84.2156080  56.9207234 125.5627951
  81.2347151  51.5932452 122.0019998  80.3044739  51.5316908 122.2189961
  81.3304623  51.0708405 121.2056640  81.1532700  48.1187265 124.5898240
  81.4139517  49.0332599 124.4807401  81.9749872  47.6511708 124.7394853
  82.6257625  49.5325022 131.7597065  83.2980679  49.3242385 131.1109714
  81.7987412  49.3347108 131.3202297  88.0983815  63.1227489 120.9483619
  88.2735571  62.6515532 121.7629242  87.4116603  63.7493255 121.1764880
  91.9900070  54.7456030 117.2683980  91.3729241  54.0202858 117.1717033
  91.5216559  55.5065390 116.9251055  83.7798616  48.9641454 116.3905285
  82.9028082  48.8430255 116.0267531  84.2556369  48.1727532 116.1384173
  75.3000756  53.7518614 126.4846792  75.9871796  53.4380344 125.8967807
  75.1448885  54.6559978 126.2114043  80.1035478  48.6408810 130.9131815
  80.0193667  48.0334480 130.1782225  79.2818185  49.1317829 130.9141312
  90.2759192  47.1262374 126.2802011  90.7727892  46.3732336 125.9603081
  89.5046174  47.1626690 125.7145220  91.3588973  55.8834061 123.8540434
  90.4245252  56.0035524 123.6845138  91.5365641  54.9806528 123.5900444
  86.8594161  49.2679757 126.0073695  86.4891948  48.7150797 126.6954601
  87.3553253  48.6637890 125.4548695  94.7461524  51.7251380 124.3890468
  95.2121976  52.5579372 124.3150771  95.1969025  51.2596362 125.0935727
  92.8137755  58.0695202 121.3876620  93.0897599  57.9551796 122.2970494
  91.9442254  57.6712686 121.3488793  89.7833985  61.2449738 122.2924482
  90.3121751  60.7342192 121.6794644  90.0462204  60.9292268 123.1570015
  74.8768732  51.8319207 128.7564259  74.9152832  51.2982798 129.5501377
  74.3709025  51.3054413 128.1375236  82.2559495  46.6783748 132.2526801
  82.3200821  47.5398579 131.8404199  82.1926615  46.0657749 131.5199160
  78.5077310  50.5583309 121.8318190  78.8030751  49.6493988 121.7785244
  77.6065346  50.5371049 121.5099193  82.0371557  48.6339306 127.8145739
  81.3158143  49.2475274 127.6753212  82.8264813  49.1697071 127.7362385
  80.2365151  48.2397407 121.9557515  79.9077858  47.3594786 121.7732621
  80.5904522  48.1845076 122.8433905  83.3506975  48.5270377 122.3232993
  83.6903047  49.0556298 121.6011601  83.7979095  48.8650783 123.0991560
  85.3375122  47.0244998 120.5226286  86.0583484  47.4026251 120.0190003
  84.7140426  47.7433875 120.6261264  89.4806245  47.7290147 121.4584618
  89.6969859  48.6114785 121.1573446  89.0000312  47.3376361 120.7290260
  84.2205466  50.6875861 128.0355363  84.0750047  51.0016164 128.9279644
  83.7430670  51.3060761 127.4826261  86.0801849  47.6778408 128.0836252
  86.0663418  46.7819502 127.7468550  86.7974277  47.6849072 128.7174538
  78.6951128  53.2281205 130.9743024  78.1504596  54.0041013 131.1063298
  79.5730478  53.5752009 130.8162145  85.4838745  46.5592789 123.3523822
  85.6054656  45.6309435 123.5514710  85.1940787  46.5731475 122.4402138
  88.3529935  44.2447699 126.4890542  88.3751632  44.3087032 125.5342522
  88.7697994  43.4052208 126.6831048  93.8649341  60.5333300 120.0076363
  94.5600245  61.1539993 120.2263678  94.2072491  59.6828651 120.2828741
  95.7640764  57.9833006 121.5363694  96.2892088  58.3220279 120.8113014
  95.6763117  57.0480021 121.3526829  79.9273764  60.2416530 125.8983575
  80.7531784  59.9420302 125.5182219  79.5767816  59.4724152 126.3473364
  78.1282369  58.1602856 126.8572509  77.2914277  57.7325031 126.6756510
  78.1006014  58.3535300 127.7943300  84.4568804  58.1446921 121.4439710
  84.6056924  58.8282386 120.7906382  85.2635247  58.1252012 121.9589165
  82.2121437  54.1712099 122.4500779  81.9667479  53.2674429 122.6480989
  82.3817351  54.1729250 121.5080257  81.4817084  49.9040457 119.9486940
  80.7886329  49.9784812 119.2926976  81.2368836  49.1400800 120.4708457
  87.9564209  60.6395052 118.9151457  87.3838176  61.2585239 118.4621929
  88.5297003  61.1894414 119.4491379  91.1761469  60.9232202 120.0460039
  92.1092142  60.8577764 120.2492915  91.0884682  61.7588469 119.5874572
  93.8049486  60.2398072 117.0063987  93.7263117  59.9057936 117.8999745
  94.6259153  60.7319840 117.0055459  88.3411008  51.9755865 116.2567510
  89.2870113  51.8462073 116.3255928  87.9625253  51.2370527 116.7336938
  86.5253925  49.9005841 116.1922395  85.6185380  49.6038954 116.2685108
  86.8029906  49.6035659 115.3256681  77.4431865  51.2212204 126.6421441
  77.1234650  50.3677513 126.3495815  76.8965294  51.4360783 127.3979408
  88.1415991  44.4442731 122.3466636  87.3316719  44.0989816 122.7221882
  88.8300408  44.1350274 122.9354248  90.0706539  43.5220778 123.9690933
  90.6237578  43.9416231 124.6280956  90.3076625  42.5956526 124.0113889
  85.2952710  46.7592776 116.3334374  86.1571874  47.0847675 116.5930191
  85.4803054  45.9724272 115.8207440  77.3120125  54.8415116 128.6114563
  76.6183597  54.4269069 128.0984517  78.0593116  54.8835652 128.0147982
  93.4485346  45.6321303 123.4769597  92.8684015  46.2906107 123.0947649
  93.1821279  44.8098647 123.0657014  79.2256868  54.7733370 126.4880578
  79.2027556  54.8721057 125.5362461  79.5357504  55.6198521 126.8097744
  92.2310224  47.7921393 122.5325945  91.3436079  48.0771044 122.3146140
  92.6464213  47.6315156 121.6853222  91.3753438  57.5566068 116.6273965
  92.0789288  57.7616070 117.2431621  90.6516086  58.1242830 116.8923049
  92.2051248  53.3075929 122.7476235  92.1486449  53.7644480 121.9083868
  92.7579590  52.5466614 122.5699078  96.0156054  49.0965661 123.5726355
  95.7592988  48.6962297 124.4034563  95.3908922  49.8109455 123.4476494
  93.2840135  57.9948597 118.6772425  94.1185739  57.5629795 118.4949900
  93.1224478  57.8230611 119.6049320  92.9386027  54.4980710 120.0428765
  92.8834831  54.3324982 119.1017209  92.3132082  55.2056743 120.1990954
  77.7278542  49.7348775 133.8690187  78.3737406  49.2247729 134.3577412
  77.5195693  50.4717456 134.4433612  86.2482153  43.9988819 119.6214083
  86.2360822  44.9430659 119.7782354  87.1405574  43.8158965 119.3273544
  94.7453990  64.4486144 119.1907378  93.9091303  64.7860831 119.5116653
  94.6058760  64.3135124 118.2534515  94.6192370  64.2933372 116.3905285
  93.7421837  64.1722172 116.0267531  95.0950124  63.5019450 116.1384173
  92.3210839  65.2332374 119.9486940  91.6280084  65.3076729 119.2926976
  92.0762591  64.4692718 120.4708457  97.3647679  65.2297759 116.1922395
  96.4579135  64.9330871 116.2685108  97.6423660  64.9327577 115.3256681
  96.1346464  62.0884694 116.3334374  96.9965628  62.4139592 116.5930191
  96.3196808  61.3016190 115.8207440  97.0875907  59.3280737 119.6214083
  97.0754577  60.2722577 119.7782354  97.9799329  59.1450882 119.3273544
  68.2205092   9.3026104 105.4581847  67.5466791   9.6057801 106.0666805
  68.6070914  10.1055184 105.1087304  72.1861833   6.8811587 106.7321670
  72.8812738   7.5018280 106.9508985  72.5284983   6.0306939 107.0074048
  66.2776702   6.9873339 105.6396764  65.7050669   7.6063526 105.1867236
  66.8509495   7.5372701 106.1736686  69.4973961   7.2710489 106.7705346
  70.4304634   7.2056051 106.9738221  69.4097174   8.1066756 106.3119879
  72.1261978   6.5876360 103.7309294  72.0475610   6.2536223 104.6245051
  72.9471645   7.0798128 103.7300766  69.6965930   3.9044355 103.3519272
  70.4001780   4.1094358 103.9676927  68.9728579   4.4721117 103.6168355
  71.6052627   4.3426884 105.4017732  72.4398231   3.9108083 105.2195207
  71.4436970   4.1708898 106.3294626  80.2336902  14.8596535 115.4972909
  80.8715312  14.7403283 114.7936249  80.1157745  15.8077379 115.5560861
  72.9013424  16.6659440 111.4231324  72.3378289  16.5749377 110.6547612
  72.7865819  15.8459344 111.9033817  78.4812983  20.3330408 106.7345789
  77.8300963  20.9184488 106.3479803  79.2757346  20.8636602 106.7940827
  72.4068610  17.4219545 107.1332924  73.1799486  16.8748532 106.9945799
  72.7594009  18.2863794 107.3447385  74.7434888  13.5812211 104.7651373
  74.9960409  13.0593732 104.0034836  73.8059447  13.4178356 104.8678057
  79.7878171  12.5847989 112.5726117  80.5741260  12.1667412 112.2216534
  80.0516875  13.4894081 112.7407765  79.9588248  18.0220839 107.2714773
  79.3234081  18.0955466 107.9835678  79.6285655  18.6114438 106.5933853
  74.4631177  15.4840317 106.9675748  74.3467435  14.8085220 107.6356833
  74.5733437  14.9972691 106.1507901  76.8062718  14.9450464 110.6722438
  76.4420925  14.4181085 111.3835359  77.6629834  14.5548933 110.4988923
  76.4468205   9.9740364 105.6683786  76.6142607  10.8420600 106.0354257
  76.2565374  10.1367645 104.7445075  76.4257425  12.4298021 106.6530453
  76.3057051  12.8755072 107.4915933  75.7310014  12.7783339 106.0943991
  74.1864318  25.2001663 110.3020584  74.1088347  26.1509488 110.3809065
  73.5825961  24.8547535 110.9595511  82.1242492  12.9019494 107.4810787
  83.0360348  13.1346881 107.3058485  81.6152139  13.4856538 106.9185866
  80.7312074  17.8845313 114.8724368  80.1020936  18.0491027 114.1700436
  80.3437736  18.2986922 115.6435333  84.6101306  18.8199751 112.2268732
  83.9252344  19.1998652 111.6765766  84.6945155  19.4295077 112.9600680
  76.2840036  17.6219721 112.1374454  76.7478381  17.9007424 111.3479076
  76.0196834  16.7203165 111.9547544  75.2208922  13.7442873 108.9464019
  75.9232965  14.1963917 109.4137945  74.8889550  13.1026692 109.5743912
  76.4602686  20.5583816 109.0226124  76.3248361  21.4035352 109.4510972
  77.0012499  20.7603093 108.2592058  69.9132084  18.0759254 109.5954049
  70.4256604  18.8702504 109.7459614  70.5654797  17.3785544 109.5287651
  71.7226969  21.1925010 111.6776802  71.8993597  22.1142975 111.4897786
  72.5183802  20.8783429 112.1071182  72.8458284  22.7103184 117.6787145
  73.3965709  22.5820247 116.9064138  72.0069760  23.0098073 117.3282037
  67.8781001  16.4047908 110.3713620  68.7156223  16.8144916 110.1547327
  68.0559268  15.4647350 110.3413813  79.7745433  14.0722989 106.0597453
  79.2592056  14.8427593 106.2985840  79.5022741  13.3988125 106.6830514
  77.3592544   8.9172690 111.1182691  76.5034140   8.5279540 110.9388330
  77.7719496   8.9964650 110.2582476  84.7479707  16.8255343 107.9950626
  83.9709150  16.4866503 107.5505788  85.4271188  16.8307967 107.3205591
  79.5631736  11.9450081 107.8857234  79.2581872  12.2596230 108.7367377
  80.5162178  12.0231501 107.9284567  78.0078168  18.1040304 109.5350188
  77.4799529  17.3693064 109.2223425  77.5065671  18.8814981 109.2890156
  82.9871014  16.2989325 114.6517234  82.3294688  16.9888586 114.7397363
  83.7911413  16.6885757 114.9951220  81.7976473  14.6533697 112.7021176
  82.3108354  15.2863689 113.2042885  82.4477697  14.0534893 112.3364536
  73.0666483  10.7964431 105.9152684  72.2303795  11.1339118 106.2361959
  72.9271252  10.6613411 104.9779821  76.1530768  15.9220514 102.5385161
  75.2457830  15.6909768 102.7376310  76.6501800  15.1258134 102.7259142
  79.0598847  24.6318022 105.4581847  78.3860546  24.9349718 106.0666805
  79.4464669  25.4347102 105.1087304  79.0592351  13.5274569 110.0782197
  79.8064170  14.0395966 109.7689319  79.3283941  13.2058621 110.9386590
  77.3319001  16.0233109 107.0609151  76.4230221  15.7392142 107.1581621
  77.3614085  16.4432188 106.2012458  82.5638269  19.6339699 110.8300318
  82.1100596  18.7930609 110.8865509  81.9332236  20.2701097 111.1675099
  81.5071188  10.5631685 112.0600986  80.7693945  10.0509071 112.3911228
  81.7597962  10.1232066 111.2484263  81.0071208  21.4716196 111.7650137
  81.2994182  22.0321253 111.0462502  81.5169829  21.7644757 112.5203296
  75.8803895  13.6361730 113.1618946  75.9352505  12.6835566 113.0861423
  75.0695097  13.7921169 113.6460245  77.0295089  17.5641853 104.3997229
  76.5914519  16.8477712 103.9402867  77.7705530  17.7917968 103.8382321
  73.8196255  12.2538790 110.9209325  73.0064121  12.5532960 111.3274517
  74.3155250  11.8594478 111.6383807  75.9704833  22.2496547 112.8543590
  75.9281012  22.4757393 111.9252122  76.8867532  22.0159921 113.0029391
  85.1468204  15.8399050 110.4573548  85.0086103  16.0300646 109.5294737
  84.7904423  16.6018433 110.9141599  74.0870634  19.1259576 112.6505552
  74.8811233  18.6309896 112.4488127  73.3762326  18.5977439 112.2873258
  78.9065479  21.5077671 117.0017920  78.9602501  22.0768607 117.7695636
  78.0380260  21.6779556 116.6371957  70.3953398  13.2702657 108.7265305
  69.4650986  13.2087113 108.9435267  70.4910870  12.7478610 107.9301946
  76.6641910  19.6988598 116.3303390  76.5252996  19.3307382 117.2029328
  75.8756506  20.2136237 116.1587347  77.2590062  24.7997694 107.6728926
  77.4341818  24.3285737 108.4874549  76.5722850  25.4263460 107.9010187
  78.2147125  19.0770200 113.7192227  77.8796958  19.0370970 114.6149877
  77.7151071  18.4114916 113.2462638  81.1506317  16.4226235 103.9929287
  80.5335487  15.6973063 103.8962340  80.6822805  17.1835595 103.6496361
  71.8251147  27.9487057 114.4468786  72.0647746  28.5805581 115.1247805
  70.9820344  27.5975097 114.7334145  72.9404863  10.6411659 103.1150591
  72.0634329  10.5200460 102.7512838  73.4162616   9.8497737 102.8629480
  76.3379009  23.7566179 116.8510290  76.2649181  24.5621151 117.3629595
  75.8956402  23.9558145 116.0258312  76.1268789  22.9937949 110.3613112
  75.3436311  23.5359629 110.4551336  76.8261534  23.5111929 110.7607353
  78.7977693  23.6553013 119.0068449  79.5105665  24.2900478 118.9344350
  78.3067721  23.7516879 118.1908451  80.5195220  17.5604266 110.5785741
  79.5851498  17.6805728 110.4090445  80.6971888  16.6576733 110.3145750
  83.9067771  13.4021585 111.1135775  84.3728223  14.2349577 111.0396077
  84.3575271  12.9366567 111.8181033  81.9744002  19.7465407 108.1121927
  82.2503846  19.6322001 109.0215801  81.1048501  19.3482891 108.0734100
  78.6098066  23.9951757 111.7554740  78.7920461  23.1773413 112.2182493
  79.4331052  24.2119450 111.3179630  78.9440232  22.9219943 109.0169789
  79.4727998  22.4112397 108.4039951  79.2068451  22.6062473 109.8815322
  72.2995980  23.9735059 111.7767565  71.6306355  24.4581187 111.2931605
  72.1608849  24.2204280 112.6910943  76.4401248  26.0078803 118.3750223
  76.9919556  26.1710424 119.1399308  76.7807442  26.5983241 117.7030248
  67.6683557  12.2353514 108.5563497  67.9636998  11.3264193 108.5030551
  66.7671592  12.2141254 108.2344499  79.5769635  23.9560778 115.3613905
  79.4520775  23.1550518 114.8524851  80.2348726  24.4506972 114.8727875
  81.6404544  21.7569798 116.9893455  80.6934879  21.6375150 116.9171782
  81.9887317  20.8692296 117.0719717  78.6450977  21.5522515 113.1897808
  78.4975939  20.6239222 113.3705378  79.4704471  21.5742605 112.7054883
  72.5113221  10.2040582 109.0478300  72.8509294  10.7326503 108.3256908
  72.9585342  10.5420988 109.8236866  82.2485099  22.3751073 114.2762680
  83.1731646  22.1693935 114.1387131  82.0800402  22.1267474 115.1852022
  74.4981368   8.7015203 107.2471593  75.2189731   9.0796456 106.7435309
  73.8746673   9.4204080 107.3506570  78.6412491   9.4060352 108.1829925
  78.8576106  10.2884990 107.8818753  78.1606559   9.0146566 107.4535567
  82.0380415  22.8936741 109.6324772  82.2117293  22.3283163 108.8798624
  82.5309306  23.6937636 109.4504262  87.8919806  15.6573164 111.2515072
  88.3350952  14.9080489 110.8534195  87.0146317  15.6483300 110.8688804
  83.0255588  22.2103505 106.7321670  83.7206492  22.8310198 106.9508985
  83.3678738  21.3598856 107.0074048  84.9247011  19.6603211 108.2609001
  85.4498335  19.9990483 107.5358321  84.8369363  18.7250226 108.0772135
  76.6087671  25.7275194 112.6204254  76.1692662  25.2351573 113.3137111
  77.3595788  25.1848162 112.3796329  69.0880010  21.9186735 112.6228882
  69.9138030  21.6190507 112.2427526  68.7374062  21.1494357 113.0718671
  74.0561544  21.2713203 114.6926556  73.4341553  20.6083908 114.3928784
  74.7266411  21.2974335 114.0100203  73.6175051  19.8217126 108.1685016
  73.7663171  20.5052591 107.5151689  74.4241494  19.8022216 108.6834472
  71.3727683  15.8482304 109.1746085  71.1273725  14.9444634 109.3726295
  71.5423598  15.8499454 108.2325563  70.6423331  11.5810662 106.6732247
  69.9492576  11.6555017 106.0172283  70.3975083  10.8171005 107.1953764
  77.1170456  22.3165257 105.6396764  76.5444423  22.9355444 105.1867236
  77.6903250  22.8664619 106.1736686  80.3367716  22.6002407 106.7705346
  81.2698389  22.5347969 106.9738221  80.2490929  23.4358674 106.3119879
  82.9655733  21.9168277 103.7309294  82.8869364  21.5828141 104.6245051
  83.7865399  22.4090045 103.7300766  77.5017255  13.6526070 102.9812816
  78.4476359  13.5232278 103.0501234  77.1231499  12.9140731 103.4582244
  75.6860172  11.5776046 102.9167701  74.7791627  11.2809159 102.9930415
  75.9636153  11.2805864 102.0501988  77.3022237   6.1212936 109.0711943
  76.4922966   5.7760021 109.4467189  77.9906654   5.8120479 109.6599554
  74.4558956   8.4362981 103.0579681  75.3178120   8.7617879 103.3175498
  74.6409300   7.6494477 102.5452746  82.6091593   7.3091508 110.2014904
  82.0290262   7.9676312 109.8192956  82.3427525   6.4868852 109.7902321
  81.3916471   9.4691598 109.2571252  80.5042326   9.7541249 109.0391447
  81.8070460   9.3085361 108.4098529  69.4000721  24.0499349 114.3442697
  69.2655189  23.2899750 113.7780695  68.9832784  24.7740249 113.8771485
  80.5359684  19.2336273 103.3519272  81.2395534  19.4386275 103.9676927
  79.8122333  19.8013035 103.6168355  81.3657495  14.9846134 109.4721542
  81.3092696  15.4414685 108.6329174  81.9185837  14.2236819 109.2944385
  85.1762300  10.7735866 110.2971662  84.9199235  10.3732501 111.1279869
  84.5515169  11.4879660 110.1721801  72.5569847  24.9468666 114.5561139
  72.4402231  25.8914099 114.4539829  71.7362293  24.6442228 114.9446938
  82.4446382  19.6718802 105.4017732  83.2791986  19.2400000 105.2195207
  82.2830725  19.5000816 106.3294626  82.0992274  16.1750915 106.7674071
  82.0441078  16.0095187 105.8262515  81.4738329  16.8826948 106.9236261
  75.4088399   5.6759024 106.3459390  75.3967069   6.6200864 106.5027660
  76.3011821   5.4929170 106.0518851  73.5824361  25.5996928 117.7717068
  74.4851608  25.6320538 118.0883563  73.3561731  24.6697379 117.7863403
  75.3377963  24.3527915 114.4327146  74.3873594  24.3529776 114.3191519
  75.6410449  23.6060649 113.9163181  91.0730657  30.1888453 115.4972909
  91.7109067  30.0695200 114.7936249  90.9551500  31.1369297 115.5560861
  87.8820363  30.1415881 115.4334433  87.5438875  30.0256946 114.5454968
  88.7510131  29.7407046 115.4135439  83.7407179  31.9951358 111.4231324
  83.1772044  31.9041294 110.6547612  83.6259574  31.1751262 111.9033817
  81.2871611  33.4902549 114.2615545  82.0792903  33.1493374 113.8461844
  81.5268261  33.5997524 115.1817698  89.3206737  35.6622325 106.7345789
  88.6694717  36.2476406 106.3479803  90.1151100  36.1928520 106.7940827
  83.2462365  32.7511462 107.1332924  84.0193241  32.2040449 106.9945799
  83.5987764  33.6155712 107.3447385  85.0847407  34.0787845 120.3399823
  84.7937273  34.9833475 120.2246489  85.7204392  34.1204372 121.0543892
  86.0103614  31.4564693 116.9301182  86.6067186  31.2320716 116.2158145
  86.0678586  30.7149439 117.5326630  85.5828642  28.9104128 104.7651373
  85.8354163  28.3885650 104.0034836  84.6453202  28.7470274 104.8678057
  90.6271925  27.9139907 112.5726117  91.4135014  27.4959330 112.2216534
  90.8910630  28.8185999 112.7407765  90.7982003  33.3512757 107.2714773
  90.1627836  33.4247384 107.9835678  90.4679409  33.9406356 106.5933853
  85.3024931  30.8132234 106.9675748  85.1861189  30.1377138 107.6356833
  85.4127191  30.3264608 106.1507901  87.6456472  30.2742382 110.6722438
  87.2814679  29.7473003 111.3835359  88.5023588  29.8840851 110.4988923
  87.2861959  25.3032281 105.6683786  87.4536361  26.1712518 106.0354257
  87.0959128  25.4659563 104.7445075  90.0437292  33.7649260 117.3349617
  89.7438015  34.6674299 117.2265424  89.6988352  33.4981443 118.1870769
  83.4949774  30.2163057 113.3686321  82.5700270  30.0839271 113.5764013
  83.7434187  30.9957276 113.8656263  87.2651180  27.7589939 106.6530453
  87.1450805  28.2046990 107.4915933  86.5703768  28.1075256 106.0943991
  80.8558585  29.8596331 114.2030110  80.9850966  30.1130809 115.1169522
  80.1756036  30.4524039 113.8834765  85.0258072  40.5293581 110.3020584
  84.9482102  41.4801406 110.3809065  84.4219716  40.1839453 110.9595511
  92.9636246  28.2311412 107.4810787  93.8754102  28.4638799 107.3058485
  92.4545893  28.8148456 106.9185866  91.5705828  33.2137230 114.8724368
  90.9414691  33.3782945 114.1700436  91.1831491  33.6278840 115.6435333
  95.4495060  34.1491668 112.2268732  94.7646098  34.5290570 111.6765766
  95.5338910  34.7586995 112.9600680  87.1233790  32.9511638 112.1374454
  87.5872136  33.2299341 111.3479076  86.8590588  32.0495083 111.9547544
  84.0157871  32.4983120 115.0754217  84.5859228  32.9270388 114.4371701
  84.6065983  32.2165705 115.7738403  86.0602676  29.0734791 108.9464019
  86.7626720  29.5255835 109.4137945  85.7283305  28.4318610 109.5743912
  79.8028010  27.3318343 114.2481152  79.0127064  27.5875872 113.7721263
  80.2939258  28.1466681 114.3533193  81.7542756  27.6962923 111.2064629
  80.9573919  27.8081617 111.7248125  81.5268348  28.0349575 110.3405520
  87.5848423  34.2207626 119.1547144  87.6492856  34.6828033 119.9905315
  86.8759347  33.5904991 119.2829453  78.0865713  27.5848834 116.6796143
  78.3373752  28.4695844 116.9453719  78.6225262  27.4053435 115.9071235
  87.2996441  35.8875733 109.0226124  87.1642116  36.7327269 109.4510972
  87.8406253  36.0895011 108.2592058  80.7525838  33.4051171 109.5954049
  81.2650359  34.1994422 109.7459614  81.4048551  32.7077462 109.5287651
  82.5620723  36.5216928 111.6776802  82.7387351  37.4434892 111.4897786
  83.3577557  36.2075347 112.1071182  81.8473080  28.5681560 121.5538965
  81.7326595  27.6666817 121.8546064  80.9917597  28.8145256 121.2023782
  83.6852039  38.0395102 117.6787145  84.2359464  37.9112165 116.9064138
  82.8463514  38.3389991 117.3282037  87.4819210  34.3046229 122.0231376
  88.0147546  33.5434518 121.7930684  86.9533291  34.0119881 122.7655530
  78.7174755  31.7339826 110.3713620  79.5549977  32.1436834 110.1547327
  78.8953023  30.7939268 110.3413813  90.6139187  29.4014906 106.0597453
  90.0985811  30.1719511 106.2985840  90.3416496  28.7280043 106.6830514
  88.1986298  24.2464607 111.1182691  87.3427895  23.8571458 110.9388330
  88.6113250  24.3256568 110.2582476  85.9728331  21.8649680 114.5240432
  86.8381328  21.6692489 114.1646322  86.0405840  21.6360032 115.4509789
  95.5873461  32.1547261 107.9950626  94.8102904  31.8158421 107.5505788
  96.2664942  32.1599884 107.3205591  90.4025490  27.2741999 107.8857234
  90.0975626  27.5888148 108.7367377  91.3555933  27.3523418 107.9284567
  88.8471922  33.4332222 109.5350188  88.3193284  32.6984981 109.2223425
  88.3459425  34.2106898 109.2890156  93.8264768  31.6281242 114.6517234
  93.1688443  32.3180504 114.7397363  94.6305168  32.0177674 114.9951220
  83.5790650  24.0951888 111.8956799  84.1534402  23.8727070 111.1629992
  84.1661632  24.1640583 112.6485401  92.6370227  29.9825615 112.7021176
  93.1502109  30.6155607 113.2042885  93.2871451  29.3826811 112.3364536
  83.9060237  26.1256349 105.9152684  83.0697549  26.4631036 106.2361959
  83.7665007  25.9905329 104.9779821  85.8813318  20.9693137 110.6231869
  85.2277730  20.6542154 109.9988483  85.8393792  20.3468878 111.3491692
  86.9924522  31.2512432 102.5385161  86.0851584  31.0201686 102.7376310
  87.4895554  30.4550051 102.7259142  89.8992601  39.9609939 105.4581847
  89.2254300  40.2641636 106.0666805  90.2858423  40.7639020 105.1087304
  89.1151058  27.4575071 114.9479516  88.1973619  27.6790018 114.7901204
  89.5311202  27.5321381 114.0891224  89.8986106  28.8566486 110.0782197
  90.6457925  29.3687883 109.7689319  90.1677695  28.5350539 110.9386590
  88.1712756  31.3525027 107.0609151  87.2623975  31.0684060 107.1581621
  88.2007840  31.7724106 106.2012458  93.4032023  34.9631616 110.8300318
  92.9494350  34.1222526 110.8865509  92.7725990  35.5993015 111.1675099
  92.3464943  25.8923603 112.0600986  91.6087700  25.3800989 112.3911228
  92.5991716  25.4523984 111.2484263  91.8464963  36.8008113 111.7650137
  92.1387937  37.3613170 111.0462502  92.3563583  37.0936674 112.5203296
  78.7400926  29.0730541 111.0424353  78.5425326  28.4799902 110.3175420
  78.1847590  28.7682751 111.7600292  86.7197650  28.9653648 113.1618946
  86.7746260  28.0127484 113.0861423  85.9088852  29.1213087 113.6460245
  87.8688844  32.8933771 104.3997229  87.4308274  32.1769630 103.9402867
  88.6099285  33.1209885 103.8382321  84.6590010  27.5830707 110.9209325
  83.8457875  27.8824878 111.3274517  85.1549004  27.1886396 111.6383807
  86.8098588  37.5788464 112.8543590  86.7674767  37.8049311 111.9252122
  87.7261287  37.3451839 113.0029391  95.9861959  31.1690968 110.4573548
  95.8479857  31.3592564 109.5294737  95.6298177  31.9310351 110.9141599
  84.1504085  25.1549063 116.5370560  84.7903464  25.0137822 115.8393523
  83.3181615  24.8683576 116.1609162  84.9264389  34.4551493 112.6505552
  85.7204987  33.9601813 112.4488127  84.2156081  33.9269356 112.2873258
  89.7459233  36.8369589 117.0017920  89.7996255  37.4060525 117.7695636
  88.8774014  37.0071474 116.6371957  81.2347152  28.5994575 108.7265305
  80.3044740  28.5379031 108.9435267  81.3304624  28.0770528 107.9301946
  81.1532701  25.1249388 111.3143547  81.4139518  26.0394721 111.2052707
  81.9749873  24.6573830 111.4640160  82.6257626  26.5387145 118.4842371
  83.2980680  26.3304507 117.8355020  81.7987413  26.3409231 118.0447604
  88.7047333  31.0029851 118.5604852  89.6339393  31.1541010 118.3873819
  88.2838363  31.0913872 117.7053498  87.5035665  35.0280515 116.3303390
  87.3646750  34.6599300 117.2029328  86.7150261  35.5428155 116.1587347
  88.0983817  40.1289612 107.6728926  88.2735572  39.6577655 108.4874549
  87.4116605  40.7555378 107.9010187  89.0540880  34.4062118 113.7192227
  88.7190712  34.3662888 114.6149877  88.5544825  33.7406834 113.2462638
  83.0285124  29.8129748 119.2444808  82.8904922  29.0809987 119.8456348
  83.9390047  29.7238648 118.9628996  91.9900071  31.7518152 103.9929287
  91.3729242  31.0264980 103.8962340  91.5216560  32.5127513 103.6496361
  85.6567424  29.5249707 118.7328488  86.3667043  28.8842900 118.6915107
  85.6136732  29.7762602 119.6554669  82.6644902  43.2778975 114.4468786
  82.9041500  43.9097499 115.1247805  81.8214098  42.9267015 114.7334145
  83.7798617  25.9703577 103.1150591  82.9028084  25.8492377 102.7512838
  84.2556370  25.1789655 102.8629480  75.3000757  30.7580736 113.2092098
  75.9871797  30.4442466 112.6213114  75.1448886  31.6622101 112.9359350
  80.1035480  25.6470933 117.6377122  80.0193668  25.0396602 116.9027532
  79.2818186  26.1379951 117.6386618  87.1772764  39.0858097 116.8510290
  87.1042935  39.8913068 117.3629595  86.7350157  39.2850063 116.0258312
  86.9662543  38.3229867 110.3613112  86.1830065  38.8651547 110.4551336
  87.6655288  38.8403847 110.7607353  90.2759193  24.1324496 113.0047317
  90.7727893  23.3794459 112.6848387  89.5046175  24.1688813 112.4390526
  89.6371447  38.9844931 119.0068449  90.3499419  39.6192396 118.9344350
  89.1461476  39.0808797 118.1908451  91.3588974  32.8896184 110.5785741
  90.4245253  33.0097646 110.4090445  91.5365643  31.9868650 110.3145750
  86.8594162  26.2741879 112.7319002  86.4891950  25.7212920 113.4199907
  87.3553255  25.6700013 112.1794002  94.7461525  28.7313503 111.1135775
  95.2121978  29.5641495 111.0396077  95.1969026  28.2658485 111.8181033
  84.6883361  36.7339374 119.8274020  85.3892820  37.3675857 119.9803414
  84.2178476  37.0754106 119.0669659  92.8137757  35.0757324 108.1121927
  93.0897600  34.9613919 109.0215801  91.9442255  34.6774809 108.0734100
  89.4491821  39.3243675 111.7554740  89.6314215  38.5065331 112.2182493
  90.2724807  39.5411367 111.3179630  89.7833986  38.2511860 109.0169789
  90.3121752  37.7404315 108.4039951  90.0462206  37.9354390 109.8815322
  80.2851079  36.2675729 116.7605122  80.8704516  35.5219417 116.8933027
  80.0875917  36.5779686 117.6441786  83.1389734  39.3026977 111.7767565
  82.4700109  39.7873105 111.2931605  83.0002604  39.5496197 112.6910943
  74.8768734  28.8381330 115.4809566  74.9152833  28.3044920 116.2746684
  74.3709026  28.3116535 114.8620543  87.2795003  41.3370720 118.3750223
  87.8313311  41.5002342 119.1399308  87.6201196  41.9275158 117.7030248
  82.2559496  23.6845870 118.9772108  82.3200822  24.5460701 118.5649506
  82.1926616  23.0719872 118.2444466  78.5077311  27.5645432 108.5563497
  78.8030752  26.6556110 108.5030551  77.6065347  27.5433171 108.2344499
  90.4163390  39.2852696 115.3613905  90.2914529  38.4842436 114.8524851
  91.0742481  39.7798889 114.8727875  82.0371558  25.6401428 114.5391046
  81.3158144  26.2537396 114.3998519  82.8264814  26.1759193 114.4607691
  92.4798298  37.0861716 116.9893455  91.5328634  36.9667067 116.9171782
  92.8281071  36.1984214 117.0719717  80.2365153  25.2459530 108.6802822
  79.9077859  24.3656908 108.4977928  80.5904523  25.1907198 109.5679211
  89.4844732  36.8814432 113.1897808  89.3369694  35.9531140 113.3705378
  90.3098225  36.9034523 112.7054883  83.3506976  25.5332499 109.0478300
  83.6903048  26.0618421 108.3256908  83.7979096  25.8712905 109.8236866
  93.0878853  37.7042991 114.2762680  94.0125401  37.4985852 114.1387131
  92.9194157  37.4559392 115.1852022  85.3375123  24.0307121 107.2471593
  86.0583485  24.4088374 106.7435309  84.7140427  24.7495998 107.3506570
  89.4806246  24.7352270 108.1829925  89.6969860  25.6176908 107.8818753
  89.0000313  24.3438483 107.4535567  84.2205467  27.6937983 114.7600669
  84.0750048  28.0078286 115.6524951  83.7430671  28.3122883 114.2071568
  86.0801850  24.6840531 114.8081559  86.0663419  23.7881624 114.4713857
  86.7974278  24.6911195 115.4419845  92.8774170  38.2228658 109.6324772
  93.0511047  37.6575081 108.8798624  93.3703061  39.0229553 109.4504262
  78.6951129  30.2343327 117.6988331  78.1504597  31.0103135 117.8308605
  79.5730479  30.5814132 117.5407452  85.4838746  23.5654911 110.0769129
  85.6054657  22.6371558 110.2760017  85.1940788  23.5793597 109.1647445
  88.3529936  21.2509822 113.2135849  88.3751633  21.3149155 112.2587829
  88.7697995  20.4114330 113.4076355  98.7313561  30.9865081 111.2515072
  99.1744707  30.2372407 110.8534195  97.8540071  30.9775218 110.8688804
  93.8649342  37.5395423 106.7321670  94.5600247  38.1602115 106.9508985
  94.2072492  36.6890774 107.0074048  79.4817151  29.3613224 120.5918487
  78.7398887  29.5095859 121.1783118  79.1609896  29.6221489 119.7285237
  95.7640765  34.9895128 108.2609001  96.2892089  35.3282401 107.5358321
  95.6763118  34.0542144 108.0772135  87.4260814  38.9029202 120.3898877
  87.7347940  38.6578349 121.2621577  88.2236296  39.1075840 119.9017748
  87.4481426  41.0567112 112.6204254  87.0086416  40.5643490 113.3137111
  88.1989543  40.5140079 112.3796329  79.9273765  37.2478652 112.6228882
  80.7531785  36.9482424 112.2427526  79.5767817  36.4786275 113.0718671
  84.8955298  36.6005121 114.6926556  84.2735307  35.9375826 114.3928784
  85.5660165  36.6266253 114.0100203  78.1282370  35.1664979 113.5817816
  77.2914278  34.7387153 113.4001817  78.1006015  35.3597422 114.5188607
  84.4568805  35.1509044 108.1685016  84.6056925  35.8344508 107.5151689
  85.2635248  35.1314134 108.6834472  82.2121438  31.1774222 109.1746085
  81.9667480  30.2736552 109.3726295  82.3817353  31.1791372 108.2325563
  81.4817086  26.9102579 106.6732247  80.7886330  26.9846934 106.0172283
  81.2368837  26.1462923 107.1953764  87.9564211  37.6457174 105.6396764
  87.3838178  38.2647362 105.1867236  88.5297004  38.1956536 106.1736686
  91.1761470  37.9294325 106.7705346  92.1092143  37.8639886 106.9738221
  91.0884683  38.7650591 106.3119879  93.8049487  37.2460195 103.7309294
  93.7263119  36.9120059 104.6245051  94.6259154  37.7381963 103.7300766
  88.3411009  28.9817987 102.9812816  89.2870114  28.8524195 103.0501234
  87.9625254  28.2432649 103.4582244  86.5253926  26.9067964 102.9167701
  85.6185382  26.6101076 102.9930415  86.8029907  26.6097782 102.0501988
  77.4431867  28.2274327 113.3666748  77.1234651  27.3739635 113.0741122
  76.8965295  28.4422905 114.1224715  81.2211774  30.9436768 117.0836254
  81.4397784  31.8753876 117.1024288  81.6337548  30.5844742 117.8691058
  88.1415992  21.4504853 109.0711943  87.3316720  21.1051938 109.4467189
  88.8300409  21.1412397 109.6599554  90.0706540  20.5282900 110.6936239
  90.6237579  20.9478354 111.3526262  90.3076627  19.6018648 110.7359195
  85.2952711  23.7654899 103.0579681  86.1571875  24.0909797 103.3175498
  85.4803055  22.9786395 102.5452746  77.3120127  31.8477239 115.3359869
  76.6183598  31.4331191 114.8229824  78.0593118  31.8897775 114.7393288
  93.4485347  22.6383425 110.2014904  92.8684016  23.2968229 109.8192956
  93.1821280  21.8160770 109.7902321  79.2256869  31.7795492 113.2125884
  79.2027557  31.8783180 112.2607767  79.5357506  32.6260643 113.5343050
  81.8844247  33.8371647 117.3272499  82.8387501  33.8055590 117.2602430
  81.6856771  33.3762271 118.1422725  82.4743629  32.4072763 119.8943296
  83.2936518  32.9016842 119.9178134  82.7480437  31.4904732 119.8660864
  92.2310225  24.7983516 109.2571252  91.3436080  25.0833166 109.0391447
  92.6464214  24.6377279 108.4098529  80.2394476  39.3791267 114.3442697
  80.1048944  38.6191668 113.7780695  79.8226538  40.1032167 113.8771485
  91.3753439  34.5628190 103.3519272  92.0789289  34.7678193 103.9676927
  90.6516088  35.1304952 103.6168355  92.2051249  30.3138052 109.4721542
  92.1486450  30.7706603 108.6329174  92.7579592  29.5528736 109.2944385
  96.0156055  26.1027783 110.2971662  95.7592989  25.7024419 111.1279869
  95.3908923  26.8171577 110.1721801  83.3963602  40.2760584 114.5561139
  83.2795986  41.2206016 114.4539829  82.5756048  39.9734145 114.9446938
  93.2840136  35.0010720 105.4017732  94.1185740  34.5691918 105.2195207
  93.1224479  34.8292733 106.3294626  92.9386028  31.5042833 106.7674071
  92.8834832  31.3387104 105.8262515  92.3132084  32.2118866 106.9236261
  77.7278543  26.7410897 120.5935493  78.3737407  26.2309851 121.0822719
  77.5195694  27.4779579 121.1678919  86.2482154  21.0050942 106.3459390
  86.2360824  21.9492782 106.5027660  87.1405576  20.8221087 106.0518851
  84.4218116  40.9288846 117.7717068  85.3245362  40.9612456 118.0883563
  84.1955486  39.9989297 117.7863403  86.1771718  39.6819832 114.4327146
  85.2267349  39.6821694 114.3191519  86.4804204  38.9352567 113.9163181
 101.9124411  45.5180371 115.4972909 102.5502821  45.3987118 114.7936249
 101.7945254  46.4661215 115.5560861  98.7214118  45.4707799 115.4334433
  98.3832629  45.3548863 114.5454968  99.5903886  45.0698964 115.4135439
  94.5800933  47.3243275 111.4231324  94.0165798  47.2333212 110.6547612
  94.4653328  46.5043180 111.9033817  92.1265365  48.8194467 114.2615545
  92.9186657  48.4785291 113.8461844  92.3662015  48.9289442 115.1817698
 100.1600492  50.9914243 106.7345789  99.5088472  51.5768323 106.3479803
 100.9544855  51.5220438 106.7940827  94.0856119  48.0803380 107.1332924
  94.8586995  47.5332367 106.9945799  94.4381518  48.9447629 107.3447385
  95.9241162  49.4079762 120.3399823  95.6331028  50.3125393 120.2246489
  96.5598146  49.4496290 121.0543892  96.8497369  46.7856611 116.9301182
  97.4460941  46.5612633 116.2158145  96.9072340  46.0441356 117.5326630
  96.4222397  44.2396046 104.7651373  96.6747918  43.7177567 104.0034836
  95.4846956  44.0762192 104.8678057 101.4665680  43.2431825 112.5726117
 102.2528769  42.8251248 112.2216534 101.7304384  44.1477917 112.7407765
 101.6375757  48.6804675 107.2714773 101.0021590  48.7539301 107.9835678
 101.3073164  49.2698274 106.5933853  96.1418686  46.1424152 106.9675748
  96.0254944  45.4669056 107.6356833  96.2520946  45.6556526 106.1507901
  98.4850227  45.6034299 110.6722438  98.1208434  45.0764920 111.3835359
  99.3417343  45.2132768 110.4988923  98.1255714  40.6324199 105.6683786
  98.2930116  41.5004435 106.0354257  97.9352883  40.7951481 104.7445075
 100.8831047  49.0941178 117.3349617 100.5831770  49.9966217 117.2265424
 100.5382106  48.8273361 118.1870769  94.3343528  45.5454975 113.3686321
  93.4094025  45.4131189 113.5764013  94.5827941  46.3249194 113.8656263
  98.1044934  43.0881856 106.6530453  97.9844560  43.5338907 107.4915933
  97.4097523  43.4367174 106.0943991  91.6952339  45.1888248 114.2030110
  91.8244720  45.4422727 115.1169522  91.0149791  45.7815956 113.8834765
  95.8651827  55.8585498 110.3020584  95.7875856  56.8093323 110.3809065
  95.2613470  55.5131371 110.9595511 103.8030001  43.5603330 107.4810787
 104.7147857  43.7930716 107.3058485 103.2939648  44.1440374 106.9185866
 102.4099583  48.5429148 114.8724368 101.7808445  48.7074862 114.1700436
 102.0225245  48.9570758 115.6435333 106.2888815  49.4783586 112.2268732
 105.6039853  49.8582487 111.6765766 106.3732664  50.0878913 112.9600680
  97.9627545  48.2803556 112.1374454  98.4265890  48.5591259 111.3479076
  97.6984343  47.3787001 111.9547544  94.8551626  47.8275038 115.0754217
  95.4252983  48.2562306 114.4371701  95.4459738  47.5457622 115.7738403
  96.8996431  44.4026709 108.9464019  97.6020474  44.8547752 109.4137945
  96.5677059  43.7610527 109.5743912  90.6421765  42.6610261 114.2481152
  89.8520819  42.9167790 113.7721263  91.1333012  43.4758599 114.3533193
  92.5936510  43.0254840 111.2064629  91.7967673  43.1373535 111.7248125
  92.3662102  43.3641493 110.3405520  98.4242178  49.5499544 119.1547144
  98.4886610  50.0119951 119.9905315  97.7153102  48.9196909 119.2829453
  88.9259468  42.9140752 116.6796143  89.1767506  43.7987762 116.9453719
  89.4619016  42.7345353 115.9071235  98.1390195  51.2167651 109.0226124
  98.0035870  52.0619187 109.4510972  98.6800008  51.4186929 108.2592058
  91.5919593  48.7343089 109.5954049  92.1044113  49.5286339 109.7459614
  92.2442306  48.0369380 109.5287651  93.4014478  51.8508845 111.6776802
  93.5781106  52.7726810 111.4897786  94.1971311  51.5367265 112.1071182
  92.6866834  43.8973477 121.5538965  92.5720349  42.9958735 121.8546064
  91.8311352  44.1437174 121.2023782  94.5245793  53.3687019 117.6787145
  95.0753218  53.2404083 116.9064138  93.6857269  53.6681908 117.3282037
  98.3212964  49.6338147 122.0231376  98.8541301  48.8726435 121.7930684
  97.7927045  49.3411799 122.7655530  89.5568510  47.0631743 110.3713620
  90.3943732  47.4728752 110.1547327  89.7346777  46.1231186 110.3413813
 101.4532942  44.7306824 106.0597453 100.9379565  45.5011429 106.2985840
 101.1810250  44.0571960 106.6830514  99.0380053  39.5756525 111.1182691
  98.1821649  39.1863375 110.9388330  99.4507005  39.6548486 110.2582476
  96.8122085  37.1941598 114.5240432  97.6775082  36.9984407 114.1646322
  96.8799594  36.9651950 115.4509789 106.4267216  47.4839179 107.9950626
 105.6496659  47.1450338 107.5505788 107.1058697  47.4891802 107.3205591
 101.2419245  42.6033916 107.8857234 100.9369381  42.9180065 108.7367377
 102.1949687  42.6815336 107.9284567  99.6865677  48.7624140 109.5350188
  99.1587038  48.0276899 109.2223425  99.1853180  49.5398816 109.2890156
 104.6658523  46.9573160 114.6517234 104.0082197  47.6472421 114.7397363
 105.4698922  47.3469592 114.9951220  94.4184404  39.4243806 111.8956799
  94.9928156  39.2018987 111.1629992  95.0055387  39.4932500 112.6485401
 103.4763982  45.3117533 112.7021176 103.9895863  45.9447525 113.2042885
 104.1265205  44.7118728 112.3364536  94.7453992  41.4548267 105.9152684
  93.9091304  41.7922953 106.2361959  94.6058761  41.3197247 104.9779821
  96.7207072  36.2985055 110.6231869  96.0671484  35.9834072 109.9988483
  96.6787546  35.6760795 111.3491692  97.8318277  46.5804350 102.5385161
  96.9245339  46.3493603 102.7376310  98.3289309  45.7841969 102.7259142
 100.7386356  55.2901857 105.4581847 100.0648055  55.5933554 106.0666805
 101.1252178  56.0930937 105.1087304  99.9544812  42.7866988 114.9479516
  99.0367374  43.0081935 114.7901204 100.3704956  42.8613299 114.0891224
 100.7379860  44.1858404 110.0782197 101.4851679  44.6979801 109.7689319
 101.0071450  43.8642457 110.9386590  99.0106510  46.6816945 107.0609151
  98.1017730  46.3975977 107.1581621  99.0401594  47.1016023 106.2012458
 104.2425778  50.2923534 110.8300318 103.7888105  49.4514444 110.8865509
 103.6119745  50.9284933 111.1675099 103.1858697  41.2215520 112.0600986
 102.4481454  40.7092906 112.3911228 103.4385471  40.7815902 111.2484263
 102.6858717  52.1300031 111.7650137 102.9781691  52.6905088 111.0462502
 103.1957338  52.4228592 112.5203296  89.5794681  44.4022459 111.0424353
  89.3819081  43.8091819 110.3175420  89.0241345  44.0974669 111.7600292
  97.5591404  44.2945565 113.1618946  97.6140014  43.3419402 113.0861423
  96.7482606  44.4505004 113.6460245  98.7082598  48.2225688 104.3997229
  98.2702028  47.5061547 103.9402867  99.4493039  48.4501803 103.8382321
  95.4983764  42.9122625 110.9209325  94.6851630  43.2116796 111.3274517
  95.9942759  42.5178314 111.6383807  97.6492342  52.9080382 112.8543590
  97.6068521  53.1341228 111.9252122  98.5655041  52.6743757 113.0029391
 106.8255713  46.4982885 110.4573548 106.6873612  46.6884481 109.5294737
 106.4691932  47.2602268 110.9141599  94.9897839  40.4840981 116.5370560
  95.6297218  40.3429740 115.8393523  94.1575370  40.1975494 116.1609162
  95.7658143  49.7843411 112.6505552  96.5598742  49.2893731 112.4488127
  95.0549835  49.2561274 112.2873258 100.5852988  52.1661506 117.0017920
 100.6390010  52.7352443 117.7695636  99.7167769  52.3363392 116.6371957
  92.0740906  43.9286493 108.7265305  91.1438495  43.8670948 108.9435267
  92.1698378  43.4062445 107.9301946  91.9926456  40.4541306 111.3143547
  92.2533273  41.3686639 111.2052707  92.8143628  39.9865748 111.4640160
  93.4651381  41.8679063 118.4842371  94.1374434  41.6596425 117.8355020
  92.6381167  41.6701149 118.0447604  99.5441087  46.3321769 118.5604852
 100.4733147  46.4832928 118.3873819  99.1232117  46.4205789 117.7053498
  98.3429419  50.3572433 116.3303390  98.2040505  49.9891217 117.2029328
  97.5544015  50.8720072 116.1587347  98.9377571  55.4581529 107.6728926
  99.1129327  54.9869573 108.4874549  98.2510359  56.0847296 107.9010187
  99.8934634  49.7354036 113.7192227  99.5584467  49.6954806 114.6149877
  99.3938580  49.0698752 113.2462638  93.8678878  45.1421666 119.2444808
  93.7298676  44.4101904 119.8456348  94.7783802  45.0530566 118.9628996
 102.8293826  47.0810070 103.9929287 102.2122996  46.3556898 103.8962340
 102.3610314  47.8419430 103.6496361  96.4961179  44.8541625 118.7328488
  97.2060797  44.2134817 118.6915107  96.4530487  45.1054520 119.6554669
  93.5038656  58.6070892 114.4468786  93.7435255  59.2389416 115.1247805
  92.6607853  58.2558932 114.7334145  94.6192372  41.2995494 103.1150591
  93.7421838  41.1784295 102.7512838  95.0950125  40.5081573 102.8629480
  86.1394512  46.0872654 113.2092098  86.8265552  45.7734384 112.6213114
  85.9842641  46.9914019 112.9359350  90.9429234  40.9762851 117.6377122
  90.8587423  40.3688520 116.9027532  90.1211940  41.4671869 117.6386618
  98.0166518  54.4150015 116.8510290  97.9436690  55.2204986 117.3629595
  97.5743911  54.6141980 116.0258312  97.8056298  53.6521785 110.3613112
  97.0223820  54.1943465 110.4551336  98.5049043  54.1695764 110.7607353
 101.1152948  39.4616414 113.0047317 101.6121647  38.7086376 112.6848387
 100.3439929  39.4980731 112.4390526 100.4765202  54.3136849 119.0068449
 101.1893174  54.9484313 118.9344350  99.9855230  54.4100715 118.1908451
 102.1982729  48.2188101 110.5785741 101.2639007  48.3389564 110.4090445
 102.3759397  47.3160568 110.3145750  97.6987917  41.6033797 112.7319002
  97.3285704  41.0504837 113.4199907  98.1947009  40.9991931 112.1794002
 105.5855280  44.0605421 111.1135775 106.0515732  44.8933412 111.0396077
 106.0362780  43.5950402 111.8181033  95.5277115  52.0631292 119.8274020
  96.2286575  52.6967775 119.9803414  95.0572230  52.4046024 119.0669659
 103.6531511  50.4049242 108.1121927 103.9291355  50.2905836 109.0215801
 102.7836010  50.0066727 108.0734100 100.2885575  54.6535593 111.7554740
 100.4707970  53.8357249 112.2182493 101.1118561  54.8703285 111.3179630
 100.6227741  53.5803778 109.0169789 101.1515507  53.0696232 108.4039951
 100.8855960  53.2646308 109.8815322  91.1244833  51.5967647 116.7605122
  91.7098270  50.8511335 116.8933027  90.9269672  51.9071604 117.6441786
  93.9783488  54.6318895 111.7767565  93.3093864  55.1165022 111.2931605
  93.8396358  54.8788115 112.6910943  85.7162488  44.1673247 115.4809566
  85.7546588  43.6336838 116.2746684  85.2102781  43.6408453 114.8620543
  98.1188757  56.6662638 118.3750223  98.6707065  56.8294260 119.1399308
  98.4594951  57.2567076 117.7030248  93.0953250  39.0137788 118.9772108
  93.1594577  39.8752619 118.5649506  93.0320371  38.4011790 118.2444466
  89.3471066  42.8937350 108.5563497  89.6424507  41.9848028 108.5030551
  88.4459101  42.8725089 108.2344499 101.2557144  54.6144614 115.3613905
 101.1308284  53.8134353 114.8524851 101.9136235  55.1090807 114.8727875
  92.8765313  40.9693346 114.5391046  92.1551898  41.5829314 114.3998519
  93.6658568  41.5051111 114.4607691 103.3192053  52.4153634 116.9893455
 102.3722388  52.2958985 116.9171782 103.6674826  51.5276132 117.0719717
  91.0758907  40.5751447 108.6802822  90.7471613  39.6948826 108.4977928
  91.4298278  40.5199116 109.5679211 100.3238486  52.2106350 113.1897808
 100.1763448  51.2823057 113.3705378 101.1491980  52.2326441 112.7054883
  94.1900730  40.8624417 109.0478300  94.5296803  41.3910338 108.3256908
  94.6372851  41.2004823 109.8236866 103.9272608  53.0334909 114.2762680
 104.8519155  52.8277770 114.1387131 103.7587911  52.7851310 115.1852022
  96.1768877  39.3599039 107.2471593  96.8977240  39.7380291 106.7435309
  95.5534182  40.0787915 107.3506570 100.3200000  40.0644188 108.1829925
 100.5363615  40.9468825 107.8818753  99.8394067  39.6730401 107.4535567
  95.0599222  43.0229901 114.7600669  94.9143802  43.3370204 115.6524951
  94.5824425  43.6414801 114.2071568  96.9195605  40.0132449 114.8081559
  96.9057173  39.1173542 114.4713857  97.6368033  40.0203113 115.4419845
 103.7167924  53.5520576 109.6324772 103.8904802  52.9866999 108.8798624
 104.2096815  54.3521471 109.4504262  89.5344884  45.5635245 117.6988331
  88.9898352  46.3395053 117.8308605  90.4124234  45.9106050 117.5407452
  96.3232501  38.8946829 110.0769129  96.4448412  37.9663475 110.2760017
  96.0334543  38.9085515 109.1647445  99.1923691  36.5801739 113.2135849
  99.2145388  36.6441073 112.2587829  99.6091750  35.7406248 113.4076355
 109.5707315  46.3156999 111.2515072 110.0138461  45.5664324 110.8534195
 108.6933826  46.3067135 110.8688804 104.7043097  52.8687340 106.7321670
 105.3994001  53.4894033 106.9508985 105.0466247  52.0182692 107.0074048
  90.3210906  44.6905141 120.5918487  89.5792642  44.8387777 121.1783118
  90.0003650  44.9513407 119.7285237 106.6034520  50.3187046 108.2609001
 107.1285844  50.6574319 107.5358321 106.5156872  49.3834061 108.0772135
  98.2654568  54.2321120 120.3898877  98.5741695  53.9870266 121.2621577
  99.0630050  54.4367758 119.9017748  98.2875180  56.3859029 112.6204254
  97.8480171  55.8935408 113.3137111  99.0383297  55.8431997 112.3796329
  90.7667519  52.5770570 112.6228882  91.5925539  52.2774342 112.2427526
  90.4161571  51.8078193 113.0718671  95.7349053  51.9297038 114.6926556
  95.1129062  51.2667743 114.3928784  96.4053919  51.9558170 114.0100203
  88.9676124  50.4956897 113.5817816  88.1308033  50.0679071 113.4001817
  88.9399770  50.6889340 114.5188607  95.2962559  50.4800962 108.1685016
  95.4450680  51.1636426 107.5151689  96.1029003  50.4606052 108.6834472
  93.0515192  46.5066139 109.1746085  92.8061234  45.6028469 109.3726295
  93.2211107  46.5083290 108.2325563  92.3210840  42.2394497 106.6732247
  91.6280085  42.3138852 106.0172283  92.0762592  41.4754841 107.1953764
  98.7957965  52.9749092 105.6396764  98.2231932  53.5939279 105.1867236
  99.3690759  53.5248454 106.1736686 102.0155225  53.2586242 106.7705346
 102.9485898  53.1931804 106.9738221 101.9278438  54.0942509 106.3119879
 104.6443241  52.5752113 103.7309294 104.5656873  52.2411976 104.6245051
 105.4652908  53.0673881 103.7300766  99.1804764  44.3109905 102.9812816
 100.1263868  44.1816113 103.0501234  98.8019008  43.5724567 103.4582244
  97.3647681  42.2359881 102.9167701  96.4579136  41.9392994 102.9930415
  97.6423662  41.9389699 102.0501988  88.2825621  43.5566245 113.3666748
  87.9628405  42.7031553 113.0741122  87.7359049  43.7714823 114.1224715
  92.0605529  46.2728686 117.0836254  92.2791538  47.2045794 117.1024288
  92.4731302  45.9136660 117.8691058  98.9809746  36.7796771 109.0711943
  98.1710475  36.4343856 109.4467189  99.6694163  36.4704315 109.6599554
 100.9100295  35.8574818 110.6936239 101.4631333  36.2770271 111.3526262
 101.1470381  34.9310566 110.7359195  96.1346465  39.0946817 103.0579681
  96.9965629  39.4201715 103.3175498  96.3196809  38.3078312 102.5452746
  88.1513881  47.1769156 115.3359869  87.4577352  46.7623109 114.8229824
  88.8986872  47.2189693 114.7393288 104.2879102  37.9675343 110.2014904
 103.7077771  38.6260147 109.8192956 104.0215034  37.1452688 109.7902321
  90.0650624  47.1087410 113.2125884  90.0421312  47.2075097 112.2607767
  90.3751260  47.9552561 113.5343050  92.7238001  49.1663565 117.3272499
  93.6781255  49.1347507 117.2602430  92.5250525  48.7054189 118.1422725
  93.3137384  47.7364681 119.8943296  94.1330273  48.2308760 119.9178134
  93.5874191  46.8196649 119.8660864 103.0703980  40.1275433 109.2571252
 102.1829835  40.4125084 109.0391447 103.4857969  39.9669197 108.4098529
  91.0788230  54.7083185 114.3442697  90.9442698  53.9483585 113.7780695
  90.6620293  55.4324084 113.8771485 102.2147193  49.8920108 103.3519272
 102.9183043  50.0970111 103.9676927 101.4909842  50.4596870 103.6168355
 103.0445004  45.6429969 109.4721542 102.9880205  46.0998521 108.6329174
 103.5973346  44.8820654 109.2944385 106.8549809  41.4319701 110.2971662
 106.5986744  41.0316337 111.1279869 106.2302677  42.1463495 110.1721801
  94.2357356  55.6052502 114.5561139  94.1189740  56.5497934 114.4539829
  93.4149802  55.3026063 114.9446938 104.1233891  50.3302637 105.4017732
 104.9579495  49.8983836 105.2195207 103.9618234  50.1584651 106.3294626
 103.7779783  46.8334751 106.7674071 103.7228587  46.6679022 105.8262515
 103.1525838  47.5410783 106.9236261  88.5672298  42.0702815 120.5935493
  89.2131161  41.5601769 121.0822719  88.3589449  42.8071497 121.1678919
  97.0875908  36.3342860 106.3459390  97.0754578  37.2784699 106.5027660
  97.9799330  36.1513005 106.0518851  95.2611870  56.2580763 117.7717068
  96.1639117  56.2904374 118.0883563  95.0349240  55.3281214 117.7863403
  97.0165472  55.0111750 114.4327146  96.0661103  55.0113612 114.3191519
  97.3197958  54.2644485 113.9163181 105.4194688  62.6535193 111.4231324
 104.8559553  62.5625130 110.6547612 105.3047083  61.8335097 111.9033817
 102.9659120  64.1486384 114.2615545 103.7580412  63.8077209 113.8461844
 103.2055770  64.2581360 115.1817698 110.9994246  66.3206161 106.7345789
 110.3482226  66.9060241 106.3479803 111.7938609  66.8512355 106.7940827
 104.9249874  63.4095298 107.1332924 105.6980750  62.8624285 106.9945799
 105.2775272  64.2739547 107.3447385 107.2616151  59.5687964 104.7651373
 107.5141672  59.0469485 104.0034836 106.3240711  59.4054109 104.8678057
 112.3059434  58.5723742 112.5726117 113.0922523  58.1543165 112.2216534
 112.5698139  59.4769834 112.7407765 112.4769512  64.0096593 107.2714773
 111.8415345  64.0831219 107.9835678 112.1466918  64.5990191 106.5933853
 106.9812440  61.4716070 106.9675748 106.8648698  60.7960973 107.6356833
 107.0914700  60.9848444 106.1507901 109.3243981  60.9326217 110.6722438
 108.9602188  60.4056838 111.3835359 110.1811097  60.5424686 110.4988923
 108.9649468  55.9616117 105.6683786 109.1323870  56.8296353 106.0354257
 108.7746637  56.1243398 104.7445075 105.1737283  60.8746892 113.3686321
 104.2487779  60.7423106 113.5764013 105.4221696  61.6541112 113.8656263
 108.9438689  58.4173774 106.6530453 108.8238314  58.8630825 107.4915933
 108.2491277  58.7659092 106.0943991 102.5346094  60.5180166 114.2030110
 102.6638475  60.7714645 115.1169522 101.8543545  61.1107874 113.8834765
 114.6423755  58.8895247 107.4810787 115.5541611  59.1222634 107.3058485
 114.1333402  59.4732291 106.9185866 108.8021299  63.6095474 112.1374454
 109.2659645  63.8883177 111.3479076 108.5378097  62.7078918 111.9547544
 107.7390185  59.7318626 108.9464019 108.4414229  60.1839670 109.4137945
 107.4070814  59.0902445 109.5743912 101.4815519  57.9902179 114.2481152
 100.6914573  58.2459707 113.7721263 101.9726767  58.8050517 114.3533193
 103.4330265  58.3546758 111.2064629 102.6361428  58.4665452 111.7248125
 103.2055857  58.6933410 110.3405520  99.7653222  58.2432669 116.6796143
 100.0161261  59.1279679 116.9453719 100.3012771  58.0637271 115.9071235
 108.9783950  66.5459569 109.0226124 108.8429625  67.3911105 109.4510972
 109.5193762  66.7478846 108.2592058 102.4313347  64.0635007 109.5954049
 102.9437868  64.8578257 109.7459614 103.0836060  63.3661297 109.5287651
 104.2408232  67.1800763 111.6776802 104.4174860  68.1018728 111.4897786
 105.0365066  66.8659182 112.1071182 100.3962264  62.3923661 110.3713620
 101.2337486  62.8020670 110.1547327 100.5740532  61.4523103 110.3413813
 112.2926696  60.0598742 106.0597453 111.7773320  60.8303346 106.2985840
 112.0204005  59.3863878 106.6830514 109.8773807  54.9048443 111.1182691
 109.0215404  54.5155293 110.9388330 110.2900759  54.9840403 110.2582476
 107.6515840  52.5233516 114.5240432 108.5168837  52.3276324 114.1646322
 107.7193349  52.2943867 115.4509789 117.2660970  62.8131096 107.9950626
 116.4890413  62.4742256 107.5505788 117.9452451  62.8183720 107.3205591
 112.0812999  57.9325834 107.8857234 111.7763135  58.2471983 108.7367377
 113.0343442  58.0107254 107.9284567 110.5259431  64.0916057 109.5350188
 109.9980793  63.3568817 109.2223425 110.0246934  64.8690734 109.2890156
 105.2578159  54.7535723 111.8956799 105.8321911  54.5310905 111.1629992
 105.8449141  54.8224418 112.6485401 105.5847746  56.7840185 105.9152684
 104.7485058  57.1214871 106.2361959 105.4452516  56.6489164 104.9779821
 107.5600827  51.6276972 110.6231869 106.9065239  51.3125990 109.9988483
 107.5181301  51.0052713 111.3491692 108.6712031  61.9096267 102.5385161
 107.7639093  61.6785521 102.7376310 109.1683063  61.1133887 102.7259142
 111.5780110  70.6193775 105.4581847 110.9041809  70.9225471 106.0666805
 111.9645932  71.4222855 105.1087304 110.7938567  58.1158906 114.9479516
 109.8761128  58.3373853 114.7901204 111.2098711  58.1905216 114.0891224
 111.5773615  59.5150322 110.0782197 112.3245434  60.0271719 109.7689319
 111.8465204  59.1934374 110.9386590 109.8500265  62.0108862 107.0609151
 108.9411484  61.7267895 107.1581621 109.8795349  62.4307941 106.2012458
 114.0252452  56.5507438 112.0600986 113.2875209  56.0384824 112.3911228
 114.2779225  56.1107819 111.2484263 100.4188435  59.7314376 111.0424353
 100.2212835  59.1383737 110.3175420  99.8635099  59.4266587 111.7600292
 108.3985159  59.6237483 113.1618946 108.4533769  58.6711319 113.0861423
 107.5876361  59.7796922 113.6460245 109.5476353  63.5517606 104.3997229
 109.1095783  62.8353465 103.9402867 110.2886794  63.7793721 103.8382321
 106.3377519  58.2414543 110.9209325 105.5245384  58.5408713 111.3274517
 106.8336513  57.8470231 111.6383807 117.6649467  61.8274803 110.4573548
 117.5267366  62.0176399 109.5294737 117.3085686  62.5894186 110.9141599
 105.8291594  55.8132898 116.5370560 106.4690973  55.6721657 115.8393523
 104.9969124  55.5267412 116.1609162 106.6051898  65.1135329 112.6505552
 107.3992496  64.6185649 112.4488127 105.8943590  64.5853192 112.2873258
 102.9134661  59.2578410 108.7265305 101.9832249  59.1962866 108.9435267
 103.0092133  58.7354363 107.9301946 102.8320210  55.7833223 111.3143547
 103.0927027  56.6978556 111.2052707 103.6537382  55.3157666 111.4640160
 104.3045135  57.1970980 118.4842371 104.9768189  56.9888343 117.8355020
 103.4774922  56.9993066 118.0447604 109.7771325  70.7873447 107.6728926
 109.9523081  70.3161490 108.4874549 109.0904114  71.4139213 107.9010187
 113.6687580  62.4101988 103.9929287 113.0516751  61.6848816 103.8962340
 113.2004069  63.1711348 103.6496361 105.4586126  56.6287412 103.1150591
 104.5815593  56.5076213 102.7512838 105.9343879  55.8373490 102.8629480
  96.9788266  61.4164572 113.2092098  97.6659306  61.1026302 112.6213114
  96.8236395  62.3205936 112.9359350 101.7822989  56.3054768 117.6377122
 101.6981177  55.6980438 116.9027532 100.9605695  56.7963787 117.6386618
 111.9546702  54.7908332 113.0047317 112.4515402  54.0378294 112.6848387
 111.1833684  54.8272648 112.4390526 113.0376483  63.5480019 110.5785741
 112.1032762  63.6681481 110.4090445 113.2153152  62.6452486 110.3145750
 108.5381671  56.9325715 112.7319002 108.1679459  56.3796755 113.4199907
 109.0340764  56.3283848 112.1794002 116.4249034  59.3897338 111.1135775
 116.8909487  60.2225330 111.0396077 116.8756535  58.9242320 111.8181033
 114.4925266  65.7341160 108.1121927 114.7685109  65.6197754 109.0215801
 113.6229764  65.3358644 108.0734100 111.4621495  68.9095696 109.0169789
 111.9909261  68.3988150 108.4039951 111.7249715  68.5938226 109.8815322
  96.5556242  59.4965165 115.4809566  96.5940342  58.9628756 116.2746684
  96.0496535  58.9700371 114.8620543 103.9347005  54.3429706 118.9772108
 103.9988331  55.2044536 118.5649506 103.8714125  53.7303707 118.2444466
 100.1864820  58.2229267 108.5563497 100.4818261  57.3139946 108.5030551
  99.2852856  58.2017007 108.2344499 103.7159067  56.2985264 114.5391046
 102.9945653  56.9121231 114.3998519 104.5052323  56.8343029 114.4607691
 101.9152662  55.9043365 108.6802822 101.5865368  55.0240744 108.4977928
 102.2692032  55.8491034 109.5679211 105.0294485  56.1916335 109.0478300
 105.3690557  56.7202256 108.3256908 105.4766605  56.5296741 109.8236866
 107.0162632  54.6890956 107.2471593 107.7370994  55.0672209 106.7435309
 106.3927936  55.4079833 107.3506570 111.1593755  55.3936105 108.1829925
 111.3757369  56.2760743 107.8818753 110.6787822  55.0022319 107.4535567
 105.8992976  58.3521818 114.7600669 105.7537557  58.6662122 115.6524951
 105.4218180  58.9706719 114.2071568 107.7589359  55.3424366 114.8081559
 107.7450928  54.4465460 114.4713857 108.4761787  55.3495030 115.4419845
 100.3738638  60.8927163 117.6988331  99.8292106  61.6686971 117.8308605
 101.2517988  61.2397967 117.5407452 107.1626255  54.2238747 110.0769129
 107.2842166  53.2955393 110.2760017 106.8728297  54.2377433 109.1647445
 110.0317445  51.9093657 113.2135849 110.0539142  51.9732990 112.2587829
 110.4485504  51.0698166 113.4076355 115.5436851  68.1979258 106.7321670
 116.2387756  68.8185951 106.9508985 115.8860001  67.3474609 107.0074048
 117.4428274  65.6478964 108.2609001 117.9679598  65.9866236 107.5358321
 117.3550627  64.7125979 108.0772135 101.6061274  67.9062488 112.6228882
 102.4319294  67.6066260 112.2427526 101.2555326  67.1370110 113.0718671
  99.8069879  65.8248814 113.5817816  98.9701787  65.3970989 113.4001817
  99.7793524  66.0181258 114.5188607 106.1356314  65.8092879 108.1685016
 106.2844434  66.4928344 107.5151689 106.9422757  65.7897969 108.6834472
 103.8908947  61.8358057 109.1746085 103.6454989  60.9320387 109.3726295
 104.0604862  61.8375207 108.2325563 103.1604595  57.5686415 106.6732247
 102.4673839  57.6430770 106.0172283 102.9156346  56.8046758 107.1953764
 109.6351720  68.3041010 105.6396764 109.0625687  68.9231197 105.1867236
 110.2084513  68.8540372 106.1736686 112.8548979  68.5878160 106.7705346
 113.7879652  68.5223722 106.9738221 112.7672192  69.4234427 106.3119879
 115.4836996  67.9044030 103.7309294 115.4050627  67.5703894 104.6245051
 116.3046663  68.3965798 103.7300766 110.0198518  59.6401823 102.9812816
 110.9657623  59.5108031 103.0501234 109.6412763  58.9016485 103.4582244
 108.2041435  57.5651799 102.9167701 107.2972891  57.2684912 102.9930415
 108.4817416  57.2681617 102.0501988  99.1219376  58.8858162 113.3666748
  98.8022160  58.0323471 113.0741122  98.5752804  59.1006741 114.1224715
 109.8203501  52.1088689 109.0711943 109.0104229  51.7635774 109.4467189
 110.5087918  51.7996232 109.6599554 111.7494049  51.1866736 110.6936239
 112.3025088  51.6062189 111.3526262 111.9864136  50.2602484 110.7359195
 106.9740220  54.4238734 103.0579681 107.8359384  54.7493633 103.3175498
 107.1590564  53.6370230 102.5452746  98.9907636  62.5061074 115.3359869
  98.2971107  62.0915027 114.8229824  99.7380627  62.5481610 114.7393288
 115.1272856  53.2967261 110.2014904 114.5471525  53.9552065 109.8192956
 114.8608789  52.4744605 109.7902321 100.9044378  62.4379328 113.2125884
 100.8815066  62.5367015 112.2607767 101.2145015  63.2844478 113.5343050
 113.9097734  55.4567351 109.2571252 113.0223589  55.7417002 109.0391447
 114.3251723  55.2961114 108.4098529 113.0540948  65.2212026 103.3519272
 113.7576798  65.4262028 103.9676927 112.3303597  65.7888788 103.6168355
 113.8838758  60.9721887 109.4721542 113.8273959  61.4290438 108.6329174
 114.4367100  60.2112572 109.2944385 117.6943564  56.7611619 110.2971662
 117.4380498  56.3608255 111.1279869 117.0696432  57.4755413 110.1721801
 114.9627645  65.6594555 105.4017732 115.7973249  65.2275753 105.2195207
 114.8011988  65.4876569 106.3294626 114.6173537  62.1626668 106.7674071
 114.5622341  61.9970940 105.8262515 113.9919593  62.8702701 106.9236261
  99.4066052  57.3994733 120.5935493 100.0524916  56.8893687 121.0822719
  99.1983203  58.1363414 121.1678919 107.9269663  51.6634777 106.3459390
 107.9148333  52.6076617 106.5027660 108.8193085  51.4804923 106.0518851
 116.4241500  72.1132102 105.9152684 115.5878813  72.4506789 106.2361959
 116.2846270  71.9781082 104.9779821 116.2979881  71.9579330 103.1150591
 115.4209347  71.8368130 102.7512838 116.7737634  71.1665408 102.8629480
 113.9998349  72.8978332 106.6732247 113.3067594  72.9722687 106.0172283
 113.7550101  72.1338676 107.1953764 119.0435190  72.8943717 102.9167701
 118.1366645  72.5976829 102.9930415 119.3211171  72.5973535 102.0501988
 117.8133974  69.7530652 103.0579681 118.6753138  70.0785550 103.3175498
 117.9984318  68.9662148 102.5452746 118.7663417  66.9926695 106.3459390
 118.7542087  67.9368535 106.5027660 119.6586839  66.8096840 106.0518851
  74.1864319   2.2063785  97.0265891  74.1088349   3.1571611  97.1054371
  73.5825962   1.8609658  97.6840817  71.8251149   4.9549179 101.1714093
  72.0647747   5.5867704 101.8493111  70.9820345   4.6037219 101.4579452
  72.2995981   0.9797182  98.5012871  71.6306356   1.4643309  98.0176911
  72.1608850   1.2266402  99.4156250  76.4401249   3.0140925 105.0995530
  76.9919557   3.1772547 105.8644615  76.7807443   3.6045363 104.4275555
  69.4000723   1.0561472 101.0688003  69.2655190   0.2961873 100.5026001
  68.9832785   1.7802372 100.6016792  72.5569848   1.9530789 101.2806446
  72.4402233   2.8976221 101.1785136  71.7362295   1.6504350 101.6692245
  73.5824363   2.6059051 104.4962374  74.4851609   2.6382661 104.8128869
  73.3561733   1.6759502 104.5108710  87.8820364   7.1478004 102.1579740
  87.5438876   7.0319068 101.2700275  88.7510133   6.7469169 102.1380746
  83.7407180   9.0013480  98.1476631  83.1772045   8.9103417  97.3792919
  83.6259575   8.1813385  98.6279123  81.2871612  10.4964672 100.9860851
  82.0792904  10.1555496 100.5707151  81.5268262  10.6059647 101.9063005
  89.3206739  12.6684448  93.4591096  88.6694718  13.2538528  93.0725110
  90.1151102  13.1990643  93.5186133  83.2462366   9.7573585  93.8578230
  84.0193242   9.2102572  93.7191106  83.5987765  10.6217834  94.0692692
  85.0847408  11.0849967 107.0645129  84.7937274  11.9895598 106.9491796
  85.7204393  11.1266495 107.7789199  86.0103615   8.4626816 103.6546489
  86.6067188   8.2382838 102.9403452  86.0678587   7.7211561 104.2571937
  90.7982004  10.3574880  93.9960080  90.1627837  10.4309506  94.7080985
  90.4679410  10.9468479  93.3179159  85.3024932   7.8194357  93.6921055
  85.1861191   7.1439260  94.3602139  85.4127192   7.3326731  92.8753208
  87.6456473   7.2804504  97.3967744  87.2814681   6.7535125  98.1080666
  88.5023589   6.8902973  97.2234230  90.0437294  10.7711383 104.0594923
  89.7438017  11.6736422 103.9510730  89.6988353  10.5043566 104.9116076
  83.4949775   7.2225180 100.0931628  82.5700271   7.0901394 100.3009319
  83.7434188   8.0019399 100.5901570  80.8558586   6.8658453 100.9275417
  80.9850967   7.1192932 101.8414828  80.1756037   7.4586161 100.6080072
  85.0258073  17.5355703  97.0265891  84.9482103  18.4863528  97.1054371
  84.4219717  17.1901576  97.6840817  91.5705830  10.2199353 101.5969675
  90.9414692  10.3845067 100.8945743  91.1831492  10.6340963 102.3680639
  95.4495062  11.1553791  98.9514039  94.7646100  11.5352692  98.4011072
  95.5338911  11.7649117  99.6845987  87.1233792   9.9573761  98.8619760
  87.5872137  10.2361464  98.0724383  86.8590590   9.0557206  98.6792851
  84.0157873   9.5045243 101.7999523  84.5859230   9.9332511 101.1617008
  84.6065984   9.2227827 102.4983709  79.8028012   4.3380466 100.9726459
  79.0127066   4.5937995 100.4966570  80.2939259   5.1528804 101.0778499
  81.7542757   4.7025045  97.9309936  80.9573920   4.8143740  98.4493431
  81.5268349   5.0411698  97.0650826  87.5848425  11.2269749 105.8792450
  87.6492857  11.6890156 106.7150622  86.8759348  10.5967113 106.0074760
  78.0865715   4.5910957 103.4041450  78.3373753   5.4757966 103.6699026
  78.6225263   4.4115558 102.6316542  87.2996442  12.8937856  95.7471431
  87.1642117  13.7389392  96.1756278  87.8406255  13.0957134  94.9837364
  80.7525840  10.4113294  96.3199356  81.2650360  11.2056544  96.4704920
  81.4048552   9.7139585  96.2532957  82.5620724  13.5279050  98.4022109
  82.7387353  14.4497015  98.2143093  83.3577558  13.2137470  98.8316489
  81.8473081   5.5743682 108.2784272  81.7326596   4.6728939 108.5791371
  80.9917599   5.8207379 107.9269089  83.6852040  15.0457224 104.4032451
  84.2359465  14.9174288 103.6309445  82.8463516  15.3452113 104.0527344
  87.4819211  11.3108352 108.7476682  88.0147548  10.5496640 108.5175990
  86.9533292  11.0182004 109.4900837  78.7174756   8.7401948  97.0958926
  79.5549978   9.1498957  96.8792634  78.8953024   7.8001391  97.0659120
  88.8471924  10.4394344  96.2595494  88.3193285   9.7047104  95.9468732
  88.3459426  11.2169021  96.0135463  93.8264770   8.6343365 101.3762541
  93.1688444   9.3242626 101.4642669  94.6305169   9.0239797 101.7196527
  86.9924524   8.2574555  89.2630467  86.0851585   8.0263808  89.4621616
  87.4895556   7.4612174  89.4504449  89.8992603  16.9672062  92.1827154
  89.2254301  17.2703759  92.7912111  90.2858425  17.7701142  91.8332611
  88.1712757   8.3587150  93.7854457  87.2623976   8.0746182  93.8826927
  88.2007841   8.7786228  92.9257764  93.4032025  11.9693739  97.5545625
  92.9494352  11.1284649  97.6110815  92.7725991  12.6055137  97.8920405
  91.8464964  13.8070236  98.4895443  92.1387938  14.3675293  97.7707809
  92.3563584  14.0998797  99.2448602  78.7400928   6.0792664  97.7669660
  78.5425327   5.4862024  97.0420726  78.1847592   5.7744874  98.4845598
  87.8688845   9.8995893  91.1242536  87.4308275   9.1831752  90.6648173
  88.6099286  10.1272008  90.5627627  86.8098589  14.5850587  99.5788896
  86.7674768  14.8111433  98.6497428  87.7261288  14.3513961  99.7274698
  84.9264390  11.4613616  99.3750859  85.7204988  10.9663936  99.1733434
  84.2156082  10.9331479  99.0118565  89.7459234  13.8431711 103.7263227
  89.7996257  14.4122648 104.4940943  88.8774016  14.0133596 103.3617264
  81.2347153   5.6056698  95.4510612  80.3044741   5.5441153  95.6680574
  81.3304625   5.0832650  94.6547253  88.7047334   8.0091973 105.2850159
  89.6339394   8.1603133 105.1119126  88.2838364   8.0975994 104.4298805
  87.5035666  12.0342638 103.0548696  87.3646751  11.6661422 103.9274634
  86.7150262  12.5490277 102.8832654  88.0983818  17.1351734  94.3974233
  88.2735573  16.6639778  95.2119855  87.4116606  17.7617501  94.6255493
  89.0540881  11.4124241 100.4437534  88.7190714  11.3725011 101.3395184
  88.5544827  10.7468956  99.9707944  83.0285125   6.8191871 105.9690115
  82.8904923   6.0872109 106.5701654  83.9390048   6.7300771 105.6874303
  91.9900073   8.7580275  90.7174594  91.3729243   8.0327103  90.6207646
  91.5216561   9.5189635  90.3741668  85.6567426   6.5311830 105.4573795
  86.3667044   5.8905022 105.4160413  85.6136734   6.7824725 106.3799976
  82.6644903  20.2841097 101.1714093  82.9041501  20.9159621 101.8493111
  81.8214100  19.9329137 101.4579452  75.3000759   7.7642859  99.9337405
  75.9871798   7.4504589  99.3458420  75.1448887   8.6684224  99.6604656
  87.1772765  16.0920220 103.5755597  87.1042936  16.8975191 104.0874901
  86.7350158  16.2912185 102.7503618  86.9662545  15.3291990  97.0858418
  86.1830066  15.8713670  97.1796643  87.6655290  15.8465969  97.4852660
  89.6371448  15.9907054 105.7313756  90.3499421  16.6254518 105.6589657
  89.1461477  16.0870920 104.9153757  91.3588975   9.8958306  97.3031047
  90.4245254  10.0159769  97.1335752  91.5365644   8.9930773  97.0391057
  84.6883362  13.7401497 106.5519326  85.3892821  14.3737980 106.7048721
  84.2178477  14.0816229 105.7914966  92.8137758  12.0819447  94.8367233
  93.0897602  11.9676041  95.7461107  91.9442257  11.6836932  94.7979406
  89.4491822  16.3305798  98.4800047  89.6314216  15.5127454  98.9427799
  90.2724808  16.5473490  98.0424937  89.7833987  15.2573983  95.7415095
  90.3121754  14.7466437  95.1285258  90.0462207  14.9416513  96.6060628
  80.2851080  13.2737852 103.4850429  80.8704517  12.5281540 103.6178333
  80.0875918  13.5841809 104.3687093  83.1389735  16.3089099  98.5012871
  82.4700111  16.7935227  98.0176911  83.0002605  16.5558320  99.4156250
  74.8768735   5.8443452 102.2054872  74.9152834   5.3107043 102.9991990
  74.3709028   5.3178658 101.5865849  87.2795004  18.3432843 105.0995530
  87.8313312  18.5064464 105.8644615  87.6201197  18.9337281 104.4275555
  78.5077312   4.5707554  95.2808804  78.8030753   3.6618233  95.2275857
  77.6065348   4.5495294  94.9589806  90.4163391  16.2914819 102.0859212
  90.2914531  15.4904558 101.5770157  91.0742482  16.7861012 101.5973182
  92.4798299  14.0923839 103.7138762  91.5328635  13.9729190 103.6417089
  92.8281073  13.2046337 103.7965023  89.4844733  13.8876555  99.9143114
  89.3369695  12.9593262 100.0950684  90.3098226  13.9096646  99.4300189
  93.0878855  14.7105114 101.0007987  94.0125402  14.5047975 100.8632438
  92.9194158  14.4621515 101.9097328  92.8774171  15.2290781  96.3570078
  93.0511048  14.6637203  95.6043931  93.3703062  16.0291676  96.1749568
  78.6951131   7.2405450 104.4233637  78.1504599   8.0165258 104.5553912
  79.5730481   7.5876255 104.2652759  93.8649343  14.5457545  93.4566977
  94.5600248  15.1664238  93.6754291  94.2072493  13.6952897  93.7319355
  79.4817153   6.3675346 107.3163794  78.7398889   6.5157982 107.9028425
  79.1609897   6.6283612 106.4530544  95.7640766  11.9957251  94.9854307
  96.2892091  12.3344524  94.2603628  95.6763119  11.0604266  94.8017442
  87.4260815  15.9091325 107.1144184  87.7347942  15.6640471 107.9866884
  88.2236297  16.1137963 106.6263054  87.4481427  18.0629234  99.3449561
  87.0086418  17.5705613 100.0382417  88.1989544  17.5202202  99.1041636
  79.9273766  14.2540775  99.3474189  80.7531786  13.9544547  98.9672832
  79.5767818  13.4848398  99.7963977  84.8955299  13.6067243 101.4171862
  84.2735309  12.9437948 101.1174090  85.5660166  13.6328375 100.7345510
  78.1282371  12.1727102 100.3063122  77.2914280  11.7449276 100.1247124
  78.1006017  12.3659545 101.2433914  84.4568806  12.1571167  94.8930323
  84.6056927  12.8406631  94.2396996  85.2635250  12.1376257  95.4079779
  82.2121439   8.1836344  95.8991392  81.9667481   7.2798674  96.0971602
  82.3817354   8.1853495  94.9570870  87.9564212  14.6519297  92.3642070
  87.3838179  15.2709484  91.9112542  88.5297005  15.2018659  92.8981992
  91.1761472  14.9356447  93.4950653  92.1092145  14.8702009  93.6983528
  91.0884684  15.7712714  93.0365185  93.8049488  14.2522318  90.4554600
  93.7263120  13.9182181  91.3490358  94.6259155  14.7444085  90.4546072
  77.4431868   5.2336450 100.0912054  77.1234652   4.3801758  99.7986428
  76.8965296   5.4485028 100.8470022  81.2211775   7.9498891 103.8081561
  81.4397785   8.8815998 103.8269595  81.6337549   7.5906865 104.5936365
  77.3120128   8.8539361 102.0605176  76.6183599   8.4393314 101.5475130
  78.0593119   8.8959898 101.4638595  79.2256870   8.7857615  99.9371191
  79.2027558   8.8845302  98.9853074  79.5357507   9.6322766 100.2588357
  81.8844248  10.8433770 104.0517805  82.8387502  10.8117712 103.9847737
  81.6856772  10.3824394 104.8668031  82.4743630   9.4134886 106.6188603
  83.2936519   9.9078965 106.6423440  82.7480438   8.4966854 106.5906170
  80.2394477  16.3853389 101.0688003  80.1048945  15.6253790 100.5026001
  79.8226539  17.1094289 100.6016792  91.3753440  11.5690313  90.0764578
  92.0789290  11.7740315  90.6922234  90.6516089  12.1367075  90.3413662
  83.3963603  17.2822706 101.2806446  83.2795987  18.2268139 101.1785136
  82.5756049  16.9796268 101.6692245  93.2840137  12.0072842  92.1263039
  94.1185741  11.5754041  91.9440513  93.1224480  11.8354856  93.0539933
  92.9386030   8.5104955  93.4919378  92.8834833   8.3449227  92.5507822
  92.3132085   9.2180988  93.6481568  77.7278545   3.7473020 107.3180800
  78.3737408   3.2371974 107.8068025  77.5195696   4.4841701 107.8924225
  84.4218117  17.9350968 104.4962374  85.3245364  17.9674579 104.8128869
  84.1955487  17.0051419 104.5108710  86.1771719  16.6881955 101.1572453
  85.2267350  16.6883816 101.0436825  86.4804205  15.9414689 100.6408488
 101.9124413  22.5242493 102.2218215 102.5502822  22.4049241 101.5181555
 101.7945255  23.4723337 102.2806167  98.7214119  22.4769921 102.1579740
  98.3832630  22.3610986 101.2700275  99.5903887  22.0761086 102.1380746
  94.5800934  24.3305398  98.1476631  94.0165800  24.2395335  97.3792919
  94.4653330  23.5105302  98.6279123  92.1265366  25.8256589 100.9860851
  92.9186658  25.4847414 100.5707151  92.3662017  25.9351564 101.9063005
 100.1600493  27.9976365  93.4591096  99.5088473  28.5830446  93.0725110
 100.9544856  28.5282560  93.5186133  94.0856120  25.0865503  93.8578230
  94.8586996  24.5394490  93.7191106  94.4381519  25.9509752  94.0692692
  95.9241163  26.4141885 107.0645129  95.6331029  27.3187516 106.9491796
  96.5598147  26.4558413 107.7789199  96.8497370  23.7918733 103.6546489
  97.4460942  23.5674756 102.9403452  96.9072341  23.0503479 104.2571937
  96.4222398  21.2458169  91.4896680  96.6747919  20.7239690  90.7280143
  95.4846957  21.0824314  91.5923364 101.4665681  20.2493947  99.2971423
 102.2528770  19.8313370  98.9461840 101.7304385  21.1540039  99.4653072
 101.6375758  25.6866797  93.9960080 101.0021591  25.7601424  94.7080985
 101.3073165  26.2760396  93.3179159  96.1418687  23.1486275  93.6921055
  96.0254945  22.4731178  94.3602139  96.2520947  22.6618649  92.8753208
  98.4850228  22.6096422  97.3967744  98.1208435  22.0827043  98.1080666
  99.3417344  22.2194891  97.2234230  98.1255715  17.6386322  92.3929093
  98.2930117  18.5066558  92.7599564  97.9352884  17.8013603  91.4690382
 100.8831048  26.1003300 104.0594923 100.5831771  27.0028339 103.9510730
 100.5382108  25.8335484 104.9116076  94.3343529  22.5517097 100.0931628
  93.4094026  22.4193311 100.3009319  94.5827943  23.3311317 100.5901570
  98.1044936  20.0943979  93.3775760  97.9844561  20.5401030  94.2161240
  97.4097524  20.4429297  92.8189298  91.6952341  22.1950371 100.9275417
  91.8244722  22.4484850 101.8414828  91.0149792  22.7878079 100.6080072
  95.8651828  32.8647621  97.0265891  95.7875858  33.8155446  97.1054371
  95.2613471  32.5193493  97.6840817 103.8030002  20.5665452  94.2056094
 104.7147858  20.7992839  94.0303791 103.2939649  21.1502496  93.6431172
 102.4099584  25.5491271 101.5969675 101.7808447  25.7136985 100.8945743
 102.0225246  25.9632880 102.3680639 106.2888816  26.4845709  98.9514039
 105.6039854  26.8644610  98.4011072 106.3732665  27.0941035  99.6845987
  97.9627546  25.2865679  98.8619760  98.4265892  25.5653382  98.0724383
  97.6984344  24.3849123  98.6792851  94.8551627  24.8337160 101.7999523
  95.4252984  25.2624429 101.1617008  95.4459739  24.5519745 102.4983709
  96.8996432  21.4088831  95.6709325  97.6020475  21.8609875  96.1383252
  96.5677061  20.7672650  96.2989218  90.6421766  19.6672384 100.9726459
  89.8520820  19.9229912 100.4966570  91.1333013  20.4820722 101.0778499
  92.5936511  20.0316963  97.9309936  91.7967675  20.1435657  98.4493431
  92.3662104  20.3703615  97.0650826  98.4242179  26.5561666 105.8792450
  98.4886612  27.0182073 106.7150622  97.7153103  25.9259031 106.0074760
  88.9259469  19.9202874 103.4041450  89.1767507  20.8049884 103.6699026
  89.4619017  19.7407476 102.6316542  98.1390197  28.2229774  95.7471431
  98.0035872  29.0681309  96.1756278  98.6800009  28.4249051  94.9837364
  91.5919594  25.7405212  96.3199356  92.1044115  26.5348462  96.4704920
  92.2442307  25.0431502  96.2532957  93.4014479  28.8570968  98.4022109
  93.5781107  29.7788933  98.2143093  94.1971312  28.5429387  98.8316489
  92.6866835  20.9035600 108.2784272  92.5720351  20.0020857 108.5791371
  91.8311353  21.1499297 107.9269089  94.5245794  30.3749142 104.4032451
  95.0753219  30.2466205 103.6309445  93.6857270  30.6744031 104.0527344
  98.3212965  26.6400270 108.7476682  98.8541302  25.8788558 108.5175990
  97.7927046  26.3473921 109.4900837  89.5568511  24.0693866  97.0958926
  90.3943733  24.4790874  96.8792634  89.7346779  23.1293308  97.0659120
 101.4532943  21.7368947  92.7842759 100.9379566  22.5073551  93.0231147
 101.1810251  21.0634083  93.4075821  99.0380054  16.5818647  97.8427998
  98.1821650  16.1925498  97.6633636  99.4507006  16.6610608  96.9827783
  96.8122087  14.2003720 101.2485739  97.6775083  14.0046529 100.8891629
  96.8799595  13.9714072 102.1755096 106.4267217  24.4901301  94.7195933
 105.6496660  24.1512461  94.2751095 107.1058698  24.4953925  94.0450898
 101.2419246  19.6096039  94.6102540 100.9369382  19.9242188  95.4612684
 102.1949688  19.6877459  94.6529873  99.6865678  25.7686262  96.2595494
  99.1587040  25.0339022  95.9468732  99.1853181  26.5460938  96.0135463
 104.6658524  23.9635283 101.3762541 104.0082199  24.6534544 101.4642669
 105.4698923  24.3531715 101.7196527  94.4184406  16.4305928  98.6202106
  94.9928158  16.2081110  97.8875299  95.0055388  16.4994623  99.3730707
 103.4763983  22.3179655  99.4266482 103.9895865  22.9509647  99.9288192
 104.1265207  21.7180851  99.0609842  94.7453993  18.4610389  92.6397991
  93.9091305  18.7985076  92.9607266  94.6058762  18.3259369  91.7025128
  96.7207073  13.3047177  97.3477175  96.0671486  12.9896194  96.7233790
  96.6787548  12.6822918  98.0736998  97.8318278  23.5866472  89.2630467
  96.9245340  23.3555726  89.4621616  98.3289310  22.7904092  89.4504449
 100.7386357  32.2963980  92.1827154 100.0648056  32.5995676  92.7912111
 101.1252179  33.0993060  91.8332611  99.9544814  19.7929111 101.6724823
  99.0367375  20.0144058 101.5146511 100.3704957  19.8675421 100.8136530
 100.7379861  21.1920527  96.8027503 101.4851680  21.7041924  96.4934625
 101.0071451  20.8704579  97.6631897  99.0106512  23.6879067  93.7854457
  98.1017731  23.4038100  93.8826927  99.0401595  24.1078146  92.9257764
 104.2425779  27.2985657  97.5545625 103.7888106  26.4576567  97.6110815
 103.6119746  27.9347055  97.8920405 103.1858699  18.2277643  98.7846292
 102.4481455  17.7155029  99.1156535 103.4385472  17.7878024  97.9729569
 102.6858718  29.1362153  98.4895443 102.9781693  29.6967211  97.7707809
 103.1957339  29.4290714  99.2448602  89.5794682  21.4084581  97.7669660
  89.3819082  20.8153942  97.0420726  89.0241346  21.1036792  98.4845598
  97.5591406  21.3007688  99.8864253  97.6140015  20.3481524  99.8106729
  96.7482608  21.4567127 100.3705551  98.7082599  25.2287811  91.1242536
  98.2702029  24.5123670  90.6648173  99.4493040  25.4563926  90.5627627
  95.4983766  19.9184748  97.6454632  94.6851631  20.2178918  98.0519824
  95.9942760  19.5240436  98.3629114  97.6492344  29.9142505  99.5788896
  97.6068522  30.1403351  98.6497428  98.5655042  29.6805879  99.7274698
 106.8255714  23.5045008  97.1818855 106.6873613  23.6946604  96.2540044
 106.4691933  24.2664391  97.6386906  94.9897840  17.4903103 103.2615867
  95.6297220  17.3491862 102.5638830  94.1575371  17.2037617 102.8854469
  95.7658144  26.7905534  99.3750859  96.5598743  26.2955854  99.1733434
  95.0549837  26.2623397  99.0118565 100.5852989  29.1723629 103.7263227
 100.6390011  29.7414565 104.4940943  99.7167770  29.3425514 103.3617264
  92.0740908  20.9348615  95.4510612  91.1438496  20.8733071  95.6680574
  92.1698380  20.4124568  94.6547253  91.9926457  17.4603428  98.0388853
  92.2533274  18.3748761  97.9298014  92.8143629  16.9927871  98.1885466
  93.4651382  18.8741185 105.2087678  94.1374436  18.6658547 104.5600327
  92.6381169  18.6763271 104.7692910  99.5441089  23.3383891 105.2850159
 100.4733149  23.4895051 105.1119126  99.1232119  23.4267912 104.4298805
  98.3429420  27.3634556 103.0548696  98.2040506  26.9953340 103.9274634
  97.5544017  27.8782195 102.8832654  98.9377572  32.4643652  94.3974233
  99.1129328  31.9931695  95.2119855  98.2510360  33.0909418  94.6255493
  99.8934635  26.7416158 100.4437534  99.5584468  26.7016928 101.3395184
  99.3938581  26.0760874  99.9707944  93.8678879  22.1483788 105.9690115
  93.7298677  21.4164027 106.5701654  94.7783803  22.0592688 105.6874303
 102.8293827  24.0872193  90.7174594 102.2122998  23.3619021  90.6207646
 102.3610316  24.8481553  90.3741668  96.4961180  21.8603748 105.4573795
  97.2060799  21.2196940 105.4160413  96.4530488  22.1116642 106.3799976
  93.5038658  35.6133015 101.1714093  93.7435256  36.2451539 101.8493111
  92.6607854  35.2621055 101.4579452  94.6192373  18.3057617  89.8395898
  93.7421839  18.1846418  89.4758145  95.0950126  17.5143695  89.5874787
  86.1394513  23.0934777  99.9337405  86.8265553  22.7796507  99.3458420
  85.9842642  23.9976141  99.6604656  90.9429235  17.9824973 104.3622429
  90.8587424  17.3750643 103.6272839  90.1211942  18.4733991 104.3631925
  98.0166519  31.4212137 103.5755597  97.9436691  32.2267109 104.0874901
  97.5743913  31.6204103 102.7503618  97.8056299  30.6583907  97.0858418
  97.0223821  31.2005587  97.1796643  98.5049044  31.1757887  97.4852660
 101.1152949  16.4678537  99.7292624 101.6121649  15.7148499  99.4093694
 100.3439931  16.5042853  99.1635833 100.4765203  31.3198971 105.7313756
 101.1893175  31.9546436 105.6589657  99.9855232  31.4162837 104.9153757
 102.1982730  25.2250224  97.3031047 101.2639009  25.3451686  97.1335752
 102.3759398  24.3222691  97.0391057  97.6987918  18.6095920  99.4564308
  97.3285705  18.0566960 100.1445214  98.1947010  18.0054053  98.9039308
 105.5855281  21.0667543  97.8381081 106.0515733  21.8995535  97.7641384
 106.0362782  20.6012525  98.5426340  95.5277116  29.0693415 106.5519326
  96.2286576  29.7029898 106.7048721  95.0572231  29.4108146 105.7914966
 103.6531512  27.4111364  94.8367233 103.9291356  27.2967959  95.7461107
 102.7836011  27.0128849  94.7979406 100.2885576  31.6597715  98.4800047
 100.4707971  30.8419371  98.9427799 101.1118562  31.8765408  98.0424937
 100.6227742  30.5865900  95.7415095 101.1515508  30.0758355  95.1285258
 100.8855961  30.2708431  96.6060628  91.1244835  28.6029770 103.4850429
  91.7098271  27.8573458 103.6178333  90.9269673  28.9133726 104.3687093
  93.9783490  31.6381017  98.5012871  93.3093865  32.1227145  98.0176911
  93.8396359  31.8850238  99.4156250  85.7162489  21.1735370 102.2054872
  85.7546589  20.6398961 102.9991990  85.2102782  20.6470575 101.5865849
  98.1188758  33.6724761 105.0995530  98.6707066  33.8356382 105.8644615
  98.4594952  34.2629198 104.4275555  93.0953252  16.0199910 105.7017414
  93.1594578  16.8814741 105.2894812  93.0320372  15.4073912 104.9689773
  89.3471067  19.8999472  95.2808804  89.6424508  18.9910151  95.2275857
  88.4459103  19.8787212  94.9589806 101.2557146  31.6206736 102.0859212
 101.1308285  30.8196476 101.5770157 101.9136237  32.1152930 101.5973182
  92.8765314  17.9755469 101.2636352  92.1551900  18.5891436 101.1243825
  93.6658570  18.5113234 101.1852998 103.3192054  29.4215756 103.7138762
 102.3722390  29.3021107 103.6417089 103.6674827  28.5338254 103.7965023
  91.0758908  17.5813570  95.4048129  90.7471615  16.7010949  95.2223235
  91.4298279  17.5261238  96.2924518 100.3238487  29.2168472  99.9143114
 100.1763450  28.2885180 100.0950684 101.1491981  29.2388563  99.4300189
  94.1900732  17.8686540  95.7723606  94.5296804  18.3972461  95.0502215
  94.6372852  18.2066946  96.5482173 103.9272609  30.0397031 101.0007987
 104.8519157  29.8339893 100.8632438 103.7587913  29.7913432 101.9097328
  96.1768879  16.3661161  93.9716899  96.8977241  16.7442414  93.4680616
  95.5534183  17.0850038  94.0751877 100.3200002  17.0706310  94.9075231
 100.5363616  17.9530948  94.6064060  99.8394069  16.6792524  94.1780873
  95.0599223  20.0292023 101.4845976  94.9143804  20.3432326 102.3770258
  94.5824427  20.6476924 100.9316875  96.9195606  17.0194571 101.5326866
  96.9057175  16.1235665 101.1959164  97.6368034  17.0265235 102.1665152
 103.7167925  30.5582699  96.3570078 103.8904803  29.9929121  95.6043931
 104.2096817  31.3583594  96.1749568  89.5344885  22.5697368 104.4233637
  88.9898353  23.3457176 104.5553912  90.4124235  22.9168172 104.2652759
  96.3232502  15.9008952  96.8014436  96.4448413  14.9725598  97.0005323
  96.0334544  15.9147638  95.8892751  99.1923692  13.5863862  99.9381156
  99.2145389  13.6503195  98.9833135  99.6091751  12.7468371 100.1321662
 109.5707317  23.3219122  97.9760378 110.0138463  22.5726447  97.5779501
 108.6933827  23.3129258  97.5934110 104.7043098  29.8749463  93.4566977
 105.3994002  30.4956156  93.6754291 105.0466248  29.0244814  93.7319355
  90.3210907  21.6967264 107.3163794  89.5792643  21.8449899 107.9028425
  90.0003651  21.9575530 106.4530544 106.6034521  27.3249169  94.9854307
 107.1285845  27.6636441  94.2603628 106.5156874  26.3896184  94.8017442
  98.2654570  31.2383242 107.1144184  98.5741696  30.9932389 107.9866884
  99.0630052  31.4429881 106.6263054  98.2875182  33.3921152  99.3449561
  97.8480172  32.8997531 100.0382417  99.0383299  32.8494120  99.1041636
  90.7667521  29.5832693  99.3474189  91.5925541  29.2836465  98.9672832
  90.4161573  28.8140315  99.7963977  95.7349054  28.9359161 101.4171862
  95.1129063  28.2729866 101.1174090  96.4053921  28.9620293 100.7345510
  88.9676126  27.5019019 100.3063122  88.1308034  27.0741194 100.1247124
  88.9399771  27.6951463 101.2433914  95.2962561  27.4863084  94.8930323
  95.4450681  28.1698549  94.2396996  96.1029004  27.4668174  95.4079779
  93.0515194  23.5128262  95.8991392  92.8061236  22.6090592  96.0971602
  93.2211108  23.5145412  94.9570870  92.3210841  19.2456620  93.3977553
  91.6280086  19.3200975  92.7417589  92.0762593  18.4816963  93.9199070
  98.7957966  29.9811215  92.3642070  98.2231933  30.6001402  91.9112542
  99.3690760  30.5310576  92.8981992 102.0155226  30.2648365  93.4950653
 102.9485899  30.1993927  93.6983528 101.9278439  31.1004632  93.0365185
 104.6443243  29.5814235  90.4554600 104.5656874  29.2474099  91.3490358
 105.4652910  30.0736003  90.4546072  99.1804765  21.3172028  89.7058123
 100.1263870  21.1878236  89.7746541  98.8019010  20.5786689  90.1827551
  97.3647682  19.2422004  89.6413008  96.4579137  18.9455117  89.7175722
  97.6423663  18.9451822  88.7747294  88.2825622  20.5628367 100.0912054
  87.9628407  19.7093676  99.7986428  87.7359051  20.7776945 100.8470022
  92.0605530  23.2790808 103.8081561  92.2791540  24.2107916 103.8269595
  92.4731304  22.9198783 104.5936365  98.9809748  13.7858894  95.7957249
  98.1710476  13.4405979  96.1712495  99.6694165  13.4766437  96.3844861
 100.9100296  12.8636940  97.4181546 101.4631335  13.2832394  98.0771569
 101.1470382  11.9372689  97.4604502  96.1346467  16.1008939  89.7824987
  96.9965631  16.4263837  90.0420805  96.3196811  15.3140435  89.2698053
  88.1513882  24.1831279 102.0605176  87.4577354  23.7685232 101.5475130
  88.8986873  24.2251815 101.4638595 104.2879103  14.9737466  96.9260210
 103.7077772  15.6322270  96.5438263 104.0215036  14.1514810  96.5147628
  90.0650625  24.1149533  99.9371191  90.0421313  24.2137220  98.9853074
  90.3751261  24.9614683 100.2588357  92.7238003  26.1725688 104.0517805
  93.6781256  26.1409630 103.9847737  92.5250526  25.7116311 104.8668031
  93.3137385  24.7426804 106.6188603  94.1330274  25.2370882 106.6423440
  93.5874193  23.8258772 106.5906170 103.0703981  17.1337556  95.9816558
 102.1829836  17.4187207  95.7636753 103.4857970  16.9731319  95.1343835
  91.0788232  31.7145307 101.0688003  90.9442699  30.9545708 100.5026001
  90.6620294  32.4386207 100.6016792 102.2147195  26.8982231  90.0764578
 102.9183045  27.1032233  90.6922234 101.4909843  27.4658993  90.3413662
 103.0445005  22.6492092  96.1966849 102.9880206  23.1060643  95.3574481
 103.5973347  21.8882777  96.0189691 106.8549811  18.4381824  97.0216968
 106.5986745  18.0378459  97.8525176 106.2302679  19.1525618  96.8967107
  94.2357357  32.6114624 101.2806446  94.1189742  33.5560057 101.1785136
  93.4149804  32.3088186 101.6692245 104.1233892  27.3364760  92.1263039
 104.9579496  26.9045958  91.9440513 103.9618235  27.1646774  93.0539933
 103.7779784  23.8396873  93.4919378 103.7228588  23.6741145  92.5507822
 103.1525839  24.5472906  93.6481568  88.5672299  19.0764938 107.3180800
  89.2131163  18.5663892 107.8068025  88.3589450  19.8133619 107.8924225
  97.0875910  13.3404982  93.0704696  97.0754579  14.2846822  93.2272967
  97.9799331  13.1575128  92.7764157  95.2611872  33.2642886 104.4962374
  96.1639118  33.2966496 104.8128869  95.0349242  32.3343337 104.5108710
  97.0165474  32.0173873 101.1572453  96.0661105  32.0175734 101.0436825
  97.3197960  31.2706607 100.6408488 112.7518167  37.8534411 102.2218215
 113.3896577  37.7341158 101.5181555 112.6339010  38.8015255 102.2806167
 109.5607873  37.8061839 102.1579740 109.2226385  37.6902904 101.2700275
 110.4297641  37.4053004 102.1380746 105.4194689  39.6597315  98.1476631
 104.8559554  39.5687252  97.3792919 105.3047084  38.8397220  98.6279123
 102.9659121  41.1548507 100.9860851 103.7580413  40.8139332 100.5707151
 103.2055771  41.2643482 101.9063005 110.9994248  43.3268283  93.4591096
 110.3482227  43.9122364  93.0725110 111.7938611  43.8574478  93.5186133
 104.9249875  40.4157420  93.8578230 105.6980751  39.8686407  93.7191106
 105.2775274  41.2801670  94.0692692 106.7634917  41.7433803 107.0645129
 106.4724783  42.6479433 106.9491796 107.3991902  41.7850330 107.7789199
 107.6891124  39.1210651 103.6546489 108.2854697  38.8966674 102.9403452
 107.7466096  38.3795397 104.2571937 107.2616153  36.5750086  91.4896680
 107.5141673  36.0531608  90.7280143 106.3240712  36.4116232  91.5923364
 112.3059436  35.5785865  99.2971423 113.0922525  35.1605288  98.9461840
 112.5698140  36.4831957  99.4653072 112.4769513  41.0158715  93.9960080
 111.8415346  41.0893342  94.7080985 112.1466919  41.6052314  93.3179159
 106.9812441  38.4778192  93.6921055 106.8648700  37.8023096  94.3602139
 107.0914701  37.9910566  92.8753208 109.3243982  37.9388340  97.3967744
 108.9602190  37.4118960  98.1080666 110.1811098  37.5486809  97.2234230
 108.9649469  32.9678239  92.3929093 109.1323872  33.8358476  92.7599564
 108.7746638  33.1305521  91.4690382 111.7224803  41.4295218 104.0594923
 111.4225526  42.3320257 103.9510730 111.3775862  41.1627401 104.9116076
 105.1737284  37.8809015 100.0931628 104.2487780  37.7485229 100.3009319
 105.4221697  38.6603234 100.5901570 108.9438690  35.4235897  93.3775760
 108.8238315  35.8692947  94.2161240 108.2491279  35.7721214  92.8189298
 102.5346095  37.5242288 100.9275417 102.6638476  37.7776767 101.8414828
 101.8543546  38.1169996 100.6080072 106.7045582  48.1939538  97.0265891
 106.6269612  49.1447364  97.1054371 106.1007226  47.8485411  97.6840817
 114.6423756  35.8957370  94.2056094 115.5541612  36.1284757  94.0303791
 114.1333403  36.4794414  93.6431172 113.2493339  40.8783188 101.5969675
 112.6202201  41.0428902 100.8945743 112.8619001  41.2924798 102.3680639
 117.1282571  41.8137626  98.9514039 116.4433609  42.1936528  98.4011072
 117.2126420  42.4232953  99.6845987 108.8021301  40.6157596  98.8619760
 109.2659646  40.8945299  98.0724383 108.5378099  39.7141041  98.6792851
 105.6945382  40.1629078 101.7999523 106.2646739  40.5916346 101.1617008
 106.2853493  39.8811663 102.4983709 107.7390187  36.7380749  95.6709325
 108.4414230  37.1901792  96.1383252 107.4070815  36.0964568  96.2989218
 101.4815521  34.9964301 100.9726459 100.6914575  35.2521830 100.4966570
 101.9726768  35.8112639 101.0778499 103.4330266  35.3608881  97.9309936
 102.6361429  35.4727575  98.4493431 103.2055858  35.6995533  97.0650826
 109.2635934  41.8853584 105.8792450 109.3280366  42.3473991 106.7150622
 108.5546857  41.2550949 106.0074760  99.7653224  35.2494792 103.4041450
 100.0161262  36.1341802 103.6699026 100.3012772  35.0699393 102.6316542
 108.9783951  43.5521691  95.7471431 108.8429626  44.3973227  96.1756278
 109.5193764  43.7540969  94.9837364 102.4313349  41.0697129  96.3199356
 102.9437869  41.8640380  96.4704920 103.0836061  40.3723420  96.2532957
 104.2408233  44.1862886  98.4022109 104.4174862  45.1080850  98.2143093
 105.0365067  43.8721305  98.8316489 103.5260590  36.2327518 108.2784272
 103.4114105  35.3312775 108.5791371 102.6705108  36.4791214 107.9269089
 105.3639549  45.7041060 104.4032451 105.9146974  45.5758123 103.6309445
 104.5251025  46.0035949 104.0527344 109.1606720  41.9692187 108.7476682
 109.6935057  41.2080476 108.5175990 108.6320801  41.6765839 109.4900837
 100.3962265  39.3985784  97.0958926 101.2337487  39.8082792  96.8792634
 100.5740533  38.4585226  97.0659120 112.2926698  37.0660864  92.7842759
 111.7773321  37.8365469  93.0231147 112.0204006  36.3926001  93.4075821
 109.8773809  31.9110565  97.8427998 109.0215405  31.5217416  97.6633636
 110.2900760  31.9902526  96.9827783 107.6515841  29.5295638 101.2485739
 108.5168838  29.3338447 100.8891629 107.7193350  29.3005990 102.1755096
 117.2660972  39.8193219  94.7195933 116.4890414  39.4804379  94.2751095
 117.9452453  39.8245842  94.0450898 112.0813001  34.9387956  94.6102540
 111.7763136  35.2534106  95.4612684 113.0343443  35.0169376  94.6529873
 110.5259433  41.0978180  96.2595494 109.9980794  40.3630939  95.9468732
 110.0246935  41.8752856  96.0135463 115.5052279  39.2927200 101.3762541
 114.8475953  39.9826462 101.4642669 116.3092678  39.6823632 101.7196527
 105.2578160  31.7597846  98.6202106 105.8321912  31.5373028  97.8875299
 105.8449143  31.8286541  99.3730707 114.3157737  37.6471573  99.4266482
 114.8289619  38.2801565  99.9288192 114.9658961  37.0472768  99.0609842
 105.5847747  33.7902307  92.6397991 104.7485060  34.1276994  92.9607266
 105.4452517  33.6551287  91.7025128 107.5600828  28.6339095  97.3477175
 106.9065240  28.3188112  96.7233790 107.5181302  28.0114835  98.0736998
 108.6712033  38.9158390  89.2630467 107.7639094  38.6847644  89.4621616
 109.1683065  38.1196009  89.4504449 111.5780112  47.6255897  92.1827154
 110.9041810  47.9287594  92.7912111 111.9645934  48.4284978  91.8332611
 110.7938568  35.1221029 101.6724823 109.8761130  35.3435976 101.5146511
 111.2098712  35.1967339 100.8136530 111.5773616  36.5212444  96.8027503
 112.3245435  37.0333841  96.4934625 111.8465206  36.1996497  97.6631897
 109.8500266  39.0170985  93.7854457 108.9411485  38.7330018  93.8826927
 109.8795350  39.4370064  92.9257764 115.0819534  42.6277574  97.5545625
 114.6281861  41.7868484  97.6110815 114.4513500  43.2638973  97.8920405
 114.0252453  33.5569560  98.7846292 113.2875210  33.0446947  99.1156535
 114.2779227  33.1169942  97.9729569 113.5252473  44.4654071  98.4895443
 113.8175447  45.0259128  97.7707809 114.0351093  44.7582632  99.2448602
 100.4188437  36.7376499  97.7669660 100.2212836  36.1445860  97.0420726
  99.8635101  36.4328709  98.4845598 108.3985160  36.6299606  99.8864253
 108.4533770  35.6773442  99.8106729 107.5876362  36.7859045 100.3705551
 109.5476354  40.5579729  91.1242536 109.1095784  39.8415588  90.6648173
 110.2886795  40.7855843  90.5627627 106.3377520  35.2476665  97.6454632
 105.5245386  35.5470836  98.0519824 106.8336514  34.8532354  98.3629114
 108.4886098  45.2434422  99.5788896 108.4462277  45.4695269  98.6497428
 109.4048797  45.0097797  99.7274698 117.6649469  38.8336926  97.1818855
 117.5267367  39.0238522  96.2540044 117.3085688  39.5956308  97.6386906
 105.8291595  32.8195021 103.2615867 106.4690974  32.6783780 102.5638830
 104.9969125  32.5329534 102.8854469 106.6051899  42.1197451  99.3750859
 107.3992497  41.6247771  99.1733434 105.8943591  41.5915314  99.0118565
 111.4246743  44.5015547 103.7263227 111.4783766  45.0706483 104.4940943
 110.5561525  44.6717432 103.3617264 102.9134662  36.2640533  95.4510612
 101.9832250  36.2024988  95.6680574 103.0092134  35.7416486  94.6547253
 102.8320211  32.7895346  98.0388853 103.0927029  33.7040679  97.9298014
 103.6537384  32.3219788  98.1885466 104.3045137  34.2033103 105.2087678
 104.9768190  33.9950465 104.5600327 103.4774923  34.0055189 104.7692910
 110.3834843  38.6675809 105.2850159 111.3126903  38.8186968 105.1119126
 109.9625873  38.7559830 104.4298805 109.1823175  42.6926473 103.0548696
 109.0434260  42.3245258 103.9274634 108.3937771  43.2074113 102.8832654
 109.7771327  47.7935570  94.3974233 109.9523082  47.3223613  95.2119855
 109.0904115  48.4201336  94.6255493 110.7328390  42.0708076 100.4437534
 110.3978223  42.0308846 101.3395184 110.2332336  41.4052792  99.9707944
 104.7072634  37.4775706 105.9690115 104.5692432  36.7455945 106.5701654
 105.6177557  37.3884606 105.6874303 113.6687582  39.4164110  90.7174594
 113.0516752  38.6910938  90.6207646 113.2004070  40.1773471  90.3741668
 107.3354935  37.1895665 105.4573795 108.0454553  36.5488857 105.4160413
 107.2924243  37.4408560 106.3799976 104.3432412  50.9424932 101.1714093
 104.5829010  51.5743457 101.8493111 103.5001609  50.5912972 101.4579452
 105.4586127  33.6349535  89.8395898 104.5815594  33.5138335  89.4758145
 105.9343881  32.8435613  89.5874787  96.9788268  38.4226694  99.9337405
  97.6659307  38.1088424  99.3458420  96.8236396  39.3268059  99.6604656
 101.7822990  33.3116891 104.3622429 101.6981178  32.7042560 103.6272839
 100.9605696  33.8025909 104.3631925 108.8560274  46.7504055 103.5755597
 108.7830445  47.5559026 104.0874901 108.4137667  46.9496021 102.7503618
 108.6450054  45.9875825  97.0858418 107.8617575  46.5297505  97.1796643
 109.3442799  46.5049805  97.4852660 111.9546704  31.7970454  99.7292624
 112.4515403  31.0440417  99.4093694 111.1833685  31.8334771  99.1635833
 111.3158957  46.6490889 105.7313756 112.0286930  47.2838354 105.6589657
 110.8248986  46.7454755 104.9153757 113.0376484  40.5542142  97.3031047
 112.1032763  40.6743604  97.1335752 113.2153153  39.6514608  97.0391057
 108.5381672  33.9387837  99.4564308 108.1679460  33.3858878 100.1445214
 109.0340765  33.3345971  98.9039308 116.4249036  36.3959461  97.8381081
 116.8909488  37.2287452  97.7641384 116.8756536  35.9304442  98.5426340
 106.3670871  44.3985332 106.5519326 107.0680330  45.0321815 106.7048721
 105.8965986  44.7400064 105.7914966 114.4925267  42.7403282  94.8367233
 114.7685111  42.6259877  95.7461107 113.6229766  42.3420767  94.7979406
 111.1279331  46.9889633  98.4800047 111.3101725  46.1711289  98.9427799
 111.9512317  47.2057325  98.0424937 111.4621496  45.9157818  95.7415095
 111.9909263  45.4050273  95.1285258 111.7249716  45.6000348  96.6060628
 101.9638589  43.9321687 103.4850429 102.5492026  43.1865375 103.6178333
 101.7663427  44.2425644 104.3687093 104.8177244  46.9672935  98.5012871
 104.1487619  47.4519062  98.0176911 104.6790114  47.2142155  99.4156250
  96.5556244  36.5027288 102.2054872  96.5940343  35.9690878 102.9991990
  96.0496537  35.9762493 101.5865849 108.9582513  49.0016678 105.0995530
 109.5100821  49.1648300 105.8644615 109.2988706  49.5921116 104.4275555
 103.9347006  31.3491828 105.7017414 103.9988333  32.2106659 105.2894812
 103.8714126  30.7365830 104.9689773 100.1864821  35.2291390  95.2808804
 100.4818262  34.3202068  95.2275857  99.2852857  35.2079129  94.9589806
 112.0950900  46.9498654 102.0859212 111.9702040  46.1488394 101.5770157
 112.7529991  47.4444847 101.5973182 103.7159068  33.3047386 101.2636352
 102.9945654  33.9183354 101.1243825 104.5052324  33.8405151 101.1852998
 114.1585808  44.7507674 103.7138762 113.2116144  44.6313025 103.6417089
 114.5068582  43.8630172 103.7965023 101.9152663  32.9105487  95.4048129
 101.5865369  32.0302866  95.2223235 102.2692034  32.8553156  96.2924518
 111.1632242  44.5460390  99.9143114 111.0157204  43.6177098 100.0950684
 111.9885735  44.5680481  99.4300189 105.0294486  33.1978457  95.7723606
 105.3690559  33.7264379  95.0502215 105.4766607  33.5358863  96.5482173
 114.7666364  45.3688949 101.0007987 115.6912911  45.1631810 100.8632438
 114.5981667  45.1205350 101.9097328 107.0162633  31.6953079  93.9716899
 107.7370996  32.0734332  93.4680616 106.3927937  32.4141956  94.0751877
 111.1593756  32.3998228  94.9075231 111.3757370  33.2822866  94.6064060
 110.6787823  32.0084441  94.1780873 105.8992977  35.3583941 101.4845976
 105.7537558  35.6724244 102.3770258 105.4218181  35.9768841 100.9316875
 107.7589360  32.3486489 101.5326866 107.7450929  31.4527582 101.1959164
 108.4761788  32.3557153 102.1665152 114.5561680  45.8874616  96.3570078
 114.7298557  45.3221039  95.6043931 115.0490571  46.6875511  96.1749568
 100.3738640  37.8989285 104.4233637  99.8292108  38.6749093 104.5553912
 101.2517990  38.2460090 104.2652759 107.1626256  31.2300869  96.8014436
 107.2842167  30.3017515  97.0005323 106.8728299  31.2439555  95.8892751
 110.0317447  28.9155780  99.9381156 110.0539144  28.9795113  98.9833135
 110.4485506  28.0760288 100.1321662 120.4101071  38.6511039  97.9760378
 120.8532217  37.9018364  97.5779501 119.5327581  38.6421176  97.5934110
 115.5436852  45.2041381  93.4566977 116.2387757  45.8248073  93.6754291
 115.8860002  44.3536732  93.7319355 101.1604662  37.0259182 107.3163794
 100.4186398  37.1741817 107.9028425 100.8397406  37.2867447 106.4530544
 117.4428275  42.6541086  94.9854307 117.9679600  42.9928359  94.2603628
 117.3550628  41.7188102  94.8017442 109.1048324  46.5675160 107.1144184
 109.4135451  46.3224307 107.9866884 109.9023806  46.7721798 106.6263054
 109.1268936  48.7213070  99.3449561 108.6873926  48.2289448 100.0382417
 109.8777053  48.1786037  99.1041636 101.6061275  44.9124610  99.3474189
 102.4319295  44.6128382  98.9672832 101.2555327  44.1432233  99.7963977
 106.5742808  44.2651079 101.4171862 105.9522818  43.6021784 101.1174090
 107.2447675  44.2912211 100.7345510  99.8069880  42.8310937 100.3063122
  98.9701789  42.4033111 100.1247124  99.7793526  43.0243380 101.2433914
 106.1356315  42.8155002  94.8930323 106.2844436  43.4990466  94.2396996
 106.9422759  42.7960092  95.4079779 103.8908948  38.8420180  95.8991392
 103.6454990  37.9382510  96.0971602 104.0604863  38.8437330  94.9570870
 103.1604596  34.5748537  93.3977553 102.4673841  34.6492892  92.7417589
 102.9156348  33.8108881  93.9199070 109.6351721  45.3103132  92.3642070
 109.0625688  45.9293320  91.9112542 110.2084514  45.8602494  92.8981992
 112.8548981  45.5940283  93.4950653 113.7879654  45.5285844  93.6983528
 112.7672193  46.4296549  93.0365185 115.4836997  44.9106153  90.4554600
 115.4050629  44.5766017  91.3490358 116.3046664  45.4027921  90.4546072
 110.0198519  36.6463945  89.7058123 110.9657624  36.5170153  89.7746541
 109.6412764  35.9078607  90.1827551 108.2041436  34.5713922  89.6413008
 107.2972892  34.2747034  89.7175722 108.4817417  34.2743740  88.7747294
  99.1219377  35.8920285 100.0912054  98.8022161  35.0385593  99.7986428
  98.5752805  36.1068863 100.8470022 102.8999284  38.6082726 103.8081561
 103.1185294  39.5399834 103.8269595 103.3125058  38.2490700 104.5936365
 109.8203502  29.1150811  95.7957249 109.0104230  28.7697896  96.1712495
 110.5087919  28.8058355  96.3844861 111.7494050  28.1928858  97.4181546
 112.3025089  28.6124312  98.0771569 111.9864137  27.2664606  97.4604502
 106.9740221  31.4300857  89.7824987 107.8359385  31.7555755  90.0420805
 107.1590565  30.6432353  89.2698053  98.9907637  39.5123196 102.0605176
  98.2971108  39.0977149 101.5475130  99.7380628  39.5543733 101.4638595
 115.1272858  30.3029383  96.9260210 114.5471527  30.9614187  96.5438263
 114.8608790  29.4806728  96.5147628 100.9044379  39.4441450  99.9371191
 100.8815067  39.5429138  98.9853074 101.2145016  40.2906601 100.2588357
 103.5631757  41.5017605 104.0517805 104.5175011  41.4701548 103.9847737
 103.3644281  41.0408229 104.8668031 104.1531139  40.0718721 106.6188603
 104.9724028  40.5662800 106.6423440 104.4267947  39.1550689 106.5906170
 113.9097736  32.4629474  95.9816558 113.0223591  32.7479124  95.7636753
 114.3251725  32.3023237  95.1343835 101.9181986  47.0437225 101.0688003
 101.7836454  46.2837626 100.5026001 101.5014048  47.7678125 100.6016792
 113.0540949  42.2274148  90.0764578 113.7576799  42.4324151  90.6922234
 112.3303598  42.7950910  90.3413662 113.8838759  37.9784010  96.1966849
 113.8273961  38.4352561  95.3574481 114.4367102  37.2174694  96.0189691
 117.6943565  33.7673741  97.0216968 117.4380499  33.3670377  97.8525176
 117.0696433  34.4817535  96.8967107 105.0751112  47.9406542 101.2806446
 104.9583496  48.8851974 101.1785136 104.2543558  47.6380103 101.6692245
 114.9627646  42.6656678  92.1263039 115.7973250  42.2337876  91.9440513
 114.8011989  42.4938691  93.0539933 114.6173539  39.1688791  93.4919378
 114.5622342  39.0033062  92.5507822 113.9919594  39.8764824  93.6481568
  99.4066054  34.4056855 107.3180800 100.0524917  33.8955809 107.8068025
  99.1983205  35.1425537 107.8924225 107.9269664  28.6696900  93.0704696
 107.9148334  29.6138740  93.2272967 108.8193086  28.4867045  92.7764157
 106.1005626  48.5934804 104.4962374 107.0032873  48.6258414 104.8128869
 105.8742996  47.6635255 104.5108710 107.8559228  47.3465790 101.1572453
 106.9054859  47.3467652 101.0436825 108.1591714  46.5998525 100.6408488
 120.4001628  53.1353757 102.1579740 120.0620139  53.0194821 101.2700275
 121.2691396  52.7344922 102.1380746 116.2588443  54.9889233  98.1476631
 115.6953309  54.8979170  97.3792919 116.1440839  54.1689138  98.6279123
 113.8052875  56.4840425 100.9860851 114.5974167  56.1431249 100.5707151
 114.0449526  56.5935400 101.9063005 115.7643629  55.7449338  93.8578230
 116.5374505  55.1978325  93.7191106 116.1169028  56.6093587  94.0692692
 117.6028672  57.0725720 107.0645129 117.3118538  57.9771351 106.9491796
 118.2385656  57.1142248 107.7789199 118.5284879  54.4502569 103.6546489
 119.1248451  54.2258591 102.9403452 118.5859850  53.7087314 104.2571937
 118.1009907  51.9042004  91.4896680 118.3535428  51.3823525  90.7280143
 117.1634466  51.7408150  91.5923364 117.8206196  53.8070110  93.6921055
 117.7042454  53.1315013  94.3602139 117.9308456  53.3202484  92.8753208
 120.1637737  53.2680257  97.3967744 119.7995944  52.7410878  98.1080666
 121.0204853  52.8778726  97.2234230 119.8043224  48.2970157  92.3929093
 119.9717626  49.1650393  92.7599564 119.6140393  48.4597439  91.4690382
 116.0131038  53.2100933 100.0931628 115.0881535  53.0777147 100.3009319
 116.2615452  53.9895152 100.5901570 119.7832445  50.7527814  93.3775760
 119.6632070  51.1984865  94.2161240 119.0885033  51.1013132  92.8189298
 113.3739850  52.8534206 100.9275417 113.5032231  53.1068685 101.8414828
 112.6937301  53.4461914 100.6080072 117.5439337  63.5231456  97.0265891
 117.4663367  64.4739281  97.1054371 116.9400980  63.1777329  97.6840817
 119.6415055  55.9449514  98.8619760 120.1053401  56.2237217  98.0724383
 119.3771853  55.0432959  98.6792851 116.5339136  55.4920996 101.7999523
 117.1040493  55.9208264 101.1617008 117.1247248  55.2103580 102.4983709
 118.5783941  52.0672666  95.6709325 119.2807984  52.5193710  96.1383252
 118.2464570  51.4256485  96.2989218 112.3209275  50.3256219 100.9726459
 111.5308329  50.5813748 100.4966570 112.8120522  51.1404557 101.0778499
 114.2724020  50.6900798  97.9309936 113.4755184  50.8019493  98.4493431
 114.0449613  51.0287451  97.0650826 120.1029688  57.2145502 105.8792450
 120.1674121  57.6765909 106.7150622 119.3940612  56.5842867 106.0074760
 110.6046978  50.5786710 103.4041450 110.8555016  51.4633719 103.6699026
 111.1406526  50.3991311 102.6316542 119.8177706  58.8813609  95.7471431
 119.6823381  59.7265145  96.1756278 120.3587518  59.0832887  94.9837364
 113.2707103  56.3989047  96.3199356 113.7831624  57.1932297  96.4704920
 113.9229816  55.7015338  96.2532957 115.0801988  59.5154803  98.4022109
 115.2568616  60.4372768  98.2143093 115.8758821  59.2013223  98.8316489
 114.3654344  51.5619435 108.2784272 114.2507859  50.6604693 108.5791371
 113.5098862  51.8083132 107.9269089 116.2033303  61.0332977 104.4032451
 116.7540728  60.9050041 103.6309445 115.3644779  61.3327866 104.0527344
 120.0000474  57.2984105 108.7476682 120.5328811  56.5372393 108.5175990
 119.4714555  57.0057757 109.4900837 111.2356020  54.7277701  97.0958926
 112.0731242  55.1374710  96.8792634 111.4134288  53.7877144  97.0659120
 120.7167563  47.2402483  97.8427998 119.8609159  46.8509333  97.6633636
 121.1294515  47.3194444  96.9827783 118.4909596  44.8587556 101.2485739
 119.3562592  44.6630365 100.8891629 118.5587104  44.6297908 102.1755096
 121.3653187  56.4270097  96.2595494 120.8374549  55.6922857  95.9468732
 120.8640690  57.2044774  96.0135463 116.0971915  47.0889764  98.6202106
 116.6715667  46.8664945  97.8875299 116.6842897  47.1578458  99.3730707
 116.4241502  49.1194225  92.6397991 115.5878814  49.4568911  92.9607266
 116.2846271  48.9843205  91.7025128 118.3994582  43.9631013  97.3477175
 117.7458995  43.6480030  96.7233790 118.3575056  43.3406753  98.0736998
 119.5105787  54.2450308  89.2630467 118.6032849  54.0139561  89.4621616
 120.0076819  53.4487927  89.4504449 120.6894021  54.3462903  93.7854457
 119.7805240  54.0621935  93.8826927 120.7189104  54.7661981  92.9257764
 111.2582191  52.0668417  97.7669660 111.0606591  51.4737777  97.0420726
 110.7028855  51.7620627  98.4845598 119.2378915  51.9591523  99.8864253
 119.2927524  51.0065360  99.8106729 118.4270117  52.1150962 100.3705551
 120.3870108  55.8871646  91.1242536 119.9489538  55.1707505  90.6648173
 121.1280549  56.1147761  90.5627627 117.1771275  50.5768583  97.6454632
 116.3639140  50.8762754  98.0519824 117.6730269  50.1824272  98.3629114
 119.3279852  60.5726340  99.5788896 119.2856031  60.7987186  98.6497428
 120.2442551  60.3389714  99.7274698 116.6685349  48.1486938 103.2615867
 117.3084729  48.0075698 102.5638830 115.8362880  47.8621452 102.8854469
 117.4445653  57.4489369  99.3750859 118.2386252  56.9539689  99.1733434
 116.7337346  56.9207232  99.0118565 113.7528417  51.5932451  95.4510612
 112.8226005  51.5316906  95.6680574 113.8485889  51.0708403  94.6547253
 113.6713966  48.1187263  98.0388853 113.9320783  49.0332597  97.9298014
 114.4931138  47.6511706  98.1885466 115.1438891  49.5325021 105.2087678
 115.8161945  49.3242383 104.5600327 114.3168678  49.3347107 104.7692910
 120.0216929  58.0218391 103.0548696 119.8828015  57.6537175 103.9274634
 119.2331525  58.5366030 102.8832654 120.6165081  63.1227487  94.3974233
 120.7916837  62.6515531  95.2119855 119.9297869  63.7493254  94.6255493
 121.5722144  57.3999994 100.4437534 121.2371977  57.3600764 101.3395184
 121.0726090  56.7344710  99.9707944 115.5466388  52.8067624 105.9690115
 115.4086186  52.0747862 106.5701654 116.4571312  52.7176524 105.6874303
 118.1748689  52.5187583 105.4573795 118.8848308  51.8780775 105.4160413
 118.1317997  52.7700478 106.3799976 115.1826167  66.2716850 101.1714093
 115.4222765  66.9035374 101.8493111 114.3395363  65.9204890 101.4579452
 116.2979882  48.9641452  89.8395898 115.4209348  48.8430253  89.4758145
 116.7737635  48.1727531  89.5874787 107.8182022  53.7518612  99.9337405
 108.5053062  53.4380342  99.3458420 107.6630151  54.6559977  99.6604656
 112.6216744  48.6408809 104.3622429 112.5374933  48.0334478 103.6272839
 111.7999451  49.1317827 104.3631925 119.6954028  62.0795973 103.5755597
 119.6224200  62.8850944 104.0874901 119.2531421  62.2787938 102.7503618
 119.4843808  61.3167743  97.0858418 118.7011330  61.8589423  97.1796643
 120.1836553  61.8341722  97.4852660 119.3775427  49.2679755  99.4564308
 119.0073214  48.7150795 100.1445214 119.8734519  48.6637889  98.9039308
 117.2064625  59.7277250 106.5519326 117.9074085  60.3613733 106.7048721
 116.7359740  60.0691982 105.7914966 112.8032344  59.2613605 103.4850429
 113.3885780  58.5157293 103.6178333 112.6057182  59.5717562 104.3687093
 115.6570999  62.2964853  98.5012871 114.9881374  62.7810980  98.0176911
 115.5183868  62.5434073  99.4156250 107.3949998  51.8319205 102.2054872
 107.4334098  51.2982796 102.9991990 106.8890291  51.3054411 101.5865849
 119.7976267  64.3308596 105.0995530 120.3494575  64.4940218 105.8644615
 120.1382461  64.9213034 104.4275555 114.7740761  46.6783746 105.7017414
 114.8382087  47.5398577 105.2894812 114.7107881  46.0657747 104.9689773
 111.0258576  50.5583307  95.2808804 111.3212017  49.6493986  95.2275857
 110.1246612  50.5371047  94.9589806 114.5552823  48.6339304 101.2636352
 113.8339409  49.2475272 101.1243825 115.3446079  49.1697069 101.1852998
 112.7546417  48.2397405  95.4048129 112.4259124  47.3594784  95.2223235
 113.1085788  48.1845074  96.2924518 115.8688241  48.5270375  95.7723606
 116.2084313  49.0556296  95.0502215 116.3160361  48.8650781  96.5482173
 117.8556388  47.0244997  93.9716899 118.5764750  47.4026249  93.4680616
 117.2321692  47.7433873  94.0751877 116.7386732  50.6875859 101.4845976
 116.5931313  51.0016162 102.3770258 116.2611936  51.3060759 100.9316875
 118.5983115  47.6778407 101.5326866 118.5844684  46.7819500 101.1959164
 119.3155543  47.6849070 102.1665152 111.2132394  53.2281203 104.4233637
 110.6685862  54.0041011 104.5553912 112.0911744  53.5752008 104.2652759
 118.0020011  46.5592787  96.8014436 118.1235922  45.6309433  97.0005323
 117.7122053  46.5731473  95.8892751 120.8711201  44.2447697  99.9381156
 120.8932898  44.3087031  98.9833135 121.2879260  43.4052206 100.1321662
 111.9998416  52.3551099 107.3163794 111.2580152  52.5033735 107.9028425
 111.6791160  52.6159365 106.4530544 119.9442079  61.8967078 107.1144184
 120.2529205  61.6516224 107.9866884 120.7417561  62.1013716 106.6263054
 119.9662691  64.0504987  99.3449561 119.5267681  63.5581366 100.0382417
 120.7170808  63.5077955  99.1041636 112.4455030  60.2416528  99.3474189
 113.2713050  59.9420300  98.9672832 112.0949082  59.4724151  99.7963977
 117.4136563  59.5942996 101.4171862 116.7916572  58.9313701 101.1174090
 118.0841430  59.6204128 100.7345510 110.6463635  58.1602855 100.3063122
 109.8095543  57.7325029 100.1247124 110.6187280  58.3535298 101.2433914
 116.9750070  58.1446920  94.8930323 117.1238190  58.8282384  94.2396996
 117.7816513  58.1252010  95.4079779 114.7302703  54.1712097  95.8991392
 114.4848745  53.2674427  96.0971602 114.8998617  54.1729248  94.9570870
 113.9998350  49.9040455  93.3977553 113.3067595  49.9784810  92.7417589
 113.7550102  49.1400799  93.9199070 120.4745475  60.6395050  92.3642070
 119.9019442  61.2585237  91.9112542 121.0478269  61.1894412  92.8981992
 119.0435191  49.9005839  89.6413008 118.1366646  49.6038952  89.7175722
 119.3211172  49.6035657  88.7747294 109.9613131  51.2212203 100.0912054
 109.6415916  50.3677511  99.7986428 109.4146559  51.4360781 100.8470022
 113.7393039  53.9374644 103.8081561 113.9579049  54.8691751 103.8269595
 114.1518813  53.5782618 104.5936365 120.6597257  44.4442729  95.7957249
 119.8497985  44.0989814  96.1712495 121.3481674  44.1350273  96.3844861
 117.8133976  46.7592774  89.7824987 118.6753140  47.0847673  90.0420805
 117.9984320  45.9724270  89.2698053 109.8301391  54.8415114 102.0605176
 109.1364863  54.4269067 101.5475130 110.5774382  54.8835651 101.4638595
 111.7438134  54.7733368  99.9371191 111.7208822  54.8721055  98.9853074
 112.0538770  55.6198519 100.2588357 114.4025512  56.8309523 104.0517805
 115.3568765  56.7993465 103.9847737 114.2038035  56.3700147 104.8668031
 114.9924894  55.4010639 106.6188603 115.8117783  55.8954718 106.6423440
 115.2661702  54.4842607 106.5906170 112.7575740  62.3729142 101.0688003
 112.6230208  61.6129543 100.5026001 112.3407803  63.0970042 100.6016792
 115.9144866  63.2698459 101.2806446 115.7977251  64.2143892 101.1785136
 115.0937313  62.9672021 101.6692245 110.2459808  49.7348773 107.3180800
 110.8918672  49.2247727 107.8068025 110.0376959  50.4717455 107.8924225
 118.7663419  43.9988818  93.0704696 118.7542088  44.9430657  93.2272967
 119.6586840  43.8158963  92.7764157 116.9399380  63.9226721 104.4962374
 117.8426627  63.9550332 104.8128869 116.7136751  62.9927172 104.5108710
 118.6952983  62.6757708 101.1572453 117.7448614  62.6759570 101.0436825
 118.9985469  61.9290442 100.6408488 118.6575777  69.0810530  99.9337405
 119.3446816  68.7672260  99.3458420 118.5023905  69.9851894  99.6604656
 118.2343753  67.1611123 102.2054872 118.2727852  66.6274714 102.9991990
 117.7284046  66.6346329 101.5865849 121.4857389  73.4894772 100.3063122
 120.6489298  73.0616947 100.1247124 121.4581035  73.6827216 101.2433914
 120.8006886  66.5504120 100.0912054 120.4809670  65.6969429  99.7986428
 120.2540314  66.7652698 100.8470022 120.6695146  70.1707032 102.0605176
 119.9758617  69.7560985 101.5475130 121.4168137  70.2127568 101.4638595
  95.8651829   9.8709743  83.7511197  95.7875859  10.8217568  83.8299678
  95.2613473   9.5255616  84.4086124  93.5038659  12.6195137  87.8959400
  93.7435257  13.2513662  88.5738418  92.6607855  12.2683177  88.1824759
  93.9783491   8.6443140  85.2258178  93.3093866   9.1289267  84.7422218
  93.8396361   8.8912360  86.1401557  98.1188760  10.6786883  91.8240836
  98.6707068  10.8418505  92.5889922  98.4594953  11.2691321  91.1520861
  91.0788233   8.7207430  87.7933310  90.9442701   7.9607831  87.2271308
  90.6620295   9.4448330  87.3262099  94.2357359   9.6176747  88.0051752
  94.1189743  10.5622179  87.9030443  93.4149805   9.3150308  88.3937552
  95.2611873  10.2705009  91.2207681  96.1639119  10.3028619  91.5374176
  95.0349243   9.3405460  91.2354017 109.5607875  14.8123962  88.8825047
 109.2226386  14.6965026  87.9945581 110.4297643  14.4115127  88.8626053
 105.4194690  16.6659438  84.8721938 104.8559555  16.5749375  84.1038225
 105.3047085  15.8459343  85.3524430 102.9659122  18.1610630  87.7106158
 103.7580414  17.8201454  87.2952457 103.2055772  18.2705605  88.6308311
 110.9994249  20.3330406  80.1836402 110.3482229  20.9184486  79.7970416
 111.7938612  20.8636601  80.2431440 104.9249876  17.4219543  80.5823537
 105.6980752  16.8748530  80.4436413 105.2775275  18.2863792  80.7937998
 106.7634919  18.7495925  93.7890436 106.4724785  19.6541556  93.6737102
 107.3991903  18.7912453  94.5034506 107.6891126  16.1272774  90.3791796
 108.2854698  15.9028796  89.6648759 107.7466097  15.3857519  90.9817244
 112.4769514  18.0220838  80.7205387 111.8415347  18.0955464  81.4326291
 112.1466921  18.6114437  80.0424466 106.9812443  15.4840315  80.4166362
 106.8648701  14.8085218  81.0847446 107.0914703  14.9972689  79.5998515
 109.3243984  14.9450462  84.1213051 108.9602191  14.4181083  84.8325972
 110.1811100  14.5548931  83.9479536 111.7224804  18.4357341  90.7840230
 111.4225527  19.3382380  90.6756037 111.3775863  18.1689524  91.6361383
 105.1737285  14.8871138  86.8176934 104.2487782  14.7547352  87.0254626
 105.4221698  15.6665357  87.3146877 102.5346096  14.5304411  87.6520723
 102.6638477  14.7838890  88.5660135 101.8543548  15.1232119  87.3325378
 106.7045584  25.2001661  83.7511197 106.6269613  26.1509486  83.8299678
 106.1007227  24.8547534  84.4086124 113.2493340  17.8845311  88.3214982
 112.6202202  18.0491025  87.6191050 112.8619002  18.2986920  89.0925946
 117.1282572  18.8199749  85.6759346 116.4433610  19.1998650  85.1256379
 117.2126421  19.4295075  86.4091293 108.8021302  17.6219719  85.5865067
 109.2659647  17.9007422  84.7969689 108.5378100  16.7203164  85.4038158
 105.6945383  17.1691201  88.5244830 106.2646740  17.5978469  87.8862315
 106.2853495  16.8873785  89.2229016 101.4815522  12.0026424  87.6971766
 100.6914576  12.2583953  87.2211876 101.9726769  12.8174762  87.8023806
 103.4330267  12.3671003  84.6555242 102.6361430  12.4789698  85.1738738
 103.2055859  12.7057656  83.7896133 109.2635935  18.8915707  92.6037757
 109.3280367  19.3536114  93.4395929 108.5546859  18.2613071  92.7320067
  99.7653225  12.2556914  90.1286756 100.0161263  13.1403924  90.3944332
 100.3012773  12.0761516  89.3561848 108.9783952  20.5583814  82.4716737
 108.8429627  21.4035350  82.9001585 109.5193765  20.7603092  81.7082671
 102.4313350  18.0759252  83.0444662 102.9437870  18.8702502  83.1950227
 103.0836063  17.3785542  82.9778264 104.2408235  21.1925008  85.1267415
 104.4174863  22.1142973  84.9388399 105.0365068  20.8783428  85.5561795
 103.5260591  13.2389640  95.0029579 103.4114106  12.3374897  95.3036678
 102.6705109  13.4853337  94.6514395 105.3639550  22.7103182  91.1277758
 105.9146975  22.5820245  90.3554752 104.5251026  23.0098071  90.7772651
 109.1606721  18.9754310  95.4721989 109.6935058  18.2142598  95.2421297
 108.6320802  18.6827962  96.2146143 100.3962267  16.4047906  83.8204233
 101.2337489  16.8144915  83.6037941 100.5740534  15.4647349  83.7904427
 110.5259434  18.1040302  82.9840801 109.9980795  17.3693062  82.6714038
 110.0246937  18.8814979  82.7380769 115.5052280  16.2989323  88.1007847
 114.8475954  16.9888584  88.1887976 116.3092679  16.6885755  88.4441834
 108.6712034  15.9220513  75.9875774 107.7639096  15.6909766  76.1866923
 109.1683066  15.1258132  76.1749756 111.5780113  24.6318020  78.9072460
 110.9041812  24.9349717  79.5157418 111.9645935  25.4347100  78.5577917
 109.8500267  16.0233108  80.5099764 108.9411487  15.7392140  80.6072234
 109.8795351  16.4432186  79.6503071 115.0819535  19.6339697  84.2790932
 114.6281862  18.7930607  84.3356122 114.4513502  20.2701095  84.6165712
 113.5252474  21.4716194  85.2140750 113.8175448  22.0321251  84.4953115
 114.0351095  21.7644755  85.9693909 100.4188438  13.7438622  84.4914966
 100.2212838  13.1507982  83.7666033  99.8635102  13.4390832  85.2090905
 109.5476355  17.5641851  77.8487843 109.1095785  16.8477710  77.3893480
 110.2886796  17.7917966  77.2872934 108.4886099  22.2496545  86.3034203
 108.4462278  22.4757391  85.3742735 109.4048798  22.0159919  86.4520004
 106.6051900  19.1259574  86.0996166 107.3992499  18.6309894  85.8978741
 105.8943592  18.5977437  85.7363871 111.4246745  21.5077669  90.4508533
 111.4783767  22.0768606  91.2186249 110.5561526  21.6779554  90.0862570
 102.9134664  13.2702656  82.1755918 101.9832252  13.2087111  82.3925881
 103.0092135  12.7478608  81.3792560 110.3834844  15.6737931  92.0095465
 111.3126904  15.8249091  91.8364433 109.9625874  15.7621952  91.1544112
 109.1823176  19.6988596  89.7794003 109.0434262  19.3307380  90.6519941
 108.3937772  20.2136235  89.6077961 109.7771328  24.7997692  81.1219539
 109.9523084  24.3285735  81.9365162 109.0904116  25.4263458  81.3500800
 110.7328391  19.0770199  87.1682841 110.3978224  19.0370968  88.0640490
 110.2332337  18.4114914  86.6953251 104.7072635  14.4837829  92.6935422
 104.5692433  13.7518067  93.2946961 105.6177559  14.3946729  92.4119610
 113.6687583  16.4226233  77.4419900 113.0516753  15.6973061  77.3452953
 113.2004071  17.1835593  77.0986975 107.3354936  14.1957788  92.1819101
 108.0454554  13.5550980  92.1405720 107.2924244  14.4470683  93.1045282
 104.3432413  27.9487055  87.8959400 104.5829012  28.5805579  88.5738418
 103.5001610  27.5975095  88.1824759  96.9788269  15.4288817  86.6582712
  97.6659309  15.1150547  86.0703727  96.8236398  16.3330182  86.3849963
 108.8560275  23.7566177  90.3000904 108.7830447  24.5621149  90.8120208
 108.4137668  23.9558143  89.4748925 108.6450055  22.9937948  83.8103725
 107.8617577  23.5359628  83.9041950 109.3442800  23.5111927  84.2097966
 111.3158959  23.6553012  92.4559062 112.0286931  24.2900476  92.3834964
 110.8248987  23.7516878  91.6399064 113.0376486  17.5604264  84.0276354
 112.1032764  17.6805727  83.8581058 113.2153154  16.6576731  83.7636364
 106.3670872  21.4047455  93.2764633 107.0680332  22.0383938  93.4294027
 105.8965987  21.7462187  92.5160272 114.4925268  19.7465405  81.5612540
 114.7685112  19.6321999  82.4706414 113.6229767  19.3482890  81.5224713
 111.1279332  23.9951756  85.2045354 111.3101727  23.1773412  85.6673106
 111.9512318  24.2119448  84.7670244 111.4621498  22.9219941  82.4660402
 111.9909264  22.4112395  81.8530564 111.7249717  22.6062471  83.3305935
 101.9638590  20.9383810  90.2095736 102.5492027  20.1927498  90.3423640
 101.7663429  21.2487767  91.0932400 104.8177245  23.9735057  85.2258178
 104.1487621  24.4581185  84.7422218 104.6790115  24.2204278  86.1401557
  96.5556245  13.5089410  88.9300179  96.5940345  12.9753001  89.7237297
  96.0496538  12.9824616  88.3111156 108.9582514  26.0078801  91.8240836
 109.5100822  26.1710422  92.5889922 109.2988708  26.5983239  91.1520861
 100.1864823  12.2353512  82.0054110 100.4818264  11.3264191  81.9521164
  99.2852858  12.2141252  81.6835113 112.0950901  23.9560776  88.8104519
 111.9702041  23.1550516  88.3015464 112.7529992  24.4506970  88.3218489
 114.1585810  21.7569797  90.4384069 113.2116145  21.6375148  90.3662395
 114.5068583  20.8692295  90.5210330 111.1632243  21.5522513  86.6388421
 111.0157205  20.6239220  86.8195991 111.9885737  21.5742603  86.1545496
 114.7666365  22.3751071  87.7253294 115.6912912  22.1693933  87.5877745
 114.5981668  22.1267473  88.6342635 114.5561681  22.8936739  83.0815385
 114.7298559  22.3283161  82.3289238 115.0490572  23.6937634  82.8994875
 100.3738641  14.9051408  91.1478944  99.8292109  15.6811216  91.2799218
 101.2517991  15.2522213  90.9898065 115.5436854  22.2103503  80.1812283
 116.2387758  22.8310196  80.3999598 115.8860004  21.3598855  80.4564661
 101.1604663  14.0321304  94.0409101 100.4186399  14.1803940  94.6273731
 100.8397407  14.2929570  93.1775850 117.4428277  19.6603209  81.7099614
 117.9679601  19.9990482  80.9848934 117.3550629  18.7250224  81.5262749
 109.1048325  23.5737283  93.8389491 109.4135452  23.3286429  94.7112190
 109.9023807  23.7783921  93.3508361 109.1268937  25.7275192  86.0694867
 108.6873928  25.2351571  86.7627724 109.8777054  25.1848160  85.8286943
 101.6061276  21.9186733  86.0719495 102.4319296  21.6190505  85.6918139
 101.2555328  21.1494355  86.5209284 106.5742810  21.2713201  88.1417169
 105.9522819  20.6083906  87.8419397 107.2447676  21.2974333  87.4590817
  99.8069881  19.8373059  87.0308429  98.9701790  19.4095234  86.8492430
  99.7793527  20.0305503  87.9679220 106.1356316  19.8217125  81.6175630
 106.2844437  20.5052589  80.9642302 106.9422760  19.8022215  82.1325085
 103.8908949  15.8482302  82.6236698 103.6454991  14.9444632  82.8216909
 104.0604864  15.8499453  81.6816176 109.6351722  22.3165255  79.0887377
 109.0625689  22.9355442  78.6357849 110.2084516  22.8664617  79.6227299
 112.8548982  22.6002405  80.2195959 113.7879655  22.5347967  80.4228835
 112.7672195  23.4358672  79.7610492 115.4836998  21.9168276  77.1799907
 115.4050630  21.5828139  78.0735665 116.3046665  22.4090043  77.1791379
  99.1219378  12.8982408  86.8157361  98.8022162  12.0447716  86.5231735
  98.5752806  13.1130986  87.5715328 102.8999286  15.6144849  90.5326868
 103.1185295  16.5461956  90.5514901 103.3125059  15.2552823  91.3181671
  98.9907638  16.5185319  88.7850483  98.2971109  16.1039272  88.2720437
  99.7380629  16.5605856  88.1883902 100.9044381  16.4503573  86.6616498
 100.8815069  16.5491260  85.7098381 101.2145017  17.2968724  86.9833664
 103.5631758  18.5079728  90.7763112 104.5175012  18.4763670  90.7093044
 103.3644282  18.0470352  91.5913338 104.1531141  17.0780844  93.3433910
 104.9724030  17.5724923  93.3668747 104.4267948  16.1612812  93.3151477
 101.9181987  24.0499347  87.7933310 101.7836455  23.2899748  87.2271308
 101.5014050  24.7740247  87.3262099 113.0540950  19.2336271  76.8009885
 113.7576800  19.4386273  77.4167541 112.3303599  19.8013033  77.0658969
 105.0751113  24.9468664  88.0051752 104.9583497  25.8914097  87.9030443
 104.2543559  24.6442226  88.3937552 114.9627648  19.6718800  78.8508345
 115.7973252  19.2399999  78.6685820 114.8011991  19.5000814  79.7785240
 114.6173540  16.1750913  80.2164684 114.5622344  16.0095185  79.2753129
 113.9919595  16.8826946  80.3726874  99.4066055  11.4118978  94.0426107
 100.0524918  10.9017932  94.5313332  99.1983206  12.1487659  94.6169532
 106.1005627  25.5996926  91.2207681 107.0032874  25.6320537  91.5374176
 105.8742997  24.6697377  91.2354017 107.8559229  24.3527913  87.8817760
 106.9054860  24.3529774  87.7682132 108.1591715  23.6060647  87.3653794
 120.4001629  30.1415879  88.8825047 120.0620141  30.0256944  87.9945581
 121.2691397  29.7407044  88.8626053 116.2588445  31.9951356  84.8721938
 115.6953310  31.9041293  84.1038225 116.1440840  31.1751260  85.3524430
 113.8052877  33.4902547  87.7106158 114.5974169  33.1493372  87.2952457
 114.0449527  33.5997522  88.6308311 115.7643631  32.7511461  80.5823537
 116.5374507  32.2040448  80.4436413 116.1169029  33.6155710  80.7937998
 117.6028673  34.0787843  93.7890436 117.3118539  34.9833474  93.6737102
 118.2385658  34.1204370  94.5034506 118.5284880  31.4564691  90.3791796
 119.1248452  31.2320714  89.6648759 118.5859852  30.7149437  90.9817244
 118.1009908  28.9104127  78.2141987 118.3535429  28.3885648  77.4525450
 117.1634468  28.7470272  78.3168670 117.8206197  30.8132233  80.4166362
 117.7042455  30.1377136  81.0847446 117.9308457  30.3264607  79.5998515
 120.1637738  30.2742380  84.1213051 119.7995945  29.7473001  84.8325972
 121.0204854  29.8840849  83.9479536 119.8043225  25.3032279  79.1174399
 119.9717627  26.1712516  79.4844870 119.6140394  25.4659561  78.1935689
 116.0131040  30.2163055  86.8176934 115.0881536  30.0839269  87.0254626
 116.2615453  30.9957274  87.3146877 119.7832446  27.7589937  80.1021066
 119.6632071  28.2046988  80.9406547 119.0885034  28.1075255  79.5434604
 113.3739851  29.8596329  87.6520723 113.5032232  30.1130808  88.5660135
 112.6937302  30.4524037  87.3325378 117.5439338  40.5293579  83.7511197
 117.4663368  41.4801404  83.8299678 116.9400982  40.1839451  84.4086124
 119.6415056  32.9511637  85.5865067 120.1053402  33.2299340  84.7969689
 119.3771854  32.0495081  85.4038158 116.5339137  32.4983118  88.5244830
 117.1040494  32.9270387  87.8862315 117.1247249  32.2165703  89.2229016
 118.5783942  29.0734789  82.3954632 119.2807986  29.5255833  82.8628558
 118.2464571  28.4318608  83.0234525 112.3209276  27.3318342  87.6971766
 111.5308330  27.5875870  87.2211876 112.8120524  28.1466680  87.8023806
 114.2724022  27.6962921  84.6555242 113.4755185  27.8081615  85.1738738
 114.0449614  28.0349573  83.7896133 120.1029689  34.2207624  92.6037757
 120.1674122  34.6828031  93.4395929 119.3940613  33.5904989  92.7320067
 110.6046979  27.5848832  90.1286756 110.8555018  28.4695842  90.3944332
 111.1406528  27.4053434  89.3561848 119.8177707  35.8875732  82.4716737
 119.6823382  36.7327267  82.9001585 120.3587519  36.0895009  81.7082671
 113.2707104  33.4051170  83.0444662 113.7831625  34.1994420  83.1950227
 113.9229817  32.7077460  82.9778264 115.0801989  36.5216926  85.1267415
 115.2568617  37.4434891  84.9388399 115.8758823  36.2075345  85.5561795
 114.3654346  28.5681558  95.0029579 114.2507861  27.6666815  95.3036678
 113.5098863  28.8145255  94.6514395 116.2033305  38.0395100  91.1277758
 116.7540730  37.9112163  90.3554752 115.3644780  38.3389989  90.7772651
 120.0000476  34.3046228  95.4721989 120.5328812  33.5434516  95.2421297
 119.4714557  34.0119879  96.2146143 111.2356021  31.7339824  83.8204233
 112.0731243  32.1436832  83.6037941 111.4134289  30.7939266  83.7904427
 120.7167564  24.2464605  84.5673304 119.8609161  23.8571456  84.3878943
 121.1294516  24.3256566  83.7073090 118.4909597  21.8649678  87.9731046
 119.3562594  21.6692487  87.6136935 118.5587106  21.6360030  88.9000402
 121.3653188  33.4332220  82.9840801 120.8374550  32.6984980  82.6714038
 120.8640691  34.2106896  82.7380769 116.0971916  24.0951886  85.3447412
 116.6715668  23.8727068  84.6120605 116.6842898  24.1640581  86.0976014
 116.4241503  26.1256347  79.3643298 115.5878815  26.4631034  79.6852572
 116.2846273  25.9905327  78.4270435 118.3994584  20.9693135  84.0722482
 117.7458996  20.6542152  83.4479097 118.3575058  20.3468876  84.7982305
 119.5105788  31.2512430  75.9875774 118.6032850  31.0201684  76.1866923
 120.0076820  30.4550050  76.1749756 120.6894022  31.3525025  80.5099764
 119.7805241  31.0684058  80.6072234 120.7189106  31.7724104  79.6503071
 111.2582192  29.0730539  84.4914966 111.0606592  28.4799900  83.7666033
 110.7028856  28.7682750  85.2090905 119.2378916  28.9653646  86.6109559
 119.2927526  28.0127482  86.5352036 118.4270118  29.1213085  87.0950858
 120.3870110  32.8933769  77.8487843 119.9489540  32.1769628  77.3893480
 121.1280551  33.1209884  77.2872934 117.1771276  27.5830706  84.3699938
 116.3639141  27.8824876  84.7765130 117.6730270  27.1886394  85.0874421
 119.3279854  37.5788462  86.3034203 119.2856033  37.8049309  85.3742735
 120.2442553  37.3451837  86.4520004 116.6685351  25.1549061  89.9861173
 117.3084730  25.0137820  89.2884137 115.8362881  24.8683574  89.6099775
 117.4445655  34.4551491  86.0996166 118.2386253  33.9601812  85.8978741
 116.7337347  33.9269355  85.7363871 113.7528418  28.5994573  82.1755918
 112.8226006  28.5379029  82.3925881 113.8485890  28.0770526  81.3792560
 113.6713967  25.1249386  84.7634160 113.9320784  26.0394719  84.6543321
 114.4931139  24.6573829  84.9130773 115.1438892  26.5387143  91.9332985
 115.8161946  26.3304505  91.2845634 114.3168679  26.3409229  91.4938217
 120.0216931  35.0280513  89.7794003 119.8828016  34.6599298  90.6519941
 119.2331527  35.5428153  89.6077961 120.6165082  40.1289610  81.1219539
 120.7916838  39.6577653  81.9365162 119.9297871  40.7555376  81.3500800
 121.5722146  34.4062116  87.1682841 121.2371978  34.3662886  88.0640490
 121.0726091  33.7406832  86.6953251 115.5466390  29.8129746  92.6935422
 115.4086188  29.0809985  93.2946961 116.4571313  29.7238646  92.4119610
 118.1748690  29.5249706  92.1819101 118.8848309  28.8842898  92.1405720
 118.1317998  29.7762600  93.1045282 115.1826168  43.2778973  87.8959400
 115.4222766  43.9097497  88.5738418 114.3395364  42.9267013  88.1824759
 116.2979883  25.9703575  76.5641205 115.4209350  25.8492376  76.2003451
 116.7737636  25.1789653  76.3120093 107.8182023  30.7580735  86.6582712
 108.5053063  30.4442465  86.0703727 107.6630152  31.6622099  86.3849963
 112.6216746  25.6470931  91.0867735 112.5374934  25.0396601  90.3518145
 111.7999452  26.1379949  91.0877232 119.6954030  39.0858095  90.3000904
 119.6224201  39.8913067  90.8120208 119.2531423  39.2850061  89.4748925
 119.4843809  38.3229865  83.8103725 118.7011331  38.8651545  83.9041950
 120.1836554  38.8403845  84.2097966 119.3775428  26.2741878  86.1809615
 119.0073216  25.7212918  86.8690521 119.8734521  25.6700011  85.6284615
 117.2064627  36.7339373  93.2764633 117.9074086  37.3675856  93.4294027
 116.7359742  37.0754104  92.5160272 112.8032345  36.2675728  90.2095736
 113.3885782  35.5219416  90.3423640 112.6057183  36.5779684  91.0932400
 115.6571000  39.3026975  85.2258178 114.9881375  39.7873103  84.7422218
 115.5183870  39.5496196  86.1401557 107.3949999  28.8381328  88.9300179
 107.4334099  28.3044919  89.7237297 106.8890292  28.3116533  88.3111156
 119.7976269  41.3370719  91.8240836 120.3494577  41.5002340  92.5889922
 120.1382462  41.9275156  91.1520861 114.7740762  23.6845868  92.4262721
 114.8382088  24.5460699  92.0140119 114.7107882  23.0719870  91.6935080
 111.0258577  27.5645430  82.0054110 111.3212018  26.6556108  81.9521164
 110.1246613  27.5433170  81.6835113 114.5552824  25.6401427  87.9881659
 113.8339410  26.2537394  87.8489132 115.3446080  26.1759191  87.9098305
 112.7546419  25.2459528  82.1293435 112.4259125  24.3656907  81.9468541
 113.1085789  25.1907196  83.0169825 115.8688242  25.5332498  82.4968913
 116.2084314  26.0618419  81.7747521 116.3160362  25.8712904  83.2727480
 117.8556389  24.0307119  80.6962206 118.5764751  24.4088372  80.1925923
 117.2321693  24.7495996  80.7997184 116.7386733  27.6937981  88.2091283
 116.5931314  28.0078284  89.1015564 116.2611937  28.3122882  87.6562181
 118.5983116  24.6840529  88.2572172 118.5844685  23.7881623  87.9204470
 119.3155544  24.6911193  88.8910458 111.2132395  30.2343326  91.1478944
 110.6685863  31.0103134  91.2799218 112.0911745  30.5814130  90.9898065
 118.0020012  23.5654910  83.5259742 118.1235923  22.6371556  83.7250630
 117.7122054  23.5793596  82.6138058 120.8711202  21.2509820  86.6626462
 120.8932899  21.3149153  85.7078442 121.2879261  20.4114329  86.8566968
 111.9998417  29.3613222  94.0409101 111.2580153  29.5095857  94.6273731
 111.6791162  29.6221488  93.1775850 119.9442080  38.9029200  93.8389491
 120.2529206  38.6578347  94.7112190 120.7417562  39.1075839  93.3508361
 119.9662692  41.0567110  86.0694867 119.5267682  40.5643489  86.7627724
 120.7170809  40.5140078  85.8286943 112.4455031  37.2478651  86.0719495
 113.2713051  36.9482423  85.6918139 112.0949083  36.4786273  86.5209284
 117.4136564  36.6005119  88.1417169 116.7916573  35.9375824  87.8419397
 118.0841431  36.6266251  87.4590817 110.6463636  35.1664977  87.0308429
 109.8095544  34.7387152  86.8492430 110.6187281  35.3597421  87.9679220
 116.9750071  35.1509042  81.6175630 117.1238191  35.8344507  80.9642302
 117.7816514  35.1314132  82.1325085 114.7302704  31.1774220  82.6236698
 114.4848746  30.2736550  82.8216909 114.8998619  31.1791370  81.6816176
 113.9998352  26.9102577  80.1222860 113.3067596  26.9846932  79.4662896
 113.7550103  26.1462921  80.6444377 120.4745477  37.6457173  79.0887377
 119.9019444  38.2647360  78.6357849 121.0478270  38.1956534  79.6227299
 119.0435192  26.9067962  76.3658315 118.1366648  26.6101075  76.4421028
 119.3211173  26.6097780  75.4992601 109.9613133  28.2274325  86.8157361
 109.6415917  27.3739633  86.5231735 109.4146561  28.4422903  87.5715328
 113.7393040  30.9436766  90.5326868 113.9579050  31.8753874  90.5514901
 114.1518814  30.5844741  91.3181671 120.6597258  21.4504852  82.5202556
 119.8497986  21.1051937  82.8957802 121.3481675  21.1412395  83.1090168
 117.8133977  23.7654897  76.5070294 118.6753141  24.0909795  76.7666111
 117.9984321  22.9786393  75.9943360 109.8301393  31.8477237  88.7850483
 109.1364864  31.4331190  88.2720437 110.5774384  31.8897773  88.1883902
 111.7438135  31.7795491  86.6616498 111.7208823  31.8783178  85.7098381
 112.0538772  32.6260641  86.9833664 114.4025513  33.8371646  90.7763112
 115.3568767  33.8055588  90.7093044 114.2038037  33.3762269  91.5913338
 114.9924895  32.4072762  93.3433910 115.8117784  32.9016840  93.3668747
 115.2661703  31.4904730  93.3151477 112.7575742  39.3791265  87.7933310
 112.6230210  38.6191666  87.2271308 112.3407804  40.1032165  87.3262099
 115.9144868  40.2760582  88.0051752 115.7977252  41.2206015  87.9030443
 115.0937314  39.9734144  88.3937552 110.2459809  26.7410895  94.0426107
 110.8918673  26.2309849  94.5313332 110.0376960  27.4779577  94.6169532
 118.7663420  21.0050940  79.7950003 118.7542090  21.9492780  79.9518274
 119.6586842  20.8221086  79.5009464 116.9399382  40.9288844  91.2207681
 117.8426628  40.9612454  91.5374176 116.7136752  39.9989295  91.2354017
 118.6952984  39.6819831  87.8817760 117.7448615  39.6821692  87.7682132
 118.9985470  38.9352565  87.3653794 118.6575778  46.0872652  86.6582712
 119.3446818  45.7734382  86.0703727 118.5023907  46.9914017  86.3849963
 118.2343754  44.1673246  88.9300179 118.2727853  43.6336836  89.7237297
 117.7284047  43.6408451  88.3111156 121.4857390  50.4956895  87.0308429
 120.6489299  50.0679069  86.8492430 121.4581036  50.6889338  87.9679220
 120.8006887  43.5566243  86.8157361 120.4809671  42.7031551  86.5231735
 120.2540315  43.7714821  87.5715328 120.6695147  47.1769154  88.7850483
 119.9758618  46.7623107  88.2720437 121.4168138  47.2189691  88.1883902
 117.5439339  17.5355701  70.4756504 117.4663369  18.4863526  70.5544985
 116.9400983  17.1901574  71.1331430 115.1826169  20.2841095  74.6204706
 115.4222767  20.9159619  75.2983725 114.3395366  19.9329135  74.9070065
 115.6571001  16.3089098  71.9503485 114.9881377  16.7935225  71.4667525
 115.5183871  16.5558318  72.8646863 119.7976270  18.3432841  78.5486143
 120.3494578  18.5064463  79.3135228 120.1382463  18.9337279  77.8766168
 112.7575743  16.3853388  74.5178616 112.6230211  15.6253789  73.9516615
 112.3407805  17.1094288  74.0507405 115.9144869  17.2822705  74.7297059
 115.7977253  18.2268137  74.6275749 115.0937315  16.9796266  75.1182858
 116.9399383  17.9350967  77.9452988 117.8426630  17.9674577  78.2619482
 116.7136753  17.0051418  77.9599323 118.6575779  23.0934775  73.3828018
 119.3446819  22.7796505  72.7949034 118.5023908  23.9976139  73.1095270
 118.2343755  21.1735368  75.6545485 118.2727855  20.6398959  76.4482604
 117.7284048  20.6470574  75.0356463 121.4857392  27.5019017  73.7553736
 120.6489300  27.0741192  73.5737737 121.4581037  27.6951461  74.6924527
 120.8006888  20.5628366  73.5402668 120.4809673  19.7093674  73.2477042
 120.2540316  20.7776944  74.2960635 120.6695148  24.1831277  75.5095789
 119.9758620  23.7685230  74.9965744 121.4168139  24.2251814  74.9129208
  46.5417581  70.6193776 132.0091231  45.8679280  70.9225473 132.6176188
  46.9283403  71.4222857 131.6596688  50.5074322  68.1979260 133.2831054
  51.2025226  68.8185953 133.5018368  50.8497472  67.3474611 133.5583432
  44.5989190  68.3041012 132.1906147  44.0263157  68.9231199 131.7376619
  45.1721984  68.8540373 132.7246069  47.8186450  68.5878162 133.3214730
  48.7517123  68.5223723 133.5247605  47.7309663  69.4234429 132.8629262
  50.4474467  67.9044032 130.2818677  50.3688098  67.5703896 131.1754435
  51.2684133  68.3965800 130.2810150  48.0178418  65.2212027 129.9028655
  48.7214268  65.4262030 130.5186311  47.2941067  65.7888789 130.1677739
  49.9265116  65.6594557 131.9527116  50.7610720  65.2275755 131.7704590
  49.7649459  65.4876570 132.8804010  51.3878971  72.1132104 132.4662068
  50.5516283  72.4506791 132.7871343  51.2483741  71.9781084 131.5289205
  51.2617351  71.9579331 129.6659975  50.3846818  71.8368132 129.3022222
  51.7375104  71.1665410 129.4138864  48.9635820  72.8978334 133.2241630
  48.2705064  72.9722689 132.5681666  48.7187571  72.1338678 133.7463147
  54.0072660  72.8943718 129.4677085  53.1004116  72.5976831 129.5439799
  54.2848641  72.5973537 128.6011371  52.7771445  69.7530654 129.6089064
  53.6390609  70.0785552 129.8684882  52.9621789  68.9662150 129.0962130
  53.7300888  66.9926697 132.8968773  53.7179558  67.9368537 133.0537044
  54.6224310  66.8096842 132.6028234  46.5417582  47.6255899 118.7336537
  45.8679281  47.9287596 119.3421495  46.9283404  48.4284979 118.3841994
  50.5074323  45.2041383 120.0076360  51.2025227  45.8248075 120.2263675
  50.8497473  44.3536734 120.2828738  44.5989191  45.3103134 118.9151454
  44.0263158  45.9293321 118.4621926  45.1721985  45.8602496 119.4491376
  47.8186451  45.5940284 120.0460036  48.7517124  45.5285846 120.2492912
  47.7309664  46.4296551 119.5874569  50.4474468  44.9106155 117.0063984
  50.3688099  44.5766018 117.8999742  51.2684135  45.4027923 117.0055456
  48.0178420  42.2274150 116.6273962  48.7214270  42.4324153 117.2431618
  47.2941068  42.7950912 116.8923046  49.9265117  42.6656679 118.6772422
  50.7610721  42.2337878 118.4949897  49.7649460  42.4938693 119.6049317
  58.5549392  53.1826330 128.7727599  59.1927802  53.0633078 128.0690939
  58.4370235  54.1307174 128.8315551  51.2225914  54.9889235 124.6986015
  50.6590779  54.8979172 123.9302302  51.1078309  54.1689139 125.1788507
  56.8025473  58.6560203 120.0100479  56.1513453  59.2414283 119.6234493
  57.5969836  59.1866398 120.0695517  50.7281100  55.7449340 120.4087614
  51.5011976  55.1978327 120.2700490  51.0806499  56.6093589 120.6202075
  53.0647378  51.9042006 118.0406064  53.3172898  51.3823527 117.2789527
  52.1271937  51.7408151 118.1432747  58.1090661  50.9077784 125.8480807
  58.8953750  50.4897207 125.4971224  58.3729365  51.8123876 126.0162455
  58.2800738  56.3450635 120.5469464  57.6446571  56.4185261 121.2590368
  57.9498144  56.9344233 119.8688543  63.5099088  50.8453017 126.7513785
  64.2424260  50.2752234 126.9851615  62.7538443  50.4574618 127.1920291
  52.7843666  53.8070112 120.2430439  52.6679925  53.1315015 120.9111523
  52.8945926  53.3202486 119.4262592  55.1275207  53.2680259 123.9477128
  54.7633415  52.7410880 124.6590049  55.9842323  52.8778728 123.7743613
  54.7680694  48.2970159 118.9438476  54.9355097  49.1650395 119.3108947
  54.5777863  48.4597440 118.0199766  54.7469915  50.7527816 119.9285143
  54.6269540  51.1984867 120.7670624  54.0522504  51.1013134 119.3698681
  52.5076807  63.5231458 123.5775275  52.4300837  64.4739283 123.6563755
  51.9038451  63.1777330 124.2350201  60.4454981  51.2249289 120.7565477
  61.3572838  51.4576676 120.5813175  59.9364628  51.8086334 120.1940556
  59.0524564  56.2075108 128.1479059  58.4233426  56.3720822 127.4455127
  58.6650226  56.6216717 128.9190023  62.9313796  57.1429546 125.5023423
  62.2464834  57.5228447 124.9520456  63.0157645  57.7524872 126.2355370
  54.6052526  55.9449516 125.4129144  55.0690871  56.2237219 124.6233766
  54.3409324  55.0432960 125.2302235  53.5421412  52.0672668 122.2218709
  54.2445455  52.5193712 122.6892635  53.2102040  51.4256487 122.8498602
  61.3010555  57.6661460 130.2741123  62.1227999  57.2641647 129.9923805
  61.2972958  57.5629694 131.2257239  69.3916548  54.0100209 126.6226095
  68.6380257  53.4407607 126.4670099  69.5264089  53.9762873 127.5696730
  54.7815176  58.8813611 122.2980814  54.6460851  59.7265147 122.7265662
  55.3224989  59.0832889 121.5346748  48.2344574  56.3989049 122.8708739
  48.7469094  57.1932299 123.0214304  48.8867286  55.7015339 122.8042341
  50.0439458  59.5154805 124.9531492  50.2206087  60.4372770 124.7652476
  50.8396292  59.2013224 125.3825872  51.1670774  61.0332979 130.9541835
  51.7178199  60.9050042 130.1818829  50.3282250  61.3327868 130.6036728
  46.1993490  54.7277703 123.6468310  47.0368712  55.1374712 123.4302018
  46.3771758  53.7877145 123.6168504  58.0957923  52.3952784 119.3352143
  57.5804546  53.1657388 119.5740530  57.8235231  51.7217920 119.9585204
  55.6805034  47.2402485 124.3937381  54.8246630  46.8509335 124.2143020
  56.0931985  47.3194445 123.5337167  63.0692197  55.1485139 121.2705316
  62.2921639  54.8096298 120.8260478  63.7483678  55.1537762 120.5960281
  57.8844226  50.2679876 121.1611924  57.5794361  50.5826025 122.0122067
  58.8374668  50.3461296 121.2039257  56.3290658  56.4270099 122.8104878
  55.8012019  55.6922859 122.4978115  55.8278160  57.2044776 122.5644846
  61.3083504  54.6219120 127.9271924  60.6507178  55.3118381 128.0152053
  62.1123903  55.0115552 128.2705911  60.1188962  52.9763492 125.9775866
  60.6320844  53.6093484 126.4797576  60.7690186  52.3764688 125.6119226
  51.3878972  49.1194227 119.1907375  50.5516285  49.4568913 119.5116649
  51.2483742  48.9843206 118.2534512  54.4743258  54.2450310 115.8139851
  53.5670319  54.0139563 116.0131000  54.9714290  53.4487929 116.0013833
  57.3811337  62.9547817 118.7336537  56.7073035  63.2579513 119.3421495
  57.7677159  63.7576897 118.3841994  57.3804841  51.8504364 123.3536887
  58.1276660  52.3625761 123.0444009  57.6496431  51.5288416 124.2141280
  55.6531491  54.3462904 120.3363841  54.7442710  54.0621937 120.4336311
  55.6826575  54.7661983 119.4767148  60.8850759  57.9569494 124.1055009
  60.4313086  57.1160404 124.1620199  60.2544725  58.5930892 124.4429789
  59.8283678  48.8861480 125.3355676  59.0906435  48.3738866 125.6665919
  60.0810452  48.4461862 124.5238953  59.3283698  59.7945991 125.0404827
  59.6206672  60.3551048 124.3217192  59.8382318  60.0874552 125.7957986
  54.2016385  51.9591525 126.4373636  54.2564995  51.0065361 126.3616113
  53.3907587  52.1150964 126.9214935  52.1408745  50.5768585 124.1964015
  51.3276611  50.8762755 124.6029207  52.6367739  50.1824274 124.9138498
  54.2917323  60.5726342 126.1298280  54.2493502  60.7987188 125.2006812
  55.2080022  60.3389716 126.2784081  63.4680694  54.1628845 123.7328238
  63.3298592  54.3530441 122.8049427  63.1116913  54.9248228 124.1896289
  63.4950073  56.2305372 128.7439510  63.9286580  56.1380661 129.5922564
  64.2081654  56.2062873 128.1059526  52.4083124  57.4489371 125.9260243
  53.2023722  56.9539691 125.7242818  51.6974816  56.9207234 125.5627948
  57.2277968  59.8307466 130.2772610  57.2814991  60.3998403 131.0450326
  56.3592750  60.0009351 129.9126647  48.7165887  51.5932452 122.0019995
  47.7863475  51.5316908 122.2189958  48.8123359  51.0708405 121.2056637
  64.3565623  56.2729073 131.2772395  64.5501513  57.1774883 131.5231670
  64.2566241  55.8136492 132.1110980  54.9854400  58.0218393 129.6058080
  54.8465486  57.6537177 130.4784018  54.1968996  58.5366032 129.4342038
  55.5802552  63.1227489 120.9483616  55.7554307  62.6515532 121.7629239
  54.8935340  63.7493255 121.1764877  56.5359615  57.3999995 126.9946918
  56.2009448  57.3600765 127.8904567  56.0363561  56.7344711 126.5217328
  59.4718807  54.7456030 117.2683977  58.8547977  54.0202858 117.1717030
  59.0035295  55.5065390 116.9251052  50.1463637  66.2716852 127.7223477
  50.3860235  66.9035376 128.4002495  49.3032834  65.9204892 128.0088836
  51.2617353  48.9641454 116.3905282  50.3846819  48.8430255 116.0267528
  51.7375106  48.1727532 116.1384170  54.6591499  62.0795974 130.1264981
  54.5861670  62.8850946 130.6384285  54.2168892  62.2787940 129.3013002
  54.4481279  61.3167744 123.6367802  53.6648800  61.8589425 123.7306027
  55.1474024  61.8341724 124.0362043  65.6107686  52.8302739 127.9220299
  65.5997562  53.7127455 127.5514232  64.7425066  52.4774290 127.7274836
  57.1190182  61.9782808 132.2823139  57.8318155  62.6130273 132.2099041
  56.6280211  62.0746674 131.4663141  58.8407709  55.8834061 123.8540431
  57.9063988  56.0035524 123.6845135  59.0184378  54.9806528 123.5900441
  62.2280261  51.7251380 124.3890465  62.6940713  52.5579372 124.3150768
  62.6787761  51.2596362 125.0935723  60.2956492  58.0695202 121.3876617
  60.5716336  57.9551796 122.2970491  59.4260991  57.6712686 121.3488790
  56.9310556  62.3181552 125.0309431  57.1132950  61.5003208 125.4937183
  57.7543542  62.5349245 124.5934321  57.2652721  61.2449738 122.2924479
  57.7940488  60.7342192 121.6794641  57.5280941  60.9292268 123.1570012
  50.6208469  62.2964854 125.0522255  49.9518845  62.7810982 124.5686295
  50.4821339  62.5434075 125.9665634  54.7613738  64.3308598 131.6504913
  55.3132046  64.4940219 132.4153999  55.1019931  64.9213036 130.9784938
  45.9896046  50.5583309 121.8318187  46.2849487  49.6493988 121.7785241
  45.0884082  50.5371049 121.5099190  57.8982125  62.2790573 128.6368596
  57.7733265  61.4780313 128.1279541  58.5561216  62.7736767 128.1482566
  59.9617034  60.0799593 130.2648146  59.0147369  59.9604945 130.1926472
  60.3099807  59.1922091 130.3474407  56.9663467  59.8752310 126.4652498
  56.8188429  58.9469017 126.6460068  57.7916960  59.8972400 125.9809573
  50.8325711  48.5270377 122.3232990  51.1721784  49.0556298 121.6011598
  51.2797832  48.8650783 123.0991557  60.5697589  60.6980868 127.5517371
  61.4944136  60.4923730 127.4141822  60.4012892  60.4497270 128.4606712
  52.8193858  47.0244998 120.5226283  53.5402221  47.4026251 120.0190000
  52.1959162  47.7433875 120.6261261  56.9624981  47.7290147 121.4584615
  57.1788596  48.6114785 121.1573443  56.4819048  47.3376361 120.7290257
  60.3592905  61.2166536 122.9079462  60.5329782  60.6512958 122.1553315
  60.8521796  62.0167431 122.7258952  66.2132296  53.9802959 124.5269762
  66.6563442  53.2310284 124.1288885  65.3358806  53.9713095 124.1443494
  61.3468077  60.5333300 120.0076360  62.0418982  61.1539993 120.2263675
  61.6891227  59.6828651 120.2828738  63.2459500  57.9833006 121.5363691
  63.7710825  58.3220279 120.8113011  63.1581853  57.0480021 121.3526826
  54.9300161  64.0504989 125.8958944  54.4905152  63.5581368 126.5891801
  55.6808278  63.5077957 125.6551020  47.4092500  60.2416530 125.8983572
  48.2350520  59.9420302 125.5182216  47.0586552  59.4724152 126.3473361
  52.3774033  59.5942998 127.9681246  51.7554043  58.9313703 127.6683474
  53.0478900  59.6204130 127.2854894  51.9387540  58.1446921 121.4439707
  52.0875661  58.8282386 120.7906379  52.7453984  58.1252012 121.9589162
  65.7565161  55.4508197 126.9192209  66.5912052  55.8898001 127.0829770
  65.8924290  54.9746850 126.1000455  49.6940173  54.1712099 122.4500775
  49.4486215  53.2674429 122.6480986  49.8636088  54.1729250 121.5080253
  48.9635821  49.9040457 119.9486937  48.2705066  49.9784812 119.2926973
  48.7187573  49.1400800 120.4708454  55.4382946  60.6395052 118.9151454
  54.8656913  61.2585239 118.4621926  56.0115739  61.1894414 119.4491376
  58.6580206  60.9232202 120.0460036  59.5910879  60.8577764 120.2492912
  58.5703418  61.7588469 119.5874569  61.2868222  60.2398072 117.0063984
  61.2081854  59.9057936 117.8999742  62.1077889  60.7319840 117.0055456
  63.9846413  53.1059812 130.2140302  63.9522734  52.1675812 130.3999986
  64.5947037  53.1843848 129.4806127  69.8022963  54.1675819 129.3546339
  70.5326352  53.9061107 129.9154043  69.1929909  53.4304540 129.3948407
  67.8838260  52.3083681 129.9520790  67.1571424  52.1739646 129.3437282
  67.4685547  52.6160510 130.7577508  54.0072661  49.9005841 116.1922392
  53.1004117  49.6038954 116.2685105  54.2848642  49.6035659 115.3256678
  55.6234727  44.4442731 122.3466633  54.8135456  44.0989816 122.7221879
  56.3119144  44.1350274 122.9354245  52.7771446  46.7592776 116.3334371
  53.6390610  47.0847675 116.5930188  52.9621790  45.9724272 115.8207437
  60.9304083  45.6321303 123.4769594  60.3502752  46.2906107 123.0947646
  60.6640015  44.8098647 123.0657011  59.7128961  47.7921393 122.5325942
  58.8254816  48.0771044 122.3146137  60.1282950  47.6315156 121.6853219
  63.0643497  47.8167914 126.2480281  63.8403887  48.3064367 126.5204898
  62.3391631  48.2425968 126.7052151  65.5016055  48.5295533 127.3054222
  66.0960546  48.2891269 126.5947530  65.5742639  47.8102664 127.9327758
  47.7213211  62.3729144 127.6197387  47.5867679  61.6129545 127.0535385
  47.3045273  63.0970044 127.1526176  58.8572174  57.5566068 116.6273962
  59.5608024  57.7616070 117.2431618  58.1334823  58.1242830 116.8923046
  59.6869984  53.3075929 122.7476232  59.6305186  53.7644480 121.9083865
  60.2398327  52.5466614 122.5699075  63.4974790  49.0965661 123.5726352
  63.2411724  48.6962297 124.4034559  62.8727658  49.8109455 123.4476491
  67.8087128  51.8361734 126.0797643  67.2486686  51.9054923 126.8529205
  67.2030631  51.6602719 125.3597139  50.8782337  63.2698461 127.8315829
  50.7614721  64.2143894 127.7294520  50.0574783  62.9672023 128.2201629
  60.7658871  57.9948597 118.6772422  61.6004475  57.5629795 118.4949897
  60.6043214  57.8230611 119.6049317  60.4204764  54.4980710 120.0428761
  60.3653567  54.3324982 119.1017206  59.7950819  55.2056743 120.1990951
  53.7300889  43.9988819 119.6214080  53.7179559  44.9430659 119.7782351
  54.6224311  43.8158965 119.3273541  51.9036851  63.9226723 131.0471758
  52.8064098  63.9550333 131.3638253  51.6774221  62.9927174 131.0618094
  53.6590453  62.6757710 127.7081837  52.7086084  62.6759571 127.5946209
  53.9622939  61.9290444 127.1917871  62.0619669  70.3181153 124.6986015
  61.4984534  70.2271090 123.9302302  61.9472064  69.4981057 125.1788507
  59.6084100  71.8132344 127.5370235  60.4005392  71.4723169 127.1216534
  59.8480751  71.9227319 128.4572388  67.6419227  73.9852120 120.0100479
  66.9907207  74.5706201 119.6234493  68.4363590  74.5158315 120.0695517
  61.5674854  71.0741257 120.4087614  62.3405730  70.5270245 120.2700490
  61.9200253  71.9385507 120.6202075  63.9041132  67.2333924 118.0406064
  64.1566653  66.7115445 117.2789527  62.9665691  67.0700069 118.1432747
  68.9484415  66.2369702 125.8480807  69.7347504  65.8189125 125.4971224
  69.2123119  67.1415794 126.0162455  69.1194492  71.6742552 120.5469464
  68.4840325  71.7477179 121.2590368  68.7891899  72.2636151 119.8688543
  63.6237421  69.1362030 120.2430439  63.5073679  68.4606933 120.9111523
  63.7339681  68.6494403 119.4262592  65.9668962  68.5972177 123.9477128
  65.6027169  68.0702798 124.6590049  66.8236078  68.2070646 123.7743613
  65.6074449  63.6262076 118.9438476  65.7748851  64.4942313 119.3108947
  65.4171618  63.7889358 118.0199766  61.8162264  68.5392852 126.6441011
  60.8912760  68.4069066 126.8518703  62.0646677  69.3187071 127.1410954
  65.5863670  66.0819734 119.9285143  65.4663295  66.5276785 120.7670624
  64.8916258  66.4305052 119.3698681  59.1771075  68.1826126 127.4784800
  59.3063456  68.4360605 128.3924212  58.4968526  68.7753834 127.1589455
  71.2848736  66.5541207 120.7565477  72.1966592  66.7868594 120.5813175
  70.7758383  67.1378251 120.1940556  68.6284711  62.7299243 129.0055338
  67.7669190  63.0280497 129.2972076  68.6547145  62.9469642 128.0736371
  65.4446280  71.2741434 125.4129144  65.9084626  71.5529137 124.6233766
  65.1803078  70.3724878 125.2302235  64.3815166  67.3964586 122.2218709
  65.0839209  67.8485630 122.6892635  64.0495795  66.7548405 122.8498602
  58.1240500  65.6548139 127.5235843  57.3339554  65.9105667 127.0475953
  58.6151747  66.4696476 127.6287883  60.0755245  66.0192718 124.4819319
  59.2786409  66.1311412 125.0002815  59.8480838  66.3579370 123.6160210
  56.4078203  65.9078629 129.9550833  56.6586241  66.7925639 130.2208409
  56.9437751  65.7283231 129.1825925  65.6208931  74.2105529 122.2980814
  65.4854606  75.0557064 122.7265662  66.1618743  74.4124806 121.5346748
  59.0738328  71.7280967 122.8708739  59.5862849  72.5224217 123.0214304
  59.7261041  71.0307257 122.8042341  60.8833213  74.8446723 124.9531492
  61.0599841  75.7664688 124.7652476  61.6790046  74.5305142 125.3825872
  68.9701394  57.7336090 130.8279708  68.6265664  58.6237732 130.7518818
  69.3380357  57.5437748 129.9649293  57.0387245  70.0569621 123.6468310
  57.8762467  70.4666629 123.4302018  57.2165513  69.1169063 123.6168504
  68.9351677  67.7244702 119.3352143  68.4198300  68.4949306 119.5740530
  68.6628985  67.0509838 119.9585204  66.5198788  62.5694402 124.3937381
  65.6640384  62.1801253 124.2143020  66.9325740  62.6486363 123.5337167
  68.0497935  60.1040746 128.7928941  67.5462730  60.0670881 127.9796746
  68.3428542  61.0133488 128.8525598  64.2940821  60.1879475 127.7995123
  65.1593817  59.9922284 127.4401012  64.3618330  59.9589827 128.7264479
  73.9085951  70.4777056 121.2705316  73.1315394  70.1388216 120.8260478
  74.5877432  70.4829679 120.5960281  68.7237980  65.5971794 121.1611924
  68.4188116  65.9117943 122.0122067  69.6768422  65.6753214 121.2039257
  67.1684412  71.7562017 122.8104878  66.6405774  71.0214777 122.4978115
  66.6671915  72.5336693 122.5644846  61.9003140  62.4181683 125.1711489
  62.4746892  62.1956865 124.4384682  62.4874122  62.4870378 125.9240091
  62.2272727  64.4486144 119.1907375  61.3910039  64.7860831 119.5116649
  62.0877496  64.3135124 118.2534512  64.2025807  59.2922932 123.8986559
  63.5490220  58.9771949 123.2743174  64.1606282  58.6698673 124.6246382
  65.3137012  69.5742227 115.8139851  64.4064074  69.3431481 116.0131000
  65.8108044  68.7779846 116.0013833  68.2205091  78.2839734 118.7336537
  67.5466790  78.5871431 119.3421495  68.6070913  79.0868815 118.3841994
  67.4363548  65.7804866 128.2234207  66.5186109  66.0019813 128.0655895
  67.8523691  65.8551176 127.3645914  68.2198596  67.1796281 123.3536887
  68.9670414  67.6917679 123.0444009  68.4890185  66.8580334 124.2141280
  66.4925246  69.6754822 120.3363841  65.5836465  69.3913855 120.4336311
  66.5220329  70.0953901 119.4767148  70.6677433  64.2153398 125.3355676
  69.9300189  63.7030784 125.6665919  70.9204206  63.7753779 124.5238953
  70.7689060  56.9929650 125.9297445  71.0747937  56.1327013 125.6423360
  71.4941665  57.5847270 125.7296439  57.0613416  67.3960336 124.3179043
  56.8637816  66.8029697 123.5930110  56.5060080  67.0912546 125.0354982
  65.0410140  67.2883443 126.4373636  65.0958750  66.3357279 126.3616113
  64.2301342  67.4442882 126.9214935  66.1901333  71.2163566 117.6751920
  65.7520763  70.4999425 117.2157557  66.9311774  71.4439681 117.1137011
  62.9802500  65.9060502 124.1964015  62.1670365  66.2054673 124.6029207
  63.4761494  65.5116191 124.9138498  74.3074448  69.4920763 123.7328238
  74.1692347  69.6822359 122.8049427  73.9510667  70.2540146 124.1896289
  62.4716574  63.4778858 129.8125250  63.1115954  63.3367617 129.1148214
  61.6394105  63.1913371 129.4363852  63.2476878  72.7781288 125.9260243
  64.0417477  72.2831609 125.7242818  62.5368571  72.2499151 125.5627948
  59.5559642  66.9224370 122.0019995  58.6257230  66.8608826 122.2189958
  59.6517114  66.4000323 121.2056637  59.4745191  63.4479183 124.5898237
  59.7352008  64.3624516 124.4807398  60.2962363  62.9803625 124.7394850
  60.9470116  64.8616940 131.7597062  61.6193170  64.6534302 131.1109711
  60.1199903  64.6639026 131.3202294  66.4196306  78.4519407 120.9483616
  66.5948062  77.9807450 121.7629239  65.7329094  79.0785173 121.1764877
  70.3112561  70.0747947 117.2683977  69.6941732  69.3494776 117.1717030
  69.8429050  70.8357308 116.9251052  62.1011107  64.2933372 116.3905282
  61.2240573  64.1722172 116.0267528  62.5768860  63.5019450 116.1384170
  53.6213247  69.0810531 126.4846789  54.3084287  68.7672261 125.8967804
  53.4661376  69.9851896 126.2114040  58.4247969  63.9700728 130.9131812
  58.3406158  63.3626398 130.1782222  57.6030676  64.4609746 130.9141309
  68.5971683  62.4554292 126.2802007  69.0940383  61.7024254 125.9603078
  67.8258665  62.4918608 125.7145217  69.6801464  71.2125979 123.8540431
  68.7457743  71.3327441 123.6845135  69.8578132  70.3098446 123.5900441
  65.1806652  64.5971675 126.0073692  64.8104439  64.0442715 126.6954598
  65.6765744  63.9929808 125.4548692  73.0674015  67.0543298 124.3890465
  73.5334467  67.8871290 124.3150768  73.5181516  66.5888280 125.0935723
  71.1350246  73.3987119 121.3876617  71.4110090  73.2843714 122.2970491
  70.2654745  73.0004604 121.3488790  71.0390678  59.4223885 128.4281366
  70.1253758  59.6528112 128.5963573  71.4683779  59.5062329 129.2795399
  68.1046476  76.5741655 122.2924479  68.6334242  76.0634110 121.6794641
  68.3674695  76.2584185 123.1570012  53.1981223  67.1611125 128.7564256
  53.2365323  66.6274715 129.5501374  52.6921516  66.6346330 128.1375233
  60.5771986  62.0075665 132.2526798  60.6413312  62.8690496 131.8404196
  60.5139106  61.3949667 131.5199157  56.8289801  65.8875227 121.8318187
  57.1243242  64.9785905 121.7785241  55.9277837  65.8662966 121.5099190
  60.3584048  63.9631224 127.8145736  59.6370634  64.5767191 127.6753209
  61.1477304  64.4988988 127.7362382  58.5577642  63.5689325 121.9557512
  58.2290349  62.6886704 121.7732618  58.9117013  63.5136993 122.8433902
  61.6719466  63.8562294 122.3232990  62.0115538  64.3848216 121.6011598
  62.1191586  64.1942701 123.0991557  64.3662906  62.2399345 131.7736058
  64.0259727  61.4407158 132.1756738  63.6601913  62.5401056 131.2012891
  65.0179378  59.3248658 130.2263381  65.8405448  58.8509136 130.1042271
  65.2617442  60.1039141 130.7262067  63.6587613  62.3536916 120.5226283
  64.3795975  62.7318169 120.0190000  63.0352917  63.0725793 120.6261261
  67.8018736  63.0582065 121.4584615  68.0182350  63.9406703 121.1573443
  67.3212803  62.6668278 120.7290257  62.5417957  66.0167778 128.0355360
  62.3962538  66.3308081 128.9279641  62.0643161  66.6352679 127.4826258
  64.4014340  63.0070326 128.0836249  64.3875909  62.1111419 127.7468547
  65.1186768  63.0140990 128.7174535  66.2540471  63.4407666 130.1289377
  65.9958248  64.3624737 130.1273707  65.7225511  63.0438101 130.8189841
  57.0163619  68.5573123 130.9743021  56.4717087  69.3332931 131.1063295
  57.8942969  68.9043927 130.8162142  63.8051236  61.8884706 123.3523819
  63.9267147  60.9601353 123.5514707  63.5153278  61.9023392 122.4402135
  66.6742426  59.5739617 126.4890539  66.6964123  59.6378950 125.5342519
  67.0910485  58.7344126 126.6831045  72.1861832  75.8625218 120.0076360
  72.8812736  76.4831911 120.2263675  72.5284982  75.0120569 120.2828738
  74.0853255  73.3124923 121.5363691  74.6104579  73.6512196 120.8113011
  73.9975608  72.3771939 121.3526826  58.2486255  75.5708448 125.8983572
  59.0744275  75.2712219 125.5182216  57.8980307  74.8016070 126.3473361
  56.4494860  73.4894774 126.8572506  55.6126768  73.0616948 126.6756507
  56.4218505  73.6827217 127.7943297  62.7781295  73.4738839 121.4439707
  62.9269415  74.1574304 120.7906379  63.5847738  73.4543929 121.9589162
  60.5333928  69.5004017 122.4500775  60.2879970  68.5966347 122.6480986
  60.7029842  69.5021167 121.5080253  59.8029575  65.2332374 119.9486937
  59.1098820  65.3076729 119.2926973  59.5581327  64.4692718 120.4708454
  68.4743232  56.7927976 127.3526428  68.7544986  56.1251165 127.9786854
  69.2593839  56.9857071 126.8401091  66.2776700  75.9686970 118.9151454
  65.7050667  76.5877157 118.4621926  66.8509494  76.5186331 119.4491376
  69.4973960  76.2524120 120.0460036  70.4304633  76.1869681 120.2492912
  69.4097173  77.0880387 119.5874569  72.1261977  75.5689990 117.0063984
  72.0475608  75.2349854 117.8999742  72.9471644  76.0611758 117.0055456
  66.6623499  67.3047782 116.2567506  67.6082604  67.1753990 116.3255924
  66.2837744  66.5662444 116.7336935  72.6345383  58.9703788 126.2194398
  72.4370204  58.6618877 127.1037730  73.2445089  59.6965427 126.3492328
  64.8466416  65.2297759 116.1922392  63.9397871  64.9330871 116.2685105
  65.1242397  64.9327577 115.3256678  55.7644356  66.5504122 126.6421438
  55.4447141  65.6969430 126.3495812  55.2177785  66.7652700 127.3979405
  66.4628482  59.7734648 122.3466633  65.6529210  59.4281733 122.7221879
  67.1512899  59.4642192 122.9354245  68.3919030  58.8512695 123.9690930
  68.9450069  59.2708149 124.6280953  68.6289116  57.9248443 124.0113886
  63.6165201  62.0884694 116.3334371  64.4784365  62.4139592 116.5930188
  63.8015545  61.3016190 115.8207437  55.6332616  70.1707034 128.6114560
  54.9396088  69.7560986 128.0984514  56.3805607  70.2127570 128.0147979
  71.7697837  60.9613220 123.4769594  71.1896506  61.6198024 123.0947646
  71.5033770  60.1390565 123.0657011  70.2201403  60.3618278 125.6790914
  70.7201182  60.4734813 124.8705233  70.8637011  60.0579331 126.3191723
  57.5469359  70.1025287 126.4880575  57.5240047  70.2012975 125.5362458
  57.8569995  70.9490438 126.8097741  70.5522715  63.1213311 122.5325942
  69.6648570  63.4062961 122.3146137  70.9676704  62.9607074 121.6853219
  73.9037251  63.1459832 126.2480281  74.6797641  63.6356284 126.5204898
  73.1785385  63.5717886 126.7052151  69.6965929  72.8857985 116.6273962
  70.4001779  73.0907988 117.2431618  68.9728577  73.4534747 116.8923046
  70.5263739  68.6367847 122.7476232  70.4698940  69.0936398 121.9083865
  71.0792081  67.8758531 122.5699075  74.3368545  64.4257579 123.5726352
  74.0805479  64.0254214 124.4034559  73.7121413  65.1401373 123.4476491
  71.6052626  73.3240515 118.6772422  72.4398230  72.8921713 118.4949897
  71.4436969  73.1522528 119.6049317  71.2598518  69.8272628 120.0428761
  71.2047322  69.6616899 119.1017206  70.6344573  70.5348661 120.1990951
  56.0491033  65.0640692 133.8690184  56.6949897  64.5539646 134.3577409
  55.8408184  65.8009374 134.4433609  64.5694644  59.3280737 119.6214080
  64.5573313  60.2722577 119.7782351  65.4618065  59.1450882 119.3273541
  68.3846763  55.9223514 123.8760017  67.6179159  55.3682000 124.0216699
  68.7957468  55.9945382 124.7374168  73.0666481  79.7778062 119.1907375
  72.2303794  80.1152748 119.5116649  72.9271251  79.6427042 118.2534512
  72.9404861  79.6225289 116.3905282  72.0634328  79.5014090 116.0267528
  73.4162615  78.8311368 116.1384170  70.6423330  80.5624292 119.9486937
  69.9492575  80.6368647 119.2926973  70.3975082  79.7984636 120.4708454
  75.6860170  80.5589676 116.1922392  74.7791626  80.2622789 116.2685105
  75.9636151  80.2619494 115.3256678  74.4558955  77.4176612 116.3334371
  75.3178119  77.7431510 116.5930188  74.6409299  76.6308108 115.8207437
  75.4088398  74.6572655 119.6214080  75.3967068  75.6014495 119.7782351
  76.3011820  74.4742800 119.3273541  46.5417583  24.6318022 105.4581844
  45.8679282  24.9349718 106.0666802  46.9283405  25.4347102 105.1087301
  50.5074324  22.2103505 106.7321667  51.2025229  22.8310198 106.9508982
  50.8497474  21.3598856 107.0074045  44.5989193  22.3165257 105.6396761
  44.0263160  22.9355444 105.1867232  45.1721986  22.8664619 106.1736683
  47.8186452  22.6002407 106.7705343  48.7517126  22.5347969 106.9738218
  47.7309665  23.4358674 106.3119876  50.4474469  21.9168277 103.7309290
  50.3688101  21.5828141 104.6245048  51.2684136  22.4090045 103.7300763
  48.0178421  19.2336273 103.3519269  48.7214271  19.4386275 103.9676924
  47.2941070  19.8013035 103.6168352  49.9265118  19.6718802 105.4017729
  50.7610722  19.2400000 105.2195204  49.7649461  19.5000816 106.3294623
  58.5549393  30.1888453 115.4972906  59.1927803  30.0695200 114.7936246
  58.4370236  31.1369297 115.5560858  51.2225915  31.9951358 111.4231321
  50.6590780  31.9041294 110.6547609  51.1078310  31.1751262 111.9033814
  56.8025474  35.6622325 106.7345786  56.1513454  36.2476406 106.3479800
  57.5969837  36.1928520 106.7940824  50.7281101  32.7511462 107.1332920
  51.5011977  32.2040449 106.9945796  51.0806500  33.6155712 107.3447382
  53.0647379  28.9104128 104.7651370  53.3172900  28.3885650 104.0034833
  52.1271938  28.7470274 104.8678054  58.1090662  27.9139907 112.5726114
  58.8953751  27.4959330 112.2216531  58.3729366  28.8185999 112.7407762
  58.2800739  33.3512757 107.2714770  57.6446572  33.4247384 107.9835675
  57.9498146  33.9406356 106.5933850  63.5099089  27.8515140 113.4759092
  64.2424261  27.2814357 113.7096922  62.7538445  27.4636741 113.9165598
  52.7843668  30.8132234 106.9675745  52.6679926  30.1377138 107.6356830
  52.8945928  30.3264608 106.1507898  55.1275209  30.2742382 110.6722435
  54.7633416  29.7473003 111.3835356  55.9842325  29.8840851 110.4988920
  54.7680696  25.3032281 105.6683783  54.9355098  26.1712518 106.0354254
  54.5777865  25.4659563 104.7445072  54.7469917  27.7589939 106.6530450
  54.6269542  28.2046990 107.4915930  54.0522505  28.1075256 106.0943988
  52.5076809  40.5293581 110.3020581  52.4300838  41.4801406 110.3809062
  51.9038452  40.1839453 110.9595507  60.4454983  28.2311412 107.4810784
  61.3572839  28.4638799 107.3058482  59.9364630  28.8148456 106.9185863
  59.0524565  33.2137230 114.8724365  58.4233427  33.3782945 114.1700433
  58.6650227  33.6278840 115.6435329  62.9313797  34.1491668 112.2268729
  62.2464835  34.5290570 111.6765762  63.0157646  34.7586995 112.9600677
  54.6052527  32.9511638 112.1374451  55.0690872  33.2299341 111.3479073
  54.3409325  32.0495083 111.9547541  53.5421413  29.0734791 108.9464016
  54.2445456  29.5255835 109.4137942  53.2102041  28.4318610 109.5743909
  61.3010556  34.6723583 116.9986430  62.1228000  34.2703770 116.7169112
  61.2972959  34.5691817 117.9502546  69.3916549  31.0162331 113.3471402
  68.6380258  30.4469729 113.1915406  69.5264091  30.9824996 114.2942036
  54.7815178  35.8875733 109.0226121  54.6460852  36.7327269 109.4510969
  55.3224990  36.0895011 108.2592055  48.2344575  33.4051171 109.5954046
  48.7469095  34.1994422 109.7459611  48.8867288  32.7077462 109.5287647
  50.0439460  36.5216928 111.6776799  50.2206088  37.4434892 111.4897783
  50.8396293  36.2075347 112.1071179  51.1670775  38.0395102 117.6787141
  51.7178200  37.9112165 116.9064135  50.3282251  38.3389991 117.3282034
  46.1993492  31.7339826 110.3713616  47.0368714  32.1436834 110.1547324
  46.3771759  30.7939268 110.3413810  58.0957924  29.4014906 106.0597449
  57.5804547  30.1719511 106.2985837  57.8235232  28.7280043 106.6830511
  55.6805035  24.2464607 111.1182688  54.8246631  23.8571458 110.9388327
  56.0931987  24.3256568 110.2582473  63.0692198  32.1547261 107.9950623
  62.2921641  31.8158421 107.5505785  63.7483679  32.1599884 107.3205588
  57.8844227  27.2741999 107.8857231  57.5794363  27.5888148 108.7367374
  58.8374669  27.3523418 107.9284564  56.3290659  33.4332222 109.5350185
  55.8012020  32.6984981 109.2223422  55.8278162  34.2106898 109.2890153
  61.3083505  31.6281242 114.6517231  60.6507179  32.3180504 114.7397360
  62.1123904  32.0177674 114.9951217  60.1188964  29.9825615 112.7021173
  60.6320845  30.6155607 113.2042882  60.7690188  29.3826811 112.3364533
  51.3878974  26.1256349 105.9152681  50.5516286  26.4631036 106.2361956
  51.2483743  25.9905329 104.9779818  54.4743259  31.2512432 102.5385158
  53.5670321  31.0201686 102.7376307  54.9714291  30.4550051 102.7259139
  57.3811338  39.9609939 105.4581844  56.7073037  40.2641636 106.0666802
  57.7677160  40.7639020 105.1087301  57.3804842  28.8566486 110.0782193
  58.1276661  29.3687883 109.7689315  57.6496432  28.5350539 110.9386587
  55.6531492  31.3525027 107.0609148  54.7442712  31.0684060 107.1581617
  55.6826576  31.7724106 106.2012455  60.8850760  34.9631616 110.8300315
  60.4313087  34.1222526 110.8865506  60.2544727  35.5993015 111.1675095
  59.8283679  25.8923603 112.0600983  59.0906436  25.3800989 112.3911225
  60.0810453  25.4523984 111.2484260  59.3283699  36.8008113 111.7650133
  59.6206673  37.3613170 111.0462499  59.8382320  37.0936674 112.5203293
  54.2016386  28.9653648 113.1618943  54.2564996  28.0127484 113.0861420
  53.3907589  29.1213087 113.6460242  55.3507580  32.8933771 104.3997226
  54.9127010  32.1769630 103.9402864  56.0918021  33.1209885 103.8382318
  52.1408746  27.5830707 110.9209322  51.3276612  27.8824878 111.3274514
  52.6367741  27.1886396 111.6383804  54.2917324  37.5788464 112.8543587
  54.2493503  37.8049311 111.9252119  55.2080023  37.3451839 113.0029388
  63.4680695  31.1690968 110.4573545  63.3298594  31.3592564 109.5294734
  63.1116914  31.9310351 110.9141596  63.4950075  33.2367495 115.4684816
  63.9286581  33.1442784 116.3167870  64.2081655  33.2124995 114.8304832
  52.4083125  34.4551493 112.6505549  53.2023724  33.9601813 112.4488124
  51.6974817  33.9269356 112.2873255  57.2277970  36.8369589 117.0017917
  57.2814992  37.4060525 117.7695633  56.3592751  37.0071474 116.6371954
  48.7165889  28.5994575 108.7265302  47.7863477  28.5379031 108.9435264
  48.8123361  28.0770528 107.9301943  64.3565624  33.2791195 118.0017702
  64.5501514  34.1837006 118.2476977  64.2566242  32.8198614 118.8356287
  54.9854401  35.0280515 116.3303386  54.8465487  34.6599300 117.2029325
  54.1968997  35.5428155 116.1587344  55.5802553  40.1289612 107.6728923
  55.7554309  39.6577655 108.4874546  54.8935341  40.7555378 107.9010184
  56.5359616  34.4062118 113.7192224  56.2009449  34.3662888 114.6149874
  56.0363562  33.7406834 113.2462634  59.4718808  31.7518152 103.9929284
  58.8547979  31.0264980 103.8962337  59.0035296  32.5127513 103.6496358
  50.1463638  43.2778975 114.4468783  50.3860237  43.9097499 115.1247802
  49.3032835  42.9267015 114.7334142  51.2617354  25.9703577 103.1150588
  50.3846820  25.8492377 102.7512835  51.7375107  25.1789655 102.8629477
  54.6591500  39.0858097 116.8510287  54.5861672  39.8913068 117.3629592
  54.2168893  39.2850063 116.0258309  54.4481280  38.3229867 110.3613109
  53.6648802  38.8651547 110.4551333  55.1474025  38.8403847 110.7607350
  65.6107687  29.8364862 114.6465606  65.5997564  30.7189577 114.2759539
  64.7425067  29.4836413 114.4520143  57.1190184  38.9844931 119.0068446
  57.8318156  39.6192396 118.9344347  56.6280212  39.0808797 118.1908448
  58.8407711  32.8896184 110.5785737  57.9063989  33.0097646 110.4090442
  59.0184379  31.9868650 110.3145747  62.2280262  28.7313503 111.1135772
  62.6940714  29.5641495 111.0396074  62.6787762  28.2658485 111.8181030
  60.2956493  35.0757324 108.1121924  60.5716337  34.9613919 109.0215798
  59.4260992  34.6774809 108.0734097  56.9310557  39.3243675 111.7554737
  57.1132952  38.5065331 112.2182490  57.7543543  39.5411367 111.3179627
  57.2652723  38.2511860 109.0169786  57.7940489  37.7404315 108.4039948
  57.5280942  37.9354390 109.8815319  50.6208471  39.3026977 111.7767562
  49.9518846  39.7873105 111.2931602  50.4821340  39.5496197 112.6910940
  54.7613739  41.3370720 118.3750220  55.3132047  41.5002342 119.1399305
  55.1019933  41.9275158 117.7030245  45.9896048  27.5645432 108.5563494
  46.2849489  26.6556110 108.5030548  45.0884083  27.5433171 108.2344496
  57.8982126  39.2852696 115.3613902  57.7733266  38.4842436 114.8524848
  58.5561218  39.7798889 114.8727872  59.9617035  37.0861716 116.9893452
  59.0147370  36.9667067 116.9171779  60.3099808  36.1984214 117.0719714
  56.9663468  36.8814432 113.1897805  56.8188431  35.9531140 113.3705375
  57.7916962  36.9034523 112.7054880  50.8325712  25.5332499 109.0478297
  51.1721785  26.0618421 108.3256905  51.2797833  25.8712905 109.8236863
  60.5697590  37.7042991 114.2762677  61.4944137  37.4985852 114.1387128
  60.4012893  37.4559392 115.1852019  52.8193860  24.0307121 107.2471589
  53.5402222  24.4088374 106.7435306  52.1959164  24.7495998 107.3506567
  56.9624982  24.7352270 108.1829922  57.1788597  25.6176908 107.8818750
  56.4819050  24.3438483 107.4535564  60.3592906  38.2228658 109.6324769
  60.5329784  37.6575081 108.8798621  60.8521797  39.0229553 109.4504259
  66.2132297  30.9865081 111.2515068  66.6563443  30.2372407 110.8534192
  65.3358808  30.9775218 110.8688800  61.3468079  37.5395423 106.7321667
  62.0418983  38.1602115 106.9508982  61.6891229  36.6890774 107.0074045
  63.2459502  34.9895128 108.2608998  63.7710826  35.3282401 107.5358318
  63.1581854  34.0542144 108.0772132  54.9300162  41.0567112 112.6204251
  54.4905153  40.5643490 113.3137108  55.6808279  40.5140079 112.3796326
  47.4092501  37.2478652 112.6228879  48.2350521  36.9482424 112.2427523
  47.0586553  36.4786275 113.0718668  52.3774035  36.6005121 114.6926553
  51.7554044  35.9375826 114.3928780  53.0478902  36.6266253 114.0100200
  51.9387542  35.1509044 108.1685013  52.0875662  35.8344508 107.5151686
  52.7453985  35.1314134 108.6834469  65.7565162  32.4570320 113.6437516
  66.5912053  32.8960124 113.8075076  65.8924291  31.9808973 112.8245762
  49.6940175  31.1774222 109.1746082  49.4486216  30.2736552 109.3726292
  49.8636089  31.1791372 108.2325560  48.9635822  26.9102579 106.6732244
  48.2705067  26.9846934 106.0172280  48.7187574  26.1462923 107.1953760
  55.4382947  37.6457174 105.6396761  54.8656914  38.2647362 105.1867232
  56.0115741  38.1956536 106.1736683  58.6580207  37.9294325 106.7705343
  59.5910880  37.8639886 106.9738218  58.5703420  38.7650591 106.3119876
  61.2868224  37.2460195 103.7309290  61.2081855  36.9120059 104.6245048
  62.1077890  37.7381963 103.7300763  63.9846415  30.1121934 116.9385609
  63.9522735  29.1737935 117.1245293  64.5947038  30.1905971 116.2051434
  55.8229746  28.9817987 102.9812813  56.7688850  28.8524195 103.0501231
  55.4443991  28.2432649 103.4582241  69.8022965  31.1737941 116.0791646
  70.5326353  30.9123229 116.6399349  69.1929910  30.4366663 116.1193714
  67.8838262  29.3145804 116.6766097  67.1571425  29.1801769 116.0682589
  67.4685549  29.6222632 117.4822815  54.0072663  26.9067964 102.9167698
  53.1004118  26.6101076 102.9930412  54.2848644  26.6097782 102.0501985
  55.6234728  21.4504853 109.0711940  54.8135457  21.1051938 109.4467186
  56.3119145  21.1412397 109.6599551  52.7771447  23.7654899 103.0579678
  53.6390611  24.0909797 103.3175495  52.9621792  22.9786395 102.5452743
  60.9304084  22.6383425 110.2014901  60.3502753  23.2968229 109.8192953
  60.6640017  21.8160770 109.7902318  59.7128962  24.7983516 109.2571249
  58.8254817  25.0833166 109.0391444  60.1282951  24.6377279 108.4098526
  63.0643498  24.8230037 112.9725588  63.8403888  25.3126489 113.2450205
  62.3391632  25.2488091 113.4297458  65.5016057  25.5357656 114.0299529
  66.0960547  25.2953392 113.3192837  65.5742640  24.8164786 114.6573065
  47.7213212  39.3791267 114.3442693  47.5867680  38.6191668 113.7780692
  47.3045275  40.1032167 113.8771482  58.8572175  34.5628190 103.3519269
  59.5608025  34.7678193 103.9676924  58.1334824  35.1304952 103.6168352
  59.6869986  30.3138052 109.4721539  59.6305187  30.7706603 108.6329171
  60.2398328  29.5528736 109.2944382  63.4974792  26.1027783 110.2971658
  63.2411726  25.7024419 111.1279866  62.8727660  26.8171577 110.1721798
  67.8087129  28.8423857 112.8042950  67.2486687  28.9117046 113.5774512
  67.2030633  28.6664841 112.0842446  50.8782338  40.2760584 114.5561136
  50.7614722  41.2206016 114.4539826  50.0574784  39.9734145 114.9446935
  60.7658873  35.0010720 105.4017729  61.6004477  34.5691918 105.2195204
  60.6043216  34.8292733 106.3294623  60.4204765  31.5042833 106.7674068
  60.3653569  31.3387104 105.8262512  59.7950820  32.2118866 106.9236258
  53.7300890  21.0050942 106.3459387  53.7179560  21.9492782 106.5027657
  54.6224312  20.8221087 106.0518848  51.9036852  40.9288846 117.7717065
  52.8064099  40.9612456 118.0883560  51.6774222  39.9989297 117.7863400
  53.6590454  39.6819832 114.4327143  52.7086085  39.6821694 114.3191515
  53.9622940  38.9352567 113.9163178  69.3943148  45.5180371 115.4972906
  70.0321558  45.3987118 114.7936246  69.2763991  46.4661215 115.5560858
  66.2032854  45.4707799 115.4334430  65.8651366  45.3548863 114.5454965
  67.0722622  45.0698964 115.4135436  62.0619670  47.3243275 111.4231321
  61.4984535  47.2333212 110.6547609  61.9472065  46.5043180 111.9033814
  66.6852637  46.6242651 121.3920636  66.6741278  46.2295449 120.5201139
  66.8473277  45.8908723 121.9854407  59.6084102  48.8194467 114.2615542
  60.4005394  48.4785291 113.8461841  59.8480752  48.9289442 115.1817695
  67.6419229  50.9914243 106.7345786  66.9907208  51.5768323 106.3479800
  68.4363591  51.5220438 106.7940824  61.5674856  48.0803380 107.1332920
  62.3405732  47.5332367 106.9945796  61.9200255  48.9447629 107.3447382
  63.4059898  49.4079762 120.3399820  63.1149764  50.3125393 120.2246486
  64.0416883  49.4496290 121.0543889  64.3316105  46.7856611 116.9301179
  64.9279677  46.5612633 116.2158142  64.3891077  46.0441356 117.5326627
  63.9041133  44.2396046 104.7651370  64.1566654  43.7177567 104.0034833
  62.9665693  44.0762192 104.8678054  68.9484416  43.2431825 112.5726114
  69.7347506  42.8251248 112.2216531  69.2123121  44.1477917 112.7407762
  69.1194494  48.6804675 107.2714770  68.4840327  48.7539301 107.9835675
  68.7891900  49.2698274 106.5933850  74.3492843  43.1807058 113.4759092
  75.0818015  42.6106275 113.7096922  73.5932199  42.7928658 113.9165598
  63.6237422  46.1424152 106.9675745  63.5073680  45.4669056 107.6356830
  63.7339682  45.6556526 106.1507898  65.9668963  45.6034299 110.6722435
  65.6027170  45.0764920 111.3835356  66.8236079  45.2132768 110.4988920
  71.8718264  36.8928632 117.9353701  71.5401589  37.7624043 117.7114916
  71.2763877  36.5764916 118.6147731  65.6074450  40.6324199 105.6683783
  65.7748852  41.5004435 106.0354254  65.4171619  40.7951481 104.7445072
  68.3649783  49.0941178 117.3349613  68.0650506  49.9966217 117.2265421
  68.0200843  48.8273361 118.1870766  61.8162265  45.5454975 113.3686318
  60.8912761  45.4131189 113.5764010  62.0646678  46.3249194 113.8656260
  71.7646927  41.6123718 115.0147051  70.8563804  41.5439126 114.7205812
  71.7134523  42.0895663 115.8428876  65.5863671  43.0881856 106.6530450
  65.4663296  43.5338907 107.4915930  64.8916259  43.4367174 106.0943988
  59.1771076  45.1888248 114.2030107  59.3063457  45.4422727 115.1169519
  58.4968527  45.7815956 113.8834762  63.3470563  55.8585498 110.3020581
  63.2694593  56.8093323 110.3809062  62.7432207  55.5131371 110.9595507
  65.8387793  43.0313364 122.9581948  65.0621127  43.5907284 122.9484813
  66.4778356  43.5170147 123.4796818  73.6308573  39.8140156 116.7924925
  72.9882954  40.1072690 116.1464719  73.1263502  39.6993077 117.5978121
  71.2848737  43.5603330 107.4810784  72.1966593  43.7930716 107.3058482
  70.7758384  44.1440374 106.9185863  64.0934165  45.8398817 122.5199915
  64.8348850  46.3783861 122.2434739  63.3871151  46.4665106 122.6771467
  69.5689505  47.9827957 121.1172077  69.9772861  47.5410368 120.3726709
  68.8466766  47.4080585 121.3706269  65.9220575  42.9200564 118.4905633
  66.7681770  43.3439978 118.6340282  65.8619213  42.2634189 119.1844197
  69.8918319  48.5429148 114.8724365  69.2627182  48.7074862 114.1700433
  69.5043982  48.9570758 115.6435329  73.7707551  49.4783586 112.2268729
  73.0858590  49.8582487 111.6765762  73.8551401  50.0878913 112.9600677
  69.0720020  40.5804933 120.1486807  68.8280952  41.3346993 119.6121083
  69.3479951  40.9590280 120.9834054  71.0258483  47.1243545 118.8264073
  71.2375378  47.7675305 118.1498454  70.9788231  46.2905861 118.3586003
  68.6284712  39.7361366 115.7300645  67.7669191  40.0342619 116.0217382
  68.6547147  39.9531764 114.7981677  65.4446281  48.2803556 112.1374451
  65.9084627  48.5591259 111.3479073  65.1803079  47.3787001 111.9547541
  62.3370362  47.8275038 115.0754214  62.9071719  48.2562306 114.4371698
  62.9278474  47.5457622 115.7738399  64.3815167  44.4026709 108.9464016
  65.0839211  44.8547752 109.4137942  64.0495796  43.7610527 109.5743909
  62.8295529  42.9938465 123.3215225  62.1994190  43.6754746 123.5550622
  62.7231617  42.8821547 122.3768363  58.1240501  42.6610261 114.2481149
  57.3339555  42.9167790 113.7721260  58.6151749  43.4758599 114.3533190
  72.1404311  50.0015500 116.9986430  72.9621755  49.5995688 116.7169112
  72.1366714  49.8983735 117.9502546  60.0755247  43.0254840 111.2064626
  59.2786410  43.1373535 111.7248122  59.8480839  43.3641493 110.3405516
  65.9060914  49.5499544 119.1547141  65.9705347  50.0119951 119.9905312
  65.1971838  48.9196909 119.2829450  56.4078204  42.9140752 116.6796140
  56.6586243  43.7987762 116.9453716  56.9437753  42.7345353 115.9071232
  80.2310304  46.3454249 113.3471402  79.4774012  45.7761647 113.1915406
  80.3657845  46.3116913 114.2942036  65.6208932  51.2167651 109.0226121
  65.4854607  52.0619187 109.4510969  66.1618745  51.4186929 108.2592055
  59.0738329  48.7343089 109.5954046  59.5862850  49.5286339 109.7459611
  59.7261042  48.0369380 109.5287647  60.8833214  51.8508845 111.6776799
  61.0599842  52.7726810 111.4897783  61.6790048  51.5367265 112.1071179
  65.0244233  38.7117110 123.2760733  65.7653946  39.3124263 123.1965195
  65.2562155  37.9694748 122.7178775  60.1685571  43.8973477 121.5538962
  60.0539086  42.9958735 121.8546061  59.3130088  44.1437174 121.2023779
  67.2477408  51.8391218 123.1526463  66.8041263  51.0527596 122.8347367
  67.9094622  52.0270368 122.4870354  62.0064530  53.3687019 117.6787141
  62.5571955  53.2404083 116.9064135  61.1676005  53.6681908 117.3282034
  69.3458646  52.1194018 121.1807864  69.3277122  52.9402899 120.6888133
  70.2678567  51.9948093 121.4058005  65.8031701  49.6338147 122.0231373
  66.3360037  48.8726435 121.7930681  65.2745782  49.3411799 122.7655527
  68.9701396  34.7398213 117.5525014  68.6265665  35.6299855 117.4764125
  69.3380358  34.5499871 116.6894599  57.0387246  47.0631743 110.3713616
  57.8762468  47.4728752 110.1547324  57.2165514  46.1231186 110.3413810
  68.9351678  44.7306824 106.0597449  68.4198302  45.5011429 106.2985837
  68.6628987  44.0571960 106.6830511  66.5198789  39.5756525 111.1182688
  65.6640386  39.1863375 110.9388327  66.9325741  39.6548486 110.2582473
  68.0497936  37.1102868 115.5174248  67.5462732  37.0733003 114.7042053
  68.3428543  38.0195611 115.5770904  64.2940822  37.1941598 114.5240429
  65.1593819  36.9984407 114.1646319  64.3618331  36.9651950 115.4509786
  73.9085952  47.4839179 107.9950623  73.1315395  47.1450338 107.5505785
  74.5877433  47.4891802 107.3205588  68.7237981  42.6033916 107.8857231
  68.4188117  42.9180065 108.7367374  69.6768424  42.6815336 107.9284564
  67.1684413  48.7624140 109.5350185  66.6405775  48.0276899 109.2223422
  66.6671916  49.5398816 109.2890153  72.1477259  46.9573160 114.6517231
  71.4900934  47.6472421 114.7397360  72.9517659  47.3469592 114.9951217
  61.9003141  39.4243806 111.8956796  62.4746893  39.2018987 111.1629989
  62.4874123  39.4932500 112.6485397  70.9582718  45.3117533 112.7021173
  71.4714600  45.9447525 113.2042882  71.6083942  44.7118728 112.3364533
  62.2272728  41.4548267 105.9152681  61.3910040  41.7922953 106.2361956
  62.0877498  41.3197247 104.9779818  64.2025809  36.2985055 110.6231866
  63.5490221  35.9834072 109.9988480  64.1606283  35.6760795 111.3491688
  65.3137013  46.5804350 102.5385158  64.4064075  46.3493603 102.7376307
  65.8108045  45.7841969 102.7259139  68.2205092  55.2901857 105.4581844
  67.5466791  55.5933554 106.0666802  68.6070914  56.0930937 105.1087301
  67.4363549  42.7866988 114.9479513  66.5186110  43.0081935 114.7901201
  67.8523693  42.8613299 114.0891221  68.2198597  44.1858404 110.0782193
  68.9670416  44.6979801 109.7689315  68.4890186  43.8642457 110.9386587
  66.4925247  46.6816945 107.0609148  65.5836466  46.3975977 107.1581617
  66.5220331  47.1016023 106.2012455  71.7244514  50.2923534 110.8300315
  71.2706841  49.4514444 110.8865506  71.0938481  50.9284933 111.1675095
  70.6677434  41.2215520 112.0600983  69.9300191  40.7092906 112.3911225
  70.9204207  40.7815902 111.2484260  70.1677454  52.1300031 111.7650133
  70.4600428  52.6905088 111.0462499  70.6776074  52.4228592 112.5203293
  70.7689061  33.9991772 112.6542752  71.0747938  33.1389136 112.3668667
  71.4941666  34.5909392 112.4541746  65.0410141  44.2945565 113.1618943
  65.0958751  43.3419402 113.0861420  64.2301343  44.4505004 113.6460242
  66.1901335  48.2225688 104.3997226  65.7520765  47.5061547 103.9402864
  66.9311776  48.4501803 103.8382318  62.9802501  42.9122625 110.9209322
  62.1670366  43.2116796 111.3274514  63.4761495  42.5178314 111.6383804
  65.1311079  52.9080382 112.8543587  65.0887258  53.1341228 111.9252119
  66.0473778  52.6743757 113.0029388  68.5776713  43.3764449 119.7524216
  68.9326100  43.6035923 120.6118682  69.2248844  43.7082826 119.1301471
  74.3074450  46.4982885 110.4573545  74.1692348  46.6884481 109.5294734
  73.9510668  47.2602268 110.9141596  62.4716576  40.4840981 116.5370557
  63.1115955  40.3429740 115.8393520  61.6394106  40.1975494 116.1609159
  74.3343829  48.5659412 115.4684816  74.7680336  48.4734701 116.3167870
  75.0475410  48.5416913 114.8304832  63.2476880  49.7843411 112.6505549
  64.0417478  49.2893731 112.4488124  62.5368572  49.2561274 112.2873255
  68.0671724  52.1661506 117.0017917  68.1208746  52.7352443 117.7695633
  67.1986505  52.3363392 116.6371954  59.5559643  43.9286493 108.7265302
  58.6257231  43.8670948 108.9435264  59.6517115  43.4062445 107.9301943
  59.4745192  40.4541306 111.3143544  59.7352009  41.3686639 111.2052704
  60.2962364  39.9865748 111.4640157  60.9470117  41.8679063 118.4842368
  61.6193171  41.6596425 117.8355017  60.1199904  41.6701149 118.0447601
  75.1959379  48.6083113 118.0017702  75.3895269  49.5128924 118.2476977
  75.0959997  48.1490532 118.8356287  66.8495689  38.4941004 120.5008029
  66.2023604  39.1930953 120.4072506  67.6196705  38.9277148 120.8684277
  70.2574487  48.7589856 123.5758582  70.1059994  48.5300407 122.6588666
  70.2479167  49.7160457 123.5889927  67.0259824  46.3321769 118.5604849
  67.9551884  46.4832928 118.3873816  66.6050854  46.4205789 117.7053495
  65.8248156  50.3572433 116.3303386  65.6859241  49.9891217 117.2029325
  65.0362752  50.8720072 116.1587344  66.4196308  55.4581529 107.6728923
  66.5948063  54.9869573 108.4874546  65.7329096  56.0847296 107.9010184
  67.3753371  49.7354036 113.7192224  67.0403203  49.6954806 114.6149874
  66.8757316  49.0698752 113.2462634  61.3497615  45.1421666 119.2444805
  61.2117413  44.4101904 119.8456344  62.2602538  45.0530566 118.9628993
  70.3112562  47.0810070 103.9929284  69.6941733  46.3556898 103.8962337
  69.8429051  47.8419430 103.6496358  63.9779915  44.8541625 118.7328485
  64.6879534  44.2134817 118.6915103  63.9349223  45.1054520 119.6554666
  71.9666694  51.7908978 121.6535064  71.9079240  51.1068198 120.9865647
  72.3686212  52.5327968 121.2015690  62.6908849  41.8406843 120.5524125
  62.1546206  41.3897581 121.2045721  62.1025558  41.9752752 119.8094589
  60.9857393  58.6070892 114.4468783  61.2253991  59.2389416 115.1247802
  60.1426589  58.2558932 114.7334142  62.1011108  41.2995494 103.1150588
  61.2240575  41.1784295 102.7512835  62.5768861  40.5081573 102.8629477
  71.9684101  49.7548562 119.8849044  71.0810880  49.4174484 120.0075443
  72.5382652  49.0231594 120.1217809  53.6213248  46.0872654 113.2092095
  54.3084288  45.7734384 112.6213111  53.4661377  46.9914019 112.9359347
  58.4247971  40.9762851 117.6377119  58.3406159  40.3688520 116.9027529
  57.6030677  41.4671869 117.6386615  65.4985255  54.4150015 116.8510287
  65.4255426  55.2204986 117.3629592  65.0562648  54.6141980 116.0258309
  65.2875034  53.6521785 110.3613109  64.5042556  54.1943465 110.4551333
  65.9867779  54.1695764 110.7607350  68.5971684  39.4616414 113.0047314
  69.0940384  38.7086376 112.6848384  67.8258666  39.4980731 112.4390523
  76.4501442  45.1656780 114.6465606  76.4391318  46.0481495 114.2759539
  75.5818821  44.8128330 114.4520143  67.9583938  54.3136849 119.0068446
  68.6711910  54.9484313 118.9344347  67.4673967  54.4100715 118.1908448
  69.6801465  48.2188101 110.5785737  68.7457744  48.3389564 110.4090442
  69.8578134  47.3160568 110.3145747  65.1806653  41.6033797 112.7318999
  64.8104441  41.0504837 113.4199904  65.6765746  40.9991931 112.1793999
  73.0674016  44.0605421 111.1135772  73.5334469  44.8933412 111.0396074
  73.5181517  43.5950402 111.8181030  63.0095852  52.0631292 119.8274017
  63.7105311  52.6967775 119.9803411  62.5390967  52.4046024 119.0669656
  71.1350248  50.4049242 108.1121924  71.4110091  50.2905836 109.0215798
  70.2654746  50.0066727 108.0734097  71.0390679  36.4286008 115.1526673
  70.1253759  36.6590234 115.3208880  71.4683781  36.5124452 116.0040705
  70.8097138  44.6175900 117.6526567  70.1568588  44.8651807 116.9979020
  71.1877518  43.8040038 117.3189044  67.7704312  54.6535593 111.7554737
  67.9526706  53.8357249 112.2182490  68.5937298  54.8703285 111.3179627
  68.1046477  53.5803778 109.0169786  68.6334243  53.0696232 108.4039948
  68.3674697  53.2646308 109.8815319  66.8584711  45.3595711 124.1392604
  66.1825348  45.2589840 124.8094979  67.6812345  45.2034924 124.6028601
  58.6063570  51.5967647 116.7605119  59.1917007  50.8511335 116.8933024
  58.4088408  51.9071604 117.6441783  61.4602225  54.6318895 111.7767562
  60.7912600  55.1165022 111.2931602  61.3215095  54.8788115 112.6910940
  53.1981225  44.1673247 115.4809562  53.2365324  43.6336838 116.2746681
  52.6921517  43.6408453 114.8620540  65.6007494  56.6662638 118.3750220
  66.1525802  56.8294260 119.1399305  65.9413687  57.2567076 117.7030245
  60.5771987  39.0137788 118.9772105  60.6413313  39.8752619 118.5649502
  60.5139107  38.4011790 118.2444463  70.4518368  51.4923896 124.2298874
  70.9958272  52.1053854 123.7353829  69.8705213  52.0503474 124.7465887
  56.8289802  42.8937350 108.5563494  57.1243243  41.9848028 108.5030548
  55.9277838  42.8725089 108.2344496  68.7375881  54.6144614 115.3613902
  68.6127020  53.8134353 114.8524848  69.3954972  55.1090807 114.8727872
  60.3584049  40.9693346 114.5391042  59.6370635  41.5829314 114.3998516
  61.1477305  41.5051111 114.4607688  70.8010789  52.4153634 116.9893452
  69.8541125  52.2958985 116.9171779  71.1493562  51.5276132 117.0719714
  63.1610363  38.3047773 120.8131694  63.6844764  38.5510069 121.5758004
  62.9422696  39.1367807 120.3934832  58.5577644  40.5751447 108.6802819
  58.2290350  39.6948826 108.4977925  58.9117014  40.5199116 109.5679208
  67.8057223  52.2106350 113.1897805  67.6582185  51.2823057 113.3705375
  68.6310716  52.2326441 112.7054880  61.6719467  40.8624417 109.0478297
  62.0115539  41.3910338 108.3256905  62.1191587  41.2004823 109.8236863
  71.4091344  53.0334909 114.2762677  72.3337892  52.8277770 114.1387128
  71.2406648  52.7851310 115.1852019  64.3662908  39.2461468 118.4981365
  64.0259728  38.4469281 118.9002045  63.6601914  39.5463179 117.9258198
  65.0179379  36.3310780 116.9508688  65.8405449  35.8571258 116.8287578
  65.2617443  37.1101264 117.4507374  63.6587614  39.3599039 107.2471589
  64.3795976  39.7380291 106.7435306  63.0352918  40.0787915 107.3506567
  67.8018737  40.0644188 108.1829922  68.0182351  40.9468825 107.8818750
  67.3212804  39.6730401 107.4535564  62.5417958  43.0229901 114.7600666
  62.3962539  43.3370204 115.6524948  62.0643162  43.6414801 114.2071565
  64.4014341  40.0132449 114.8081556  64.3875910  39.1173542 114.4713854
  65.1186769  40.0203113 115.4419842  66.2540472  40.4469789 116.8534683
  65.9958250  41.3686860 116.8519014  65.7225512  40.0500223 117.5435147
  71.1986661  53.5520576 109.6324769  71.3723538  52.9866999 108.8798621
  71.6915552  54.3521471 109.4504259  57.0163620  45.5635245 117.6988328
  56.4717088  46.3395053 117.8308602  57.8942970  45.9106050 117.5407449
  63.8051237  38.8946829 110.0769126  63.9267148  37.9663475 110.2760014
  63.5153279  38.9085515 109.1647441  66.6742427  36.5801739 113.2135846
  66.6964124  36.6441073 112.2587825  67.0910486  35.7406248 113.4076352
  77.0526052  46.3156999 111.2515068  77.4957198  45.5664324 110.8534192
  76.1752562  46.3067135 110.8688800  72.1861833  52.8687340 106.7321667
  72.8812738  53.4894033 106.9508982  72.5284983  52.0182692 107.0074045
  57.8029642  44.6905141 120.5918484  57.0611378  44.8387777 121.1783115
  57.4822387  44.9513407 119.7285234  74.0853256  50.3187046 108.2608998
  74.6104580  50.6574319 107.5358318  73.9975609  49.3834061 108.0772132
  65.7473305  54.2321120 120.3898874  66.0560431  53.9870266 121.2621574
  66.5448787  54.4367758 119.9017745  65.7693917  56.3859029 112.6204251
  65.3298907  55.8935408 113.3137108  66.5202034  55.8431997 112.3796326
  58.2486256  52.5770570 112.6228879  59.0744276  52.2774342 112.2427523
  57.8980308  51.8078193 113.0718668  63.2167789  51.9297038 114.6926553
  62.5947798  51.2667743 114.3928780  63.8872656  51.9558170 114.0100200
  56.4494861  50.4956897 113.5817813  55.6126769  50.0679071 113.4001814
  56.4218506  50.6889340 114.5188604  73.7747162  50.9519950 123.5660196
  72.9842706  50.9344089 123.0264695  73.5380517  51.4908243 124.3209232
  73.8945037  47.8012416 120.8792924  73.9443042  47.6362423 121.8208447
  73.7858961  46.9339675 120.4890805  62.7781296  50.4800962 108.1685013
  62.9269416  51.1636426 107.5151686  63.5847739  50.4606052 108.6834469
  71.1848800  43.7843344 122.1952231  72.0858662  43.6449809 121.9036229
  71.2596774  43.9497799 123.1350408  65.5191605  41.1610199 121.0405417
  64.6494914  41.4543765 120.7688006  65.7551085  41.7450644 121.7612681
  75.3963234  50.2209358 121.1234946  75.1048042  50.5839338 121.9598407
  74.7835365  49.5076366 120.9448278  76.5958916  47.7862237 113.6437516
  77.4305808  48.2252041 113.8075076  76.7318045  47.3100891 112.8245762
  73.6450422  45.3441972 119.5915004  74.1204544  45.5369618 118.7833855
  72.7215988  45.4001158 119.3458387  60.5333929  46.5066139 109.1746082
  60.2879971  45.6028469 109.3726292  60.7029844  46.5083290 108.2325560
  68.2230639  37.3789816 118.5570838  68.7412583  38.1150843 118.2317326
  67.8685772  37.6853809 119.3917597  59.8029577  42.2394497 106.6732244
  59.1098821  42.3138852 106.0172280  59.5581328  41.4754841 107.1953760
  68.4743233  33.7990098 114.0771734  68.7544987  33.1313287 114.7032161
  69.2593840  33.9919194 113.5646398  66.2776702  52.9749092 105.6396761
  65.7050669  53.5939279 105.1867232  66.8509495  53.5248454 106.1736683
  72.3452091  42.2207732 117.8243309  73.2969514  42.3205830 117.8455533
  72.1755542  41.4286001 118.3341394  70.3666471  39.3063315 118.0102710
  69.7716403  39.5868328 117.3149199  70.0816168  39.7957216 118.7819451
  69.4973961  53.2586242 106.7705343  70.4304634  53.1931804 106.9738218
  69.4097174  54.0942509 106.3119876  72.1261978  52.5752113 103.7309290
  72.0475610  52.2411976 104.6245048  72.9471645  53.0673881 103.7300763
  74.8240169  45.4413852 116.9385609  74.7916489  44.5029853 117.1245293
  75.4340793  45.5197889 116.2051434  66.6623500  44.3109905 102.9812813
  67.6082605  44.1816113 103.0501231  66.2837745  43.5724567 103.4582241
  74.9734658  42.2324895 116.9843892  74.4573706  41.4483352 116.7973821
  75.8574606  41.9043612 117.1490412  72.6345385  35.9765911 112.9439705
  72.4370206  35.6680999 113.8283037  73.2445090  36.7027550 113.0737635
  80.6416719  46.5029859 116.0791646  81.3720108  46.2415147 116.6399349
  80.0323665  45.7658581 116.1193714  78.7232016  44.6437721 116.6766097
  77.9965180  44.5093686 116.0682589  78.3079303  44.9514550 117.4822815
  66.5462193  48.3627651 124.4413470  67.4665202  48.5406250 124.6353517
  66.5111776  47.4183696 124.2893169  64.8466417  42.2359881 102.9167698
  63.9397873  41.9392994 102.9930412  65.1242398  41.9389699 102.0501985
  55.7644358  43.5566245 113.3666745  55.4447142  42.7031553 113.0741119
  55.2177786  43.7714823 114.1224712  59.5424265  46.2728686 117.0836251
  59.7610275  47.2045794 117.1024285  59.9550039  45.9136660 117.8691055
  66.4628483  36.7796771 109.0711940  65.6529211  36.4343856 109.4467186
  67.1512900  36.4704315 109.6599551  68.3919031  35.8574818 110.6936236
  68.9450070  36.2770271 111.3526259  68.6289118  34.9310566 110.7359192
  63.6165202  39.0946817 103.0579678  64.4784366  39.4201715 103.3175495
  63.8015546  38.3078312 102.5452743  71.7697838  37.9675343 110.2014901
  71.1896507  38.6260147 109.8192953  71.5033771  37.1452688 109.7902318
  70.2201405  37.3680401 112.4036221  70.7201183  37.4796935 111.5950540
  70.8637013  37.0641454 113.0437029  64.2783401  45.2759030 125.2904062
  63.7950482  46.0759390 125.4967951  64.3644340  45.2866975 124.3371506
  57.5469360  47.1087410 113.2125881  57.5240048  47.2075097 112.2607764
  57.8569997  47.9552561 113.5343047  60.2056738  49.1663565 117.3272496
  61.1599992  49.1347507 117.2602427  60.0069262  48.7054189 118.1422722
  60.7956120  47.7364681 119.8943293  61.6149009  48.2308760 119.9178131
  61.0692928  46.8196649 119.8660861  70.5522716  40.1275433 109.2571249
  69.6648571  40.4125084 109.0391444  70.9676705  39.9669197 108.4098526
  73.9037252  40.1521954 112.9725588  74.6797643  40.6418407 113.2450205
  73.1785387  40.5780009 113.4297458  76.3409811  40.8649574 114.0299529
  76.9354302  40.6245310 113.3192837  76.4136395  40.1456704 114.6573065
  58.5606967  54.7083185 114.3442693  58.4261435  53.9483585 113.7780692
  58.1439029  55.4324084 113.8771482  69.6965930  49.8920108 103.3519269
  70.4001780  50.0970111 103.9676924  68.9728579  50.4596870 103.6168352
  70.5263740  45.6429969 109.4721539  70.4698941  46.0998521 108.6329171
  71.0792083  44.8820654 109.2944382  74.3368546  41.4319701 110.2971658
  74.0805480  41.0316337 111.1279866  73.7121414  42.1463495 110.1721798
  78.6480884  44.1715774 112.8042950  78.0880442  44.2408964 113.5774512
  78.0424387  43.9956759 112.0842446  61.7176093  55.6052502 114.5561136
  61.6008477  56.5497934 114.4539826  60.8968539  55.3026063 114.9446935
  71.6052627  50.3302637 105.4017729  72.4398231  49.8983836 105.2195204
  71.4436970  50.1584651 106.3294623  71.2598519  46.8334751 106.7674068
  71.2047323  46.6679022 105.8262512  70.6344575  47.5410783 106.9236258
  56.0491034  42.0702815 120.5935490  56.6949898  41.5601769 121.0822716
  55.8408185  42.8071497 121.1678916  68.5744427  49.1383662 126.0927631
  69.4435586  49.3124315 125.7314266  68.0951178  49.9578079 125.9703360
  64.5694645  36.3342860 106.3459387  64.5573315  37.2784699 106.5027657
  65.4618067  36.1513005 106.0518848  62.7430607  56.2580763 117.7717065
  63.6457853  56.2904374 118.0883560  62.5167977  55.3281214 117.7863400
  64.4984209  55.0111750 114.4327143  63.5479840  55.0113612 114.3191515
  64.8016695  54.2644485 113.9163178  68.3846764  32.9285636 110.6005323
  67.6179160  32.3744123 110.7462006  68.7957469  33.0007505 111.4619475
  80.2336902  60.8472288 115.4972906  80.8715312  60.7279036 114.7936246
  80.1157745  61.7953132 115.5560858  77.0426609  60.7999716 115.4334430
  76.7045120  60.6840781 114.5454965  77.9116377  60.3990882 115.4135436
  72.9013424  62.6535193 111.4231321  72.3378289  62.5625130 110.6547609
  72.7865819  61.8335097 111.9033814  77.5246392  61.9534568 121.3920636
  77.5135032  61.5587366 120.5201139  77.6867031  61.2200641 121.9854407
  70.4477856  64.1486384 114.2615542  71.2399148  63.8077209 113.8461841
  70.6874506  64.2581360 115.1817695  78.4812983  66.3206161 106.7345786
  77.8300963  66.9060241 106.3479800  79.2757346  66.8512355 106.7940824
  72.4068610  63.4095298 107.1332920  73.1799486  62.8624285 106.9945796
  72.7594009  64.2739547 107.3447382  74.2453653  64.7371680 120.3399820
  73.9543519  65.6417311 120.2246486  74.8810637  64.7788208 121.0543889
  75.1709860  62.1148529 116.9301179  75.7673432  61.8904551 116.2158142
  75.2284831  61.3733274 117.5326627  74.7434888  59.5687964 104.7651370
  74.9960409  59.0469485 104.0034833  73.8059447  59.4054109 104.8678054
  79.7878171  58.5723742 112.5726114  80.5741260  58.1543165 112.2216531
  80.0516875  59.4769834 112.7407762  79.9588248  64.0096593 107.2714770
  79.3234081  64.0831219 107.9835675  79.6285655  64.5990191 106.5933850
  85.1886598  58.5098975 113.4759092  85.9211770  57.9398192 113.7096922
  84.4325954  58.1220576 113.9165598  74.4631177  61.4716070 106.9675745
  74.3467435  60.7960973 107.6356830  74.5733437  60.9848444 106.1507898
  76.8062718  60.9326217 110.6722435  76.4420925  60.4056838 111.3835356
  77.6629834  60.5424686 110.4988920  82.7112018  52.2220550 117.9353701
  82.3795343  53.0915960 117.7114916  82.1157632  51.9056834 118.6147731
  76.4468205  55.9616117 105.6683783  76.6142607  56.8296353 106.0354254
  76.2565374  56.1243398 104.7445072  79.2043538  64.4233096 117.3349613
  78.9044261  65.3258134 117.2265421  78.8594597  64.1565279 118.1870766
  72.6556019  60.8746892 113.3686318  71.7306516  60.7423106 113.5764010
  72.9040432  61.6541112 113.8656260  82.6040682  56.9415636 115.0147051
  81.6957559  56.8731044 114.7205812  82.5528277  57.4187581 115.8428876
  76.4257425  58.4173774 106.6530450  76.3057051  58.8630825 107.4915930
  75.7310014  58.7659092 106.0943988  70.0164830  60.5180166 114.2030107
  70.1457211  60.7714645 115.1169519  69.3362282  61.1107874 113.8834762
  74.1864318  71.1877416 110.3020581  74.1088347  72.1385241 110.3809062
  73.5825961  70.8423288 110.9595507  76.6781547  58.3605281 122.9581948
  75.9014881  58.9199201 122.9484813  77.3172110  58.8462064 123.4796818
  84.4702328  55.1432074 116.7924925  83.8276708  55.4364607 116.1464719
  83.9657257  55.0284994 117.5978121  82.1242492  58.8895247 107.4810784
  83.0360348  59.1222634 107.3058482  81.6152139  59.4732291 106.9185863
  74.9327920  61.1690735 122.5199915  75.6742604  61.7075779 122.2434739
  74.2264905  61.7957023 122.6771467  80.4083259  63.3119875 121.1172077
  80.8166615  62.8702286 120.3726709  79.6860521  62.7372503 121.3706269
  76.7614329  58.2492482 118.4905633  77.6075525  58.6731895 118.6340282
  76.7012967  57.5926106 119.1844197  80.7312074  63.8721066 114.8724365
  80.1020936  64.0366780 114.1700433  80.3437736  64.2862675 115.6435329
  84.6101306  64.8075504 112.2268729  83.9252344  65.1874405 111.6765762
  84.6945155  65.4170830 112.9600677  79.9113775  55.9096850 120.1486807
  79.6674707  56.6638911 119.6121083  80.1873705  56.2882198 120.9834054
  81.8652237  62.4535463 118.8264073  82.0769133  63.0967222 118.1498454
  81.8181986  61.6197779 118.3586003  79.4678466  55.0653283 115.7300645
  78.6062945  55.3634537 116.0217382  79.4940901  55.2823682 114.7981677
  76.2840036  63.6095474 112.1374451  76.7478381  63.8883177 111.3479073
  76.0196834  62.7078918 111.9547541  73.1764117  63.1566955 115.0754214
  73.7465474  63.5854224 114.4371698  73.7672229  62.8749540 115.7738399
  75.2208922  59.7318626 108.9464016  75.9232965  60.1839670 109.4137942
  74.8889550  59.0902445 109.5743909  73.6689283  58.3230383 123.3215225
  73.0387944  59.0046664 123.5550622  73.5625371  58.2113464 122.3768363
  68.9634256  57.9902179 114.2481149  68.1733310  58.2459707 113.7721260
  69.4545503  58.8050517 114.3533190  82.9798065  65.3307418 116.9986430
  83.8015509  64.9287605 116.7169112  82.9760468  65.2275652 117.9502546
  70.9149001  58.3546758 111.2064626  70.1180164  58.4665452 111.7248122
  70.6874593  58.6933410 110.3405516  76.7454669  64.8791461 119.1547141
  76.8099101  65.3411869 119.9905312  76.0365593  64.2488826 119.2829450
  67.2471959  58.2432669 116.6796140  67.4979997  59.1279679 116.9453716
  67.7831507  58.0637271 115.9071232  91.0704058  61.6746167 113.3471402
  90.3167767  61.1053565 113.1915406  91.2051600  61.6408831 114.2942036
  76.4602686  66.5459569 109.0226121  76.3248361  67.3911105 109.4510969
  77.0012499  66.7478846 108.2592055  72.9470026  52.6251149 125.6840476
  72.5536972  52.0717347 126.3588120  73.7636166  52.9361727 126.0746994
  69.9132084  64.0635007 109.5954046  70.4256604  64.8578257 109.7459611
  70.5654797  63.3661297 109.5287647  71.7226969  67.1800763 111.6776799
  71.8993597  68.1018728 111.4897783  72.5183802  66.8659182 112.1071179
  75.8637987  54.0409028 123.2760733  76.6047701  54.6416181 123.1965195
  76.0955910  53.2986666 122.7178775  71.0079325  59.2265395 121.5538962
  70.8932840  58.3250652 121.8546061  70.1523843  59.4729092 121.2023779
  78.0871163  67.1683135 123.1526463  77.6435017  66.3819514 122.8347367
  78.7488376  67.3562286 122.4870354  72.8458284  68.6978937 117.6787141
  73.3965709  68.5696000 116.9064135  72.0069760  68.9973826 117.3282034
  80.1852401  67.4485935 121.1807864  80.1670876  68.2694816 120.6888133
  81.1072321  67.3240010 121.4058005  76.6425455  64.9630065 122.0231373
  77.1753792  64.2018353 121.7930681  76.1139536  64.6703717 122.7655527
  79.8095150  50.0690131 117.5525014  79.4659419  50.9591772 117.4764125
  80.1774113  49.8791788 116.6894599  67.8781001  62.3923661 110.3713616
  68.7156223  62.8020670 110.1547324  68.0559268  61.4523103 110.3413810
  79.7745433  60.0598742 106.0597449  79.2592056  60.8303346 106.2985837
  79.5022741  59.3863878 106.6830511  77.3592544  54.9048443 111.1182688
  76.5034140  54.5155293 110.9388327  77.7719496  54.9840403 110.2582473
  78.8891690  52.4394786 115.5174248  78.3856486  52.4024921 114.7042053
  79.1822297  53.3487529 115.5770904  75.1334576  52.5233516 114.5240429
  75.9987573  52.3276324 114.1646319  75.2012085  52.2943867 115.4509786
  84.7479707  62.8131096 107.9950623  83.9709150  62.4742256 107.5505785
  85.4271188  62.8183720 107.3205588  79.5631736  57.9325834 107.8857231
  79.2581872  58.2471983 108.7367374  80.5162178  58.0107254 107.9284564
  78.0078168  64.0916057 109.5350185  77.4799529  63.3568817 109.2223422
  77.5065671  64.8690734 109.2890153  82.9871014  62.2865078 114.6517231
  82.3294688  62.9764339 114.7397360  83.7911413  62.6761510 114.9951217
  72.7396895  54.7535723 111.8956796  73.3140647  54.5310905 111.1629989
  73.3267878  54.8224418 112.6485397  81.7976473  60.6409450 112.7021173
  82.3108354  61.2739442 113.2042882  82.4477697  60.0410646 112.3364533
  73.0666483  56.7840185 105.9152681  72.2303795  57.1214871 106.2361956
  72.9271252  56.6489164 104.9779818  75.0419563  51.6276972 110.6231866
  74.3883975  51.3125990 109.9988480  75.0000037  51.0052713 111.3491688
  76.1530768  61.9096267 102.5385158  75.2457830  61.6785521 102.7376307
  76.6501800  61.1133887 102.7259139  79.0598847  70.6193775 105.4581844
  78.3860546  70.9225471 106.0666802  79.4464669  71.4222855 105.1087301
  78.2757303  58.1158906 114.9479513  77.3579865  58.3373853 114.7901201
  78.6917447  58.1905216 114.0891221  79.0592351  59.5150322 110.0782193
  79.8064170  60.0271719 109.7689315  79.3283941  59.1934374 110.9386587
  77.3319001  62.0108862 107.0609148  76.4230221  61.7267895 107.1581617
  77.3614085  62.4307941 106.2012455  82.5638269  65.6215452 110.8300315
  82.1100596  64.7806362 110.8865506  81.9332236  66.2576850 111.1675095
  81.5071188  56.5507438 112.0600983  80.7693945  56.0384824 112.3911225
  81.7597962  56.1107819 111.2484260  81.0071208  67.4591949 111.7650133
  81.2994182  68.0197006 111.0462499  81.5169829  67.7520510 112.5203293
  81.6082816  49.3283690 112.6542752  81.9141693  48.4681053 112.3668667
  82.3335421  49.9201310 112.4541746  67.9007172  59.7314376 111.0424350
  67.7031572  59.1383737 110.3175417  67.3453836  59.4266587 111.7600289
  75.8803895  59.6237483 113.1618943  75.9352505  58.6711319 113.0861420
  75.0695097  59.7796922 113.6460242  77.0295089  63.5517606 104.3997226
  76.5914519  62.8353465 103.9402864  77.7705530  63.7793721 103.8382318
  73.8196255  58.2414543 110.9209322  73.0064121  58.5408713 111.3274514
  74.3155250  57.8470231 111.6383804  75.9704833  68.2372300 112.8543587
  75.9281012  68.4633146 111.9252119  76.8867532  68.0035674 113.0029388
  79.4170467  58.7056367 119.7524216  79.7719855  58.9327840 120.6118682
  80.0642598  59.0374744 119.1301471  85.1468204  61.8274803 110.4573545
  85.0086103  62.0176399 109.5294734  84.7904423  62.5894186 110.9141596
  73.3110330  55.8132898 116.5370557  73.9509709  55.6721657 115.8393520
  72.4787861  55.5267412 116.1609159  85.1737584  63.8951330 115.4684816
  85.6074090  63.8026619 116.3167870  85.8869164  63.8708831 114.8304832
  74.0870634  65.1135329 112.6505549  74.8811233  64.6185649 112.4488124
  73.3762326  64.5853192 112.2873255  78.9065479  67.4953424 117.0017917
  78.9602501  68.0644360 117.7695633  78.0380260  67.6655309 116.6371954
  70.3953398  59.2578410 108.7265302  69.4650986  59.1962866 108.9435264
  70.4910870  58.7354363 107.9301943  70.3138947  55.7833223 111.3143544
  70.5745764  56.6978556 111.2052704  71.1356119  55.3157666 111.4640157
  71.7863872  57.1970980 118.4842368  72.4586925  56.9888343 117.8355017
  70.9593658  56.9993066 118.0447601  86.0353133  63.9375031 118.0017702
  86.2289023  64.8420841 118.2476977  85.9353751  63.4782450 118.8356287
  77.6889444  53.8232921 120.5008029  77.0417359  54.5222871 120.4072506
  78.4590459  54.2569065 120.8684277  81.0968242  64.0881773 123.5758582
  80.9453748  63.8592325 122.6588666  81.0872921  65.0452375 123.5889927
  77.8653578  61.6613686 118.5604849  78.7945638  61.8124846 118.3873816
  77.4444608  61.7497707 117.7053495  76.6641910  65.6864351 116.3303386
  76.5252996  65.3183135 117.2029325  75.8756506  66.2011990 116.1587344
  77.2590062  70.7873447 107.6728923  77.4341818  70.3161490 108.4874546
  76.5722850  71.4139213 107.9010184  78.2147125  65.0645953 113.7192224
  77.8796958  65.0246723 114.6149874  77.7151071  64.3990669 113.2462634
  72.1891369  60.4713583 119.2444805  72.0511167  59.7393822 119.8456344
  73.0996293  60.3822483 118.9628993  81.1506317  62.4101988 103.9929284
  80.5335487  61.6848816 103.8962337  80.6822805  63.1711348 103.6496358
  74.8173670  60.1833543 118.7328485  75.5273288  59.5426735 118.6915103
  74.7742978  60.4346438 119.6554666  82.8060449  67.1200896 121.6535064
  82.7472995  66.4360116 120.9865647  83.2079967  67.8619886 121.2015690
  73.5302604  57.1698761 120.5524125  72.9939961  56.7189499 121.2045721
  72.9419312  57.3044669 119.8094589  71.8251147  73.9362810 114.4468783
  72.0647746  74.5681334 115.1247802  70.9820344  73.5850850 114.7334142
  72.9404863  56.6287412 103.1150588  72.0634329  56.5076213 102.7512835
  73.4162616  55.8373490 102.8629477  82.8077856  65.0840480 119.8849044
  81.9204635  64.7466402 120.0075443  83.3776407  64.3523511 120.1217809
  64.4607003  61.4164572 113.2092095  65.1478043  61.1026302 112.6213111
  64.3055132  62.3205936 112.9359347  69.2641725  56.3054768 117.6377119
  69.1799914  55.6980438 116.9027529  68.4424431  56.7963787 117.6386615
  76.3379009  69.7441932 116.8510287  76.2649181  70.5496904 117.3629592
  75.8956402  69.9433898 116.0258309  76.1268789  68.9813702 110.3613109
  75.3436311  69.5235383 110.4551333  76.8261534  69.4987682 110.7607350
  79.4365439  54.7908332 113.0047314  79.9334138  54.0378294 112.6848384
  78.6652420  54.8272648 112.4390523  87.2895196  60.4948697 114.6465606
  87.2785073  61.3773413 114.2759539  86.4212576  60.1420248 114.4520143
  78.7977693  69.6428766 119.0068446  79.5105665  70.2776231 118.9344347
  78.3067721  69.7392632 118.1908448  80.5195220  63.5480019 110.5785737
  79.5851498  63.6681481 110.4090442  80.6971888  62.6452486 110.3145747
  76.0200408  56.9325715 112.7318999  75.6498195  56.3796755 113.4199904
  76.5159500  56.3283848 112.1793999  83.9067771  59.3897338 111.1135772
  84.3728223  60.2225330 111.0396074  84.3575271  58.9242320 111.8181030
  73.8489606  67.3923210 119.8274017  74.5499066  68.0259693 119.9803411
  73.3784721  67.7337941 119.0669656  81.9744002  65.7341160 108.1121924
  82.2503846  65.6197754 109.0215798  81.1048501  65.3358644 108.0734097
  81.8784434  51.7577925 115.1526673  80.9647513  51.9882152 115.3208880
  82.3077535  51.8416369 116.0040705  81.6490892  59.9467817 117.6526567
  80.9962342  60.1943725 116.9979020  82.0271272  59.1331955 117.3189044
  78.6098066  69.9827510 111.7554737  78.7920461  69.1649166 112.2182490
  79.4331052  70.1995203 111.3179627  78.9440232  68.9095696 109.0169786
  79.4727998  68.3988150 108.4039948  79.2068451  68.5938226 109.8815319
  77.6978465  60.6887628 124.1392604  77.0219102  60.5881758 124.8094979
  78.5206099  60.5326842 124.6028601  69.4457324  66.9259565 116.7605119
  70.0310761  66.1803253 116.8933024  69.2482163  67.2363522 117.6441783
  72.2995980  69.9610812 111.7767562  71.6306355  70.4456940 111.2931602
  72.1608849  70.2080033 112.6910940  64.0374979  59.4965165 115.4809562
  64.0759079  58.9628756 116.2746681  63.5315272  58.9700371 114.8620540
  76.4401248  71.9954556 118.3750220  76.9919556  72.1586177 119.1399305
  76.7807442  72.5858994 117.7030245  71.4165741  54.3429706 118.9772105
  71.4807068  55.2044536 118.5649502  71.3532862  53.7303707 118.2444463
  70.8918014  56.4152838 122.6245139  71.5190053  56.0329915 123.2382663
  70.0345933  56.1967040 122.9900832  67.6683557  58.2229267 108.5563494
  67.9636998  57.3139946 108.5030548  66.7671592  58.2017007 108.2344496
  79.5769635  69.9436531 115.3613902  79.4520775  69.1426271 114.8524848
  80.2348726  70.4382725 114.8727872  71.1977804  56.2985264 114.5391042
  70.4764389  56.9121231 114.3998516  71.9871059  56.8343029 114.4607688
  81.6404544  67.7445551 116.9893452  80.6934879  67.6250903 116.9171779
  81.9887317  66.8568049 117.0719714  74.0004117  53.6339690 120.8131694
  74.5238519  53.8801987 121.5758004  73.7816450  54.4659725 120.3934832
  69.3971398  55.9043365 108.6802819  69.0684104  55.0240744 108.4977925
  69.7510769  55.8491034 109.5679208  78.6450977  67.5398268 113.1897805
  78.4975939  66.6114975 113.3705375  79.4704471  67.5618358 112.7054880
  72.5113221  56.1916335 109.0478297  72.8509294  56.7202256 108.3256905
  72.9585342  56.5296741 109.8236863  82.2485099  68.3626826 114.2762677
  83.1731646  68.1569688 114.1387128  82.0800402  68.1143227 115.1852019
  75.2056662  54.5753385 118.4981365  74.8653483  53.7761198 118.9002045
  74.4995668  54.8755096 117.9258198  75.8573134  51.6602698 116.9508688
  76.6799203  51.1863176 116.8287578  76.1011198  52.4393182 117.4507374
  74.4981368  54.6890956 107.2471589  75.2189731  55.0672209 106.7435306
  73.8746673  55.4079833 107.3506567  78.6412491  55.3936105 108.1829922
  78.8576106  56.2760743 107.8818750  78.1606559  55.0022319 107.4535564
  73.3811713  58.3521818 114.7600666  73.2356293  58.6662122 115.6524948
  72.9036916  58.9706719 114.2071565  75.2408096  55.3424366 114.8081556
  75.2269664  54.4465460 114.4713854  75.9580524  55.3495030 115.4419842
  77.0934226  55.7761707 116.8534683  76.8352004  56.6978777 116.8519014
  76.5619267  55.3792141 117.5435147  82.0380415  68.8812494 109.6324769
  82.2117293  68.3158916 108.8798621  82.5309306  69.6813389 109.4504259
  67.8557375  60.8927163 117.6988328  67.3110843  61.6686971 117.8308602
  68.7336725  61.2397967 117.5407449  74.6444992  54.2238747 110.0769126
  74.7660903  53.2955393 110.2760014  74.3547034  54.2377433 109.1647441
  77.5136182  51.9093657 113.2135846  77.5357879  51.9732990 112.2587825
  77.9304241  51.0698166 113.4076352  87.8919806  61.6448917 111.2515068
  88.3350952  60.8956242 110.8534192  87.0146317  61.6359053 110.8688800
  83.0255588  68.1979258 106.7321667  83.7206492  68.8185951 106.9508982
  83.3678738  67.3474609 107.0074045  68.6423397  60.0197059 120.5918484
  67.9005133  60.1679694 121.1783115  68.3216141  60.2805325 119.7285234
  84.9247011  65.6478964 108.2608998  85.4498335  65.9866236 107.5358318
  84.8369363  64.7125979 108.0772132  76.5867059  69.5613037 120.3898874
  76.8954186  69.3162184 121.2621574  77.3842541  69.7659676 119.9017745
  76.6087671  71.7150947 112.6204251  76.1692662  71.2227326 113.3137108
  77.3595788  71.1723915 112.3796326  69.0880010  67.9062488 112.6228879
  69.9138030  67.6066260 112.2427523  68.7374062  67.1370110 113.0718668
  74.0561544  67.2588956 114.6926553  73.4341553  66.5959661 114.3928780
  74.7266411  67.2850088 114.0100200  67.2888615  65.8248814 113.5817813
  66.4520524  65.3970989 113.4001814  67.2612261  66.0181258 114.5188604
  74.1286071  55.7370744 124.2859059  74.1774227  56.6132867 123.9036828
  74.6708585  55.1948137 123.7130702  84.7338792  63.1304334 120.8792924
  84.7836797  62.9654341 121.8208447  84.6252715  62.2631593 120.4890805
  73.6175051  65.8092879 108.1685013  73.7663171  66.4928344 107.5151686
  74.4241494  65.7897969 108.6834469  82.0242554  59.1135262 122.1952231
  82.9252417  58.9741727 121.9036229  82.0990529  59.2789717 123.1350408
  76.3585360  56.4902116 121.0405417  75.4888669  56.7835683 120.7688006
  76.5944840  57.0742561 121.7612681  86.2356989  65.5501275 121.1234946
  85.9441797  65.9131256 121.9598407  85.6229120  64.8368284 120.9448278
  87.4352671  63.1154155 113.6437516  88.2699562  63.5543959 113.8075076
  87.5711800  62.6392808 112.8245762  84.4844177  60.6733890 119.5915004
  84.9598298  60.8661536 118.7833855  83.5609742  60.7293076 119.3458387
  71.3727683  61.8358057 109.1746082  71.1273725  60.9320387 109.3726292
  71.5423598  61.8375207 108.2325560  79.0624393  52.7081733 118.5570838
  79.5806337  53.4442760 118.2317326  78.7079526  53.0145727 119.3917597
  70.6423331  57.5686415 106.6732244  69.9492576  57.6430770 106.0172280
  70.3975083  56.8046758 107.1953760  79.3136988  49.1282016 114.0771734
  79.5938741  48.4605205 114.7032161  80.0987594  49.3211112 113.5646398
  77.1170456  68.3041010 105.6396761  76.5444423  68.9231197 105.1867232
  77.6903250  68.8540372 106.1736683  83.1845846  57.5499650 117.8243309
  84.1363269  57.6497748 117.8455533  83.0149296  56.7577918 118.3341394
  81.2060225  54.6355233 118.0102710  80.6110157  54.9160246 117.3149199
  80.9209922  55.1249134 118.7819451  80.3367716  68.5878160 106.7705343
  81.2698389  68.5223722 106.9738218  80.2490929  69.4234427 106.3119876
  82.9655733  67.9044030 103.7309290  82.8869364  67.5703894 104.6245048
  83.7865399  68.3965798 103.7300763  85.6633924  60.7705770 116.9385609
  85.6310244  59.8321770 117.1245293  86.2734547  60.8489806 116.2051434
  77.5017255  59.6401823 102.9812813  78.4476359  59.5108031 103.0501231
  77.1231499  58.9016485 103.4582241  85.8128412  57.5616813 116.9843892
  85.2967461  56.7775270 116.7973821  86.6968361  57.2335530 117.1490412
  83.4739139  51.3057829 112.9439705  83.2763960  50.9972917 113.8283037
  84.0838845  52.0319468 113.0737635  91.4810474  61.8321776 116.0791646
  92.2113862  61.5707065 116.6399349  90.8717419  61.0950498 116.1193714
  89.5625771  59.9729639 116.6766097  88.8358934  59.8385604 116.0682589
  89.1473058  60.2806468 117.4822815  77.3855947  63.6919569 124.4413470
  78.3058957  63.8698168 124.6353517  77.3505530  62.7475614 124.2893169
  75.6860172  57.5651799 102.9167698  74.7791627  57.2684912 102.9930412
  75.9636153  57.2681617 102.0501985  66.6038112  58.8858162 113.3666745
  66.2840896  58.0323471 113.0741119  66.0571540  59.1006741 114.1224712
  70.3818020  61.6020603 117.0836251  70.6004029  62.5337711 117.1024285
  70.7943793  61.2428578 117.8691055  77.3022237  52.1088689 109.0711940
  76.4922966  51.7635774 109.4467186  77.9906654  51.7996232 109.6599551
  79.2312786  51.1866736 110.6936236  79.7843824  51.6062189 111.3526259
  79.4682872  50.2602484 110.7359192  75.2545885  57.1753809 126.4739000
  75.1542612  58.1248166 126.4051091  75.0367427  56.8472048 125.6015070
  74.4558956  54.4238734 103.0579678  75.3178120  54.7493633 103.3175495
  74.6409300  53.6370230 102.5452743  66.4726372  62.5061074 115.3359866
  65.7789844  62.0915027 114.8229821  67.2199363  62.5481610 114.7393285
  82.6091593  53.2967261 110.2014901  82.0290262  53.9552065 109.8192953
  82.3427525  52.4744605 109.7902318  81.0595159  52.6972318 112.4036221
  81.5594938  52.8088853 111.5950540  81.7030767  52.3933371 113.0437029
  75.1177155  60.6050948 125.2904062  74.6344237  61.4051308 125.4967951
  75.2038094  60.6158893 124.3371506  68.3863115  62.4379328 113.2125881
  68.3633803  62.5367015 112.2607764  68.6963751  63.2844478 113.5343047
  71.0450492  64.4955483 117.3272496  71.9993746  64.4639425 117.2602427
  70.8463016  64.0346106 118.1422722  71.6349875  63.0656599 119.8943293
  72.4542764  63.5600677 119.9178131  71.9086682  62.1488567 119.8660861
  81.3916471  55.4567351 109.2571249  80.5042326  55.7417002 109.0391444
  81.8070460  55.2961114 108.4098526  84.7431007  55.4813872 112.9725588
  85.5191397  55.9710324 113.2450205  84.0179141  55.9071926 113.4297458
  87.1803566  56.1941491 114.0299529  87.7748056  55.9537227 113.3192837
  87.2530149  55.4748622 114.6573065  69.4000721  70.0375102 114.3442693
  69.2655189  69.2775503 113.7780692  68.9832784  70.7616002 113.8771482
  80.5359684  65.2212026 103.3519269  81.2395534  65.4262028 103.9676924
  79.8122333  65.7888788 103.6168352  81.3657495  60.9721887 109.4721539
  81.3092696  61.4290438 108.6329171  81.9185837  60.2112572 109.2944382
  85.1762300  56.7611619 110.2971658  84.9199235  56.3608255 111.1279866
  84.5515169  57.4755413 110.1721798  89.4874638  59.5007692 112.8042950
  88.9274196  59.5700881 113.5774512  88.8818142  59.3248677 112.0842446
  72.5569847  70.9344419 114.5561136  72.4402231  71.8789852 114.4539826
  71.7362293  70.6317981 114.9446935  82.4446382  65.6594555 105.4017729
  83.2791986  65.2275753 105.2195204  82.2830725  65.4876569 106.3294623
  82.0992274  62.1626668 106.7674068  82.0441078  61.9970940 105.8262512
  81.4738329  62.8702701 106.9236258  66.8884789  57.3994733 120.5935490
  67.5343652  56.8893687 121.0822716  66.6801940  58.1363414 121.1678916
  75.4088399  51.6634777 106.3459387  75.3967069  52.6076617 106.5027657
  76.3011821  51.4804923 106.0518848  73.5824361  71.5872681 117.7717065
  74.4851608  71.6196291 118.0883560  73.3561731  70.6573132 117.7863400
  75.3377963  70.3403668 114.4327143  74.3873594  70.3405529 114.3191515
  75.6410449  69.5936402 113.9163178  79.2240519  48.2577554 110.6005323
  78.4572915  47.7036041 110.7462006  79.6351224  48.3299423 111.4619475
  71.2282280  54.5462350 124.6910505  72.0913741  54.1899155 124.9013829
  70.6547691  54.2076245 125.3785909  83.7407179  77.9827111 111.4231321
  83.1772044  77.8917047 110.6547609  83.6259574  77.1627015 111.9033814
  81.2871611  79.4778302 114.2615542  82.0792903  79.1369127 113.8461841
  81.5268261  79.5873277 115.1817695  89.3206737  81.6498078 106.7345786
  88.6694717  82.2352159 106.3479800  90.1151100  82.1804273 106.7940824
  83.2462365  78.7387215 107.1332920  84.0193241  78.1916202 106.9945796
  83.5987764  79.6031465 107.3447382  85.5828642  74.8979882 104.7651370
  85.8354163  74.3761403 104.0034833  84.6453202  74.7346027 104.8678054
  90.6271925  73.9015660 112.5726114  91.4135014  73.4835083 112.2216531
  90.8910630  74.8061752 112.7407762  90.7982003  79.3388510 107.2714770
  90.1627836  79.4123137 107.9835675  90.4679409  79.9282109 106.5933850
  85.3024931  76.8007987 106.9675745  85.1861189  76.1252891 107.6356830
  85.4127191  76.3140361 106.1507898  87.6456472  76.2618135 110.6722435
  87.2814679  75.7348756 111.3835356  88.5023588  75.8716604 110.4988920
  87.2861959  71.2908034 105.6683783  87.4536361  72.1588271 106.0354254
  87.0959128  71.4535316 104.7445072  83.4949774  76.2038810 113.3686318
  82.5700270  76.0715024 113.5764010  83.7434187  76.9833029 113.8656260
  87.2651180  73.7465692 106.6530450  87.1450805  74.1922743 107.4915930
  86.5703768  74.0951009 106.0943988  80.8558585  75.8472084 114.2030107
  80.9850966  76.1006563 115.1169519  80.1756036  76.4399792 113.8834762
  92.9636246  74.2187165 107.4810784  93.8754102  74.4514552 107.3058482
  92.4545893  74.8024209 106.9185863  90.3072221  70.3945201 115.7300645
  89.4456700  70.6926454 116.0217382  90.3334656  70.6115600 114.7981677
  87.1233790  78.9387391 112.1374451  87.5872136  79.2175094 111.3479073
  86.8590588  78.0370836 111.9547541  86.0602676  75.0610544 108.9464016
  86.7626720  75.5131588 109.4137942  85.7283305  74.4194363 109.5743909
  79.8028010  73.3194097 114.2481149  79.0127064  73.5751625 113.7721260
  80.2939258  74.1342434 114.3533190  81.7542756  73.6838676 111.2064626
  80.9573919  73.7957370 111.7248122  81.5268348  74.0225328 110.3405516
  78.0865713  73.5724587 116.6796140  78.3373752  74.4571597 116.9453716
  78.6225262  73.3929189 115.9071232  87.2996441  81.8751486 109.0226121
  87.1642116  82.7203022 109.4510969  87.8406253  82.0770764 108.2592055
  80.7525838  79.3926925 109.5954046  81.2650359  80.1870175 109.7459611
  81.4048551  78.6953215 109.5287647  82.5620723  82.5092681 111.6776799
  82.7387351  83.4310646 111.4897783  83.3577557  82.1951100 112.1071179
  90.6488905  65.3982048 117.5525014  90.3053174  66.2883690 117.4764125
  91.0167867  65.2083706 116.6894599  78.7174755  77.7215579 110.3713616
  79.5549977  78.1312587 110.1547324  78.8953023  76.7815021 110.3413810
  90.6139187  75.3890659 106.0597449  90.0985811  76.1595264 106.2985837
  90.3416496  74.7155796 106.6830511  88.1986298  70.2340360 111.1182688
  87.3427895  69.8447211 110.9388327  88.6113250  70.3132321 110.2582473
  89.7285445  67.7686704 115.5174248  89.2250241  67.7316839 114.7042053
  90.0216052  68.6779446 115.5770904  85.9728331  67.8525433 114.5240429
  86.8381328  67.6568242 114.1646319  86.0405840  67.6235785 115.4509786
  95.5873461  78.1423014 107.9950623  94.8102904  77.8034174 107.5505785
  96.2664942  78.1475637 107.3205588  90.4025490  73.2617752 107.8857231
  90.0975626  73.5763901 108.7367374  91.3555933  73.3399171 107.9284564
  88.8471922  79.4207975 109.5350185  88.3193284  78.6860734 109.2223422
  88.3459425  80.1982651 109.2890153  83.5790650  70.0827641 111.8956796
  84.1534402  69.8602823 111.1629989  84.1661632  70.1516336 112.6485397
  83.9060237  72.1132102 105.9152681  83.0697549  72.4506789 106.2361956
  83.7665007  71.9781082 104.9779818  85.8813318  66.9568890 110.6231866
  85.2277730  66.6417907 109.9988480  85.8393792  66.3344631 111.3491688
  86.9924522  77.2388185 102.5385158  86.0851584  77.0077439 102.7376307
  87.4895554  76.4425804 102.7259139  89.8992601  85.9485692 105.4581844
  89.2254300  86.2517389 106.0666802  90.2858423  86.7514773 105.1087301
  89.1151058  73.4450824 114.9479513  88.1973619  73.6665771 114.7901201
  89.5311202  73.5197134 114.0891221  89.8986106  74.8442239 110.0782193
  90.6457925  75.3563637 109.7689315  90.1677695  74.5226292 110.9386587
  88.1712756  77.3400780 107.0609148  87.2623975  77.0559813 107.1581617
  88.2007840  77.7599859 106.2012455  92.3464943  71.8799356 112.0600983
  91.6087700  71.3676742 112.3911225  92.5991716  71.4399737 111.2484260
  92.4476570  64.6575608 112.6542752  92.7535447  63.7972971 112.3668667
  93.1729175  65.2493228 112.4541746  78.7400926  75.0606294 111.0424350
  78.5425326  74.4675655 110.3175417  78.1847590  74.7558504 111.7600289
  86.7197650  74.9529401 113.1618943  86.7746260  74.0003237 113.0861420
  85.9088852  75.1088840 113.6460242  87.8688844  78.8809524 104.3997226
  87.4308274  78.1645383 103.9402864  88.6099285  79.1085639 103.8382318
  84.6590010  73.5706460 110.9209322  83.8457875  73.8700631 111.3274514
  85.1549004  73.1762149 111.6383804  95.9861959  77.1566721 110.4573545
  95.8479857  77.3468317 109.5294734  95.6298177  77.9186104 110.9141596
  84.1504085  71.1424816 116.5370557  84.7903464  71.0013575 115.8393520
  83.3181615  70.8559329 116.1609159  84.9264389  80.4427246 112.6505549
  85.7204987  79.9477566 112.4488124  84.2156081  79.9145109 112.2873255
  81.2347152  74.5870328 108.7265302  80.3044740  74.5254784 108.9435264
  81.3304624  74.0646281 107.9301943  81.1532701  71.1125141 111.3143544
  81.4139518  72.0270474 111.2052704  81.9749873  70.6449583 111.4640157
  82.6257626  72.5262898 118.4842368  83.2980680  72.3180260 117.8355017
  81.7987413  72.3284984 118.0447601  88.0983817  86.1165365 107.6728923
  88.2735572  85.6453408 108.4874546  87.4116605  86.7431131 107.9010184
  91.9900071  77.7393905 103.9929284  91.3729242  77.0140733 103.8962337
  91.5216560  78.5003266 103.6496358  83.7798617  71.9579330 103.1150588
  82.9028084  71.8368130 102.7512835  84.2556370  71.1665408 102.8629477
  75.3000757  76.7456489 113.2092095  75.9871797  76.4318219 112.6213111
  75.1448886  77.6497854 112.9359347  80.1035480  71.6346686 117.6377119
  80.0193668  71.0272355 116.9027529  79.2818186  72.1255704 117.6386615
  90.2759193  70.1200249 113.0047314  90.7727893  69.3670212 112.6848384
  89.5046175  70.1564566 112.4390523  91.3588974  78.8771937 110.5785737
  90.4245253  78.9973399 110.4090442  91.5365643  77.9744403 110.3145747
  86.8594162  72.2617632 112.7318999  86.4891950  71.7088673 113.4199904
  87.3553255  71.6575766 112.1793999  94.7461525  74.7189256 111.1135772
  95.2121978  75.5517248 111.0396074  95.1969026  74.2534238 111.8181030
  92.8137757  81.0633077 108.1121924  93.0897600  80.9489672 109.0215798
  91.9442255  80.6650562 108.0734097  92.7178188  67.0869843 115.1526673
  91.8041268  67.3174070 115.3208880  93.1471290  67.1708287 116.0040705
  89.7833986  84.2387613 109.0169786  90.3121752  83.7280068 108.4039948
  90.0462206  83.9230143 109.8815319  74.8768734  74.8257083 115.4809562
  74.9152833  74.2920673 116.2746681  74.3709026  74.2992288 114.8620540
  82.2559496  69.6721623 118.9772105  82.3200822  70.5336454 118.5649502
  82.1926616  69.0595625 118.2444463  78.5077311  73.5521185 108.5563494
  78.8030752  72.6431863 108.5030548  77.6065347  73.5308924 108.2344496
  82.0371558  71.6277181 114.5391042  81.3158144  72.2413149 114.3998516
  82.8264814  72.1634946 114.4607688  80.2365153  71.2335283 108.6802819
  79.9077859  70.3532661 108.4977925  80.5904523  71.1782951 109.5679208
  83.3506976  71.5208252 109.0478297  83.6903048  72.0494174 108.3256905
  83.7979096  71.8588658 109.8236863  86.0450417  69.9045303 118.4981365
  85.7047237  69.1053116 118.9002045  85.3389423  70.2047014 117.9258198
  86.6966888  66.9894615 116.9508688  87.5192958  66.5155094 116.8287578
  86.9404952  67.7685099 117.4507374  85.3375123  70.0182874 107.2471589
  86.0583485  70.3964127 106.7435306  84.7140427  70.7371751 107.3506567
  89.4806246  70.7228023 108.1829922  89.6969860  71.6052661 107.8818750
  89.0000313  70.3314236 107.4535564  84.2205467  73.6813736 114.7600666
  84.0750048  73.9954039 115.6524948  83.7430671  74.2998636 114.2071565
  86.0801850  70.6716284 114.8081556  86.0663419  69.7757377 114.4713854
  86.7974278  70.6786948 115.4419842  87.9327981  71.1053624 116.8534683
  87.6745759  72.0270695 116.8519014  87.4013021  70.7084059 117.5435147
  78.6951129  76.2219081 117.6988328  78.1504597  76.9978888 117.8308602
  79.5730479  76.5689885 117.5407449  85.4838746  69.5530664 110.0769126
  85.6054657  68.6247311 110.2760014  85.1940788  69.5669350 109.1647441
  88.3529936  67.2385575 113.2135846  88.3751633  67.3024908 112.2587825
  88.7697995  66.3990083 113.4076352  93.8649342  83.5271176 106.7321667
  94.5600247  84.1477869 106.9508982  94.2072492  82.6766527 107.0074045
  95.7640765  80.9770881 108.2608998  96.2892089  81.3158154 107.5358318
  95.6763118  80.0417897 108.0772132  79.9273765  83.2354406 112.6228879
  80.7531785  82.9358177 112.2427523  79.5767817  82.4662028 113.0718668
  78.1282370  81.1540732 113.5817813  77.2914278  80.7262906 113.4001814
  78.1006015  81.3473175 114.5188604  84.4568805  81.1384797 108.1685013
  84.6056925  81.8220261 107.5151686  85.2635248  81.1189887 108.6834469
  82.2121438  77.1649975 109.1746082  81.9667480  76.2612305 109.3726292
  82.3817353  77.1667125 108.2325560  81.4817086  72.8978332 106.6732244
  80.7886330  72.9722687 106.0172280  81.2368837  72.1338676 107.1953760
  90.1530742  64.4573934 114.0771734  90.4332496  63.7897123 114.7032161
  90.9381349  64.6503029 113.5646398  87.9564211  83.6332928 105.6396761
  87.3838178  84.2523115 105.1867232  88.5297004  84.1832289 106.1736683
  91.1761470  83.9170078 106.7705343  92.1092143  83.8515639 106.9738218
  91.0884683  84.7526345 106.3119876  93.8049487  83.2335948 103.7309290
  93.7263119  82.8995812 104.6245048  94.6259154  83.7257716 103.7300763
  88.3411009  74.9693740 102.9812813  89.2870114  74.8399948 103.0501231
  87.9625254  74.2308402 103.4582241  94.3132894  66.6349746 112.9439705
  94.1157715  66.3264834 113.8283037  94.9232599  67.3611385 113.0737635
  86.5253926  72.8943717 102.9167698  85.6185382  72.5976829 102.9930412
  86.8029907  72.5973535 102.0501985  77.4431867  74.2150080 113.3666745
  77.1234651  73.3615388 113.0741119  76.8965295  74.4298658 114.1224712
  88.1415992  67.4380606 109.0711940  87.3316720  67.0927691 109.4467186
  88.8300409  67.1288150 109.6599551  90.0706540  66.5158653 110.6936236
  90.6237579  66.9354107 111.3526259  90.3076627  65.5894401 110.7359192
  85.2952711  69.7530652 103.0579678  86.1571875  70.0785550 103.3175495
  85.4803055  68.9662148 102.5452743  77.3120127  77.8352992 115.3359866
  76.6183598  77.4206944 114.8229821  78.0593118  77.8773528 114.7393285
  93.4485347  68.6259178 110.2014901  92.8684016  69.2843982 109.8192953
  93.1821280  67.8036523 109.7902318  91.8988914  68.0264236 112.4036221
  92.3988692  68.1380771 111.5950540  92.5424522  67.7225289 113.0437029
  79.2256869  77.7671245 113.2125881  79.2027557  77.8658933 112.2607764
  79.5357506  78.6136396 113.5343047  92.2310225  70.7859269 109.2571249
  91.3436080  71.0708919 109.0391444  92.6464214  70.6253032 108.4098526
  95.5824761  70.8105790 112.9725588  96.3585152  71.3002242 113.2450205
  94.8572896  71.2363844 113.4297458  91.3753439  80.5503943 103.3519269
  92.0789289  80.7553946 103.9676924  90.6516088  81.1180705 103.6168352
  92.2051249  76.3013805 109.4721539  92.1486450  76.7582356 108.6329171
  92.7579592  75.5404489 109.2944382  96.0156055  72.0903537 110.2971658
  95.7592989  71.6900172 111.1279866  95.3908923  72.8047330 110.1721798
  93.2840136  80.9886473 105.4017729  94.1185740  80.5567671 105.2195204
  93.1224479  80.8168486 106.3294623  92.9386028  77.4918586 106.7674068
  92.8834832  77.3262857 105.8262512  92.3132084  78.1994619 106.9236258
  77.7278543  72.7286650 120.5935490  78.3737407  72.2185604 121.0822716
  77.5195694  73.4655332 121.1678916  86.2482154  66.9926695 106.3459387
  86.2360824  67.9368535 106.5027657  87.1405576  66.8096840 106.0518848
  90.0634273  63.5869472 110.6005323  89.2966669  63.0327958 110.7462006
  90.4744978  63.6591340 111.4619475  94.7453992  87.4424020 105.9152681
  93.9091304  87.7798706 106.2361956  94.6058761  87.3073000 104.9779818
  94.6192372  87.2871247 103.1150588  93.7421838  87.1660048 102.7512835
  95.0950125  86.4957326 102.8629477  92.3210840  88.2270250 106.6732244
  91.6280085  88.3014605 106.0172280  92.0762592  87.4630594 107.1953760
  97.3647681  88.2235634 102.9167698  96.4579136  87.9268747 102.9930412
  97.6423662  87.9265452 102.0501985  96.1346465  85.0822570 103.0579678
  96.9965629  85.4077468 103.3175495  96.3196809  84.2954065 102.5452743
  97.0875908  82.3218613 106.3459387  97.0754578  83.2660453 106.5027657
  97.9799330  82.1388758 106.0518848  46.5417585   1.6380144  92.1827150
  45.8679283   1.9411841  92.7912108  46.9283407   2.4409225  91.8332607
  50.5074325  -0.7834372  93.4566974  51.2025230  -0.1627680  93.6754288
  50.8497476  -1.6339021  93.7319352  44.5989194  -0.6772621  92.3642067
  44.0263161  -0.0582433  91.9112539  45.1721988  -0.1273259  92.8981989
  47.8186454  -0.3935470  93.4950650  48.7517127  -0.4589909  93.6983525
  47.7309666   0.4420796  93.0365182  50.4474470  -1.0769600  90.4554597
  50.3688102  -1.4109737  91.3490355  51.2684137  -0.5847832  90.4546069
  48.0178422  -3.7601605  90.0764575  48.7214272  -3.5551602  90.6922231
  47.2941071  -3.1924843  90.3413659  49.9265119  -3.3219076  92.1263035
  50.7610723  -3.7537877  91.9440510  49.7649462  -3.4937062  93.0539930
  58.5549395   7.1950576 102.2218212  59.1927805   7.0757323 101.5181552
  58.4370237   8.1431420 102.2806164  51.2225917   9.0013480  98.1476628
  50.6590782   8.9103417  97.3792916  51.1078312   8.1813385  98.6279120
  56.8025475  12.6684448  93.4591093  56.1513455  13.2538528  93.0725107
  57.5969838  13.1990643  93.5186130  50.7281102   9.7573585  93.8578227
  51.5011978   9.2102572  93.7191103  51.0806501  10.6217834  94.0692688
  53.0647380   5.9166251  91.4896677  53.3172901   5.3947772  90.7280140
  52.1271939   5.7532397  91.5923361  58.1090663   4.9202029  99.2971420
  58.8953752   4.5021453  98.9461837  58.3729367   5.8248122  99.4653069
  58.2800740  10.3574880  93.9960077  57.6446573  10.4309506  94.7080982
  57.9498147  10.9468479  93.3179156  63.5099090   4.8577263 100.2004399
  64.2424262   4.2876479 100.4342228  62.7538446   4.4698863 100.6410904
  52.7843669   7.8194357  93.6921052  52.6679927   7.1439260  94.3602136
  52.8945929   7.3326731  92.8753205  55.1275210   7.2804504  97.3967741
  54.7633417   6.7535125  98.1080663  55.9842326   6.8902973  97.2234227
  54.7680697   2.3094404  92.3929090  54.9355099   3.1774640  92.7599561
  54.5777866   2.4721686  91.4690379  54.7469918   4.7652061  93.3775757
  54.6269543   5.2109112  94.2161237  54.0522506   5.1137379  92.8189295
  52.5076810  17.5355703  97.0265888  52.4300840  18.4863528  97.1054368
  51.9038453  17.1901576  97.6840814  60.4454984   5.2373535  94.2056091
  61.3572840   5.4700921  94.0303788  59.9364631   5.8210579  93.6431169
  59.0524566  10.2199353 101.5969672  58.4233429  10.3845067 100.8945740
  58.6650228  10.6340963 102.3680636  62.9313798  11.1553791  98.9514036
  62.2464836  11.5352692  98.4011069  63.0157647  11.7649117  99.6845984
  54.6052528   9.9573761  98.8619757  55.0690874  10.2361464  98.0724380
  54.3409326   9.0557206  98.6792848  53.5421414   6.0796913  95.6709322
  54.2445458   6.5317957  96.1383249  53.2102043   5.4380732  96.2989215
  61.3010558  11.6785705 103.7231737  62.1228001  11.2765893 103.4414418
  61.2972961  11.5753939 104.6747852  69.3916551   8.0224454 100.0716708
  68.6380259   7.4531852  99.9160713  69.5264092   7.9887118 101.0187343
  54.7815179  12.8937856  95.7471427  54.6460854  13.7389392  96.1756275
  55.3224991  13.0957134  94.9837361  48.2344576  10.4113294  96.3199353
  48.7469097  11.2056544  96.4704917  48.8867289   9.7139585  96.2532954
  50.0439461  13.5279050  98.4022106  50.2206089  14.4497015  98.2143090
  50.8396294  13.2137470  98.8316486  51.1670776  15.0457224 104.4032448
  51.7178201  14.9174288 103.6309442  50.3282252  15.3452113 104.0527341
  46.1993493   8.7401948  97.0958923  47.0368715   9.1498957  96.8792631
  46.3771761   7.8001391  97.0659117  58.0957925   6.4077029  92.7842756
  57.5804549   7.1781634  93.0231143  57.8235234   5.7342165  93.4075818
  55.6805036   1.2526730  97.8427994  54.8246632   0.8633580  97.6633633
  56.0931988   1.3318691  96.9827780  63.0692199   9.1609384  94.7195930
  62.2921642   8.8220543  94.2751092  63.7483680   9.1662007  94.0450895
  57.8844228   4.2804121  94.6102537  57.5794364   4.5950270  95.4612680
  58.8374670   4.3585541  94.6529870  56.3290660  10.4394344  96.2595491
  55.8012022   9.7047104  95.9468729  55.8278163  11.2169021  96.0135460
  61.3083506   8.6343365 101.3762538  60.6507181   9.3242626 101.4642666
  62.1123905   9.0239797 101.7196524  60.1188965   6.9887738  99.4266479
  60.6320847   7.6217729  99.9288189  60.7690189   6.3888933  99.0609839
  51.3878975   3.1318472  92.6397988  50.5516287   3.4693158  92.9607263
  51.2483744   2.9967452  91.7025125  54.4743260   8.2574555  89.2630464
  53.5670322   8.0263808  89.4621613  54.9714292   7.4612174  89.4504446
  57.3811339  16.9672062  92.1827150  56.7073038  17.2703759  92.7912108
  57.7677161  17.7701142  91.8332607  57.3804844   5.8628609  96.8027500
  58.1276662   6.3750006  96.4934622  57.6496433   5.5412662  97.6631894
  55.6531494   8.3587150  93.7854454  54.7442713   8.0746182  93.8826924
  55.6826578   8.7786228  92.9257761  60.8850761  11.9693739  97.5545622
  60.4313088  11.1284649  97.6110812  60.2544728  12.6055137  97.8920402
  59.8283681   2.8985725  98.7846289  59.0906437   2.3863111  99.1156532
  60.0810454   2.4586107  97.9729566  59.3283700  13.8070236  98.4895440
  59.6206675  14.3675293  97.7707806  59.8382321  14.0998797  99.2448599
  54.2016388   5.9715770  99.8864250  54.2564998   5.0189607  99.8106726
  53.3907590   6.1275209 100.3705548  55.3507582   9.8995893  91.1242533
  54.9127011   9.1831752  90.6648170  56.0918022  10.1272008  90.5627624
  52.1408748   4.5892830  97.6454629  51.3276613   4.8887000  98.0519821
  52.6367742   4.1948519  98.3629111  54.2917326  14.5850587  99.5788893
  54.2493504  14.8111433  98.6497425  55.2080024  14.3513961  99.7274694
  63.4680696   8.1753090  97.1818852  63.3298595   8.3654686  96.2540041
  63.1116915   8.9372473  97.6386903  63.4950076  10.2429617 102.1930123
  63.9286583  10.1504906 103.0413177  64.2081657  10.2187118 101.5550139
  52.4083126  11.4613616  99.3750856  53.2023725  10.9663936  99.1733431
  51.6974819  10.9331479  99.0118562  57.2277971  13.8431711 103.7263224
  57.2814993  14.4122648 104.4940940  56.3592752  14.0133596 103.3617261
  48.7165890   5.6056698  95.4510609  47.7863478   5.5441153  95.6680571
  48.8123362   5.0832650  94.6547250  64.3565625  10.2853318 104.7263008
  64.5501516  11.1899128 104.9722283  64.2566244   9.8260737 105.5601593
  54.9854402  12.0342638 103.0548693  54.8465488  11.6661422 103.9274631
  54.1968999  12.5490277 102.8832651  55.5802554  17.1351734  94.3974230
  55.7554310  16.6639778  95.2119852  54.8935342  17.7617501  94.6255490
  56.5359617  11.4124241 100.4437531  56.2009450  11.3725011 101.3395181
  56.0363563  10.7468956  99.9707941  59.4718809   8.7580275  90.7174591
  58.8547980   8.0327103  90.6207643  59.0035298   9.5189635  90.3741665
  50.1463640  20.2841097 101.1714090  50.3860238  20.9159621 101.8493108
  49.3032836  19.9329137 101.4579449  51.2617355   2.9765699  89.8395895
  50.3846821   2.8554500  89.4758141  51.7375108   2.1851778  89.5874783
  54.6591501  16.0920220 103.5755594  54.5861673  16.8975191 104.0874898
  54.2168895  16.2912185 102.7503615  54.4481281  15.3291990  97.0858415
  53.6648803  15.8713670  97.1796640  55.1474026  15.8465969  97.4852656
  65.6107689   6.8426985 101.3710912  65.5997565   7.7251700 101.0004845
  64.7425068   6.4898535 101.1765449  57.1190185  15.9907054 105.7313752
  57.8318157  16.6254518 105.6589654  56.6280214  16.0870920 104.9153754
  58.8407712   9.8958306  97.3031044  57.9063991  10.0159769  97.1335748
  59.0184380   8.9930773  97.0391054  62.2280263   5.7375626  97.8381078
  62.6940715   6.5703617  97.7641381  62.6787764   5.2720607  98.5426337
  60.2956494  12.0819447  94.8367230  60.5716338  11.9676041  95.7461104
  59.4260993  11.6836932  94.7979403  56.9310558  16.3305798  98.4800044
  57.1132953  15.5127454  98.9427796  57.7543544  16.5473490  98.0424934
  57.2652724  15.2573983  95.7415092  57.7940490  14.7466437  95.1285254
  57.5280943  14.9416513  96.6060625  50.6208472  16.3089099  98.5012868
  49.9518847  16.7935227  98.0176908  50.4821341  16.5558320  99.4156247
  54.7613740  18.3432843 105.0995527  55.3132048  18.5064464 105.8644612
  55.1019934  18.9337281 104.4275552  45.9896049   4.5707554  95.2808800
  46.2849490   3.6618233  95.2275854  45.0884085   4.5495294  94.9589803
  57.8982128  16.2914819 102.0859209  57.7733267  15.4904558 101.5770154
  58.5561219  16.7861012 101.5973179  59.9617036  14.0923839 103.7138759
  59.0147372  13.9729190 103.6417086  60.3099809  13.2046337 103.7965020
  56.9663469  13.8876555  99.9143111  56.8188432  12.9593262 100.0950681
  57.7916963  13.9096646  99.4300186  50.8325714   2.5394622  95.7723603
  51.1721786   3.0680543  95.0502212  51.2797834   2.8775028  96.5482170
  60.5697591  14.7105114 101.0007984  61.4944139  14.5047975 100.8632435
  60.4012895  14.4621515 101.9097325  52.8193861   1.0369243  93.9716896
  53.5402223   1.4150496  93.4680613  52.1959165   1.7558120  94.0751874
  56.9624984   1.7414392  94.9075228  57.1788598   2.6239030  94.6064057
  56.4819051   1.3500606  94.1780870  60.3592907  15.2290781  96.3570075
  60.5329785  14.6637203  95.6043928  60.8521799  16.0291676  96.1749565
  66.2132299   7.9927204  97.9760375  66.6563445   7.2434529  97.5779498
  65.3358809   7.9837340  97.5934107  61.3468080  14.5457545  93.4566974
  62.0418984  15.1664238  93.6754288  61.6891230  13.6952897  93.7319352
  63.2459503  11.9957251  94.9854304  63.7710827  12.3344524  94.2603624
  63.1581856  11.0604266  94.8017439  54.9300164  18.0629234  99.3449558
  54.4905154  17.5705613 100.0382414  55.6808281  17.5202202  99.1041633
  47.4092503  14.2540775  99.3474186  48.2350523  13.9544547  98.9672829
  47.0586555  13.4848398  99.7963974  52.3774036  13.6067243 101.4171859
  51.7554045  12.9437948 101.1174087  53.0478903  13.6328375 100.7345507
  51.9387543  12.1571167  94.8930320  52.0875663  12.8406631  94.2396993
  52.7453986  12.1376257  95.4079776  65.7565163   9.4632442 100.3682823
  66.5912055   9.9022246 100.5320383  65.8924292   8.9871095  99.5491068
  49.6940176   8.1836344  95.8991389  49.4486218   7.2798674  96.0971599
  49.8636090   8.1853495  94.9570867  48.9635823   3.9164702  93.3977550
  48.2705068   3.9909057  92.7417586  48.7187575   3.1525045  93.9199067
  55.4382948  14.6519297  92.3642067  54.8656915  15.2709484  91.9112539
  56.0115742  15.2018659  92.8981989  58.6580208  14.9356447  93.4950650
  59.5910881  14.8702009  93.6983525  58.5703421  15.7712714  93.0365182
  61.2868225  14.2522318  90.4554597  61.2081856  13.9182181  91.3490355
  62.1077892  14.7444085  90.4546069  63.9846416   7.1184057 103.6630916
  63.9522736   6.1800058 103.8490600  64.5947040   7.1968094 102.9296741
  55.8229747   5.9880110  89.7058120  56.7688852   5.8586318  89.7746538
  55.4443992   5.2494772  90.1827548  69.8022966   8.1800064 102.8036952
  70.5326354   7.9185352 103.3644656  69.1929911   7.4428786 102.8439020
  67.8838263   6.3207926 103.4011404  67.1571427   6.1863891 102.7927895
  67.4685550   6.6284755 104.2068122  54.0072664   3.9130086  89.6413005
  53.1004119   3.6163199  89.7175719  54.2848645   3.6159904  88.7747291
  55.6234730  -1.5433024  95.7957246  54.8135458  -1.8885939  96.1712492
  56.3119147  -1.8525480  96.3844858  52.7771449   0.7717021  89.7824984
  53.6390613   1.0971920  90.0420801  52.9621793  -0.0151483  89.2698050
  60.9304085  -0.3554452  96.9260207  60.3502754   0.3030352  96.5438260
  60.6640018  -1.1777107  96.5147625  59.7128963   1.8045638  95.9816555
  58.8254818   2.0895289  95.7636750  60.1282952   1.6439402  95.1343832
  63.0643499   1.8292159  99.6970895  63.8403889   2.3188612  99.9695511
  62.3391633   2.2550213 100.1542764  65.5016058   2.5419778 100.7544835
  66.0960549   2.3015514 100.0438144  65.5742642   1.8226909 101.3818372
  47.7213214  16.3853389 101.0688000  47.5867681  15.6253790 100.5025998
  47.3045276  17.1094289 100.6016789  58.8572177  11.5690313  90.0764575
  59.5608027  11.7740315  90.6922231  58.1334825  12.1367075  90.3413659
  59.6869987   7.3200174  96.1966846  59.6305188   7.7768726  95.3574478
  60.2398329   6.5590859  96.0189688  63.4974793   3.1089906  97.0216965
  63.2411727   2.7086542  97.8525173  62.8727661   3.8233700  96.8967104
  67.8087131   5.8485979  99.5288256  67.2486689   5.9179169 100.3019819
  67.2030634   5.6726964  98.8087753  50.8782339  17.2822706 101.2806443
  50.7614724  18.2268139 101.1785133  50.0574786  16.9796268 101.6692242
  60.7658874  12.0072842  92.1263035  61.6004478  11.5754041  91.9440510
  60.6043217  11.8354856  93.0539930  60.4204766   8.5104955  93.4919375
  60.3653570   8.3449227  92.5507819  59.7950821   9.2180988  93.6481564
  53.7300892  -1.9886936  93.0704693  53.7179561  -1.0445096  93.2272964
  54.6224313  -2.1716790  92.7764154  51.9036854  17.9350968 104.4962371
  52.8064100  17.9674579 104.8128866  51.6774224  17.0051419 104.5108707
  53.6590456  16.6881955 101.1572450  52.7086087  16.6883816 101.0436822
  53.9622942  15.9414689 100.6408484  69.3943149  22.5242493 102.2218212
  70.0321559  22.4049241 101.5181552  69.2763992  23.4723337 102.2806164
  66.2032855  22.4769921 102.1579737  65.8651367  22.3610986 101.2700272
  67.0722624  22.0761086 102.1380743  62.0619671  24.3305398  98.1476628
  61.4984536  24.2395335  97.3792916  61.9472066  23.5105302  98.6279120
  66.6852638  23.6304773 108.1165942  66.6741279  23.2357571 107.2446446
  66.8473278  22.8970846 108.7099714  59.6084103  25.8256589 100.9860848
  60.4005395  25.4847414 100.5707148  59.8480753  25.9351564 101.9063002
  67.6419230  27.9976365  93.4591093  66.9907210  28.5830446  93.0725107
  68.4363593  28.5282560  93.5186130  61.5674857  25.0865503  93.8578227
  62.3405733  24.5394490  93.7191103  61.9200256  25.9509752  94.0692688
  63.4059899  26.4141885 107.0645126  63.1149765  27.3187516 106.9491793
  64.0416884  26.4558413 107.7789196  64.3316106  23.7918733 103.6546486
  64.9279679  23.5674756 102.9403449  64.3891078  23.0503479 104.2571934
  63.9041135  21.2458169  91.4896677  64.1566655  20.7239690  90.7280140
  62.9665694  21.0824314  91.5923361  68.9484418  20.2493947  99.2971420
  69.7347507  19.8313370  98.9461837  69.2123122  21.1540039  99.4653069
  69.1194495  25.6866797  93.9960077  68.4840328  25.7601424  94.7080982
  68.7891901  26.2760396  93.3179156  74.3492845  20.1869180 100.2004399
  75.0818017  19.6168397 100.4342228  73.5932200  19.7990781 100.6410904
  63.6237423  23.1486275  93.6921052  63.5073682  22.4731178  94.3602136
  63.7339683  22.6618649  92.8753205  65.9668964  22.6096422  97.3967741
  65.6027172  22.0827043  98.1080663  66.8236080  22.2194891  97.2234227
  71.8718265  13.8990754 104.6599007  71.5401590  14.7686165 104.4360222
  71.2763878  13.5827038 105.3393038  65.6074451  17.6386322  92.3929090
  65.7748854  18.5066558  92.7599561  65.4171620  17.8013603  91.4690379
  68.3649785  26.1003300 104.0594920  68.0650508  27.0028339 103.9510727
  68.0200844  25.8335484 104.9116073  61.8162266  22.5517097 100.0931625
  60.8912763  22.4193311 100.3009316  62.0646679  23.3311317 100.5901567
  71.7646928  18.6185841 101.7392357  70.8563806  18.5501249 101.4451118
  71.7134524  19.0957786 102.5674183  65.5863672  20.0943979  93.3775757
  65.4663297  20.5401030  94.2161237  64.8916261  20.4429297  92.8189295
  59.1771077  22.1950371 100.9275414  59.3063458  22.4484850 101.8414825
  58.4968528  22.7878079 100.6080069  63.3470564  32.8647621  97.0265888
  63.2694594  33.8155446  97.1054368  62.7432208  32.5193493  97.6840814
  65.8387794  20.0375486 109.6827255  65.0621128  20.5969406 109.6730119
  66.4778357  20.5232269 110.2042125  73.6308575  16.8202279 103.5170231
  72.9882955  17.1134812 102.8710026  73.1263503  16.7055199 104.3223428
  71.2848738  20.5665452  94.2056091  72.1966595  20.7992839  94.0303788
  70.7758385  21.1502496  93.6431169  64.0934166  22.8460940 109.2445222
  64.8348851  23.3845984 108.9680045  63.3871152  23.4727228 109.4016773
  69.5689506  24.9890080 107.8417383  69.9772862  24.5472491 107.0972016
  68.8466768  24.4142708 108.0951576  65.9220576  19.9262687 105.2150940
  66.7681771  20.3502100 105.3585589  65.8619214  19.2696311 105.9089503
  69.8918321  25.5491271 101.5969672  69.2627183  25.7136985 100.8945740
  69.5043983  25.9632880 102.3680636  73.7707553  26.4845709  98.9514036
  73.0858591  26.8644610  98.4011069  73.8551402  27.0941035  99.6845984
  69.0720021  17.5867055 106.8732114  68.8280953  18.3409116 106.3366389
  69.3479952  17.9652403 107.7079361  71.0258484  24.1305668 105.5509379
  71.2375379  24.7737427 104.8743760  70.9788232  23.2967984 105.0831309
  68.6284713  16.7423488 102.4545951  67.7669192  17.0404742 102.7462689
  68.6547148  16.9593887 101.5226984  65.4446283  25.2865679  98.8619757
  65.9084628  25.5653382  98.0724380  65.1803081  24.3849123  98.6792848
  62.3370364  24.8337160 101.7999520  62.9071721  25.2624429 101.1617005
  62.9278476  24.5519745 102.4983706  64.3815169  21.4088831  95.6709322
  65.0839212  21.8609875  96.1383249  64.0495797  20.7672650  96.2989215
  62.8295530  20.0000588 110.0460532  62.1994191  20.6816869 110.2795928
  62.7231618  19.8883669 109.1013670  58.1240503  19.6672384 100.9726456
  57.3339557  19.9229912 100.4966566  58.6151750  20.4820722 101.0778496
  72.1404312  27.0077623 103.7231737  72.9621756  26.6057810 103.4414418
  72.1366715  26.9045857 104.6747852  60.0755248  20.0316963  97.9309933
  59.2786411  20.1435657  98.4493428  59.8480840  20.3703615  97.0650823
  65.9060916  26.5561666 105.8792447  65.9705348  27.0182073 106.7150619
  65.1971839  25.9259031 106.0074757  56.4078206  19.9202874 103.4041447
  56.6586244  20.8049884 103.6699023  56.9437754  19.7407476 102.6316538
  80.2310305  23.3516371 100.0716708  79.4774014  22.7823769  99.9160713
  80.3657846  23.3179036 101.0187343  65.6208933  28.2229774  95.7471427
  65.4854608  29.0681309  96.1756275  66.1618746  28.4249051  94.9837361
  59.0738331  25.7405212  96.3199353  59.5862851  26.5348462  96.4704917
  59.7261043  25.0431502  96.2532954  60.8833215  28.8570968  98.4022106
  61.0599844  29.7788933  98.2143090  61.6790049  28.5429387  98.8316486
  65.0244234  15.7179233 110.0006039  65.7653947  16.3186386 109.9210502
  65.2562157  14.9756870 109.4424082  60.1685572  20.9035600 108.2784269
  60.0539087  20.0020857 108.5791368  59.3130090  21.1499297 107.9269086
  67.2477410  28.8453340 109.8771770  66.8041264  28.0589719 109.5592674
  67.9094623  29.0332491 109.2115660  62.0064531  30.3749142 104.4032448
  62.5571956  30.2466205 103.6309442  61.1676007  30.6744031 104.0527341
  69.3458648  29.1256140 107.9053171  69.3277123  29.9465021 107.4133440
  70.2678568  29.0010215 108.1303312  65.8031702  26.6400270 108.7476679
  66.3360039  25.8788558 108.5175987  65.2745783  26.3473921 109.4900834
  68.9701397  11.7460336 104.2770321  68.6265666  12.6361977 104.2009432
  69.3380359  11.5561993 103.4139906  57.0387247  24.0693866  97.0958923
  57.8762469  24.4790874  96.8792631  57.2165515  23.1293308  97.0659117
  68.9351680  21.7368947  92.7842756  68.4198303  22.5073551  93.0231143
  68.6628988  21.0634083  93.4075818  66.5198791  16.5818647  97.8427994
  65.6640387  16.1925498  97.6633633  66.9325742  16.6610608  96.9827780
  68.0497937  14.1164991 102.2419554  67.5462733  14.0795126 101.4287360
  68.3428544  15.0257733 102.3016211  64.2940823  14.2003720 101.2485736
  65.1593820  14.0046529 100.8891625  64.3618332  13.9714072 102.1755093
  73.9085954  24.4901301  94.7195930  73.1315396  24.1512461  94.2751092
  74.5877435  24.4953925  94.0450895  68.7237983  19.6096039  94.6102537
  68.4188118  19.9242188  95.4612680  69.6768425  19.6877459  94.6529870
  67.1684415  25.7686262  96.2595491  66.6405776  25.0339022  95.9468729
  66.6671917  26.5460938  96.0135460  72.1477261  23.9635283 101.3762538
  71.4900935  24.6534544 101.4642666  72.9517660  24.3531715 101.7196524
  61.9003142  16.4305928  98.6202103  62.4746894  16.2081110  97.8875296
  62.4874125  16.4994623  99.3730704  70.9582719  22.3179655  99.4266479
  71.4714601  22.9509647  99.9288189  71.6083943  21.7180851  99.0609839
  62.2272729  18.4610389  92.6397988  61.3910042  18.7985076  92.9607263
  62.0877499  18.3259369  91.7025125  64.2025810  13.3047177  97.3477172
  63.5490222  12.9896194  96.7233787  64.1606284  12.6822918  98.0736995
  65.3137015  23.5866472  89.2630464  64.4064076  23.3555726  89.4621613
  65.8108047  22.7904092  89.4504446  68.2205094  32.2963980  92.1827150
  67.5466792  32.5995676  92.7912108  68.6070916  33.0993060  91.8332607
  67.4363550  19.7929111 101.6724820  66.5186112  20.0144058 101.5146508
  67.8523694  19.8675421 100.8136527  68.2198598  21.1920527  96.8027500
  68.9670417  21.7041924  96.4934622  68.4890188  20.8704579  97.6631894
  66.4925248  23.6879067  93.7854454  65.5836467  23.4038100  93.8826924
  66.5220332  24.1078146  92.9257761  71.7244516  27.2985657  97.5545622
  71.2706843  26.4576567  97.6110812  71.0938482  27.9347055  97.8920402
  70.6677435  18.2277643  98.7846289  69.9300192  17.7155029  99.1156532
  70.9204209  17.7878024  97.9729566  70.1677455  29.1362153  98.4895440
  70.4600429  29.6967211  97.7707806  70.6776075  29.4290714  99.2448599
  70.7689062  11.0053895  99.3788059  71.0747939  10.1451258  99.0913974
  71.4941667  11.5971515  99.1787053  57.0613419  21.4084581  97.7669657
  56.8637818  20.8153942  97.0420723  56.5060083  21.1036792  98.4845595
  65.0410142  21.3007688  99.8864250  65.0958752  20.3481524  99.8106726
  64.2301344  21.4567127 100.3705548  66.1901336  25.2287811  91.1242533
  65.7520766  24.5123670  90.6648170  66.9311777  25.4563926  90.5627624
  62.9802502  19.9184748  97.6454629  62.1670368  20.2178918  98.0519821
  63.4761496  19.5240436  98.3629111  65.1311080  29.9142505  99.5788893
  65.0887259  30.1403351  98.6497425  66.0473779  29.6805879  99.7274694
  68.5776714  20.3826572 106.4769522  68.9326102  20.6098045 107.3363988
  69.2248845  20.7144949 105.8546778  74.3074451  23.5045008  97.1818852
  74.1692349  23.6946604  96.2540041  73.9510670  24.2664391  97.6386903
  62.4716577  17.4903103 103.2615864  63.1115956  17.3491862 102.5638827
  61.6394107  17.2037617 102.8854466  74.3343830  25.5721535 102.1930123
  74.7680337  25.4796824 103.0413177  75.0475411  25.5479035 101.5550139
  63.2476881  26.7905534  99.3750856  64.0417479  26.2955854  99.1733431
  62.5368573  26.2623397  99.0118562  68.0671725  29.1723629 103.7263224
  68.1208748  29.7414565 104.4940940  67.1986507  29.3425514 103.3617261
  59.5559644  20.9348615  95.4510609  58.6257232  20.8733071  95.6680571
  59.6517116  20.4124568  94.6547250  59.4745193  17.4603428  98.0388850
  59.7352011  18.3748761  97.9298011  60.2962366  16.9927871  98.1885463
  60.9470119  18.8741185 105.2087675  61.6193172  18.6658547 104.5600324
  60.1199905  18.6763271 104.7692907  75.1959380  25.6145236 104.7263008
  75.3895270  26.5191046 104.9722283  75.0959998  25.1552655 105.5601593
  66.8495691  15.5003126 107.2253336  66.2023606  16.1993076 107.1317812
  67.6196706  15.9339270 107.5929584  70.2574489  25.7651978 110.3003889
  70.1059995  25.5362530 109.3833973  70.2479168  26.7222580 110.3135234
  67.0259825  23.3383891 105.2850155  67.9551885  23.4895051 105.1119123
  66.6050855  23.4267912 104.4298802  65.8248157  27.3634556 103.0548693
  65.6859243  26.9953340 103.9274631  65.0362753  27.8782195 102.8832651
  66.4196309  32.4643652  94.3974230  66.5948064  31.9931695  95.2119852
  65.7329097  33.0909418  94.6255490  67.3753372  26.7416158 100.4437531
  67.0403205  26.7016928 101.3395181  66.8757318  26.0760874  99.9707941
  61.3497616  22.1483788 105.9690112  61.2117414  21.4164027 106.5701651
  62.2602539  22.0592688 105.6874300  70.3112564  24.0872193  90.7174591
  69.6941734  23.3619021  90.6207643  69.8429052  24.8481553  90.3741665
  63.9779917  21.8603748 105.4573792  64.6879535  21.2196940 105.4160410
  63.9349225  22.1116642 106.3799972  71.9666695  28.7971101 108.3780371
  71.9079241  28.1130321 107.7110954  72.3686214  29.5390091 107.9260997
  62.6908851  18.8468965 107.2769431  62.1546208  18.3959704 107.9291027
  62.1025559  18.9814874 106.5339896  60.9857394  35.6133015 101.1714090
  61.2253992  36.2451539 101.8493108  60.1426591  35.2621055 101.4579449
  62.1011110  18.3057617  89.8395895  61.2240576  18.1846418  89.4758141
  62.5768863  17.5143695  89.5874783  71.9684103  26.7610685 106.6094351
  71.0810881  26.4236607 106.7320749  72.5382654  26.0293716 106.8463116
  53.6213250  23.0934777  99.9337402  54.3084289  22.7796507  99.3458417
  53.4661378  23.9976141  99.6604653  58.4247972  17.9824973 104.3622426
  58.3406161  17.3750643 103.6272836  57.6030678  18.4733991 104.3631922
  65.4985256  31.4212137 103.5755594  65.4255427  32.2267109 104.0874898
  65.0562649  31.6204103 102.7503615  65.2875036  30.6583907  97.0858415
  64.5042557  31.2005587  97.1796640  65.9867781  31.1757887  97.4852656
  68.5971686  16.4678537  99.7292621  69.0940385  15.7148499  99.4093691
  67.8258667  16.5042853  99.1635830  76.4501443  22.1718902 101.3710912
  76.4391319  23.0543618 101.0004845  75.5818823  21.8190453 101.1765449
  67.9583939  31.3198971 105.7313752  68.6711912  31.9546436 105.6589654
  67.4673968  31.4162837 104.9153754  69.6801466  25.2250224  97.3031044
  68.7457745  25.3451686  97.1335748  69.8578135  24.3222691  97.0391054
  65.1806654  18.6095920  99.4564305  64.8104442  18.0566960 100.1445211
  65.6765747  18.0054053  98.9039305  73.0674018  21.0667543  97.8381078
  73.5334470  21.8995535  97.7641381  73.5181518  20.6012525  98.5426337
  63.0095853  29.0693415 106.5519323  63.7105312  29.7029898 106.7048717
  62.5390968  29.4108146 105.7914963  71.1350249  27.4111364  94.8367230
  71.4110093  27.2967959  95.7461104  70.2654748  27.0128849  94.7979403
  71.0390680  13.4348130 101.8771980  70.1253760  13.6652357 102.0454187
  71.4683782  13.5186574 102.7286012  70.8097139  21.6238022 104.3771874
  70.1568589  21.8713930 103.7224326  71.1877519  20.8102160 104.0434351
  67.7704313  31.6597715  98.4800044  67.9526707  30.8419371  98.9427796
  68.5937299  31.8765408  98.0424934  68.1046478  30.5865900  95.7415092
  68.6334245  30.0758355  95.1285254  68.3674698  30.2708431  96.6060625
  66.8584712  22.3657833 110.8637911  66.1825349  22.2651963 111.5340286
  67.6812346  22.2097047 111.3273908  58.6063571  28.6029770 103.4850426
  59.1917008  27.8573458 103.6178330  58.4088410  28.9133726 104.3687090
  61.4602226  31.6381017  98.5012868  60.7912602  32.1227145  98.0176908
  61.3215096  31.8850238  99.4156247  53.1981226  21.1735370 102.2054869
  53.2365325  20.6398961 102.9991987  52.6921519  20.6470575 101.5865846
  65.6007495  33.6724761 105.0995527  66.1525803  33.8356382 105.8644612
  65.9413688  34.2629198 104.4275552  60.5771988  16.0199910 105.7017411
  60.6413315  16.8814741 105.2894809  60.5139108  15.4073912 104.9689770
  70.4518369  28.4986018 110.9544181  70.9958273  29.1115976 110.4599136
  69.8705214  29.0565597 111.4711194  56.8289803  19.8999472  95.2808800
  57.1243244  18.9910151  95.2275854  55.9277839  19.8787212  94.9589803
  68.7375882  31.6206736 102.0859209  68.6127022  30.8196476 101.5770154
  69.3954973  32.1152930 101.5973179  60.3584050  17.9755469 101.2636349
  59.6370636  18.5891436 101.1243822  61.1477306  18.5113234 101.1852995
  70.8010791  29.4215756 103.7138759  69.8541126  29.3021107 103.6417086
  71.1493564  28.5338254 103.7965020  63.1610364  15.3109895 107.5377001
  63.6844766  15.5572192 108.3003310  62.9422697  16.1429930 107.1180138
  58.5577645  17.5813570  95.4048126  58.2290351  16.7010949  95.2223232
  58.9117016  17.5261238  96.2924515  67.8057224  29.2168472  99.9143111
  67.6582186  28.2885180 100.0950681  68.6310717  29.2388563  99.4300186
  61.6719468  17.8686540  95.7723603  62.0115541  18.3972461  95.0502212
  62.1191589  18.2066946  96.5482170  71.4091346  30.0397031 101.0007984
  72.3337893  29.8339893 100.8632435  71.2406649  29.7913432 101.9097325
  64.3662909  16.2523590 105.2226671  64.0259729  15.4531403 105.6247351
  63.6601915  16.5525301 104.6503505  65.0179381  13.3372903 103.6753994
  65.8405450  12.8633381 103.5532885  65.2617444  14.1163386 104.1752681
  63.6587615  16.3661161  93.9716896  64.3795978  16.7442414  93.4680613
  63.0352919  17.0850038  94.0751874  67.8018738  17.0706310  94.9075228
  68.0182353  17.9530948  94.6064057  67.3212805  16.6792524  94.1780870
  62.5417960  20.0292023 101.4845973  62.3962540  20.3432326 102.3770254
  62.0643163  20.6476924 100.9316872  64.4014342  17.0194571 101.5326863
  64.3875911  16.1235665 101.1959160  65.1186771  17.0265235 102.1665149
  66.2540473  17.4531912 103.5779990  65.9958251  18.3748982 103.5764320
  65.7225513  17.0562346 104.2680454  71.1986662  30.5582699  96.3570075
  71.3723539  29.9929121  95.6043928  71.6915553  31.3583594  96.1749565
  57.0163622  22.5697368 104.4233634  56.4717090  23.3457176 104.5553908
  57.8942972  22.9168172 104.2652756  63.8051238  15.9008952  96.8014433
  63.9267150  14.9725598  97.0005320  63.5153281  15.9147638  95.8892748
  66.6742429  13.5863862  99.9381153  66.6964126  13.6503195  98.9833132
  67.0910488  12.7468371 100.1321659  77.0526053  23.3219122  97.9760375
  77.4957199  22.5726447  97.5779498  76.1752563  23.3129258  97.5934107
  72.1861834  29.8749463  93.4566974  72.8812739  30.4956156  93.6754288
  72.5284985  29.0244814  93.7319352  57.8029644  21.6967264 107.3163791
  57.0611380  21.8449899 107.9028421  57.4822388  21.9575530 106.4530540
  74.0853257  27.3249169  94.9854304  74.6104582  27.6636441  94.2603624
  73.9975610  26.3896184  94.8017439  65.7473306  31.2383242 107.1144181
  66.0560433  30.9932389 107.9866881  66.5448788  31.4429881 106.6263051
  65.7693918  33.3921152  99.3449558  65.3298909  32.8997531 100.0382414
  66.5202035  32.8494120  99.1041633  58.2486257  29.5832693  99.3474186
  59.0744277  29.2836465  98.9672829  57.8980309  28.8140315  99.7963974
  63.2167790  28.9359161 101.4171859  62.5947800  28.2729866 101.1174087
  63.8872657  28.9620293 100.7345507  56.4494862  27.5019019 100.3063119
  55.6126771  27.0741194 100.1247121  56.4218508  27.6951463 101.2433910
  73.7747164  27.9582072 110.2905502  72.9842707  27.9406211 109.7510002
  73.5380518  28.4970366 111.0454539  73.8945039  24.8074539 107.6038231
  73.9443044  24.6424546 108.5453754  73.7858962  23.9401798 107.2136112
  62.7781297  27.4863084  94.8930320  62.9269418  28.1698549  94.2396993
  63.5847741  27.4668174  95.4079776  71.1848801  20.7905467 108.9197538
  72.0858664  20.6511932 108.6281535  71.2596776  20.9559921 109.8595715
  65.5191606  18.1672321 107.7650724  64.6494916  18.4605887 107.4933312
  65.7551087  18.7512766 108.4857988  75.3963235  27.2271480 107.8480252
  75.1048044  27.5901461 108.6843713  74.7835367  26.5138488 107.6693585
  76.5958918  24.7924360 100.3682823  77.4305809  25.2314164 100.5320383
  76.7318047  24.3163013  99.5491068  73.6450424  22.3504095 106.3160310
  74.1204545  22.5431741 105.5079162  72.7215989  22.4063281 106.0703694
  60.5333930  23.5128262  95.8991389  60.2879972  22.6090592  96.0971599
  60.7029845  23.5145412  94.9570867  68.2230640  14.3851938 105.2816144
  68.7412584  15.1212965 104.9562633  67.8685773  14.6915932 106.1162903
  59.8029578  19.2456620  93.3977550  59.1098823  19.3200975  92.7417586
  59.5581330  18.4816963  93.9199067  68.4743234  10.8052221 100.8017041
  68.7544988  10.1375410 101.4277467  69.2593841  10.9981316 100.2891705
  66.2776703  29.9811215  92.3642067  65.7050670  30.6001402  91.9112539
  66.8509496  30.5310576  92.8981989  72.3452093  19.2269855 104.5488616
  73.2969516  19.3267953 104.5700840  72.1755543  18.4348123 105.0586700
  70.3666472  16.3125438 104.7348017  69.7716404  16.5930451 104.0394506
  70.0816169  16.8019339 105.5064758  69.4973963  30.2648365  93.4950650
  70.4304636  30.1993927  93.6983525  69.4097175  31.1004632  93.0365182
  72.1261979  29.5814235  90.4554597  72.0475611  29.2474099  91.3490355
  72.9471646  30.0736003  90.4546069  74.8240170  22.4475975 103.6630916
  74.7916491  21.5091975 103.8490600  75.4340794  22.5260011 102.9296741
  66.6623501  21.3172028  89.7058120  67.6082606  21.1878236  89.7746538
  66.2837746  20.5786689  90.1827548  74.9734659  19.2387018 103.7089199
  74.4573708  18.4545475 103.5219128  75.8574607  18.9105735 103.8735718
  72.6345386  12.9828034  99.6685012  72.4370207  12.6743122 100.5528344
  73.2445091  13.7089672  99.7982941  80.6416720  23.5091981 102.8036952
  81.3720109  23.2477270 103.3644656  80.0323666  22.7720703 102.8439020
  78.7232017  21.6499844 103.4011404  77.9965181  21.5155809 102.7927895
  78.3079304  21.9576673 104.2068122  66.5462194  25.3689774 111.1658777
  67.4665203  25.5468373 111.3598823  66.5111777  24.4245819 111.0138476
  64.8466418  19.2422004  89.6413005  63.9397874  18.9455117  89.7175719
  65.1242399  18.9451822  88.7747291  55.7644359  20.5628367 100.0912051
  55.4447143  19.7093676  99.7986425  55.2177787  20.7776945 100.8470019
  59.5424266  23.2790808 103.8081558  59.7610276  24.2107916 103.8269592
  59.9550040  22.9198783 104.5936362  66.4628484  13.7858894  95.7957246
  65.6529213  13.4405979  96.1712492  67.1512901  13.4766437  96.3844858
  68.3919032  12.8636940  97.4181543  68.9450071  13.2832394  98.0771566
  68.6289119  11.9372689  97.4604499  63.6165203  16.1008939  89.7824984
  64.4784367  16.4263837  90.0420801  63.8015547  15.3140435  89.2698050
  55.6332619  24.1831279 102.0605173  54.9396090  23.7685232 101.5475127
  56.3805610  24.2251815 101.4638592  71.7697840  14.9737466  96.9260207
  71.1896509  15.6322270  96.5438260  71.5033772  14.1514810  96.5147625
  70.2201406  14.3742523  99.1281527  70.7201184  14.4859058  98.3195846
  70.8637014  14.0703576  99.7682336  64.2783402  22.2821153 112.0149368
  63.7950483  23.0821513 112.2213257  64.3644341  22.2929098 111.0616812
  57.5469361  24.1149533  99.9371188  57.5240049  24.2137220  98.9853071
  57.8569998  24.9614683 100.2588354  60.2056739  26.1725688 104.0517802
  61.1599993  26.1409630 103.9847734  60.0069263  25.7116311 104.8668028
  60.7956121  24.7426804 106.6188600  61.6149010  25.2370882 106.6423437
  61.0692929  23.8258772 106.5906167  70.5522718  17.1337556  95.9816555
  69.6648573  17.4187207  95.7636750  70.9676707  16.9731319  95.1343832
  73.9037254  17.1584077  99.6970895  74.6797644  17.6480529  99.9695511
  73.1785388  17.5842131 100.1542764  76.3409812  17.8711696 100.7544835
  76.9354303  17.6307432 100.0438144  76.4136396  17.1518827 101.3818372
  58.5606968  31.7145307 101.0688000  58.4261436  30.9545708 100.5025998
  58.1439030  32.4386207 100.6016789  69.6965931  26.8982231  90.0764575
  70.4001781  27.1032233  90.6922231  68.9728580  27.4658993  90.3413659
  70.5263741  22.6492092  96.1966846  70.4698943  23.1060643  95.3574478
  71.0792084  21.8882777  96.0189688  74.3368547  18.4381824  97.0216965
  74.0805481  18.0378459  97.8525173  73.7121415  19.1525618  96.8967104
  78.6480885  21.1777897  99.5288256  78.0880443  21.2471086 100.3019819
  78.0424388  21.0018882  98.8087753  61.7176094  32.6114624 101.2806443
  61.6008478  33.5560057 101.1785133  60.8968540  32.3088186 101.6692242
  71.6052628  27.3364760  92.1263035  72.4398232  26.9045958  91.9440510
  71.4436971  27.1646774  93.0539930  71.2598521  23.8396873  93.4919375
  71.2047324  23.6741145  92.5507819  70.6344576  24.5472906  93.6481564
  56.0491036  19.0764938 107.3180797  56.6949899  18.5663892 107.8068022
  55.8408187  19.8133619 107.8924222  68.5744428  26.1445785 112.8172938
  69.4435587  26.3186437 112.4559572  68.0951179  26.9640202 112.6948667
  64.5694646  13.3404982  93.0704693  64.5573316  14.2846822  93.2272964
  65.4618068  13.1575128  92.7764154  62.7430608  33.2642886 104.4962371
  63.6457855  33.2966496 104.8128866  62.5167978  32.3343337 104.5108707
  64.4984210  32.0173873 101.1572450  63.5479841  32.0175734 101.0436822
  64.8016696  31.2706607 100.6408484  68.3846766   9.9347759  97.3250630
  67.6179161   9.3806245  97.4707312  68.7957471  10.0069628  98.1864782
  80.2336904  37.8534411 102.2218212  80.8715314  37.7341158 101.5181552
  80.1157746  38.8015255 102.2806164  77.0426610  37.8061839 102.1579737
  76.7045121  37.6902904 101.2700272  77.9116378  37.4053004 102.1380743
  72.9013426  39.6597315  98.1476628  72.3378291  39.5687252  97.3792916
  72.7865821  38.8397220  98.6279120  77.5246393  38.9596691 108.1165942
  77.5135034  38.5649489 107.2446446  77.6867032  38.2262763 108.7099714
  70.4477857  41.1548507 100.9860848  71.2399149  40.8139332 100.5707148
  70.6874508  41.2643482 101.9063002  78.4812984  43.3268283  93.4591093
  77.8300964  43.9122364  93.0725107  79.2757347  43.8574478  93.5186130
  72.4068611  40.4157420  93.8578227  73.1799487  39.8686407  93.7191103
  72.7594010  41.2801670  94.0692688  74.2453654  41.7433803 107.0645126
  73.9543520  42.6479433 106.9491793  74.8810638  41.7850330 107.7789196
  75.1709861  39.1210651 103.6546486  75.7673433  38.8966674 102.9403449
  75.2284832  38.3795397 104.2571934  74.7434889  36.5750086  91.4896677
  74.9960410  36.0531608  90.7280140  73.8059448  36.4116232  91.5923361
  79.7878172  35.5785865  99.2971420  80.5741261  35.1605288  98.9461837
  80.0516876  36.4831957  99.4653069  79.9588249  41.0158715  93.9960077
  79.3234082  41.0893342  94.7080982  79.6285656  41.6052314  93.3179156
  85.1886599  35.5161098 100.2004399  85.9211771  34.9460315 100.4342228
  84.4325955  35.1282698 100.6410904  74.4631178  38.4778192  93.6921052
  74.3467436  37.8023096  94.3602136  74.5733438  37.9910566  92.8753205
  76.8062719  37.9388340  97.3967741  76.4420926  37.4118960  98.1080663
  77.6629835  37.5486809  97.2234227  82.7112020  29.2282672 104.6599007
  82.3795344  30.0978083 104.4360222  82.1157633  28.9118956 105.3393038
  76.4468206  32.9678239  92.3929090  76.6142608  33.8358476  92.7599561
  76.2565375  33.1305521  91.4690379  79.2043539  41.4295218 104.0594920
  78.9044262  42.3320257 103.9510727  78.8594599  41.1627401 104.9116073
  72.6556021  37.8809015 100.0931625  71.7306517  37.7485229 100.3009316
  72.9040434  38.6603234 100.5901567  82.6040683  33.9477758 101.7392357
  81.6957560  33.8793167 101.4451118  82.5528279  34.4249703 102.5674183
  76.4257427  35.4235897  93.3775757  76.3057052  35.8692947  94.2161237
  75.7310015  35.7721214  92.8189295  70.0164832  37.5242288 100.9275414
  70.1457213  37.7776767 101.8414825  69.3362283  38.1169996 100.6080069
  76.6781549  35.3667404 109.6827255  75.9014883  35.9261324 109.6730119
  77.3172112  35.8524187 110.2042125  84.4702329  32.1494197 103.5170231
  83.8276709  32.4426730 102.8710026  83.9657258  32.0347117 104.3223428
  82.1242493  35.8957370  94.2056091  83.0360349  36.1284757  94.0303788
  81.6152140  36.4794414  93.6431169  74.9327921  38.1752857 109.2445222
  75.6742605  38.7137901 108.9680045  74.2264906  38.8019146 109.4016773
  80.4083261  40.3181998 107.8417383  80.8166617  39.8764408 107.0972016
  79.6860522  39.7434625 108.0951576  76.7614331  35.2554604 105.2150940
  77.6075526  35.6794018 105.3585589  76.7012968  34.5988229 105.9089503
  80.7312075  40.8783188 101.5969672  80.1020938  41.0428902 100.8945740
  80.3437737  41.2924798 102.3680636  84.6101307  41.8137626  98.9514036
  83.9252345  42.1936528  98.4011069  84.6945156  42.4232953  99.6845984
  79.9113776  32.9158973 106.8732114  79.6674708  33.6701033 106.3366389
  80.1873706  33.2944320 107.7079361  81.8652239  39.4597585 105.5509379
  82.0769134  40.1029345 104.8743760  81.8181987  38.6259902 105.0831309
  79.4678468  32.0715406 102.4545951  78.6062947  32.3696659 102.7462689
  79.4940902  32.2885805 101.5226984  76.2840037  40.6157596  98.8619757
  76.7478383  40.8945299  98.0724380  76.0196835  39.7141041  98.6792848
  73.1764118  40.1629078 101.7999520  73.7465475  40.5916346 101.1617005
  73.7672230  39.8811663 102.4983706  75.2208923  36.7380749  95.6709322
  75.9232966  37.1901792  96.1383249  74.8889552  36.0964568  96.2989215
  73.6689285  35.3292505 110.0460532  73.0387945  36.0108786 110.2795928
  73.5625373  35.2175587 109.1013670  68.9634257  34.9964301 100.9726456
  68.1733311  35.2521830 100.4966566  69.4545504  35.8112639 101.0778496
  82.9798067  42.3369541 103.7231737  83.8015510  41.9349728 103.4414418
  82.9760470  42.2337775 104.6747852  70.9149002  35.3608881  97.9309933
  70.1180166  35.4727575  98.4493428  70.6874595  35.6995533  97.0650823
  76.7454670  41.8853584 105.8792447  76.8099103  42.3473991 106.7150619
  76.0365594  41.2550949 106.0074757  67.2471960  35.2494792 103.4041447
  67.4979998  36.1341802 103.6699023  67.7831508  35.0699393 102.6316538
  91.0704060  38.6808289 100.0716708  90.3167768  38.1115687  99.9160713
  91.2051601  38.6470954 101.0187343  76.4602688  43.5521691  95.7471427
  76.3248363  44.3973227  96.1756275  77.0012500  43.7540969  94.9837361
  72.9470027  29.6313271 112.4085783  72.5536973  29.0779470 113.0833427
  73.7636168  29.9423850 112.7992300  69.9132085  41.0697129  96.3199353
  70.4256606  41.8640380  96.4704917  70.5654798  40.3723420  96.2532954
  71.7226970  44.1862886  98.4022106  71.8993598  45.1080850  98.2143090
  72.5183803  43.8721305  98.8316486  75.8637988  31.0471150 110.0006039
  76.6047702  31.6478303 109.9210502  76.0955911  30.3048788 109.4424082
  71.0079326  36.2327518 108.2784269  70.8932842  35.3312775 108.5791368
  70.1523844  36.4791214 107.9269086  78.0871164  44.1745258 109.8771770
  77.6435018  43.3881636 109.5592674  78.7488378  44.3624408 109.2115660
  72.8458285  45.7041060 104.4032448  73.3965710  45.5758123 103.6309442
  72.0069761  46.0035949 104.0527341  80.1852402  44.4548058 107.9053171
  80.1670878  45.2756939 107.4133440  81.1072322  44.3302133 108.1303312
  76.6425456  41.9692187 108.7476679  77.1753793  41.2080476 108.5175987
  76.1139537  41.6765839 109.4900834  79.8095151  27.0752253 104.2770321
  79.4659421  27.9653895 104.2009432  80.1774114  26.8853911 103.4139906
  67.8781002  39.3985784  97.0958923  68.7156224  39.8082792  96.8792631
  68.0559270  38.4585226  97.0659117  79.7745434  37.0660864  92.7842756
  79.2592057  37.8365469  93.0231143  79.5022742  36.3926001  93.4075818
  77.3592545  31.9110565  97.8427994  76.5034141  31.5217416  97.6633633
  77.7719497  31.9902526  96.9827780  78.8891692  29.4456908 102.2419554
  78.3856487  29.4087044 101.4287360  79.1822299  30.3549651 102.3016211
  75.1334578  29.5295638 101.2485736  75.9987574  29.3338447 100.8891625
  75.2012087  29.3005990 102.1755093  84.7479708  39.8193219  94.7195930
  83.9709151  39.4804379  94.2751092  85.4271189  39.8245842  94.0450895
  79.5631737  34.9387956  94.6102537  79.2581873  35.2534106  95.4612680
  80.5162179  35.0169376  94.6529870  78.0078169  41.0978180  96.2595491
  77.4799531  40.3630939  95.9468729  77.5065672  41.8752856  96.0135460
  82.9871015  39.2927200 101.3762538  82.3294690  39.9826462 101.4642666
  83.7911414  39.6823632 101.7196524  72.7396897  31.7597846  98.6202103
  73.3140649  31.5373028  97.8875296  73.3267879  31.8286541  99.3730704
  81.7976474  37.6471573  99.4266479  82.3108356  38.2801565  99.9288189
  82.4477698  37.0472768  99.0609839  73.0666484  33.7902307  92.6397988
  72.2303796  34.1276994  92.9607263  72.9271253  33.6551287  91.7025125
  75.0419564  28.6339095  97.3477172  74.3883977  28.3188112  96.7233787
  75.0000039  28.0114835  98.0736995  76.1530769  38.9158390  89.2630464
  75.2457831  38.6847644  89.4621613  76.6501801  38.1196009  89.4504446
  79.0598848  47.6255897  92.1827150  78.3860547  47.9287594  92.7912108
  79.4464670  48.4284978  91.8332607  78.2757305  35.1221029 101.6724820
  77.3579866  35.3435976 101.5146508  78.6917448  35.1967339 100.8136527
  79.0592353  36.5212444  96.8027500  79.8064171  37.0333841  96.4934622
  79.3283942  36.1996497  97.6631894  77.3319003  39.0170985  93.7854454
  76.4230222  38.7330018  93.8826924  77.3614086  39.4370064  92.9257761
  82.5638270  42.6277574  97.5545622  82.1100597  41.7868484  97.6110812
  81.9332237  43.2638973  97.8920402  81.5071190  33.5569560  98.7846289
  80.7693946  33.0446947  99.1156532  81.7597963  33.1169942  97.9729566
  81.0071209  44.4654071  98.4895440  81.2994184  45.0259128  97.7707806
  81.5169830  44.7582632  99.2448599  81.6082817  26.3345812  99.3788059
  81.9141694  25.4743176  99.0913974  82.3335422  26.9263433  99.1787053
  67.9007173  36.7376499  97.7669657  67.7031573  36.1445860  97.0420723
  67.3453837  36.4328709  98.4845595  75.8803897  36.6299606  99.8864250
  75.9352507  35.6773442  99.8106726  75.0695099  36.7859045 100.3705548
  77.0295090  40.5579729  91.1242533  76.5914520  39.8415588  90.6648170
  77.7705531  40.7855843  90.5627624  73.8196257  35.2476665  97.6454629
  73.0064122  35.5470836  98.0519821  74.3155251  34.8532354  98.3629111
  75.9704835  45.2434422  99.5788893  75.9281013  45.4695269  98.6497425
  76.8867533  45.0097797  99.7274694  79.4170468  35.7118490 106.4769522
  79.7719856  35.9389963 107.3363988  80.0642600  36.0436867 105.8546778
  85.1468205  38.8336926  97.1818852  85.0086104  39.0238522  96.2540041
  84.7904424  39.5956308  97.6386903  73.3110331  32.8195021 103.2615864
  73.9509711  32.6783780 102.5638827  72.4787862  32.5329534 102.8854466
  85.1737585  40.9013453 102.1930123  85.6074092  40.8088742 103.0413177
  85.8869166  40.8770953 101.5550139  74.0870635  42.1197451  99.3750856
  74.8811234  41.6247771  99.1733431  73.3762328  41.5915314  99.0118562
  78.9065480  44.5015547 103.7263224  78.9602502  45.0706483 104.4940940
  78.0380261  44.6717432 103.3617261  70.3953399  36.2640533  95.4510609
  69.4650987  36.2024988  95.6680571  70.4910871  35.7416486  94.6547250
  70.3138948  32.7895346  98.0388850  70.5745765  33.7040679  97.9298011
  71.1356120  32.3219788  98.1885463  71.7863873  34.2033103 105.2087675
  72.4586927  33.9950465 104.5600324  70.9593660  34.0055189 104.7692907
  86.0353134  40.9437153 104.7263008  86.2289025  41.8482964 104.9722283
  85.9353753  40.4844572 105.5601593  77.6889445  30.8295044 107.2253336
  77.0417360  31.5284994 107.1317812  78.4590461  31.2631188 107.5929584
  81.0968243  41.0943896 110.3003889  80.9453750  40.8654448 109.3833973
  81.0872923  42.0514497 110.3135234  77.8653580  38.6675809 105.2850155
  78.7945640  38.8186968 105.1119123  77.4444610  38.7559830 104.4298802
  76.6641911  42.6926473 103.0548693  76.5252997  42.3245258 103.9274631
  75.8756508  43.2074113 102.8832651  77.2590063  47.7935570  94.3974230
  77.4341819  47.3223613  95.2119852  76.5722851  48.4201336  94.6255490
  78.2147126  42.0708076 100.4437531  77.8796959  42.0308846 101.3395181
  77.7151072  41.4052792  99.9707941  72.1891370  37.4775706 105.9690112
  72.0511168  36.7455945 106.5701651  73.0996294  37.3884606 105.6874300
  81.1506318  39.4164110  90.7174591  80.5335489  38.6910938  90.6207643
  80.6822807  40.1773471  90.3741665  74.8173671  37.1895665 105.4573792
  75.5273290  36.5488857 105.4160410  74.7742979  37.4408560 106.3799972
  82.8060450  44.1263019 108.3780371  82.7472996  43.4422239 107.7110954
  83.2079968  44.8682009 107.9260997  73.5302605  34.1760883 107.2769431
  72.9939962  33.7251622 107.9291027  72.9419314  34.3106792 106.5339896
  71.8251149  50.9424932 101.1714090  72.0647747  51.5743457 101.8493108
  70.9820345  50.5912972 101.4579449  72.9404864  33.6349535  89.8395895
  72.0634330  33.5138335  89.4758141  73.4162617  32.8435613  89.5874783
  82.8077857  42.0902603 106.6094351  81.9204636  41.7528524 106.7320749
  83.3776408  41.3585634 106.8463116  64.4607004  38.4226694  99.9337402
  65.1478044  38.1088424  99.3458417  64.3055133  39.3268059  99.6604653
  69.2641726  33.3116891 104.3622426  69.1799915  32.7042560 103.6272836
  68.4424433  33.8025909 104.3631922  76.3379010  46.7504055 103.5755594
  76.2649182  47.5559026 104.0874898  75.8956404  46.9496021 102.7503615
  76.1268790  45.9875825  97.0858415  75.3436312  46.5297505  97.1796640
  76.8261535  46.5049805  97.4852656  79.4365440  31.7970454  99.7292621
  79.9334140  31.0440417  99.4093691  78.6652422  31.8334771  99.1635830
  87.2895198  37.5010820 101.3710912  87.2785074  38.3835535 101.0004845
  86.4212577  37.1482371 101.1765449  78.7977694  46.6490889 105.7313752
  79.5105666  47.2838354 105.6589654  78.3067723  46.7454755 104.9153754
  80.5195221  40.5542142  97.3031044  79.5851500  40.6743604  97.1335748
  80.6971889  39.6514608  97.0391054  76.0200409  33.9387837  99.4564305
  75.6498196  33.3858878 100.1445211  76.5159501  33.3345971  98.9039305
  83.9067772  36.3959461  97.8381078  84.3728224  37.2287452  97.7641381
  84.3575273  35.9304442  98.5426337  73.8489607  44.3985332 106.5519323
  74.5499067  45.0321815 106.7048717  73.3784722  44.7400064 105.7914963
  81.9744003  42.7403282  94.8367230  82.2503847  42.6259877  95.7461104
  81.1048502  42.3420767  94.7979403  81.8784435  28.7640048 101.8771980
  80.9647515  28.9944275 102.0454187  82.3077536  28.8478492 102.7286012
  81.6490893  36.9529940 104.3771874  80.9962344  37.2005847 103.7224326
  82.0271273  36.1394078 104.0434351  78.6098067  46.9889633  98.4800044
  78.7920462  46.1711289  98.9427796  79.4331053  47.2057325  98.0424934
  78.9440233  45.9157818  95.7415092  79.4727999  45.4050273  95.1285254
  79.2068452  45.6000348  96.6060625  77.6978466  37.6949751 110.8637911
  77.0219103  37.5943880 111.5340286  78.5206100  37.5388965 111.3273908
  69.4457326  43.9321687 103.4850426  70.0310762  43.1865375 103.6178330
  69.2482164  44.2425644 104.3687090  72.2995981  46.9672935  98.5012868
  71.6306356  47.4519062  98.0176908  72.1608850  47.2142155  99.4156247
  64.0374980  36.5027288 102.2054869  64.0759080  35.9690878 102.9991987
  63.5315273  35.9762493 101.5865846  76.4401249  49.0016678 105.0995527
  76.9919557  49.1648300 105.8644612  76.7807443  49.5921116 104.4275552
  71.4165743  31.3491828 105.7017411  71.4807069  32.2106659 105.2894809
  71.3532863  30.7365830 104.9689770  70.8918015  33.4214961 109.3490446
  71.5190054  33.0392038 109.9627970  70.0345934  33.2029163 109.7146138
  81.2912124  43.8277936 110.9544181  81.8352028  44.4407894 110.4599136
  80.7098969  44.3857514 111.4711194  67.6683558  35.2291390  95.2808800
  67.9636999  34.3202068  95.2275854  66.7671594  35.2079129  94.9589803
  79.5769637  46.9498654 102.0859209  79.4520776  46.1488394 101.5770154
  80.2348728  47.4444847 101.5973179  71.1977805  33.3047386 101.2636349
  70.4764391  33.9183354 101.1243822  71.9871061  33.8405151 101.1852995
  81.6404545  44.7507674 103.7138759  80.6934881  44.6313025 103.6417086
  81.9887318  43.8630172 103.7965020  74.0004118  30.6401813 107.5377001
  74.5238520  30.8864109 108.3003310  73.7816452  31.4721848 107.1180138
  69.3971399  32.9105487  95.4048126  69.0684106  32.0302866  95.2223232
  69.7510770  32.8553156  96.2924515  78.6450978  44.5460390  99.9143111
  78.4975941  43.6177098 100.0950681  79.4704472  44.5680481  99.4300186
  72.5113223  33.1978457  95.7723603  72.8509295  33.7264379  95.0502212
  72.9585343  33.5358863  96.5482170  82.2485100  45.3688949 101.0007984
  83.1731648  45.1631810 100.8632435  82.0800404  45.1205350 101.9097325
  75.2056663  31.5815508 105.2226671  74.8653484  30.7823321 105.6247351
  74.4995670  31.8817219 104.6503505  75.8573135  28.6664820 103.6753994
  76.6799205  28.1925299 103.5532885  76.1011199  29.4455304 104.1752681
  74.4981370  31.6953079  93.9716896  75.2189732  32.0734332  93.4680613
  73.8746674  32.4141956  94.0751874  78.6412493  32.3998228  94.9075228
  78.8576107  33.2822866  94.6064057  78.1606560  32.0084441  94.1780870
  73.3811714  35.3583941 101.4845973  73.2356295  35.6724244 102.3770254
  72.9036918  35.9768841 100.9316872  75.2408097  32.3486489 101.5326863
  75.2269666  31.4527582 101.1959160  75.9580525  32.3557153 102.1665149
  77.0934228  32.7823829 103.5779990  76.8352005  33.7040900 103.5764320
  76.5619268  32.3854264 104.2680454  82.0380416  45.8874616  96.3570075
  82.2117294  45.3221039  95.6043928  82.5309308  46.6875511  96.1749565
  67.8557376  37.8989285 104.4233634  67.3110844  38.6749093 104.5553908
  68.7336726  38.2460090 104.2652756  74.6444993  31.2300869  96.8014433
  74.7660904  30.3017515  97.0005320  74.3547035  31.2439555  95.8892748
  77.5136183  28.9155780  99.9381153  77.5357880  28.9795113  98.9833132
  77.9304242  28.0760288 100.1321659  87.8919808  38.6511039  97.9760375
  88.3350954  37.9018364  97.5779498  87.0146318  38.6421176  97.5934107
  83.0255589  45.2041381  93.4566974  83.7206493  45.8248073  93.6754288
  83.3678739  44.3536732  93.7319352  68.6423398  37.0259182 107.3163791
  67.9005134  37.1741817 107.9028421  68.3216142  37.2867447 106.4530540
  84.9247012  42.6541086  94.9854304  85.4498336  42.9928359  94.2603624
  84.8369365  41.7188102  94.8017439  76.5867061  46.5675160 107.1144181
  76.8954187  46.3224307 107.9866881  77.3842543  46.7721798 106.6263051
  76.6087673  48.7213070  99.3449558  76.1692663  48.2289448 100.0382414
  77.3595790  48.1786037  99.1041633  69.0880012  44.9124610  99.3474186
  69.9138032  44.6128382  98.9672829  68.7374064  44.1432233  99.7963974
  74.0561545  44.2651079 101.4171859  73.4341554  43.6021784 101.1174087
  74.7266412  44.2912211 100.7345507  67.2888617  42.8310937 100.3063119
  66.4520525  42.4033111 100.1247121  67.2612262  43.0243380 101.2433910
  74.1286072  32.7432867 111.0104365  74.1774228  33.6194989 110.6282135
  74.6708587  32.2010260 110.4376009  84.6140918  43.2873990 110.2905502
  83.8236462  43.2698129 109.7510002  84.3774273  43.8262284 111.0454539
  84.7338793  40.1366456 107.6038231  84.7836798  39.9716464 108.5453754
  84.6252716  39.2693715 107.2136112  73.6175052  42.8155002  94.8930320
  73.7663172  43.4990466  94.2396993  74.4241495  42.7960092  95.4079776
  82.0242555  36.1197384 108.9197538  82.9252418  35.9803849 108.6281535
  82.0990530  36.2851839 109.8595715  76.3585361  33.4964239 107.7650724
  75.4888670  33.7897805 107.4933312  76.5944841  34.0804684 108.4857988
  86.2356990  42.5563398 107.8480252  85.9441798  42.9193378 108.6843713
  85.6229121  41.8430406 107.6693585  87.4352672  40.1216278 100.3682823
  88.2699564  40.5606082 100.5320383  87.5711801  39.6454931  99.5491068
  84.4844178  37.6796012 106.3160310  84.9598300  37.8723659 105.5079162
  83.5609744  37.7355198 106.0703694  71.3727685  38.8420180  95.8991389
  71.1273727  37.9382510  96.0971599  71.5423599  38.8437330  94.9570867
  79.0624395  29.7143856 105.2816144  79.5806339  30.4504883 104.9562633
  78.7079527  30.0207849 106.1162903  70.6423332  34.5748537  93.3977550
  69.9492577  34.6492892  92.7417586  70.3975084  33.8108881  93.9199067
  79.3136989  26.1344139 100.8017041  79.5938743  25.4667328 101.4277467
  80.0987596  26.3273234 100.2891705  77.1170457  45.3103132  92.3642067
  76.5444424  45.9293320  91.9112539  77.6903251  45.8602494  92.8981989
  83.1845847  34.5561773 104.5488616  84.1363270  34.6559870 104.5700840
  83.0149298  33.7640041 105.0586700  81.2060227  31.6417356 104.7348017
  80.6110159  31.9222368 104.0394506  80.9209923  32.1311257 105.5064758
  80.3367717  45.5940283  93.4950650  81.2698390  45.5285844  93.6983525
  80.2490930  46.4296549  93.0365182  82.9655734  44.9106153  90.4554597
  82.8869365  44.5766017  91.3490355  83.7865401  45.4027921  90.4546069
  85.6633925  37.7767892 103.6630916  85.6310245  36.8383893 103.8490600
  86.2734549  37.8551929 102.9296741  77.5017256  36.6463945  89.7058120
  78.4476361  36.5170153  89.7746538  77.1231501  35.9078607  90.1827548
  85.8128413  34.5678936 103.7089199  85.2967462  33.7837392 103.5219128
  86.6968362  34.2397652 103.8735718  83.4739140  28.3119951  99.6685012
  83.2763961  28.0035039 100.5528344  84.0838846  29.0381590  99.7982941
  91.4810475  38.8383899 102.8036952  92.2113863  38.5769187 103.3644656
  90.8717420  38.1012621 102.8439020  89.5625772  36.9791762 103.4011404
  88.8358935  36.8447727 102.7927895  89.1473059  37.2868590 104.2068122
  77.3855948  40.6981691 111.1658777  78.3058958  40.8760290 111.3598823
  77.3505531  39.7537737 111.0138476  75.6860173  34.5713922  89.6413005
  74.7791628  34.2747034  89.7175719  75.9636154  34.2743740  88.7747291
  66.6038113  35.8920285 100.0912051  66.2840898  35.0385593  99.7986425
  66.0571542  36.1068863 100.8470019  70.3818021  38.6082726 103.8081558
  70.6004031  39.5399834 103.8269592  70.7943795  38.2490700 104.5936362
  77.3022239  29.1150811  95.7957246  76.4922967  28.7697896  96.1712492
  77.9906656  28.8058355  96.3844858  79.2312787  28.1928858  97.4181543
  79.7843826  28.6124312  98.0771566  79.4682873  27.2664606  97.4604499
  75.2545886  34.1815932 113.1984307  75.1542613  35.1310289 113.1296398
  75.0367428  33.8534171 112.3260377  74.4558958  31.4300857  89.7824984
  75.3178122  31.7555755  90.0420801  74.6409302  30.6432353  89.2698050
  66.4726373  39.5123196 102.0605173  65.7789845  39.0977149 101.5475127
  67.2199364  39.5543733 101.4638592  82.6091594  30.3029383  96.9260207
  82.0290263  30.9614187  96.5438260  82.3427527  29.4806728  96.5147625
  81.0595160  29.7034441  99.1281527  81.5594939  29.8150976  98.3195846
  81.7030768  29.3995494  99.7682336  75.1177156  37.6113071 112.0149368
  74.6344238  38.4113431 112.2213257  75.2038095  37.6221015 111.0616812
  68.3863116  39.4441450  99.9371188  68.3633804  39.5429138  98.9853071
  68.6963752  40.2906601 100.2588354  71.0450494  41.5017605 104.0517802
  71.9993747  41.4701548 103.9847734  70.8463017  41.0408229 104.8668028
  71.6349876  40.0718721 106.6188600  72.4542765  40.5662800 106.6423437
  71.9086684  39.1550689 106.5906167  81.3916472  32.4629474  95.9816555
  80.5042327  32.7479124  95.7636750  81.8070461  32.3023237  95.1343832
  84.7431008  32.4875995  99.6970895  85.5191398  32.9772447  99.9695511
  84.0179142  32.9134049 100.1542764  87.1803567  33.2003614 100.7544835
  87.7748058  32.9599350 100.0438144  87.2530151  32.4810744 101.3818372
  69.4000723  47.0437225 101.0688000  69.2655190  46.2837626 100.5025998
  68.9832785  47.7678125 100.6016789  80.5359686  42.2274148  90.0764575
  81.2395536  42.4324151  90.6922231  79.8122334  42.7950910  90.3413659
  81.3657496  37.9784010  96.1966846  81.3092697  38.4352561  95.3574478
  81.9185838  37.2174694  96.0189688  85.1762302  33.7673741  97.0216965
  84.9199236  33.3670377  97.8525173  84.5515170  34.4817535  96.8967104
  89.4874640  36.5069815  99.5288256  88.9274198  36.5763004 100.3019819
  88.8818143  36.3310799  98.8087753  72.5569848  47.9406542 101.2806443
  72.4402233  48.8851974 101.1785133  71.7362295  47.6380103 101.6692242
  82.4446383  42.6656678  92.1263035  83.2791987  42.2337876  91.9440510
  82.2830726  42.4938691  93.0539930  82.0992275  39.1688791  93.4919375
  82.0441079  39.0033062  92.5507819  81.4738330  39.8764824  93.6481564
  66.8884790  34.4056855 107.3180797  67.5343654  33.8955809 107.8068022
  66.6801941  35.1425537 107.8924222  79.4138182  41.4737703 112.8172938
  80.2829342  41.6478355 112.4559572  78.9344934  42.2932120 112.6948667
  75.4088401  28.6696900  93.0704693  75.3967070  29.6138740  93.2272964
  76.3011822  28.4867045  92.7764154  73.5824363  48.5934804 104.4962371
  74.4851609  48.6258414 104.8128866  73.3561733  47.6635255 104.5108707
  75.3377965  47.3465790 101.1572450  74.3873596  47.3467652 101.0436822
  75.6410451  46.5998525 100.6408484  79.2240520  25.2639676  97.3250630
  78.4572916  24.7098163  97.4707312  79.6351225  25.3361545  98.1864782
  71.2282281  31.5524472 111.4155811  72.0913743  31.1961277 111.6259136
  70.6547692  31.2138367 112.1031215  91.0730658  53.1826329 102.2218212
  91.7109068  53.0633076 101.5181552  90.9551501  54.1307173 102.2806164
  87.8820364  53.1353757 102.1579737  87.5438876  53.0194821 101.2700272
  88.7510133  52.7344922 102.1380743  83.7407180  54.9889233  98.1476628
  83.1772045  54.8979170  97.3792916  83.6259575  54.1689138  98.6279120
  88.3640147  54.2888608 108.1165942  88.3528788  53.8941407 107.2446446
  88.5260787  53.5554681 108.7099714  81.2871612  56.4840425 100.9860848
  82.0792904  56.1431249 100.5707148  81.5268262  56.5935400 101.9063002
  89.3206739  58.6560201  93.4591093  88.6694718  59.2414281  93.0725107
  90.1151102  59.1866396  93.5186130  83.2462366  55.7449338  93.8578227
  84.0193242  55.1978325  93.7191103  83.5987765  56.6093587  94.0692688
  85.0847408  57.0725720 107.0645126  84.7937274  57.9771351 106.9491793
  85.7204393  57.1142248 107.7789196  86.0103615  54.4502569 103.6546486
  86.6067188  54.2258591 102.9403449  86.0678587  53.7087314 104.2571934
  85.5828644  51.9042004  91.4896677  85.8354164  51.3823525  90.7280140
  84.6453203  51.7408150  91.5923361  90.6271927  50.9077782  99.2971420
  91.4135016  50.4897206  98.9461837  90.8910631  51.8123875  99.4653069
  90.7982004  56.3450633  93.9960077  90.1627837  56.4185259  94.7080982
  90.4679410  56.9344232  93.3179156  96.0280354  50.8453016 100.2004399
  96.7605526  50.2752232 100.4342228  95.2719709  50.4574616 100.6410904
  85.3024932  53.8070110  93.6921052  85.1861191  53.1315013  94.3602136
  85.4127192  53.3202484  92.8753205  87.6456473  53.2680257  97.3967741
  87.2814681  52.7410878  98.1080663  88.5023589  52.8778726  97.2234227
  93.5505774  44.5574590 104.6599007  93.2189099  45.4270001 104.4360222
  92.9551387  44.2410874 105.3393038  87.2861960  48.2970157  92.3929090
  87.4536363  49.1650393  92.7599561  87.0959129  48.4597439  91.4690379
  90.0437294  56.7587136 104.0594920  89.7438017  57.6612175 103.9510727
  89.6988353  56.4919319 104.9116073  83.4949775  53.2100933 100.0931625
  82.5700271  53.0777147 100.3009316  83.7434188  53.9895152 100.5901567
  93.4434437  49.2769676 101.7392357  92.5351315  49.2085084 101.4451118
  93.3922033  49.7541621 102.5674183  87.2651181  50.7527814  93.3775757
  87.1450806  51.1984865  94.2161237  86.5703770  51.1013132  92.8189295
  80.8558586  52.8534206 100.9275414  80.9850967  53.1068685 101.8414825
  80.1756037  53.4461914 100.6080069  85.0258073  63.5231456  97.0265888
  84.9482103  64.4739281  97.1054368  84.4219717  63.1777329  97.6840814
  87.5175303  50.6959322 109.6827255  86.7408637  51.2553242 109.6730119
  88.1565866  51.1816105 110.2042125  95.3096084  47.4786114 103.5170231
  94.6670464  47.7718648 102.8710026  94.8051012  47.3639035 104.3223428
  92.9636247  51.2249288  94.2056091  93.8754103  51.4576674  94.0303788
  92.4545894  51.8086332  93.6431169  85.7721675  53.5044775 109.2445222
  86.5136360  54.0429819 108.9680045  85.0658661  54.1311064 109.4016773
  91.2477015  55.6473915 107.8417383  91.6560371  55.2056326 107.0972016
  90.5254277  55.0726543 108.0951576  87.6008085  50.5846522 105.2150940
  88.4469280  51.0085936 105.3585589  87.5406723  49.9280146 105.9089503
  91.5705830  56.2075106 101.5969672  90.9414692  56.3720820 100.8945740
  91.1831492  56.6216716 102.3680636  95.4495062  57.1429544  98.9514036
  94.7646100  57.5228445  98.4011069  95.5338911  57.7524871  99.6845984
  90.7507530  48.2450891 106.8732114  90.5068462  48.9992951 106.3366389
  91.0267461  48.6236238 107.7079361  92.7045993  54.7889503 105.5509379
  92.9162888  55.4321263 104.8743760  92.6575741  53.9551819 105.0831309
  90.3072222  47.4007324 102.4545951  89.4456701  47.6988577 102.7462689
  90.3334657  47.6177722 101.5226984  87.1233792  55.9449514  98.8619757
  87.5872137  56.2237217  98.0724380  86.8590590  55.0432959  98.6792848
  84.0157873  55.4920996 101.7999520  84.5859230  55.9208264 101.1617005
  84.6065984  55.2103580 102.4983706  86.0602678  52.0672666  95.6709322
  86.7626721  52.5193710  96.1383249  85.7283306  51.4256485  96.2989215
  84.5083039  50.6584423 110.0460532  83.8781700  51.3400704 110.2795928
  84.4019127  50.5467505 109.1013670  79.8028012  50.3256219 100.9726456
  79.0127066  50.5813748 100.4966566  80.2939259  51.1404557 101.0778496
  93.8191821  57.6661458 103.7231737  94.6409265  57.2641646 103.4414418
  93.8154224  57.5629692 104.6747852  81.7542757  50.6900798  97.9309933
  80.9573920  50.8019493  98.4493428  81.5268349  51.0287451  97.0650823
  87.5848425  57.2145502 105.8792447  87.6492857  57.6765909 106.7150619
  86.8759348  56.5842867 106.0074757  78.0865715  50.5786710 103.4041447
  78.3373753  51.4633719 103.6699023  78.6225263  50.3991311 102.6316538
 101.9097814  54.0100207 100.0716708 101.1561523  53.4407605  99.9160713
 102.0445355  53.9762871 101.0187343  87.2996442  58.8813609  95.7471427
  87.1642117  59.7265145  96.1756275  87.8406255  59.0832887  94.9837361
  83.7863782  44.9605189 112.4085783  83.3930727  44.4071387 113.0833427
  84.6029922  45.2715767 112.7992300  80.7525840  56.3989047  96.3199353
  81.2650360  57.1932297  96.4704917  81.4048552  55.7015338  96.2532954
  82.5620724  59.5154803  98.4022106  82.7387353  60.4372768  98.2143090
  83.3577558  59.2013223  98.8316486  86.7031743  46.3763068 110.0006039
  87.4441456  46.9770221 109.9210502  86.9349666  45.6340706 109.4424082
  81.8473081  51.5619435 108.2784269  81.7326596  50.6604693 108.5791368
  80.9917599  51.8083132 107.9269086  88.9264919  59.5037176 109.8771770
  88.4828773  58.7173554 109.5592674  89.5882132  59.6916326 109.2115660
  83.6852040  61.0332977 104.4032448  84.2359465  60.9050041 103.6309442
  82.8463516  61.3327866 104.0527341  91.0246157  59.7839976 107.9053171
  91.0064632  60.6048857 107.4133440  91.9466077  59.6594051 108.1303312
  87.4819211  57.2984105 108.7476679  88.0147548  56.5372393 108.5175987
  86.9533292  57.0057757 109.4900834  90.6488906  42.4044171 104.2770321
  90.3053175  43.2945813 104.2009432  91.0167868  42.2145829 103.4139906
  78.7174756  54.7277701  97.0958923  79.5549978  55.1374710  96.8792631
  78.8953024  53.7877144  97.0659117  90.6139189  52.3952782  92.7842756
  90.0985812  53.1657387  93.0231143  90.3416497  51.7217918  93.4075818
  88.1986300  47.2402483  97.8427994  87.3427896  46.8509333  97.6633633
  88.6113251  47.3194444  96.9827780  89.7285446  44.7748826 102.2419554
  89.2250242  44.7378961 101.4287360  90.0216053  45.6841569 102.3016211
  85.9728332  44.8587556 101.2485736  86.8381329  44.6630365 100.8891625
  86.0405841  44.6297908 102.1755093  95.5873463  55.1485137  94.7195930
  94.8102905  54.8096296  94.2751092  96.2664944  55.1537760  94.0450895
  90.4025492  50.2679874  94.6102537  90.0975627  50.5826023  95.4612680
  91.3555934  50.3461294  94.6529870  88.8471924  56.4270097  96.2595491
  88.3193285  55.6922857  95.9468729  88.3459426  57.2044774  96.0135460
  93.8264770  54.6219118 101.3762538  93.1688444  55.3118379 101.4642666
  94.6305169  55.0115550 101.7196524  83.5790651  47.0889764  98.6202103
  84.1534403  46.8664945  97.8875296  84.1661634  47.1578458  99.3730704
  92.6370228  52.9763491  99.4266479  93.1502110  53.6093482  99.9288189
  93.2871452  52.3764686  99.0609839  83.9060238  49.1194225  92.6397988
  83.0697551  49.4568911  92.9607263  83.7665008  48.9843205  91.7025125
  85.8813319  43.9631013  97.3477172  85.2277731  43.6480030  96.7233787
  85.8393793  43.3406753  98.0736995  86.9924524  54.2450308  89.2630464
  86.0851585  54.0139561  89.4621613  87.4895556  53.4487927  89.4504446
  89.8992603  62.9547815  92.1827150  89.2254301  63.2579512  92.7912108
  90.2858425  63.7576895  91.8332607  89.1151059  50.4512946 101.6724820
  88.1973621  50.6727893 101.5146508  89.5311203  50.5259257 100.8136527
  89.8986107  51.8504362  96.8027500  90.6457926  52.3625759  96.4934622
  90.1677697  51.5288415  97.6631894  88.1712757  54.3462903  93.7854454
  87.2623976  54.0621935  93.8826924  88.2007841  54.7661981  92.9257761
  93.4032025  57.9569492  97.5545622  92.9494352  57.1160402  97.6110812
  92.7725991  58.5930890  97.8920402  92.3464944  48.8861478  98.7846289
  91.6087701  48.3738864  99.1156532  92.5991718  48.4461860  97.9729566
  91.8464964  59.7945989  98.4895440  92.1387938  60.3551046  97.7707806
  92.3563584  60.0874550  99.2448599  92.4476571  41.6637730  99.3788059
  92.7535448  40.8035094  99.0913974  93.1729176  42.2555350  99.1787053
  78.7400928  52.0668417  97.7669657  78.5425327  51.4737777  97.0420723
  78.1847592  51.7620627  98.4845595  86.7197651  51.9591523  99.8864250
  86.7746261  51.0065360  99.8106726  85.9088853  52.1150962 100.3705548
  87.8688845  55.8871646  91.1242533  87.4308275  55.1707505  90.6648170
  88.6099286  56.1147761  90.5627624  84.6590011  50.5768583  97.6454629
  83.8457877  50.8762754  98.0519821  85.1549005  50.1824272  98.3629111
  86.8098589  60.5726340  99.5788893  86.7674768  60.7987186  98.6497425
  87.7261288  60.3389714  99.7274694  90.2564223  51.0410407 106.4769522
  90.6113611  51.2681881 107.3363988  90.9036354  51.3728784 105.8546778
  95.9861960  54.1628843  97.1818852  95.8479858  54.3530439  96.2540041
  95.6298179  54.9248226  97.6386903  84.1504086  48.1486938 103.2615864
  84.7903465  48.0075698 102.5638827  83.3181616  47.8621452 102.8854466
  96.0131339  56.2305370 102.1930123  96.4467846  56.1380659 103.0413177
  96.7262920  56.2062871 101.5550139  84.9264390  57.4489369  99.3750856
  85.7204988  56.9539689  99.1733431  84.2156082  56.9207232  99.0118562
  89.7459234  59.8307464 103.7263224  89.7996257  60.3998401 104.4940940
  88.8774016  60.0009349 103.3617261  81.2347153  51.5932451  95.4510609
  80.3044741  51.5316906  95.6680571  81.3304625  51.0708403  94.6547250
  81.1532702  48.1187263  98.0388850  81.4139520  49.0332597  97.9298011
  81.9749875  47.6511706  98.1885463  82.6257628  49.5325021 105.2087675
  83.2980681  49.3242383 104.5600324  81.7987414  49.3347107 104.7692907
  96.8746889  56.2729071 104.7263008  97.0682779  57.1774881 104.9722283
  96.7747507  55.8136490 105.5601593  88.5283200  46.1586962 107.2253336
  87.8811115  46.8576911 107.1317812  89.2984215  46.5923105 107.5929584
  91.9361998  56.4235814 110.3003889  91.7847504  56.1946365 109.3833973
  91.9266677  57.3806415 110.3135234  88.7047334  53.9967726 105.2850155
  89.6339394  54.1478886 105.1119123  88.2838364  54.0851747 104.4298802
  87.5035666  58.0218391 103.0548693  87.3646751  57.6537175 103.9274631
  86.7150262  58.5366030 102.8832651  88.0983818  63.1227487  94.3974230
  88.2735573  62.6515531  95.2119852  87.4116606  63.7493254  94.6255490
  89.0540881  57.3999994 100.4437531  88.7190714  57.3600764 101.3395181
  88.5544827  56.7344710  99.9707941  83.0285125  52.8067624 105.9690112
  82.8904923  52.0747862 106.5701651  83.9390048  52.7176524 105.6874300
  91.9900073  54.7456028  90.7174591  91.3729243  54.0202856  90.6207643
  91.5216561  55.5065388  90.3741665  85.6567426  52.5187583 105.4573792
  86.3667044  51.8780775 105.4160410  85.6136734  52.7700478 106.3799972
  93.6454204  59.4554936 108.3780371  93.5866750  58.7714156 107.7110954
  94.0473723  60.1973926 107.9260997  84.3696360  49.5052801 107.2769431
  83.8333717  49.0543539 107.9291027  83.7813068  49.6398710 106.5339896
  82.6644903  66.2716850 101.1714090  82.9041501  66.9035374 101.8493108
  81.8214100  65.9204890 101.4579449  83.7798619  48.9641452  89.8395895
  82.9028085  48.8430253  89.4758141  84.2556372  48.1727531  89.5874783
  93.6471612  57.4194520 106.6094351  92.7598390  57.0820442 106.7320749
  94.2170163  56.6877551 106.8463116  75.3000759  53.7518612  99.9337402
  75.9871798  53.4380342  99.3458417  75.1448887  54.6559977  99.6604653
  80.1035481  48.6408809 104.3622426  80.0193670  48.0334478 103.6272836
  79.2818187  49.1317827 104.3631922  87.1772765  62.0795973 103.5755594
  87.1042936  62.8850944 104.0874898  86.7350158  62.2787938 102.7503615
  86.9662545  61.3167743  97.0858415  86.1830066  61.8589423  97.1796640
  87.6655290  61.8341722  97.4852656  90.2759195  47.1262372  99.7292621
  90.7727894  46.3732334  99.4093691  89.5046176  47.1626689  99.1635830
  98.1288952  52.8302738 101.3710912  98.1178828  53.7127453 101.0004845
  97.2606331  52.4774288 101.1765449  89.6371448  61.9782807 105.7313752
  90.3499421  62.6130271 105.6589654  89.1461477  62.0746673 104.9153754
  91.3588975  55.8834059  97.3031044  90.4245254  56.0035522  97.1335748
  91.5365644  54.9806526  97.0391054  86.8594163  49.2679755  99.4564305
  86.4891951  48.7150795 100.1445211  87.3553256  48.6637889  98.9039305
  94.7461527  51.7251379  97.8381078  95.2121979  52.5579370  97.7641381
  95.1969027  51.2596360  98.5426337  84.6883362  59.7277250 106.5519323
  85.3892821  60.3613733 106.7048717  84.2178477  60.0691982 105.7914963
  92.8137758  58.0695200  94.8367230  93.0897602  57.9551794  95.7461104
  91.9442257  57.6712685  94.7979403  92.7178189  44.0931966 101.8771980
  91.8041269  44.3236192 102.0454187  93.1471291  44.1770410 102.7286012
  92.4884648  52.2821858 104.3771874  91.8356098  52.5297765 103.7224326
  92.8665028  51.4685996 104.0434351  89.4491822  62.3181551  98.4800044
  89.6314216  61.5003207  98.9427796  90.2724808  62.5349243  98.0424934
  89.7833987  61.2449736  95.7415092  90.3121754  60.7342190  95.1285254
  90.0462207  60.9292266  96.6060625  88.5372221  53.0241669 110.8637911
  87.8612858  52.9235798 111.5340286  89.3599855  52.8680882 111.3273908
  80.2851080  59.2613605 103.4850426  80.8704517  58.5157293 103.6178330
  80.0875918  59.5717562 104.3687090  83.1389735  62.2964853  98.5012868
  82.4700111  62.7810980  98.0176908  83.0002605  62.5434073  99.4156247
  74.8768735  51.8319205 102.2054869  74.9152834  51.2982796 102.9991987
  74.3709028  51.3054411 101.5865846  87.2795004  64.3308596 105.0995527
  87.8313312  64.4940218 105.8644612  87.6201197  64.9213034 104.4275552
  82.2559497  46.6783746 105.7017411  82.3200824  47.5398577 105.2894809
  82.1926617  46.0657747 104.9689770  81.7311770  48.7506878 109.3490446
  82.3583808  48.3683956 109.9627970  80.8739688  48.5321080 109.7146138
  92.1305878  59.1569854 110.9544181  92.6745782  59.7699812 110.4599136
  91.5492723  59.7149432 111.4711194  78.5077312  50.5583307  95.2808800
  78.8030753  49.6493986  95.2275854  77.6065348  50.5371047  94.9589803
  90.4163391  62.2790572 102.0859209  90.2914531  61.4780311 101.5770154
  91.0742482  62.7736765 101.5973179  82.0371559  48.6339304 101.2636349
  81.3158145  49.2475272 101.1243822  82.8264815  49.1697069 101.1852995
  92.4798299  60.0799592 103.7138759  91.5328635  59.9604943 103.6417086
  92.8281073  59.1922090 103.7965020  84.8397873  45.9693731 107.5377001
  85.3632275  46.2156027 108.3003310  84.6210206  46.8013765 107.1180138
  80.2365154  48.2397405  95.4048126  79.9077860  47.3594784  95.2223232
  80.5904525  48.1845074  96.2924515  89.4844733  59.8752308  99.9143111
  89.3369695  58.9469015 100.0950681  90.3098226  59.8972399  99.4300186
  83.3506977  48.5270375  95.7723603  83.6903050  49.0556296  95.0502212
  83.7979098  48.8650781  96.5482170  93.0878855  60.6980867 101.0007984
  94.0125402  60.4923728 100.8632435  92.9194158  60.4497268 101.9097325
  86.0450418  46.9107426 105.2226671  85.7047238  46.1115239 105.6247351
  85.3389424  47.2109136 104.6503505  86.6966890  43.9956738 103.6753994
  87.5192959  43.5217216 103.5532885  86.9404953  44.7747222 104.1752681
  85.3375124  47.0244997  93.9716896  86.0583487  47.4026249  93.4680613
  84.7140428  47.7433873  94.0751874  89.4806247  47.7290145  94.9075228
  89.6969862  48.6114783  94.6064057  89.0000314  47.3376359  94.1780870
  84.2205468  50.6875859 101.4845973  84.0750049  51.0016162 102.3770254
  83.7430672  51.3060759 100.9316872  86.0801851  47.6778407 101.5326863
  86.0663420  46.7819500 101.1959160  86.7974279  47.6849070 102.1665149
  87.9327982  48.1115747 103.5779990  87.6745760  49.0332818 103.5764320
  87.4013022  47.7146181 104.2680454  92.8774171  61.2166534  96.3570075
  93.0511048  60.6512957  95.6043928  93.3703062  62.0167429  96.1749565
  78.6951131  53.2281203 104.4233634  78.1504599  54.0041011 104.5553908
  79.5730481  53.5752008 104.2652756  85.4838747  46.5592787  96.8014433
  85.6054659  45.6309433  97.0005320  85.1940790  46.5731473  95.8892748
  88.3529938  44.2447697  99.9381153  88.3751635  44.3087031  98.9833132
  88.7697997  43.4052206 100.1321659  98.7313562  53.9802957  97.9760375
  99.1744708  53.2310282  97.5779498  97.8540072  53.9713093  97.5934107
  93.8649343  60.5333298  93.4566974  94.5600248  61.1539991  93.6754288
  94.2072493  59.6828650  93.7319352  79.4817153  52.3551099 107.3163791
  78.7398889  52.5033735 107.9028421  79.1609897  52.6159365 106.4530540
  95.7640766  57.9833004  94.9854304  96.2892091  58.3220277  94.2603624
  95.6763119  57.0480019  94.8017439  87.4260815  61.8967078 107.1144181
  87.7347942  61.6516224 107.9866881  88.2236297  62.1013716 106.6263051
  87.4481427  64.0504987  99.3449558  87.0086418  63.5581366 100.0382414
  88.1989544  63.5077955  99.1041633  79.9273766  60.2416528  99.3474186
  80.7531786  59.9420300  98.9672829  79.5767818  59.4724151  99.7963974
  84.8955299  59.5942996 101.4171859  84.2735309  58.9313701 101.1174087
  85.5660166  59.6204128 100.7345507  78.1282371  58.1602855 100.3063119
  77.2914280  57.7325029 100.1247121  78.1006017  58.3535298 101.2433910
  84.9679827  48.0724784 111.0104365  85.0167982  48.9486907 110.6282135
  85.5102341  47.5302177 110.4376009  95.4534673  58.6165908 110.2905502
  94.6630216  58.5990046 109.7510002  95.2168027  59.1554201 111.0454539
  95.5732548  55.4658374 107.6038231  95.6230553  55.3008381 108.5453754
  95.4646471  54.5985633 107.2136112  84.4568806  58.1446920  94.8930320
  84.6056927  58.8282384  94.2396993  85.2635250  58.1252010  95.4079776
  92.8636310  51.4489302 108.9197538  93.7646173  51.3095767 108.6281535
  92.9384284  51.6143757 109.8595715  87.1979115  48.8256157 107.7650724
  86.3282425  49.1189723 107.4933312  87.4338596  49.4096602 108.4857988
  97.0750744  57.8855315 107.8480252  96.7835553  58.2485296 108.6843713
  96.4622876  57.1722324 107.6693585  98.2746427  55.4508195 100.3682823
  99.1093318  55.8897999 100.5320383  98.4105556  54.9746848  99.5491068
  95.3237933  53.0087930 106.3160310  95.7992054  53.2015576 105.5079162
  94.4003498  53.0647116 106.0703694  82.2121439  54.1712097  95.8991389
  81.9667481  53.2674427  96.0971599  82.3817354  54.1729248  94.9570867
  89.9018149  45.0435774 105.2816144  90.4200093  45.7796801 104.9562633
  89.5473282  45.3499767 106.1162903  81.4817087  49.9040455  93.3977550
  80.7886332  49.9784810  92.7417586  81.2368839  49.1400799  93.9199067
  90.1530743  41.4636056 100.8017041  90.4332497  40.7959245 101.4277467
  90.9381350  41.6565152 100.2891705  87.9564212  60.6395050  92.3642067
  87.3838179  61.2585237  91.9112539  88.5297005  61.1894412  92.8981989
  94.0239602  49.8853690 104.5488616  94.9757025  49.9851788 104.5700840
  93.8543052  49.0931959 105.0586700  92.0453981  46.9709273 104.7348017
  91.4503913  47.2514286 104.0394506  91.7603678  47.4603174 105.5064758
  91.1761472  60.9232200  93.4950650  92.1092145  60.8577762  93.6983525
  91.0884684  61.7588467  93.0365182  93.8049488  60.2398071  90.4554597
  93.7263120  59.9057934  91.3490355  94.6259155  60.7319839  90.4546069
  96.5027679  53.1059810 103.6630916  96.4704000  52.1675811 103.8490600
  97.1128303  53.1843847 102.9296741  88.3411010  51.9755863  89.7058120
  89.2870115  51.8462071  89.7746538  87.9625255  51.2370525  90.1827548
  96.6522168  49.8970853 103.7089199  96.1361217  49.1129310 103.5219128
  97.5362116  49.5689570 103.8735718  94.3132895  43.6411869  99.6685012
  94.1157716  43.3326957 100.5528344  94.9232600  44.3673508  99.7982941
 102.3204229  54.1675817 102.8036952 103.0507618  53.9061105 103.3644656
 101.7111175  53.4304539 102.8439020 100.4019526  52.3083679 103.4011404
  99.6752690  52.1739644 102.7927895  99.9866813  52.6160508 104.2068122
  88.2249703  56.0273609 111.1658777  89.1452712  56.2052208 111.3598823
  88.1899286  55.0829654 111.0138476  86.5253927  49.9005839  89.6413005
  85.6185383  49.6038952  89.7175719  86.8029908  49.6035657  88.7747291
  77.4431868  51.2212203 100.0912051  77.1234652  50.3677511  99.7986425
  76.8965296  51.4360781 100.8470019  81.2211775  53.9374644 103.8081558
  81.4397785  54.8691751 103.8269592  81.6337549  53.5782618 104.5936362
  88.1415993  44.4442729  95.7957246  87.3316721  44.0989814  96.1712492
  88.8300410  44.1350273  96.3844858  90.0706541  43.5220776  97.4181543
  90.6237580  43.9416229  98.0771566  90.3076628  42.5956524  97.4604499
  86.0939641  49.5107849 113.1984307  85.9936368  50.4602206 113.1296398
  85.8761183  49.1826088 112.3260377  85.2952712  46.7592774  89.7824984
  86.1571876  47.0847673  90.0420801  85.4803056  45.9724270  89.2698050
  77.3120128  54.8415114 102.0605173  76.6183599  54.4269067 101.5475127
  78.0593119  54.8835651 101.4638592  93.4485349  45.6321301  96.9260207
  92.8684018  46.2906105  96.5438260  93.1821281  44.8098646  96.5147625
  91.8988915  45.0326359  99.1281527  92.3988693  45.1442893  98.3195846
  92.5424523  44.7287411  99.7682336  85.9570911  52.9404988 112.0149368
  85.4737992  53.7405348 112.2213257  86.0431850  52.9512933 111.0616812
  79.2256870  54.7733368  99.9371188  79.2027558  54.8721055  98.9853071
  79.5357507  55.6198519 100.2588354  81.8844248  56.8309523 104.0517802
  82.8387502  56.7993465 103.9847734  81.6856772  56.3700147 104.8668028
  82.4743630  55.4010639 106.6188600  83.2936519  55.8954718 106.6423437
  82.7480438  54.4842607 106.5906167  92.2310227  47.7921391  95.9816555
  91.3436082  48.0771042  95.7636750  92.6464216  47.6315155  95.1343832
  95.5824763  47.8167912  99.6970895  96.3585153  48.3064365  99.9695511
  94.8572897  48.2425966 100.1542764  98.0197321  48.5295532 100.7544835
  98.6141812  48.2891267 100.0438144  98.0923905  47.8102662 101.3818372
  80.2394477  62.3729142 101.0688000  80.1048945  61.6129543 100.5025998
  79.8226539  63.0970042 100.6016789  91.3753440  57.5566066  90.0764575
  92.0789290  57.7616068  90.6922231  90.6516089  58.1242828  90.3413659
  92.2051250  53.3075927  96.1966846  92.1486452  53.7644479  95.3574478
  92.7579593  52.5466612  96.0189688  96.0156056  49.0965659  97.0216965
  95.7592990  48.6962295  97.8525173  95.3908924  49.8109453  96.8967104
 100.3268394  51.8361732  99.5288256  99.7667952  51.9054922 100.3019819
  99.7211897  51.6602717  98.8087753  83.3963603  63.2698459 101.2806443
  83.2795987  64.2143892 101.1785133  82.5756049  62.9672021 101.6692242
  93.2840137  57.9948595  92.1263035  94.1185741  57.5629794  91.9440510
  93.1224480  57.8230609  93.0539930  92.9386030  54.4980709  93.4919375
  92.8834833  54.3324980  92.5507819  92.3132085  55.2056741  93.6481564
  77.7278545  49.7348773 107.3180797  78.3737408  49.2247727 107.8068022
  77.5195696  50.4717455 107.8924222  90.2531937  56.8029620 112.8172938
  91.1223096  56.9770273 112.4559572  89.7738688  57.6224037 112.6948667
  86.2482155  43.9988818  93.0704693  86.2360825  44.9430657  93.2272964
  87.1405577  43.8158963  92.7764154  84.4218117  63.9226721 104.4962371
  85.3245364  63.9550332 104.8128866  84.1955487  62.9927172 104.5108707
  86.1771719  62.6757708 101.1572450  85.2267350  62.6759570 101.0436822
  86.4804205  61.9290442 100.6408484  90.0634275  40.5931594  97.3250630
  89.2966670  40.0390081  97.4707312  90.4744980  40.6653463  98.1864782
  82.0676036  46.8816390 111.4155811  82.9307497  46.5253195 111.6259136
  81.4941446  46.5430285 112.1031215 101.9124413  68.5118246 102.2218212
 102.5502822  68.3924994 101.5181552 101.7945255  69.4599090 102.2806164
  98.7214119  68.4645674 102.1579737  98.3832630  68.3486739 101.2700272
  99.5903887  68.0636840 102.1380743  94.5800934  70.3181151  98.1476628
  94.0165800  70.2271088  97.3792916  94.4653330  69.4981055  98.6279120
  99.2033902  69.6180526 108.1165942  99.1922543  69.2233324 107.2446446
  99.3654541  68.8846599 108.7099714  92.1265366  71.8132342 100.9860848
  92.9186658  71.4723167 100.5707148  92.3662017  71.9227317 101.9063002
 100.1600493  73.9852119  93.4591093  99.5088473  74.5706199  93.0725107
 100.9544856  74.5158313  93.5186130  94.0856120  71.0741256  93.8578227
  94.8586996  70.5270243  93.7191103  94.4381519  71.9385505  94.0692688
  95.9241163  72.4017638 107.0645126  95.6331029  73.3063269 106.9491793
  96.5598147  72.4434166 107.7789196  96.8497370  69.7794486 103.6546486
  97.4460942  69.5550509 102.9403449  96.9072341  69.0379232 104.2571934
  96.4222398  67.2333922  91.4896677  96.6747919  66.7115443  90.7280140
  95.4846957  67.0700067  91.5923361 101.4665681  66.2369700  99.2971420
 102.2528770  65.8189123  98.9461837 101.7304385  67.1415792  99.4653069
 101.6375758  71.6742550  93.9960077 101.0021591  71.7477177  94.7080982
 101.3073165  72.2636149  93.3179156 106.8674108  66.1744933 100.2004399
 107.5999280  65.6044150 100.4342228 106.1113464  65.7866534 100.6410904
  96.1418687  69.1362028  93.6921052  96.0254945  68.4606931  94.3602136
  96.2520947  68.6494402  92.8753205  98.4850228  68.5972175  97.3967741
  98.1208435  68.0702796  98.1080663  99.3417344  68.2070644  97.2234227
 104.3899528  59.8866507 104.6599007 104.0582853  60.7561918 104.4360222
 103.7945142  59.5702791 105.3393038  98.1255715  63.6262075  92.3929090
  98.2930117  64.4942311  92.7599561  97.9352884  63.7889356  91.4690379
 100.8831048  72.0879053 104.0594920 100.5831771  72.9904092 103.9510727
 100.5382108  71.8211237 104.9116073  94.3343529  68.5392850 100.0931625
  93.4094026  68.4069064 100.3009316  94.5827943  69.3187070 100.5901567
 104.2828192  64.6061594 101.7392357 103.3745069  64.5377002 101.4451118
 104.2315788  65.0833539 102.5674183  98.1044936  66.0819732  93.3775757
  97.9844561  66.5276783  94.2161237  97.4097524  66.4305050  92.8189295
  91.6952341  68.1826124 100.9275414  91.8244722  68.4360603 101.8414825
  91.0149792  68.7753832 100.6080069  95.8651828  78.8523374  97.0265888
  95.7875858  79.8031199  97.1054368  95.2613471  78.5069246  97.6840814
  98.3569058  66.0251239 109.6827255  97.5802392  66.5845159 109.6730119
  98.9959621  66.5108022 110.2042125 106.1489838  62.8078032 103.5170231
 105.5064218  63.1010565 102.8710026 105.6444767  62.6930952 104.3223428
 103.8030002  66.5541205  94.2056091 104.7147858  66.7868592  94.0303788
 103.2939649  67.1378249  93.6431169  96.6115430  68.8336693 109.2445222
  97.3530114  69.3721737 108.9680045  95.9052415  69.4602981 109.4016773
 102.0870770  70.9765833 107.8417383 102.4954126  70.5348244 107.0972016
 101.3648031  70.4018461 108.0951576  98.4401840  65.9138440 105.2150940
  99.2863035  66.3377853 105.3585589  98.3800477  65.2572064 105.9089503
 102.4099584  71.5367024 101.5969672 101.7808447  71.7012738 100.8945740
 102.0225246  71.9508633 102.3680636 106.2888816  72.4721462  98.9514036
 105.6039854  72.8520363  98.4011069 106.3732665  73.0816788  99.6845984
 101.5901285  63.5742808 106.8732114 101.3462217  64.3284869 106.3366389
 101.8661215  63.9528156 107.7079361 103.5439748  70.1181421 105.5509379
 103.7556643  70.7613180 104.8743760 103.4969496  69.2843737 105.0831309
 101.1465977  62.7299241 102.4545951 100.2850456  63.0280495 102.7462689
 101.1728411  62.9469640 101.5226984  97.9627546  71.2741432  98.8619757
  98.4265892  71.5529135  98.0724380  97.6984344  70.3724876  98.6792848
  94.8551627  70.8212913 101.7999520  95.4252984  71.2500182 101.1617005
  95.4459739  70.5395498 102.4983706  96.8996432  67.3964584  95.6709322
  97.6020475  67.8485628  96.1383249  96.5677061  66.7548403  96.2989215
  95.3476794  65.9876341 110.0460532  94.7175454  66.6692622 110.2795928
  95.2412882  65.8759422 109.1013670  90.6421766  65.6548137 100.9726456
  89.8520820  65.9105665 100.4966566  91.1333013  66.4696475 101.0778496
 104.6585576  72.9953376 103.7231737 105.4803019  72.5933563 103.4414418
 104.6547979  72.8921610 104.6747852  92.5936511  66.0192716  97.9309933
  91.7967675  66.1311410  98.4493428  92.3662104  66.3579368  97.0650823
  98.4242179  72.5437419 105.8792447  98.4886612  73.0057827 106.7150619
  97.7153103  71.9134784 106.0074757  88.9259469  65.9078627 103.4041447
  89.1767507  66.7925637 103.6699023  89.4619017  65.7283229 102.6316538
 112.7491569  69.3392124 100.0716708 111.9955277  68.7699523  99.9160713
 112.8839110  69.3054789 101.0187343  98.1390197  74.2105527  95.7471427
  98.0035872  75.0557062  96.1756275  98.6800009  74.4124804  94.9837361
  94.6257536  60.2897107 112.4085783  94.2324482  59.7363305 113.0833427
  95.4423677  60.6007685 112.7992300  91.5919594  71.7280965  96.3199353
  92.1044115  72.5224215  96.4704917  92.2442307  71.0307255  96.2532954
  93.4014479  74.8446721  98.4022106  93.5781107  75.7664686  98.2143090
  94.1971312  74.5305140  98.8316486  97.5425497  61.7054986 110.0006039
  98.2835211  62.3062139 109.9210502  97.7743420  60.9632623 109.4424082
  92.6866835  66.8911353 108.2784269  92.5720351  65.9896610 108.5791368
  91.8311353  67.1375050 107.9269086  99.7658673  74.8329093 109.8771770
  99.3222527  74.0465472 109.5592674 100.4275887  75.0208244 109.2115660
  94.5245794  76.3624895 104.4032448  95.0753219  76.2341958 103.6309442
  93.6857270  76.6619784 104.0527341 101.8639911  75.1131893 107.9053171
 101.8458387  75.9340774 107.4133440 102.7859831  74.9885968 108.1303312
  98.3212965  72.6276023 108.7476679  98.8541302  71.8664311 108.5175987
  97.7927046  72.3349674 109.4900834 101.4882660  57.7336089 104.2770321
 101.1446930  58.6237730 104.2009432 101.8561623  57.5437746 103.4139906
  89.5568511  70.0569619  97.0958923  90.3943733  70.4666627  96.8792631
  89.7346779  69.1169061  97.0659117 101.4532943  67.7244700  92.7842756
 100.9379566  68.4949304  93.0231143 101.1810251  67.0509836  93.4075818
  99.0380054  62.5694401  97.8427994  98.1821650  62.1801251  97.6633633
  99.4507006  62.6486361  96.9827780 100.5679201  60.1040744 102.2419554
 100.0643996  60.0670879 101.4287360 100.8609808  61.0133487 102.3016211
  96.8122087  60.1879474 101.2485736  97.6775083  59.9922282 100.8891625
  96.8799595  59.9589825 102.1755093 106.4267217  70.4777054  94.7195930
 105.6496660  70.1388214  94.2751092 107.1058698  70.4829678  94.0450895
 101.2419246  65.5971792  94.6102537 100.9369382  65.9117941  95.4612680
 102.1949688  65.6753212  94.6529870  99.6865678  71.7562015  96.2595491
  99.1587040  71.0214775  95.9468729  99.1853181  72.5336692  96.0135460
 104.6658524  69.9511036 101.3762538 104.0082199  70.6410297 101.4642666
 105.4698923  70.3407468 101.7196524  94.4184406  62.4181681  98.6202103
  94.9928158  62.1956863  97.8875296  95.0055388  62.4870376  99.3730704
 103.4763983  68.3055408  99.4266479 103.9895865  68.9385400  99.9288189
 104.1265207  67.7056604  99.0609839  94.7453993  64.4486142  92.6397988
  93.9091305  64.7860829  92.9607263  94.6058762  64.3135122  91.7025125
  96.7207073  59.2922930  97.3477172  96.0671486  58.9771948  96.7233787
  96.6787548  58.6698671  98.0736995  97.8318278  69.5742225  89.2630464
  96.9245340  69.3431479  89.4621613  98.3289310  68.7779845  89.4504446
 100.7386357  78.2839733  92.1827150 100.0648056  78.5871429  92.7912108
 101.1252179  79.0868813  91.8332607  99.9544814  65.7804864 101.6724820
  99.0367375  66.0019811 101.5146508 100.3704957  65.8551174 100.8136527
 100.7379861  67.1796280  96.8027500 101.4851680  67.6917677  96.4934622
 101.0071451  66.8580332  97.6631894  99.0106512  69.6754820  93.7854454
  98.1017731  69.3913853  93.8826924  99.0401595  70.0953899  92.9257761
 104.2425779  73.2861410  97.5545622 103.7888106  72.4452320  97.6110812
 103.6119746  73.9222808  97.8920402 103.1858699  64.2153396  98.7846289
 102.4481455  63.7030782  99.1156532 103.4385472  63.7753777  97.9729566
 102.6858718  75.1237906  98.4895440 102.9781693  75.6842964  97.7707806
 103.1957339  75.4166467  99.2448599 103.2870326  56.9929648  99.3788059
 103.5929203  56.1327011  99.0913974 104.0122931  57.5847268  99.1787053
  89.5794682  67.3960334  97.7669657  89.3819082  66.8029695  97.0420723
  89.0241346  67.0912545  98.4845595  97.5591406  67.2883441  99.8864250
  97.6140015  66.3357277  99.8106726  96.7482608  67.4442880 100.3705548
  98.7082599  71.2163564  91.1242533  98.2702029  70.4999423  90.6648170
  99.4493040  71.4439679  90.5627624  95.4983766  65.9060501  97.6454629
  94.6851631  66.2054671  98.0519821  95.9942760  65.5116189  98.3629111
  97.6492344  75.9018258  99.5788893  97.6068522  76.1279104  98.6497425
  98.5655042  75.6681632  99.7274694 101.0957977  66.3702325 106.4769522
 101.4507365  66.5973798 107.3363988 101.7430109  66.7020702 105.8546778
 106.8255714  69.4920761  97.1818852 106.6873613  69.6822357  96.2540041
 106.4691933  70.2540144  97.6386903  94.9897840  63.4778856 103.2615864
  95.6297220  63.3367615 102.5638827  94.1575371  63.1913370 102.8854466
 106.8525094  71.5597288 102.1930123 107.2861601  71.4672577 103.0413177
 107.5656675  71.5354788 101.5550139  95.7658144  72.7781287  99.3750856
  96.5598743  72.2831607  99.1733431  95.0549837  72.2499150  99.0118562
 100.5852989  75.1599382 103.7263224 100.6390011  75.7290318 104.4940940
  99.7167770  75.3301267 103.3617261  92.0740908  66.9224368  95.4510609
  91.1438496  66.8608824  95.6680571  92.1698380  66.4000321  94.6547250
  91.9926457  63.4479181  98.0388850  92.2533274  64.3624514  97.9298011
  92.8143629  62.9803624  98.1885463  93.4651382  64.8616938 105.2087675
  94.1374436  64.6534300 104.5600324  92.6381169  64.6639024 104.7692907
 107.7140643  71.6020989 104.7263008 107.9076534  72.5066799 104.9722283
 107.6141262  71.1428408 105.5601593  99.3676954  61.4878879 107.2253336
  98.7204869  62.1868829 107.1317812 100.1377970  61.9215023 107.5929584
 102.7755752  71.7527731 110.3003889 102.6241259  71.5238283 109.3833973
 102.7660432  72.7098333 110.3135234  99.5441089  69.3259644 105.2850155
 100.4733149  69.4770804 105.1119123  99.1232119  69.4143665 104.4298802
  98.3429420  73.3510309 103.0548693  98.2040506  72.9829093 103.9274631
  97.5544017  73.8657948 102.8832651  98.9377572  78.4519405  94.3974230
  99.1129328  77.9807448  95.2119852  98.2510360  79.0785171  94.6255490
  99.8934635  72.7291911 100.4437531  99.5584468  72.6892681 101.3395181
  99.3938581  72.0636627  99.9707941  93.8678879  68.1359541 105.9690112
  93.7298677  67.4039780 106.5701651  94.7783803  68.0468441 105.6874300
 102.8293827  70.0747946  90.7174591 102.2122998  69.3494774  90.6207643
 102.3610316  70.8357306  90.3741665  96.4961180  67.8479501 105.4573792
  97.2060799  67.2072693 105.4160410  96.4530488  68.0992395 106.3799972
 104.4847959  74.7846854 108.3780371 104.4260505  74.1006074 107.7110954
 104.8867477  75.5265844 107.9260997  95.2090114  64.8344719 107.2769431
  94.6727471  64.3835457 107.9291027  94.6206822  64.9690627 106.5339896
  93.5038658  81.6008768 101.1714090  93.7435256  82.2327292 101.8493108
  92.6607854  81.2496808 101.4579449  94.6192373  64.2933370  89.8395895
  93.7421839  64.1722171  89.4758141  95.0950126  63.5019448  89.5874783
 104.4865366  72.7486438 106.6094351 103.5992145  72.4112360 106.7320749
 105.0563917  72.0169469 106.8463116  86.1394513  69.0810530  99.9337402
  86.8265553  68.7672260  99.3458417  85.9842642  69.9851894  99.6604653
  90.9429235  63.9700726 104.3622426  90.8587424  63.3626396 103.6272836
  90.1211942  64.4609745 104.3631922  98.0166519  77.4087890 103.5755594
  97.9436691  78.2142862 104.0874898  97.5743913  77.6079856 102.7503615
  97.8056299  76.6459660  97.0858415  97.0223821  77.1881340  97.1796640
  98.5049044  77.1633640  97.4852656 101.1152949  62.4554290  99.7292621
 101.6121649  61.7024252  99.4093691 100.3439931  62.4918606  99.1635830
 108.9682707  68.1594655 101.3710912 108.9572583  69.0419371 101.0004845
 108.1000086  67.8066206 101.1765449 100.4765203  77.3074724 105.7313752
 101.1893175  77.9422189 105.6589654  99.9855232  77.4038590 104.9153754
 102.1982730  71.2125977  97.3031044 101.2639009  71.3327439  97.1335748
 102.3759398  70.3098444  97.0391054  97.6987918  64.5971673  99.4564305
  97.3285705  64.0442713 100.1445211  98.1947010  63.9929806  98.9039305
 105.5855281  67.0543296  97.8381078 106.0515733  67.8871288  97.7641381
 106.0362782  66.5888278  98.5426337  95.5277116  75.0569168 106.5519323
  96.2286576  75.6905651 106.7048717  95.0572231  75.3983899 105.7914963
 103.6531512  73.3987118  94.8367230 103.9291356  73.2843712  95.7461104
 102.7836011  73.0004602  94.7979403 103.5571944  59.4223883 101.8771980
 102.6435024  59.6528110 102.0454187 103.9865045  59.5062327 102.7286012
 103.3278402  67.6113775 104.3771874 102.6749853  67.8589683 103.7224326
 103.7058782  66.7977913 104.0434351 100.2885576  77.6473468  98.4800044
 100.4707971  76.8295124  98.9427796 101.1118562  77.8641161  98.0424934
 100.6227742  76.5741653  95.7415092 101.1515508  76.0634108  95.1285254
 100.8855961  76.2584184  96.6060625  99.3765975  68.3533586 110.8637911
  98.7006612  68.2527716 111.5340286 100.1993609  68.1972800 111.3273908
  91.1244835  74.5905523 103.4850426  91.7098271  73.8449211 103.6178330
  90.9269673  74.9009479 104.3687090  93.9783490  77.6256770  98.5012868
  93.3093865  78.1102898  98.0176908  93.8396359  77.8725991  99.4156247
  85.7162489  67.1611123 102.2054869  85.7546589  66.6274714 102.9991987
  85.2102782  66.6346329 101.5865846  98.1188758  79.6600514 105.0995527
  98.6707066  79.8232135 105.8644612  98.4594952  80.2504952 104.4275552
  93.0953252  62.0075664 105.7017411  93.1594578  62.8690494 105.2894809
  93.0320372  61.3949665 104.9689770  92.5705524  64.0798796 109.3490446
  93.1977563  63.6975873 109.9627970  91.7133443  63.8612998 109.7146138
  89.3471067  65.8875225  95.2808800  89.6424508  64.9785904  95.2275854
  88.4459103  65.8662965  94.9589803 101.2557146  77.6082489 102.0859209
 101.1308285  76.8072229 101.5770154 101.9136237  78.1028683 101.5973179
  92.8765314  63.9631222 101.2636349  92.1551900  64.5767189 101.1243822
  93.6658570  64.4988987 101.1852995 103.3192054  75.4091509 103.7138759
 102.3722390  75.2896860 103.6417086 103.6674827  74.5214007 103.7965020
  95.6791627  61.2985648 107.5377001  96.2026029  61.5447945 108.3003310
  95.4603961  62.1305683 107.1180138  91.0758908  63.5689323  95.4048126
  90.7471615  62.6886702  95.2223232  91.4298279  63.5136992  96.2924515
 100.3238487  75.2044226  99.9143111 100.1763450  74.2760933 100.0950681
 101.1491981  75.2264316  99.4300186  94.1900732  63.8562293  95.7723603
  94.5296804  64.3848214  95.0502212  94.6372852  64.1942699  96.5482170
 103.9272609  76.0272784 101.0007984 104.8519157  75.8215646 100.8632435
 103.7587913  75.7789185 101.9097325  96.8844172  62.2399343 105.2226671
  96.5440993  61.4407156 105.6247351  96.1783179  62.5401054 104.6503505
  97.5360644  59.3248656 103.6753994  98.3586714  58.8509134 103.5532885
  97.7798708  60.1039140 104.1752681  96.1768879  62.3536914  93.9716896
  96.8977241  62.7318167  93.4680613  95.5534183  63.0725791  94.0751874
 100.3200002  63.0582063  94.9075228 100.5363616  63.9406701  94.6064057
  99.8394069  62.6668277  94.1780870  95.0599223  66.0167776 101.4845973
  94.9143804  66.3308079 102.3770254  94.5824427  66.6352677 100.9316872
  96.9195606  63.0070324 101.5326863  96.9057175  62.1111418 101.1959160
  97.6368034  63.0140988 102.1665149  98.7721737  63.4407665 103.5779990
  98.5139514  64.3624735 103.5764320  98.2406777  63.0438099 104.2680454
 103.7167925  76.5458452  96.3570075 103.8904803  75.9804874  95.6043928
 104.2096817  77.3459347  96.1749565  89.5344885  68.5573121 104.4233634
  88.9898353  69.3332929 104.5553908  90.4124235  68.9043925 104.2652756
  96.3232502  61.8884705  96.8014433  96.4448413  60.9601351  97.0005320
  96.0334544  61.9023391  95.8892748  99.1923692  59.5739615  99.9381153
  99.2145389  59.6378948  98.9833132  99.6091751  58.7344124 100.1321659
 109.5707317  69.3094875  97.9760375 110.0138463  68.5602200  97.5779498
 108.6933827  69.3005011  97.5934107 104.7043098  75.8625216  93.4566974
 105.3994002  76.4831909  93.6754288 105.0466248  75.0120567  93.7319352
  90.3210907  67.6843017 107.3163791  89.5792643  67.8325652 107.9028421
  90.0003651  67.9451283 106.4530540 106.6034521  73.3124922  94.9854304
 107.1285845  73.6512194  94.2603624 106.5156874  72.3771937  94.8017439
  98.2654570  77.2258995 107.1144181  98.5741696  76.9808142 107.9866881
  99.0630052  77.4305634 106.6263051  98.2875182  79.3796905  99.3449558
  97.8480172  78.8873284 100.0382414  99.0383299  78.8369873  99.1041633
  90.7667521  75.5708446  99.3474186  91.5925541  75.2712218  98.9672829
  90.4161573  74.8016068  99.7963974  95.7349054  74.9234914 101.4171859
  95.1129063  74.2605619 101.1174087  96.4053921  74.9496046 100.7345507
  88.9676126  73.4894772 100.3063119  88.1308034  73.0616947 100.1247121
  88.9399771  73.6827216 101.2433910  95.8073581  63.4016702 111.0104365
  95.8561737  64.2778825 110.6282135  96.3496096  62.8594095 110.4376009
 106.4126302  70.7950292 107.6038231 106.4624307  70.6300299 108.5453754
 106.3040225  69.9277551 107.2136112  95.2962561  73.4738837  94.8930320
  95.4450681  74.1574302  94.2396993  96.1029004  73.4543927  95.4079776
 103.7030064  66.7781220 108.9197538 104.6039927  66.6387685 108.6281535
 103.7778039  66.9435675 109.8595715  98.0372870  64.1548074 107.7650724
  97.1676179  64.4481640 107.4933312  98.2732350  64.7388519 108.4857988
 107.9144499  73.2147233 107.8480252 107.6229307  73.5777214 108.6843713
 107.3016630  72.5014241 107.6693585 109.1140181  70.7800113 100.3682823
 109.9487073  71.2189917 100.5320383 109.2499310  70.3038766  99.5491068
 106.1631687  68.3379848 106.3160310 106.6385809  68.5307494 105.5079162
 105.2397253  68.3939034 106.0703694  93.0515194  69.5004015  95.8991389
  92.8061236  68.5966345  96.0971599  93.2211108  69.5021165  94.9570867
 100.7411904  60.3727691 105.2816144 101.2593847  61.1088718 104.9562633
 100.3867036  60.6791685 106.1162903  92.3210841  65.2332373  93.3977550
  91.6280086  65.3076728  92.7417586  92.0762593  64.4692716  93.9199067
 100.9924498  56.7927974 100.8017041 101.2726252  56.1251163 101.4277467
 101.7775105  56.9857070 100.2891705  98.7957966  75.9686968  92.3642067
  98.2231933  76.5877155  91.9112539  99.3690760  76.5186329  92.8981989
 104.8633356  65.2145608 104.5488616 105.8150779  65.3143706 104.5700840
 104.6936807  64.4223876 105.0586700 102.8847736  62.3001191 104.7348017
 102.2897668  62.5806204 104.0394506 102.5997432  62.7895092 105.5064758
 102.0155226  76.2524118  93.4950650 102.9485899  76.1869680  93.6983525
 101.9278439  77.0880385  93.0365182 104.6443243  75.5689988  90.4554597
 104.5656874  75.2349852  91.3490355 105.4652910  76.0611756  90.4546069
 107.3421434  68.4351728 103.6630916 107.3097754  67.4967728 103.8490600
 107.9522058  68.5135764 102.9296741  99.1804765  67.3047781  89.7058120
 100.1263870  67.1753989  89.7746538  98.8019010  66.5662442  90.1827548
 107.4915922  65.2262771 103.7089199 106.9754971  64.4421228 103.5219128
 108.3755871  64.8981488 103.8735718 105.1526649  58.9703787  99.6685012
 104.9551470  58.6618875 100.5528344 105.7626355  59.6965425  99.7982941
 113.1597984  69.4967734 102.8036952 113.8901372  69.2353023 103.3644656
 112.5504929  68.7596456 102.8439020 111.2413281  67.6375597 103.4011404
 110.5146444  67.5031562 102.7927895 110.8260568  67.9452426 104.2068122
  99.0643457  71.3565527 111.1658777  99.9846467  71.5344126 111.3598823
  99.0293040  70.4121572 111.0138476  97.3647682  65.2297757  89.6413005
  96.4579137  64.9330870  89.7175719  97.6423663  64.9327575  88.7747291
  88.2825622  66.5504120 100.0912051  87.9628407  65.6969429  99.7986425
  87.7359051  66.7652698 100.8470019  92.0605530  69.2666561 103.8081558
  92.2791540  70.1983669 103.8269592  92.4731304  68.9074536 104.5936362
  98.9809748  59.7734647  95.7957246  98.1710476  59.4281732  96.1712492
  99.6694165  59.4642190  96.3844858 100.9100296  58.8512693  97.4181543
 101.4631335  59.2708147  98.0771566 101.1470382  57.9248442  97.4604499
  96.9333395  64.8399767 113.1984307  96.8330122  65.7894124 113.1296398
  96.7154937  64.5118006 112.3260377  96.1346467  62.0884692  89.7824984
  96.9965631  62.4139590  90.0420801  96.3196811  61.3016188  89.2698050
  88.1513882  70.1707032 102.0605173  87.4577354  69.7560985 101.5475127
  88.8986873  70.2127568 101.4638592 104.2879103  60.9613219  96.9260207
 103.7077772  61.6198023  96.5438260 104.0215036  60.1390563  96.5147625
 102.7382669  60.3618276  99.1281527 103.2382448  60.4734811  98.3195846
 103.3818277  60.0579329  99.7682336  96.7964665  68.2696906 112.0149368
  96.3131747  69.0697266 112.2213257  96.8825604  68.2804851 111.0616812
  90.0650625  70.1025286  99.9371188  90.0421313  70.2012973  98.9853071
  90.3751261  70.9490436 100.2588354  92.7238003  72.1601441 104.0517802
  93.6781256  72.1285383 103.9847734  92.5250526  71.6992064 104.8668028
  93.3137385  70.7302557 106.6188600  94.1330274  71.2246635 106.6423437
  93.5874193  69.8134525 106.5906167 103.0703981  63.1213309  95.9816555
 102.1829836  63.4062960  95.7636750 103.4857970  62.9607072  95.1343832
 106.4218517  63.1459830  99.6970895 107.1978907  63.6356282  99.9695511
 105.6966651  63.5717884 100.1542764 108.8591076  63.8587449 100.7544835
 109.4535567  63.6183185 100.0438144 108.9317660  63.1394580 101.3818372
  91.0788232  77.7021060 101.0688000  90.9442699  76.9421461 100.5025998
  90.6620294  78.4261960 100.6016789 102.2147195  72.8857984  90.0764575
 102.9183045  73.0907986  90.6922231 101.4909843  73.4534746  90.3413659
 103.0445005  68.6367845  96.1966846 102.9880206  69.0936396  95.3574478
 103.5973347  67.8758530  96.0189688 106.8549811  64.4257577  97.0216965
 106.5986745  64.0254212  97.8525173 106.2302679  65.1401371  96.8967104
 111.1662149  67.1653650  99.5288256 110.6061707  67.2346839 100.3019819
 110.5605652  66.9894635  98.8087753  94.2357357  78.5990377 101.2806443
  94.1189742  79.5435810 101.1785133  93.4149804  78.2963939 101.6692242
 104.1233892  73.3240513  92.1263035 104.9579496  72.8921711  91.9440510
 103.9618235  73.1522527  93.0539930 103.7779784  69.8272626  93.4919375
 103.7228588  69.6616898  92.5507819 103.1525839  70.5348659  93.6481564
  88.5672299  65.0640691 107.3180797  89.2131163  64.5539645 107.8068022
  88.3589450  65.8009372 107.8924222  97.0875910  59.3280735  93.0704693
  97.0754579  60.2722575  93.2272964  97.9799331  59.1450881  92.7764154
  95.2611872  79.2518639 104.4962371  96.1639118  79.2842249 104.8128866
  95.0349242  78.3219090 104.5108707  97.0165474  78.0049626 101.1572450
  96.0661105  78.0051487 101.0436822  97.3197960  77.2582360 100.6408484
 100.9028029  55.9223512  97.3250630 100.1360425  55.3681999  97.4707312
 101.3138734  55.9945381  98.1864782  92.9069790  62.2108308 111.4155811
  93.7701252  61.8545112 111.6259136  92.3335201  61.8722202 112.1031215
 105.4194689  85.6473069  98.1476628 104.8559554  85.5563005  97.3792916
 105.3047084  84.8272973  98.6279120 102.9659121  87.1424260 100.9860848
 103.7580413  86.8015085 100.5707148 103.2055771  87.2519235 101.9063002
 110.9994248  89.3144036  93.4591093 110.3482227  89.8998117  93.0725107
 111.7938611  89.8450231  93.5186130 104.9249875  86.4033173  93.8578227
 105.6980751  85.8562160  93.7191103 105.2775274  87.2677423  94.0692688
 107.2616153  82.5625839  91.4896677 107.5141673  82.0407361  90.7280140
 106.3240712  82.3991985  91.5923361 112.3059436  81.5661618  99.2971420
 113.0922525  81.1481041  98.9461837 112.5698140  82.4707710  99.4653069
 112.4769513  87.0034468  93.9960077 111.8415346  87.0769095  94.7080982
 112.1466919  87.5928067  93.3179156 106.9812441  84.4653945  93.6921052
 106.8648700  83.7898849  94.3602136 107.0914701  83.9786319  92.8753205
 109.3243982  83.9264093  97.3967741 108.9602190  83.3994714  98.1080663
 110.1811098  83.5362562  97.2234227 108.9649469  78.9553992  92.3929090
 109.1323872  79.8234229  92.7599561 108.7746638  79.1181274  91.4690379
 105.1737284  83.8684768 100.0931625 104.2487780  83.7360982 100.3009316
 105.4221697  84.6478987 100.5901567 108.9438690  81.4111650  93.3775757
 108.8238315  81.8568700  94.2161237 108.2491279  81.7596967  92.8189295
 102.5346095  83.5118042 100.9275414 102.6638476  83.7652520 101.8414825
 101.8543546  84.1045750 100.6080069 114.6423756  81.8833123  94.2056091
 115.5541612  82.1160510  94.0303788 114.1333403  82.4670167  93.6431169
 111.9859731  78.0591159 102.4545951 111.1244210  78.3572412 102.7462689
 112.0122166  78.2761558 101.5226984 108.8021301  86.6033349  98.8619757
 109.2659646  86.8821052  98.0724380 108.5378099  85.7016794  98.6792848
 107.7390187  82.7256502  95.6709322 108.4414230  83.1777545  96.1383249
 107.4070815  82.0840321  96.2989215 101.4815521  80.9840054 100.9726456
 100.6914575  81.2397583 100.4966566 101.9726768  81.7988392 101.0778496
 103.4330266  81.3484634  97.9309933 102.6361429  81.4603328  98.4493428
 103.2055858  81.6871286  97.0650823  99.7653224  81.2370545 103.4041447
 100.0161262  82.1217555 103.6699023 100.3012772  81.0575146 102.6316538
 108.9783951  89.5397444  95.7471427 108.8429626  90.3848980  96.1756275
 109.5193764  89.7416722  94.9837361 102.4313349  87.0572882  96.3199353
 102.9437869  87.8516133  96.4704917 103.0836061  86.3599173  96.2532954
 104.2408233  90.1738639  98.4022106 104.4174862  91.0956603  98.2143090
 105.0365067  89.8597058  98.8316486 112.3276415  73.0628006 104.2770321
 111.9840684  73.9529648 104.2009432 112.6955377  72.8729664 103.4139906
 100.3962265  85.3861537  97.0958923 101.2337487  85.7958545  96.8792631
 100.5740533  84.4460979  97.0659117 112.2926698  83.0536617  92.7842756
 111.7773321  83.8241222  93.0231143 112.0204006  82.3801754  93.4075818
 109.8773809  77.8986318  97.8427994 109.0215405  77.5093169  97.6633633
 110.2900760  77.9778279  96.9827780 111.4072955  75.4332661 102.2419554
 110.9037751  75.3962797 101.4287360 111.7003562  76.3425404 102.3016211
 107.6515841  75.5171391 101.2485736 108.5168838  75.3214200 100.8891625
 107.7193350  75.2881743 102.1755093 117.2660972  85.8068972  94.7195930
 116.4890414  85.4680132  94.2751092 117.9452453  85.8121595  94.0450895
 112.0813001  80.9263710  94.6102537 111.7763136  81.2409859  95.4612680
 113.0343443  81.0045129  94.6529870 110.5259433  87.0853933  96.2595491
 109.9980794  86.3506692  95.9468729 110.0246935  87.8628609  96.0135460
 105.2578160  77.7473599  98.6202103 105.8321912  77.5248781  97.8875296
 105.8449143  77.8162294  99.3730704 105.5847747  79.7778060  92.6397988
 104.7485060  80.1152747  92.9607263 105.4452517  79.6427040  91.7025125
 107.5600828  74.6214848  97.3477172 106.9065240  74.3063865  96.7233787
 107.5181302  73.9990588  98.0736995 108.6712033  84.9034143  89.2630464
 107.7639094  84.6723397  89.4621613 109.1683065  84.1071762  89.4504446
 111.5780112  93.6131650  92.1827150 110.9041810  93.9163347  92.7912108
 111.9645934  94.4160731  91.8332607 110.7938568  81.1096782 101.6724820
 109.8761130  81.3311729 101.5146508 111.2098712  81.1843092 100.8136527
 111.5773616  82.5088197  96.8027500 112.3245435  83.0209594  96.4934622
 111.8465206  82.1872250  97.6631894 109.8500266  85.0046738  93.7854454
 108.9411485  84.7205771  93.8826924 109.8795350  85.4245817  92.9257761
 114.0252453  79.5445314  98.7846289 113.2875210  79.0322700  99.1156532
 114.2779227  79.1045695  97.9729566 114.1264080  72.3221566  99.3788059
 114.4322957  71.4618929  99.0913974 114.8516685  72.9139186  99.1787053
 100.4188437  82.7252252  97.7669657 100.2212836  82.1321613  97.0420723
  99.8635101  82.4204462  98.4845595 108.3985160  82.6175359  99.8864250
 108.4533770  81.6649195  99.8106726 107.5876362  82.7734798 100.3705548
 109.5476354  86.5455482  91.1242533 109.1095784  85.8291341  90.6648170
 110.2886795  86.7731596  90.5627624 106.3377520  81.2352418  97.6454629
 105.5245386  81.5346589  98.0519821 106.8336514  80.8408107  98.3629111
 117.6649469  84.8212679  97.1818852 117.5267367  85.0114275  96.2540041
 117.3085688  85.5832061  97.6386903 105.8291595  78.8070774 103.2615864
 106.4690974  78.6659533 102.5638827 104.9969125  78.5205287 102.8854466
 106.6051899  88.1073204  99.3750856 107.3992497  87.6123524  99.1733431
 105.8943591  87.5791067  99.0118562 102.9134662  82.2516286  95.4510609
 101.9832250  82.1900741  95.6680571 103.0092134  81.7292239  94.6547250
 102.8320211  78.7771099  98.0388850 103.0927029  79.6916432  97.9298011
 103.6537384  78.3095541  98.1885463 104.3045137  80.1908856 105.2087675
 104.9768190  79.9826218 104.5600324 103.4774923  79.9930942 104.7692907
 109.7771327  93.7811323  94.3974230 109.9523082  93.3099366  95.2119852
 109.0904115  94.4077089  94.6255490 113.6687582  85.4039863  90.7174591
 113.0516752  84.6786691  90.6207643 113.2004070  86.1649224  90.3741665
 105.4586127  79.6225288  89.8395895 104.5815594  79.5014088  89.4758141
 105.9343881  78.8311366  89.5874783  96.9788268  84.4102447  99.9337402
  97.6659307  84.0964177  99.3458417  96.8236396  85.3143812  99.6604653
 101.7822990  79.2992644 104.3622426 101.6981178  78.6918313 103.6272836
 100.9605696  79.7901662 104.3631922 111.9546704  77.7846207  99.7292621
 112.4515403  77.0316170  99.4093691 111.1833685  77.8210524  99.1635830
 113.0376484  86.5417895  97.3031044 112.1032763  86.6619357  97.1335748
 113.2153153  85.6390361  97.0391054 108.5381672  79.9263590  99.4564305
 108.1679460  79.3734631 100.1445211 109.0340765  79.3221724  98.9039305
 116.4249036  82.3835214  97.8381078 116.8909488  83.2163206  97.7641381
 116.8756536  81.9180195  98.5426337 114.4925267  88.7279035  94.8367230
 114.7685111  88.6135630  95.7461104 113.6229766  88.3296520  94.7979403
 114.3965698  74.7515801 101.8771980 113.4828778  74.9820028 102.0454187
 114.8258800  74.8354245 102.7286012 111.4621496  91.9033571  95.7415092
 111.9909263  91.3926026  95.1285254 111.7249716  91.5876101  96.6060625
  96.5556244  82.4903041 102.2054869  96.5940343  81.9566631 102.9991987
  96.0496537  81.9638246 101.5865846 103.9347006  77.3367581 105.7017411
 103.9988333  78.1982412 105.2894809 103.8714126  76.7241583 104.9689770
 100.1864821  81.2167143  95.2808800 100.4818262  80.3077821  95.2275854
  99.2852857  81.1954882  94.9589803 103.7159068  79.2923139 101.2636349
 102.9945654  79.9059107 101.1243822 104.5052324  79.8280904 101.1852995
 101.9152663  78.8981240  95.4048126 101.5865369  78.0178619  95.2223232
 102.2692034  78.8428909  96.2924515 105.0294486  79.1854210  95.7723603
 105.3690559  79.7140132  95.0502212 105.4766607  79.5234616  96.5482170
 107.7237927  77.5691261 105.2226671 107.3834747  76.7699074 105.6247351
 107.0176933  77.8692972 104.6503505 108.3754399  74.6540573 103.6753994
 109.1980468  74.1801052 103.5532885 108.6192462  75.4331057 104.1752681
 107.0162633  77.6828832  93.9716896 107.7370996  78.0610085  93.4680613
 106.3927937  78.4017709  94.0751874 111.1593756  78.3873981  94.9075228
 111.3757370  79.2698619  94.6064057 110.6787823  77.9960194  94.1780870
 105.8992977  81.3459694 101.4845973 105.7537558  81.6599997 102.3770254
 105.4218181  81.9644594 100.9316872 107.7589360  78.3362242 101.5326863
 107.7450929  77.4403335 101.1959160 108.4761788  78.3432906 102.1665149
 109.6115491  78.7699582 103.5779990 109.3533269  79.6916653 103.5764320
 109.0800531  78.3730017 104.2680454 100.3738640  83.8865038 104.4233634
  99.8292108  84.6624846 104.5553908 101.2517990  84.2335843 104.2652756
 107.1626256  77.2176622  96.8014433 107.2842167  76.2893269  97.0005320
 106.8728299  77.2315308  95.8892748 110.0317447  74.9031533  99.9381153
 110.0539144  74.9670866  98.9833132 110.4485506  74.0636041 100.1321659
 115.5436852  91.1917134  93.4566974 116.2387757  91.8123826  93.6754288
 115.8860002  90.3412485  93.7319352 117.4428275  88.6416839  94.9854304
 117.9679600  88.9804112  94.2603624 117.3550628  87.7063855  94.8017439
 101.6061275  90.9000363  99.3474186 102.4319295  90.6004135  98.9672829
 101.2555327  90.1307986  99.7963974  99.8069880  88.8186690 100.3063119
  98.9701789  88.3908864 100.1247121  99.7793526  89.0119133 101.2433910
 106.1356315  88.8030755  94.8930320 106.2844436  89.4866219  94.2396993
 106.9422759  88.7835845  95.4079776 103.8908948  84.8295933  95.8991389
 103.6454990  83.9258263  96.0971599 104.0604863  84.8313083  94.9570867
 103.1604596  80.5624290  93.3977550 102.4673841  80.6368645  92.7417586
 102.9156348  79.7984634  93.9199067 111.8318252  72.1219892 100.8017041
 112.1120006  71.4543081 101.4277467 112.6168859  72.3148987 100.2891705
 109.6351721  91.2978885  92.3642067 109.0625688  91.9169073  91.9112539
 110.2084514  91.8478247  92.8981989 112.8548981  91.5816036  93.4950650
 113.7879654  91.5161597  93.6983525 112.7672193  92.4172302  93.0365182
 115.4836997  90.8981906  90.4554597 115.4050629  90.5641770  91.3490355
 116.3046664  91.3903674  90.4546069 110.0198519  82.6339698  89.7058120
 110.9657624  82.5045906  89.7746538 109.6412764  81.8954360  90.1827548
 115.9920404  74.2995704  99.6685012 115.7945225  73.9910792 100.5528344
 116.6020109  75.0257343  99.7982941 108.2041436  80.5589675  89.6413005
 107.2972892  80.2622787  89.7175719 108.4817417  80.2619493  88.7747291
  99.1219377  81.8796038 100.0912051  98.8022161  81.0261346  99.7986425
  98.5752805  82.0944616 100.8470019 109.8203502  75.1026564  95.7957246
 109.0104230  74.7573649  96.1712492 110.5087919  74.7934108  96.3844858
 111.7494050  74.1804611  97.4181543 112.3025089  74.6000065  98.0771566
 111.9864137  73.2540359  97.4604499 106.9740221  77.4176610  89.7824984
 107.8359385  77.7431508  90.0420801 107.1590565  76.6308106  89.2698050
  98.9907637  85.4998950 102.0605173  98.2971108  85.0852902 101.5475127
  99.7380628  85.5419486 101.4638592 115.1272858  76.2905136  96.9260207
 114.5471527  76.9489940  96.5438260 114.8608790  75.4682481  96.5147625
 113.5776424  75.6910194  99.1281527 114.0776202  75.8026729  98.3195846
 114.2212032  75.3871247  99.7682336 100.9044379  85.4317203  99.9371188
 100.8815067  85.5304891  98.9853071 101.2145016  86.2782354 100.2588354
 113.9097736  78.4505227  95.9816555 113.0223591  78.7354877  95.7636750
 114.3251725  78.2898990  95.1343832 117.2612272  78.4751748  99.6970895
 118.0372662  78.9648200  99.9695511 116.5360406  78.9009802 100.1542764
 113.0540949  88.2149901  90.0764575 113.7576799  88.4199904  90.6922231
 112.3303598  88.7826663  90.3413659 113.8838759  83.9659763  96.1966846
 113.8273961  84.4228314  95.3574478 114.4367102  83.2050447  96.0189688
 117.6943565  79.7549494  97.0216965 117.4380499  79.3546130  97.8525173
 117.0696433  80.4693288  96.8967104 114.9627646  88.6532431  92.1263035
 115.7973250  88.2213629  91.9440510 114.8011989  88.4814444  93.0539930
 114.6173539  85.1564544  93.4919375 114.5622342  84.9908815  92.5507819
 113.9919594  85.8640577  93.6481564  99.4066054  80.3932608 107.3180797
 100.0524917  79.8831562 107.8068022  99.1983205  81.1301290 107.8924222
 107.9269664  74.6572653  93.0704693 107.9148334  75.6014493  93.2272964
 108.8193086  74.4742798  92.7764154 111.7421784  71.2515429  97.3250630
 110.9754179  70.6973916  97.4707312 112.1532488  71.3237298  98.1864782
 116.4241502  95.1069978  92.6397988 115.5878814  95.4444664  92.9607263
 116.2846271  94.9718958  91.7025125 116.2979882  94.9517205  89.8395895
 115.4209348  94.8306006  89.4758141 116.7737635  94.1603284  89.5874783
 113.9998350  95.8916208  93.3977550 113.3067595  95.9660563  92.7417586
 113.7550102  95.1276552  93.9199067 119.0435191  95.8881592  89.6413005
 118.1366646  95.5914705  89.7175719 119.3211172  95.5911410  88.7747291
 117.8133976  92.7468528  89.7824984 118.6753140  93.0723426  90.0420801
 117.9984320  91.9600023  89.2698050 118.7663419  89.9864571  93.0704693
 118.7542088  90.9306410  93.2272964 119.6586840  89.8034716  92.7764154
  52.5076811  -5.4582174  83.7511194  52.4300841  -4.5074349  83.8299675
  51.9038455  -5.8036302  84.4086121  50.1463641  -2.7096780  87.8959396
  50.3860239  -2.0778256  88.5738415  49.3032837  -3.0608740  88.1824756
  50.6208473  -6.6848778  85.2258175  49.9518848  -6.2002650  84.7422215
  50.4821343  -6.4379557  86.1401553  54.7613742  -4.6505034  91.8240833
  55.3132050  -4.4873413  92.5889919  55.1019935  -4.0600597  91.1520858
  47.7213215  -6.6084488  87.7933307  47.5867683  -7.3684087  87.2271305
  47.3045277  -5.8843588  87.3262096  50.8782341  -5.7115171  88.0051749
  50.7614725  -4.7669738  87.9030440  50.0574787  -6.0141609  88.3937549
  51.9036855  -5.0586909  91.2207678  52.8064102  -5.0263299  91.5374173
  51.6774225  -5.9886458  91.2354014  66.2032857  -0.5167956  88.8825044
  65.8651368  -0.6326891  87.9945578  67.0722625  -0.9176791  88.8626050
  62.0619672   1.3367520  84.8721934  61.4984537   1.2457457  84.1038222
  61.9472067   0.5167425  85.3524427  66.6852640   0.6366896  94.8411249
  66.6741280   0.2419694  93.9691753  66.8473279  -0.0967032  95.4345021
  59.6084104   2.8318712  87.7106155  60.4005396   2.4909537  87.2952454
  59.8480754   2.9413687  88.6308308  67.6419231   5.0038488  80.1836399
  66.9907211   5.5892569  79.7970413  68.4363594   5.5344683  80.2431437
  61.5674858   2.0927625  80.5823534  62.3405734   1.5456612  80.4436410
  61.9200257   2.9571875  80.7937995  63.4059901   3.4204008  93.7890433
  63.1149767   4.3249638  93.6737099  64.0416885   3.4620535  94.5034503
  64.3316108   0.7980856  90.3791793  64.9279680   0.5736878  89.6648756
  64.3891079   0.0565602  90.9817241  69.1194496   2.6928920  80.7205384
  68.4840329   2.7663547  81.4326288  68.7891903   3.2822519  80.0424463
  63.6237425   0.1548397  80.4166359  63.5073683  -0.5206699  81.0847443
  63.7339685  -0.3319229  79.5998512  65.9668966  -0.3841456  84.1213048
  65.6027173  -0.9110835  84.8325969  66.8236082  -0.7742987  83.9479533
  68.3649786   3.1065423  90.7840227  68.0650509   4.0090462  90.6756034
  68.0200845   2.8397606  91.6361380  61.8162267  -0.4420780  86.8176931
  60.8912764  -0.5744566  87.0254623  62.0646681   0.3373439  87.3146874
  59.1771078  -0.7987507  87.6520720  59.3063460  -0.5453028  88.5660132
  58.4968530  -0.2059799  87.3325375  63.3470566   9.8709743  83.7511194
  63.2694595  10.8217568  83.8299675  62.7432209   9.5255616  84.4086121
  64.0934168  -0.1476938  95.9690528  64.8348852   0.3908106  95.6925352
  63.3871153   0.4789351  96.1262080  69.5689507   1.9952203  94.5662690
  69.9772863   1.5534613  93.8217322  68.8466769   1.4204830  94.8196883
  69.8918322   2.5553393  88.3214979  69.2627184   2.7199107  87.6191047
  69.5043984   2.9695003  89.0925943  73.7707554   3.4907831  85.6759342
  73.0858592   3.8706732  85.1256376  73.8551403   4.1003158  86.4091290
  71.0258485   1.1367790  92.2754686  71.2375381   1.7799550  91.5989067
  70.9788234   0.3030107  91.8076616  65.4446284   2.2927801  85.5865064
  65.9084629   2.5715504  84.7969686  65.1803082   1.3911246  85.4038154
  62.3370365   1.8399283  88.5244827  62.9071722   2.2686551  87.8862312
  62.9278477   1.5581868  89.2229013  58.1240504  -3.3265494  87.6971762
  57.3339558  -3.0707965  87.2211873  58.6151751  -2.5117156  87.8023803
  72.1404313   4.0139746  90.4477043  72.9621757   3.6119933  90.1659725
  72.1366716   3.9107980  91.3993159  60.0755249  -2.9620914  84.6555239
  59.2786413  -2.8502220  85.1738735  59.8480841  -2.6234262  83.7896130
  65.9060917   3.5623789  92.6037754  65.9705349   4.0244196  93.4395926
  65.1971841   2.9321154  92.7320064  56.4078207  -3.0735003  90.1286753
  56.6586245  -2.1887993  90.3944329  56.9437755  -3.2530402  89.3561845
  65.6208935   5.2291896  82.4716734  65.4854609   6.0743432  82.9001582
  66.1618747   5.4311174  81.7082668  59.0738332   2.7467334  83.0444659
  59.5862852   3.5410585  83.1950224  59.7261045   2.0493625  82.9778261
  60.8833217   5.8633091  85.1267412  61.0599845   6.7851055  84.9388396
  61.6790050   5.5491510  85.5561792  60.1685573  -2.0902277  95.0029576
  60.0539088  -2.9917020  95.3036675  59.3130091  -1.8438581  94.6514392
  67.2477411   5.8515463  96.6017076  66.8041265   5.0651841  96.2837981
  67.9094624   6.0394613  95.9360967  62.0064532   7.3811264  91.1277755
  62.5571957   7.2528328  90.3554749  61.1676008   7.6806153  90.7772648
  69.3458649   6.1318263  94.6298478  69.3277124   6.9527144  94.1378747
  70.2678569   6.0072338  94.8548619  65.8031703   3.6462392  95.4721986
  66.3360040   2.8850680  95.2421294  65.2745784   3.3536044  96.2146140
  57.0387249   1.0755989  83.8204230  57.8762471   1.4852997  83.6037937
  57.2165516   0.1355431  83.7904424  67.1684416   2.7748385  82.9840798
  66.6405777   2.0401144  82.6714035  66.6671919   3.5523061  82.7380766
  72.1477262   0.9697405  88.1007844  71.4900936   1.6596667  88.1887973
  72.9517661   1.3593837  88.4441831  65.3137016   0.5928595  75.9875771
  64.4064078   0.3617848  76.1866920  65.8108048  -0.2033786  76.1749752
  68.2205095   9.3026102  78.9072457  67.5466794   9.6057799  79.5157415
  68.6070917  10.1055183  78.5577914  66.4925249   0.6941190  80.5099761
  65.5836469   0.4100223  80.6072231  66.5220333   1.1140268  79.6503068
  71.7244517   4.3047779  84.2790929  71.2706844   3.4638689  84.3356119
  71.0938484   4.9409178  84.6165709  70.1677456   6.1424276  85.2140747
  70.4600430   6.7029333  84.4953112  70.6776077   6.4352837  85.9693906
  57.0613420  -1.5853296  84.4914963  56.8637820  -2.1783935  83.7666030
  56.5060084  -1.8901086  85.2090902  66.1901337   2.2349934  77.8487840
  65.7520767   1.5185792  77.3893477  66.9311778   2.4626048  77.2872931
  65.1311081   6.9204627  86.3034200  65.0887260   7.1465473  85.3742732
  66.0473780   6.6868002  86.4520001  74.3343832   2.5783658  88.9175430
  74.7680338   2.4858947  89.7658484  75.0475412   2.5541158  88.2795446
  63.2476882   3.7967656  86.0996163  64.0417481   3.3017976  85.8978738
  62.5368574   3.2685519  85.7363868  68.0671727   6.1785752  90.4508530
  68.1208749   6.7476688  91.2186246  67.1986508   6.3487637  90.0862567
  59.5559646  -2.0589262  82.1755915  58.6257234  -2.1204807  82.3925877
  59.6517118  -2.5813309  81.3792557  75.1959381   2.6207358  91.4508315
  75.3895271   3.5253169  91.6967590  75.0959999   2.1614777  92.2846900
  70.2574490   2.7714101  97.0249196  70.1059996   2.5424653  96.1079279
  70.2479169   3.7284702  97.0380541  67.0259826   0.3446014  92.0095462
  67.9551886   0.4957173  91.8364429  66.6050856   0.4330035  91.1544109
  65.8248158   4.3696678  89.7794000  65.6859244   4.0015463  90.6519938
  65.0362754   4.8844318  89.6077958  66.4196310   9.4705775  81.1219536
  66.5948066   8.9993818  81.9365159  65.7329098  10.0971541  81.3500797
  67.3753373   3.7478281  87.1682838  67.0403206   3.7079051  88.0640487
  66.8757319   3.0822997  86.6953248  61.3497617  -0.8454089  92.6935419
  61.2117415  -1.5773850  93.2946958  62.2602541  -0.9345189  92.4119606
  70.3112565   1.0934315  77.4419897  69.6941736   0.3681143  77.3452950
  69.8429053   1.8543675  77.0986971  63.9779918  -1.1334130  92.1819098
  64.6879536  -1.7740938  92.1405717  63.9349226  -0.8821235  93.1045279
  71.9666697   5.8033224  95.1025678  71.9079243   5.1192444  94.4356261
  72.3686215   6.5452214  94.6506304  60.9857395  12.6195137  87.8959396
  61.2253994  13.2513662  88.5738415  60.1426592  12.2683177  88.1824756
  71.9684104   3.7672807  93.3339657  71.0810883   3.4298729  93.4566056
  72.5382655   3.0355839  93.5708423  53.6213251   0.0996899  86.6582709
  54.3084291  -0.2141371  86.0703724  53.4661380   1.0038264  86.3849960
  65.4985257   8.4274260  90.3000900  65.4255429   9.2329231  90.8120205
  65.0562650   8.6266226  89.4748922  65.2875037   7.6646030  83.8103722
  64.5042559   8.2067710  83.9041946  65.9867782   8.1820009  84.2097963
  67.9583941   8.3261094  92.4559059  68.6711913   8.9608559  92.3834961
  67.4673969   8.4224960  91.6399061  69.6801468   2.2312347  84.0276351
  68.7457746   2.3513809  83.8581055  69.8578136   1.3284813  83.7636361
  63.0095854   6.0755537  93.2764630  63.7105314   6.7092020  93.4294024
  62.5390969   6.4170269  92.5160269  71.1350250   4.4173487  81.5612537
  71.4110094   4.3030082  82.4706411  70.2654749   4.0190972  81.5224710
  67.7704314   8.6659838  85.2045351  67.9526709   7.8481494  85.6673103
  68.5937300   8.8827530  84.7670241  68.1046480   7.5928023  82.4660399
  68.6334246   7.0820478  81.8530561  68.3674699   7.2770553  83.3305932
  66.8584713  -0.6280044  97.5883217  66.1825350  -0.7285915  98.2585593
  67.6812347  -0.7840830  98.0519215  58.6063572   5.6091892  90.2095733
  59.1917009   4.8635580  90.3423637  58.4088411   5.9195849  91.0932396
  61.4602228   8.6443140  85.2258175  60.7912603   9.1289267  84.7422215
  61.3215097   8.8912360  86.1401553  53.1981227  -1.8202507  88.9300176
  53.2365327  -2.3538917  89.7237294  52.6921520  -2.3467302  88.3111153
  65.6007496  10.6786883  91.8240833  66.1525804  10.8418505  92.5889919
  65.9413690  11.2691321  91.1520858  70.4518370   5.5048141  97.6789488
  70.9958274   6.1178099  97.1844443  69.8705215   6.0627719  98.1956501
  56.8289805  -3.0938405  82.0054107  57.1243246  -4.0027727  81.9521161
  55.9277840  -3.1150666  81.6835109  68.7375883   8.6268859  88.8104516
  68.6127023   7.8258599  88.3015461  69.3954975   9.1215052  88.3218485
  70.8010792   6.4277879  90.4384066  69.8541127   6.3083230  90.3662392
  71.1493565   5.5400377  90.5210327  67.8057225   6.2230595  86.6388418
  67.6582188   5.2947303  86.8195988  68.6310719   6.2450686  86.1545493
  71.4091347   7.0459154  87.7253291  72.3337894   6.8402015  87.5877742
  71.2406650   6.7975555  88.6342632  71.1986663   7.5644821  83.0815382
  71.3723541   6.9991244  82.3289234  71.6915554   8.3645716  82.8994872
  57.0163623  -0.4240510  91.1478941  56.4717091   0.3519298  91.2799215
  57.8942973  -0.0769705  90.9898062  72.1861836   6.8811586  80.1812280
  72.8812740   7.5018278  80.3999595  72.5284986   6.0306937  80.4564658
  57.8029645  -1.2970613  94.0409098  57.0611381  -1.1487978  94.6273728
  57.4822389  -1.0362348  93.1775847  74.0853259   4.3311291  81.7099611
  74.6104583   4.6698564  80.9848931  73.9975611   3.3958307  81.5262746
  65.7473307   8.2445365  93.8389488  66.0560434   7.9994512  94.7112187
  66.5448789   8.4492003  93.3508358  65.7693919  10.3983274  86.0694864
  65.3298910   9.9059653  86.7627721  66.5202036   9.8556242  85.8286939
  58.2486258   6.5894815  86.0719492  59.0744278   6.2898587  85.6918136
  57.8980310   5.8202438  86.5209281  63.2167792   5.9421284  88.1417166
  62.5947801   5.2791989  87.8419394  63.8872659   5.9682415  87.4590814
  56.4494864   4.5081142  87.0308426  55.6126772   4.0803316  86.8492427
  56.4218509   4.7013585  87.9679217  73.7747165   4.9644195  97.0150809
  72.9842709   4.9468334  96.4755308  73.5380519   5.5032489  97.7699846
  62.7781299   4.4925207  81.6175626  62.9269419   5.1760671  80.9642299
  63.5847742   4.4730297  82.1325082  75.3963237   4.2333603  94.5725559
  75.1048045   4.5963583  95.4089020  74.7835368   3.5200611  94.3938891
  60.5333932   0.5190385  82.6236695  60.2879973  -0.3847285  82.8216906
  60.7029846   0.5207535  81.6816173  66.2776704   6.9873337  79.0887374
  65.7050671   7.6063524  78.6357846  66.8509498   7.5372699  79.6227296
  69.4973964   7.2710487  80.2195956  70.4304637   7.2056049  80.4228832
  69.4097177   8.1066754  79.7610489  72.1261981   6.5876358  77.1799904
  72.0475612   6.2536221  78.0735662  72.9471647   7.0798126  77.1791376
  66.5462195   2.3751896  97.8904083  67.4665205   2.5530495  98.0844130
  66.5111778   1.4307942  97.7383783  55.7644360  -2.4309510  86.8157358
  55.4447144  -3.2844202  86.5231732  55.2177788  -2.2160932  87.5715325
  59.5424268   0.2852931  90.5326865  59.7610277   1.2170039  90.5514898
  59.9550041  -0.0739095  91.3181668  55.6332620   1.1893401  88.7850480
  54.9396092   0.7747354  88.2720434  56.3805611   1.2313938  88.1883898
  64.2783403  -0.7116724  98.7394675  63.7950485   0.0883636  98.9458564
  64.3644342  -0.7008780  97.7862119  57.5469363   1.1211655  86.6616494
  57.5240051   1.2199342  85.7098378  57.8569999   1.9676806  86.9833661
  60.2056741   3.1787810  90.7763109  61.1599994   3.1471753  90.7093040
  60.0069264   2.7178434  91.5913335  60.7956123   1.7488926  93.3433907
  61.6149012   2.2433005  93.3668744  61.0692930   0.8320894  93.3151474
  58.5606969   8.7207430  87.7933307  58.4261437   7.9607831  87.2271305
  58.1439032   9.4448330  87.3262096  69.6965932   3.9044353  76.8009882
  70.4001782   4.1094356  77.4167538  68.9728581   4.4721115  77.0658966
  61.7176095   9.6176747  88.0051749  61.6008479  10.5622179  87.9030440
  60.8968541   9.3150308  88.3937549  71.6052630   4.3426882  78.8508342
  72.4398234   3.9108081  78.6685817  71.4436973   4.1708896  79.7785237
  71.2598522   0.8458996  80.2164681  71.2047326   0.6803267  79.2753126
  70.6344577   1.5535029  80.3726871  56.0491037  -3.9172940  94.0426104
  56.6949900  -4.4273986  94.5313329  55.8408188  -3.1804258  94.6169529
  68.5744429   3.1507908  99.5418244  69.4435589   3.3248560  99.1804879
  68.0951181   3.9702324  99.4193974  62.7430609  10.2705009  91.2207678
  63.6457856  10.3028619  91.5374173  62.5167979   9.3405460  91.2354014
  64.4984211   9.0235995  87.8817756  63.5479842   9.0237857  87.7682129
  64.8016697   8.2768730  87.3653791  80.2336905  14.8596534  88.9463519
  80.8715315  14.7403281  88.2426859  80.1157748  15.8077378  89.0051471
  77.0426611  14.8123962  88.8825044  76.7045123  14.6965026  87.9945578
  77.9116379  14.4115127  88.8626050  72.9013427  16.6659438  84.8721934
  72.3378292  16.5749375  84.1038222  72.7865822  15.8459343  85.3524427
  77.5246394  15.9658813  94.8411249  77.5135035  15.5711612  93.9691753
  77.6867034  15.2324886  95.4345021  70.4477859  18.1610630  87.7106155
  71.2399151  17.8201454  87.2952454  70.6874509  18.2705605  88.6308308
  78.4812986  20.3330406  80.1836399  77.8300965  20.9184486  79.7970413
  79.2757348  20.8636601  80.2431437  72.4068613  17.4219543  80.5823534
  73.1799489  16.8748530  80.4436410  72.7594012  18.2863792  80.7937995
  74.2453655  18.7495925  93.7890433  73.9543521  19.6541556  93.6737099
  74.8810640  18.7912453  94.5034503  75.1709862  16.1272774  90.3791793
  75.7673434  15.9028796  89.6648756  75.2284834  15.3857519  90.9817241
  74.7434890  13.5812209  78.2141984  74.9960411  13.0593730  77.4525447
  73.8059450  13.4178354  78.3168667  79.7878173  12.5847987  86.0216727
  80.5741263  12.1667411  85.6707144  80.0516878  13.4894080  86.1898375
  79.9588251  18.0220838  80.7205384  79.3234084  18.0955464  81.4326288
  79.6285657  18.6114437  80.0424463  85.1886600  12.5223221  86.9249705
  85.9211772  11.9522437  87.1587535  84.4325956  12.1344821  87.3656211
  74.4631179  15.4840315  80.4166359  74.3467437  14.8085218  81.0847443
  74.5733439  14.9972689  79.5998512  76.8062720  14.9450462  84.1213048
  76.4420927  14.4181083  84.8325969  77.6629836  14.5548931  83.9479533
  82.7112021   6.2344795  91.3844314  82.3795346   7.1040206  91.1605529
  82.1157634   5.9181079  92.0638344  76.4468207   9.9740362  79.1174396
  76.6142609  10.8420598  79.4844867  76.2565376  10.1367643  78.1935686
  79.2043540  18.4357341  90.7840227  78.9044263  19.3382380  90.6756034
  78.8594600  18.1689524  91.6361380  72.6556022  14.8871138  86.8176931
  71.7306518  14.7547352  87.0254623  72.9040435  15.6665357  87.3146874
  82.6040684  10.9539881  88.4637664  81.6957561  10.8855289  88.1696425
  82.5528280  11.4311826  89.2919490  76.4257428  12.4298019  80.1021063
  76.3057053  12.8755070  80.9406543  75.7310016  12.7783337  79.5434601
  70.0164833  14.5304411  87.6520720  70.1457214  14.7838890  88.5660132
  69.3362284  15.1232119  87.3325375  74.1864320  25.2001661  83.7511194
  74.1088350  26.1509486  83.8299675  73.5825964  24.8547534  84.4086121
  76.6781550  12.3729526  96.4072561  75.9014884  12.9323447  96.3975426
  77.3172113  12.8586309  96.9287431  84.4702330   9.1556319  90.2415538
  83.8276711   9.4488852  89.5955333  83.9657259   9.0409240  91.0468735
  82.1242494  12.9019492  80.9301397  83.0360350  13.1346879  80.7549095
  81.6152141  13.4856537  80.3676476  74.9327922  15.1814980  95.9690528
  75.6742607  15.7200024  95.6925352  74.2264908  15.8081269  96.1262080
  80.4083262  17.3244120  94.5662690  80.8166618  16.8826531  93.8217322
  79.6860523  16.7496748  94.8196883  76.7614332  12.2616727  91.9396247
  77.6075527  12.6856141  92.0830896  76.7012970  11.6050351  92.6334810
  80.7312076  17.8845311  88.3214979  80.1020939  18.0491025  87.6191047
  80.3437739  18.2986920  89.0925943  84.6101308  18.8199749  85.6759342
  83.9252347  19.1998650  85.1256376  84.6945158  19.4295075  86.4091290
  79.9113777   9.9221095  93.5977420  79.6674709  10.6763156  93.0611696
  80.1873708  10.3006443  94.4324667  81.8652240  16.4659708  92.2754686
  82.0769135  17.1091468  91.5989067  81.8181988  15.6322024  91.8076616
  79.4678469   9.0777528  89.1791258  78.6062948   9.3758782  89.4707996
  79.4940904   9.2947927  88.2472291  76.2840038  17.6219719  85.5865064
  76.7478384  17.9007422  84.7969686  76.0196836  16.7203164  85.4038154
  73.1764119  17.1691201  88.5244827  73.7465476  17.5978469  87.8862312
  73.7672231  16.8873785  89.2229013  75.2208924  13.7442871  82.3954629
  75.9232968  14.1963915  82.8628555  74.8889553  13.1026690  83.0234522
  73.6689286  12.3354628  96.7705838  73.0387947  13.0170909  97.0041235
  73.5625374  12.2237710  95.8258977  68.9634258  12.0026424  87.6971762
  68.1733312  12.2583953  87.2211873  69.4545506  12.8174762  87.8023803
  82.9798068  19.3431663  90.4477043  83.8015512  18.9411850  90.1659725
  82.9760471  19.2399897  91.3993159  70.9149004  12.3671003  84.6555239
  70.1180167  12.4789698  85.1738735  70.6874596  12.7057656  83.7896130
  76.7454671  18.8915707  92.6037754  76.8099104  19.3536114  93.4395926
  76.0365595  18.2613071  92.7320064  67.2471961  12.2556914  90.1286753
  67.4980000  13.1403924  90.3944329  67.7831510  12.0761516  89.3561845
  91.0704061  15.6870412  86.7962015  90.3167769  15.1177810  86.6406019
  91.2051602  15.6533076  87.7432649  76.4602689  20.5583814  82.4716734
  76.3248364  21.4035350  82.9001582  77.0012502  20.7603092  81.7082668
  72.9470029   6.6375394  99.1331089  72.5536974   6.0841592  99.8078734
  73.7636169   6.9485972  99.5237607  69.9132086  18.0759252  83.0444659
  70.4256607  18.8702502  83.1950224  70.5654799  17.3785542  82.9778261
  71.7226971  21.1925008  85.1267412  71.8993599  22.1142973  84.9388396
  72.5183805  20.8783428  85.5561792  75.8637990   8.0533273  96.7251346
  76.6047703   8.6540426  96.6455808  76.0955912   7.3110911  96.1669389
  71.0079328  13.2389640  95.0029576  70.8932843  12.3374897  95.3036675
  70.1523845  13.4853337  94.6514392  78.0871165  21.1807381  96.6017076
  77.6435020  20.3943759  96.2837981  78.7488379  21.3686531  95.9360967
  72.8458287  22.7103182  91.1277755  73.3965712  22.5820245  90.3554749
  72.0069762  23.0098071  90.7772648  80.1852403  21.4610180  94.6298478
  80.1670879  22.2819061  94.1378747  81.1072324  21.3364256  94.8548619
  76.6425458  18.9754310  95.4721986  77.1753794  18.2142598  95.2421294
  76.1139539  18.6827962  96.2146140  79.8095153   4.0814376  91.0015628
  79.4659422   4.9716018  90.9254738  80.1774115   3.8916034  90.1385213
  67.8781003  16.4047906  83.8204230  68.7156225  16.8144915  83.6037937
  68.0559271  15.4647349  83.7904424  79.7745435  14.0722987  79.5088063
  79.2592059  14.8427592  79.7476450  79.5022744  13.3988123  80.1321124
  77.3592546   8.9172688  84.5673301  76.5034143   8.5279538  84.3878940
  77.7719498   8.9964649  83.7073087  78.8891693   6.4519031  88.9664861
  78.3856489   6.4149166  88.1532666  79.1822300   7.3611774  89.0261518
  75.1334579   6.5357761  87.9731043  75.9987576   6.3400569  87.6136932
  75.2012088   6.3068113  88.9000399  84.7479709  16.8255342  81.4441236
  83.9709152  16.4866501  80.9996398  85.4271190  16.8307965  80.7696201
  79.5631738  11.9450079  81.3347844  79.2581874  12.2596228  82.1857987
  80.5162181  12.0231499  81.3775177  78.0078170  18.1040302  82.9840798
  77.4799532  17.3693062  82.6714035  77.5065673  18.8814979  82.7380766
  82.9871016  16.2989323  88.1007844  82.3294691  16.9888584  88.1887973
  83.7911416  16.6885755  88.4441831  72.7396898   8.7659969  85.3447409
  73.3140650   8.5435150  84.6120602  73.3267880   8.8348663  86.0976011
  81.7976475  14.6533696  86.1511786  82.3108357  15.2863687  86.6533496
  82.4477699  14.0534891  85.7855146  73.0666485  10.7964430  79.3643295
  72.2303797  11.1339116  79.6852569  72.9271255  10.6613410  78.4270432
  75.0419566   5.6401218  84.0722479  74.3883978   5.3250235  83.4479094
  75.0000040   5.0176958  84.7982302  76.1530771  15.9220513  75.9875771
  75.2457832  15.6909766  76.1866920  76.6501802  15.1258132  76.1749752
  79.0598849  24.6318020  78.9072457  78.3860548  24.9349717  79.5157415
  79.4464671  25.4347100  78.5577914  78.2757306  12.1283151  88.3970126
  77.3579867  12.3498098  88.2391815  78.6917450  12.2029462  87.5381834
  79.0592354  13.5274567  83.5272807  79.8064173  14.0395964  83.2179929
  79.3283943  13.2058620  84.3877200  77.3319004  16.0233108  80.5099761
  76.4230223  15.7392140  80.6072231  77.3614088  16.4432186  79.6503068
  82.5638271  19.6339697  84.2790929  82.1100598  18.7930607  84.3356119
  81.9332238  20.2701095  84.6165709  81.5071191  10.5631683  85.5091596
  80.7693948  10.0509069  85.8401839  81.7597964  10.1232065  84.6974873
  81.0071211  21.4716194  85.2140747  81.2994185  22.0321251  84.4953112
  81.5169831  21.7644755  85.9693906  67.9007174  13.7438622  84.4914963
  67.7031574  13.1507982  83.7666030  67.3453838  13.4390832  85.2090902
  75.8803898  13.6361728  86.6109556  75.9352508  12.6835565  86.5352033
  75.0695100  13.7921167  87.0950855  77.0295092  17.5641851  77.8487840
  76.5914522  16.8477710  77.3893477  77.7705533  17.7917966  77.2872931
  73.8196258  12.2538788  84.3699935  73.0064123  12.5532958  84.7765127
  74.3155252  11.8594477  85.0874417  75.9704836  22.2496545  86.3034200
  75.9281015  22.4757391  85.3742732  76.8867535  22.0159919  86.4520001
  79.4170470  12.7180612  93.2014829  79.7719857  12.9452085  94.0609295
  80.0642601  13.0498989  92.5792084  85.1468207  15.8399048  83.9064158
  85.0086105  16.0300644  82.9785347  84.7904425  16.6018431  84.3632209
  73.3110333   9.8257143  89.9861170  73.9509712   9.6845903  89.2884134
  72.4787863   9.5391657  89.6099772  85.1737586  17.9075575  88.9175430
  85.6074093  17.8150864  89.7658484  85.8869167  17.8833076  88.2795446
  74.0870637  19.1259574  86.0996163  74.8811235  18.6309894  85.8978738
  73.3762329  18.5977437  85.7363868  78.9065481  21.5077669  90.4508530
  78.9602503  22.0768606  91.2186246  78.0380262  21.6779554  90.0862567
  70.3953400  13.2702656  82.1755915  69.4650988  13.2087111  82.3925877
  70.4910872  12.7478608  81.3792557  70.3138949   9.7957468  84.7634157
  70.5745766  10.7102802  84.6543317  71.1356121   9.3281911  84.9130770
  71.7863874  11.2095226  91.9332982  72.4586928  11.0012588  91.2845630
  70.9593661  11.0117312  91.4938214  86.0353136  17.9499276  91.4508315
  86.2289026  18.8545086  91.6967590  85.9353754  17.4906695  92.2846900
  77.6889446   7.8357166  93.9498642  77.0417361   8.5347116  93.8563119
  78.4590462   8.2693310  94.3174891  81.0968244  18.1006019  97.0249196
  80.9453751  17.8716570  96.1079279  81.0872924  19.0576620  97.0380541
  77.8653581  15.6737931  92.0095462  78.7945641  15.8249091  91.8364429
  77.4444611  15.7621952  91.1544109  76.6641913  19.6988596  89.7794000
  76.5252998  19.3307380  90.6519938  75.8756509  20.2136235  89.6077958
  77.2590065  24.7997692  81.1219536  77.4341820  24.3285735  81.9365159
  76.5722853  25.4263458  81.3500797  78.2147128  19.0770199  87.1682838
  77.8796960  19.0370968  88.0640487  77.7151073  18.4114914  86.6953248
  72.1891372  14.4837829  92.6935419  72.0511170  13.7518067  93.2946958
  73.0996295  14.3946729  92.4119606  81.1506319  16.4226233  77.4419897
  80.5335490  15.6973061  77.3452950  80.6822808  17.1835593  77.0986971
  74.8173672  14.1957788  92.1819098  75.5273291  13.5550980  92.1405717
  74.7742980  14.4470683  93.1045279  82.8060451  21.1325141  95.1025678
  82.7472997  20.4484361  94.4356261  83.2079969  21.8744131  94.6506304
  73.5302606  11.1823006  94.0014738  72.9939963  10.7313744  94.6536334
  72.9419315  11.3168915  93.2585202  71.8251150  27.9487055  87.8959396
  72.0647748  28.5805579  88.5738415  70.9820346  27.5975095  88.1824756
  72.9404865  10.6411657  76.5641201  72.0634332  10.5200458  76.2003448
  73.4162618   9.8497735  76.3120090  82.8077858  19.0964725  93.3339657
  81.9204637  18.7590647  93.4566056  83.3776409  18.3647756  93.5708423
  64.4607005  15.4288817  86.6582709  65.1478045  15.1150547  86.0703724
  64.3055134  16.3330182  86.3849960  69.2641728  10.3179013  91.0867732
  69.1799916   9.7104683  90.3518142  68.4424434  10.8088032  91.0877229
  76.3379012  23.7566177  90.3000900  76.2649183  24.5621149  90.8120205
  75.8956405  23.9558143  89.4748922  76.1268791  22.9937948  83.8103722
  75.3436313  23.5359628  83.9041946  76.8261536  23.5111927  84.2097963
  79.4365441   8.8032577  86.4537927  79.9334141   8.0502539  86.1338998
  78.6652423   8.8396894  85.8881137  87.2895199  14.5072943  88.0956219
  87.2785075  15.3897658  87.7250152  86.4212578  14.1544493  87.9010756
  78.7977695  23.6553012  92.4559059  79.5105667  24.2900476  92.3834961
  78.3067724  23.7516878  91.6399061  80.5195222  17.5604264  84.0276351
  79.5851501  17.6805727  83.8581055  80.6971891  16.6576731  83.7636361
  76.0200410  10.9449960  86.1809612  75.6498198  10.3921000  86.8690518
  76.5159503  10.3408093  85.6284612  83.9067773  13.4021583  84.5626385
  84.3728226  14.2349575  84.4886688  84.3575274  12.9366565  85.2671643
  73.8489609  21.4047455  93.2764630  74.5499068  22.0383938  93.4294024
  73.3784724  21.7462187  92.5160269  81.9744005  19.7465405  81.5612537
  82.2503848  19.6321999  82.4706411  81.1048503  19.3482890  81.5224710
  81.8784436   5.7702170  88.6017286  80.9647516   6.0006397  88.7699493
  82.3077538   5.8540615  89.4531319  81.6490895  13.9592062  91.1017180
  80.9962345  14.2067970  90.4469633  82.0271275  13.1456201  90.7679658
  78.6098069  23.9951756  85.2045351  78.7920463  23.1773412  85.6673103
  79.4331055  24.2119448  84.7670241  78.9440234  22.9219941  82.4660399
  79.4728001  22.4112395  81.8530561  79.2068454  22.6062471  83.3305932
  77.6978468  14.7011873  97.5883217  77.0219105  14.6006003  98.2585593
  78.5206102  14.5451087  98.0519215  69.4457327  20.9383810  90.2095733
  70.0310764  20.1927498  90.3423637  69.2482165  21.2487767  91.0932396
  72.2995982  23.9735057  85.2258175  71.6306357  24.4581185  84.7422215
  72.1608852  24.2204278  86.1401553  64.0374982  13.5089410  88.9300176
  64.0759081  12.9753001  89.7237294  63.5315274  12.9824616  88.3111153
  76.4401251  26.0078801  91.8240833  76.9919559  26.1710422  92.5889919
  76.7807444  26.5983239  91.1520858  71.4165744   8.3553951  92.4262718
  71.4807070   9.2168782  92.0140116  71.3532864   7.7427952  91.6935077
  70.8918016  10.4277083  96.0735752  71.5190055  10.0454161  96.6873277
  70.0345935  10.2091285  96.4391445  81.2912125  20.8340058  97.6789488
  81.8352029  21.4470017  97.1844443  80.7098970  21.3919637  98.1956501
  67.6683559  12.2353512  82.0054107  67.9637000  11.3264191  81.9521161
  66.7671595  12.2141252  81.6835109  79.5769638  23.9560776  88.8104516
  79.4520777  23.1550516  88.3015461  80.2348729  24.4506970  88.3218485
  71.1977806  10.3109509  87.9881656  70.4764392  10.9245477  87.8489129
  71.9871062  10.8467274  87.9098302  81.6404546  21.7569797  90.4384066
  80.6934882  21.6375148  90.3662392  81.9887319  20.8692295  90.5210327
  74.0004120   7.6463935  94.2622307  74.5238521   7.8926232  95.0248617
  73.7816453   8.4783970  93.8425445  69.3971401   9.9167610  82.1293432
  69.0684107   9.0364989  81.9468538  69.7510771   9.8615279  83.0169822
  78.6450980  21.5522513  86.6388418  78.4975942  20.6239220  86.8195988
  79.4704473  21.5742603  86.1545493  72.5113224  10.2040580  82.4968910
  72.8509296  10.7326501  81.7747518  72.9585344  10.5420986  83.2727476
  82.2485101  22.3751071  87.7253291  83.1731649  22.1693933  87.5877742
  82.0800405  22.1267473  88.6342632  75.2056665   8.5877631  91.9471978
  74.8653485   7.7885444  92.3492658  74.4995671   8.8879341  91.3748811
  75.8573136   5.6726943  90.3999301  76.6799206   5.1987421  90.2778191
  76.1011200   6.4517427  90.8997987  74.4981371   8.7015201  80.6962203
  75.2189733   9.0796454  80.1925920  73.8746675   9.4204078  80.7997181
  78.6412494   9.4060350  81.6320535  78.8576108  10.2884988  81.3309363
  78.1606561   9.0146564  80.9026177  73.3811715  12.3646064  88.2091280
  73.2356296  12.6786367  89.1015561  72.9036919  12.9830964  87.6562178
  75.2408098   9.3548612  88.2572169  75.2269667   8.4589705  87.9204467
  75.9580526   9.3619275  88.8910455  77.0934229   9.7885952  90.3025297
  76.8352007  10.7103022  90.3009627  76.5619269   9.3916386  90.9925761
  82.0380418  22.8936739  83.0815382  82.2117295  22.3283161  82.3289234
  82.5309309  23.6937634  82.8994872  67.8557377  14.9051408  91.1478941
  67.3110845  15.6811216  91.2799215  68.7336727  15.2522213  90.9898062
  74.6444994   8.2362992  83.5259739  74.7660905   7.3079638  83.7250627
  74.3547036   8.2501678  82.6138055  77.5136184   5.9217902  86.6626459
  77.5357881   5.9857235  85.7078439  77.9304243   5.0822411  86.8566965
  87.8919809  15.6573162  84.7005682  88.3350955  14.9080487  84.3024805
  87.0146319  15.6483298  84.3179414  83.0255590  22.2103503  80.1812280
  83.7206495  22.8310196  80.3999595  83.3678740  21.3598855  80.4564658
  68.6423399  14.0321304  94.0409098  67.9005135  14.1803940  94.6273728
  68.3216144  14.2929570  93.1775847  84.9247013  19.6603209  81.7099611
  85.4498337  19.9990482  80.9848931  84.8369366  18.7250224  81.5262746
  76.5867062  23.5737283  93.8389488  76.8954188  23.3286429  94.7112187
  77.3842544  23.7783921  93.3508358  76.6087674  25.7275192  86.0694864
  76.1692664  25.2351571  86.7627721  77.3595791  25.1848160  85.8286939
  69.0880013  21.9186733  86.0719492  69.9138033  21.6190505  85.6918136
  68.7374065  21.1494355  86.5209281  74.0561546  21.2713201  88.1417166
  73.4341555  20.6083906  87.8419394  74.7266413  21.2974333  87.4590814
  67.2888618  19.8373059  87.0308426  66.4520526  19.4095234  86.8492427
  67.2612263  20.0305503  87.9679217  74.1286074   9.7494989  97.7349672
  74.1774229  10.6257112  97.3527442  74.6708588   9.2072382  97.1621315
  84.6140919  20.2936113  97.0150809  83.8236463  20.2760251  96.4755308
  84.3774274  20.8324406  97.7699846  84.7338794  17.1428579  94.3283538
  84.7836799  16.9778586  95.2699060  84.6252718  16.2755838  93.9381418
  73.6175053  19.8217125  81.6175626  73.7663173  20.5052589  80.9642299
  74.4241496  19.8022215  82.1325082  82.0242557  13.1259507  95.6442844
  82.9252419  12.9865972  95.3526842  82.0990531  13.2913962  96.5841022
  76.3585362  10.5026362  94.4896031  75.4888671  10.7959928  94.2178619
  76.5944842  11.0866807  95.2103294  86.2356991  19.5625520  94.5725559
  85.9441799  19.9255501  95.4089020  85.6229122  18.8492529  94.3938891
  87.4352673  17.1278400  87.0928129  88.2699565  17.5668204  87.2565690
  87.5711802  16.6517053  86.2736375  84.4844179  14.6858135  93.0405617
  84.9598301  14.8785781  92.2324468  83.5609745  14.7417321  92.7949001
  71.3727686  15.8482302  82.6236695  71.1273728  14.9444632  82.8216906
  71.5423601  15.8499453  81.6816173  79.0624396   6.7205979  92.0061451
  79.5806340   7.4567006  91.6807940  78.7079529   7.0269972  92.8408210
  70.6423334  11.5810660  80.1222857  69.9492578  11.6555015  79.4662893
  70.3975085  10.8171003  80.6444374  77.1170459  22.3165255  79.0887374
  76.5444426  22.9355442  78.6357846  77.6903252  22.8664617  79.6227296
  83.1845848  11.5623895  91.2733923  84.1363271  11.6621993  91.2946147
  83.0149299  10.7702164  91.7832007  81.2060228   8.6479478  91.4593324
  80.6110160   8.9284491  90.7639812  80.9209925   9.1373379  92.2310065
  80.3367718  22.6002405  80.2195956  81.2698391  22.5347967  80.4228832
  80.2490931  23.4358672  79.7610489  82.9655735  21.9168276  77.1799904
  82.8869367  21.5828139  78.0735662  83.7865402  22.4090043  77.1791376
  85.6633926  14.7830015  90.3876222  85.6310246  13.8446016  90.5735906
  86.2734550  14.8614052  89.6542047  77.5017257  13.6526068  76.4303426
  78.4476362  13.5232276  76.4991844  77.1231502  12.9140730  76.9072855
  85.8128415  11.5741058  90.4334506  85.2967463  10.7899515  90.2464434
  86.6968363  11.2459775  90.5981025  83.4739142   5.3182074  86.3930318
  83.2763963   5.0097162  87.2773650  84.0838847   6.0443713  86.5228248
  91.4810476  15.8446022  89.5282259  92.2113865  15.5831310  90.0889962
  90.8717422  15.1074744  89.5684327  89.5625773  13.9853884  90.1256710
  88.8358937  13.8509849  89.5173202  89.1473060  14.2930713  90.9313428
  77.3855950  17.7043814  97.8904083  78.3058959  17.8822413  98.0844130
  77.3505533  16.7599859  97.7383783  75.6860174  11.5776044  76.3658312
  74.7791630  11.2809157  76.4421025  75.9636155  11.2805862  75.4992598
  66.6038115  12.8982408  86.8157358  66.2840899  12.0447716  86.5231732
  66.0571543  13.1130986  87.5715325  70.3818022  15.6144849  90.5326865
  70.6004032  16.5461956  90.5514898  70.7943796  15.2552823  91.3181668
  77.3022240   6.1212934  82.5202553  76.4922968   5.7760019  82.8957799
  77.9906657   5.8120478  83.1090164  79.2312788   5.1990981  84.1426850
  79.7843827   5.6186434  84.8016873  79.4682875   4.2726729  84.1849806
  75.2545887  11.1878054  99.9229613  75.1542614  12.1372411  99.8541705
  75.0367430  10.8596293  99.0505684  74.4558959   8.4362979  76.5070291
  75.3178123   8.7617878  76.7666108  74.6409303   7.6494475  75.9943357
  66.4726375  16.5185319  88.7850480  65.7789846  16.1039272  88.2720434
  67.2199366  16.5605856  88.1883898  82.6091595   7.3091506  83.6505514
  82.0290264   7.9676310  83.2683566  82.3427528   6.4868850  83.2392931
  81.0595162   6.7096564  85.8526834  81.5594940   6.8213098  85.0441153
  81.7030770   6.4057616  86.4927643  75.1177158  14.6175193  98.7394675
  74.6344239  15.4175553  98.9458564  75.2038097  14.6283138  97.7862119
  68.3863117  16.4503573  86.6616494  68.3633805  16.5491260  85.7098378
  68.6963754  17.2968724  86.9833661  71.0450495  18.5079728  90.7763109
  71.9993749  18.4763670  90.7093040  70.8463019  18.0470352  91.5913335
  71.6349877  17.0780844  93.3433907  72.4542766  17.5724923  93.3668744
  71.9086685  16.1612812  93.3151474  81.3916473   9.4691596  82.7061862
  80.5042328   9.7541247  82.4882057  81.8070462   9.3085360  81.8589139
  84.7431009   9.4938117  86.4216201  85.5191400   9.9834570  86.6940818
  84.0179144   9.9196171  86.8788071  87.1803568  10.2065736  87.4790142
  87.7748059   9.9661472  86.7683450  87.2530152   9.4872867  88.1063678
  69.4000724  24.0499347  87.7933307  69.2655192  23.2899748  87.2271305
  68.9832786  24.7740247  87.3262096  80.5359687  19.2336271  76.8009882
  81.2395537  19.4386273  77.4167538  79.8122336  19.8013033  77.0658966
  81.3657497  14.9846132  82.9212152  81.3092698  15.4414684  82.0819785
  81.9185840  14.2236817  82.7434995  85.1762303  10.7735864  83.7462272
  84.9199237  10.3732500  84.5770479  84.5515171  11.4879658  83.6212411
  89.4874641  13.5131937  86.2533563  88.9274199  13.5825127  87.0265125
  88.8818144  13.3372922  85.5333059  72.5569850  24.9468664  88.0051749
  72.4402234  25.8914097  87.9030440  71.7362296  24.6442226  88.3937549
  82.4446384  19.6718800  78.8508342  83.2791988  19.2399999  78.6685817
  82.2830727  19.5000814  79.7785237  82.0992276  16.1750913  80.2164681
  82.0441080  16.0095185  79.2753126  81.4738332  16.8826946  80.3726871
  66.8884791  11.4118978  94.0426104  67.5343655  10.9017932  94.5313329
  66.6801942  12.1487659  94.6169529  79.4138184  18.4799825  99.5418244
  80.2829343  18.6540478  99.1804879  78.9344935  19.2994242  99.4193974
  75.4088402   5.6759022  79.7950000  75.3967072   6.6200862  79.9518271
  76.3011824   5.4929168  79.5009461  73.5824364  25.5996926  91.2207678
  74.4851610  25.6320537  91.5374173  73.3561734  24.6697377  91.2354014
  75.3377966  24.3527913  87.8817756  74.3873597  24.3529774  87.7682129
  75.6410452  23.6060647  87.3653791  71.2282282   8.5586595  98.1401118
  72.0913744   8.2023400  98.3504442  70.6547693   8.2200490  98.8276522
  91.0730659  30.1888451  88.9463519  91.7109069  30.0695199  88.2426859
  90.9551502  31.1369295  89.0051471  87.8820366  30.1415879  88.8825044
  87.5438877  30.0256944  87.9945578  88.7510134  29.7407044  88.8626050
  83.7407181  31.9951356  84.8721934  83.1772046  31.9041293  84.1038222
  83.6259576  31.1751260  85.3524427  88.3640149  31.2950731  94.8411249
  88.3528789  30.9003529  93.9691753  88.5260788  30.5616804  95.4345021
  81.2871613  33.4902547  87.7106155  82.0792905  33.1493372  87.2952454
  81.5268263  33.5997522  88.6308308  89.3206740  35.6622323  80.1836399
  88.6694720  36.2476404  79.7970413  90.1151103  36.1928518  80.2431437
  83.2462367  32.7511461  80.5823534  84.0193243  32.2040448  80.4436410
  83.5987766  33.6155710  80.7937995  85.0847410  34.0787843  93.7890433
  84.7937276  34.9833474  93.6737099  85.7204394  34.1204370  94.5034503
  86.0103617  31.4564691  90.3791793  86.6067189  31.2320714  89.6648756
  86.0678588  30.7149437  90.9817241  85.5828645  28.9104127  78.2141984
  85.8354166  28.3885648  77.4525447  84.6453204  28.7470272  78.3168667
  90.6271928  27.9139905  86.0216727  91.4135017  27.4959328  85.6707144
  90.8910632  28.8185997  86.1898375  90.7982005  33.3512755  80.7205384
  90.1627838  33.4247382  81.4326288  90.4679412  33.9406354  80.0424463
  96.0280355  27.8515138  86.9249705  96.7605527  27.2814355  87.1587535
  95.2719711  27.4636739  87.3656211  85.3024934  30.8132233  80.4166359
  85.1861192  30.1377136  81.0847443  85.4127194  30.3264607  79.5998512
  87.6456475  30.2742380  84.1213048  87.2814682  29.7473001  84.8325969
  88.5023591  29.8840849  83.9479533  93.5505775  21.5636712  91.3844314
  93.2189100  22.4332123  91.1605529  92.9551389  21.2472996  92.0638344
  87.2861962  25.3032279  79.1174396  87.4536364  26.1712516  79.4844867
  87.0959131  25.4659561  78.1935686  90.0437295  33.7649258  90.7840227
  89.7438018  34.6674297  90.6756034  89.6988354  33.4981442  91.6361380
  83.4949776  30.2163055  86.8176931  82.5700273  30.0839269  87.0254623
  83.7434189  30.9957274  87.3146874  93.4434439  26.2831799  88.4637664
  92.5351316  26.2147207  88.1696425  93.3922034  26.7603743  89.2919490
  87.2651182  27.7589937  80.1021063  87.1450808  28.2046988  80.9406543
  86.5703771  28.1075255  79.5434601  80.8558587  29.8596329  87.6520720
  80.9850968  30.1130808  88.5660132  80.1756039  30.4524037  87.3325375
  85.0258075  40.5293579  83.7511194  84.9482104  41.4801404  83.8299675
  84.4219718  40.1839451  84.4086121  87.5175304  27.7021444  96.4072561
  86.7408638  28.2615364  96.3975426  88.1565867  28.1878227  96.9287431
  95.3096085  24.4848237  90.2415538  94.6670465  24.7780770  89.5955333
  94.8051014  24.3701157  91.0468735  92.9636249  28.2311410  80.9301397
  93.8754105  28.4638797  80.7549095  92.4545896  28.8148454  80.3676476
  85.7721677  30.5106898  95.9690528  86.5136361  31.0491941  95.6925352
  85.0658662  31.1373186  96.1262080  91.2477016  32.6536038  94.5662690
  91.6560372  32.2118448  93.8217322  90.5254278  32.0788665  94.8196883
  87.6008086  27.5908645  91.9396247  88.4469282  28.0148058  92.0830896
  87.5406724  26.9342269  92.6334810  91.5705831  33.2137229  88.3214979
  90.9414693  33.3782943  87.6191047  91.1831493  33.6278838  89.0925943
  95.4495063  34.1491666  85.6759342  94.7646101  34.5290568  85.1256376
  95.5338912  34.7586993  86.4091290  90.7507532  25.2513013  93.5977420
  90.5068464  26.0055074  93.0611696  91.0267462  25.6298361  94.4324667
  92.7045994  31.7951625  92.2754686  92.9162890  32.4383385  91.5989067
  92.6575743  30.9613942  91.8076616  90.3072223  24.4069446  89.1791258
  89.4456702  24.7050700  89.4707996  90.3334658  24.6239845  88.2472291
  87.1233793  32.9511637  85.5865064  87.5872138  33.2299340  84.7969686
  86.8590591  32.0495081  85.4038154  84.0157874  32.4983118  88.5244827
  84.5859231  32.9270387  87.8862312  84.6065986  32.2165703  89.2229013
  86.0602679  29.0734789  82.3954629  86.7626722  29.5255833  82.8628555
  85.7283307  28.4318608  83.0234522  84.5083040  27.6646546  96.7705838
  83.8781701  28.3462827  97.0041235  84.4019128  27.5529627  95.8258977
  79.8028013  27.3318342  87.6971762  79.0127067  27.5875870  87.2211873
  80.2939260  28.1466680  87.8023803  93.8191822  34.6723581  90.4477043
  94.6409266  34.2703768  90.1659725  93.8154225  34.5691815  91.3993159
  81.7542758  27.6962921  84.6555239  80.9573922  27.8081615  85.1738735
  81.5268350  28.0349573  83.7896130  87.5848426  34.2207624  92.6037754
  87.6492858  34.6828031  93.4395926  86.8759350  33.5904989  92.7320064
  78.0865716  27.5848832  90.1286753  78.3373754  28.4695842  90.3944329
  78.6225264  27.4053434  89.3561845 101.9097815  31.0162329  86.7962015
 101.1561524  30.4469727  86.6406019 102.0445357  30.9824994  87.7432649
  87.2996444  35.8875732  82.4716734  87.1642118  36.7327267  82.9001582
  87.8406256  36.0895009  81.7082668  83.7863783  21.9667312  99.1331089
  83.3930729  21.4133510  99.8078734  84.6029923  22.2777890  99.5237607
  80.7525841  33.4051170  83.0444659  81.2650361  34.1994420  83.1950224
  81.4048554  32.7077460  82.9778261  82.5620726  36.5216926  85.1267412
  82.7387354  37.4434891  84.9388396  83.3577559  36.2075345  85.5561792
  86.7031744  23.3825191  96.7251346  87.4441458  23.9832344  96.6455808
  86.9349667  22.6402828  96.1669389  81.8473082  28.5681558  95.0029576
  81.7326597  27.6666815  95.3036675  80.9917600  28.8145255  94.6514392
  88.9264920  36.5099298  96.6017076  88.4828774  35.7235677  96.2837981
  89.5882133  36.6978449  95.9360967  83.6852041  38.0395100  91.1277755
  84.2359466  37.9112163  90.3554749  82.8463517  38.3389989  90.7772648
  91.0246158  36.7902098  94.6298478  91.0064633  37.6110979  94.1378747
  91.9466078  36.6656173  94.8548619  87.4819212  34.3046228  95.4721986
  88.0147549  33.5434516  95.2421294  86.9533293  34.0119879  96.2146140
  90.6488907  19.4106294  91.0015628  90.3053176  20.3007935  90.9254738
  91.0167870  19.2207951  90.1385213  78.7174758  31.7339824  83.8204230
  79.5549980  32.1436832  83.6037937  78.8953025  30.7939266  83.7904424
  90.6139190  29.4014905  79.5088063  90.0985813  30.1719509  79.7476450
  90.3416498  28.7280041  80.1321124  88.1986301  24.2464605  84.5673301
  87.3427897  23.8571456  84.3878940  88.6113253  24.3256566  83.7073087
  89.7285447  21.7810949  88.9664861  89.2250243  21.7441084  88.1532666
  90.0216054  22.6903691  89.0261518  85.9728333  21.8649678  87.9731043
  86.8381330  21.6692487  87.6136932  86.0405842  21.6360030  88.9000399
  95.5873464  32.1547259  81.4441236  94.8102907  31.8158419  80.9996398
  96.2664945  32.1599882  80.7696201  90.4025493  27.2741997  81.3347844
  90.0975629  27.5888146  82.1857987  91.3555935  27.3523417  81.3775177
  88.8471925  33.4332220  82.9840798  88.3193286  32.6984980  82.6714035
  88.3459428  34.2106896  82.7380766  93.8264771  31.6281241  88.1007844
  93.1688445  32.3180502  88.1887973  94.6305170  32.0177673  88.4441831
  83.5790652  24.0951886  85.3447409  84.1534404  23.8727068  84.6120602
  84.1661635  24.1640581  86.0976011  92.6370230  29.9825613  86.1511786
  93.1502111  30.6155605  86.6533496  93.2871454  29.3826809  85.7855146
  83.9060240  26.1256347  79.3643295  83.0697552  26.4631034  79.6852569
  83.7665009  25.9905327  78.4270432  85.8813320  20.9693135  84.0722479
  85.2277732  20.6542152  83.4479094  85.8393794  20.3468876  84.7982302
  86.9924525  31.2512430  75.9875771  86.0851587  31.0201684  76.1866920
  87.4895557  30.4550050  76.1749752  89.8992604  39.9609938  78.9072457
  89.2254303  40.2641634  79.5157415  90.2858426  40.7639018  78.5577914
  89.1151060  27.4575069  88.3970126  88.1973622  27.6790016  88.2391815
  89.5311204  27.5321379  87.5381834  89.8986108  28.8566484  83.5272807
  90.6457927  29.3687882  83.2179929  90.1677698  28.5350537  84.3877200
  88.1712758  31.3525025  80.5099761  87.2623978  31.0684058  80.6072231
  88.2007842  31.7724104  79.6503068  93.4032026  34.9631615  84.2790929
  92.9494353  34.1222525  84.3356119  92.7725993  35.5993013  84.6165709
  92.3464945  25.8923601  85.5091596  91.6087702  25.3800987  85.8401839
  92.5991719  25.4523982  84.6974873  91.8464965  36.8008111  85.2140747
  92.1387939  37.3613169  84.4953112  92.3563586  37.0936672  85.9693906
  92.4476573  18.6699853  86.1033365  92.7535450  17.8097216  85.8159280
  93.1729178  19.2617473  85.9032359  78.7400929  29.0730539  84.4914963
  78.5425329  28.4799900  83.7666030  78.1847593  28.7682750  85.2090902
  86.7197652  28.9653646  86.6109556  86.7746262  28.0127482  86.5352033
  85.9088855  29.1213085  87.0950855  87.8688846  32.8933769  77.8487840
  87.4308276  32.1769628  77.3893477  88.6099287  33.1209884  77.2872931
  84.6590012  27.5830706  84.3699935  83.8457878  27.8824876  84.7765127
  85.1549007  27.1886394  85.0874417  86.8098590  37.5788462  86.3034200
  86.7674769  37.8049309  85.3742732  87.7261289  37.3451837  86.4520001
  90.2564224  28.0472530  93.2014829  90.6113612  28.2744003  94.0609295
  90.9036355  28.3790907  92.5792084  95.9861961  31.1690966  83.9064158
  95.8479860  31.3592562  82.9785347  95.6298180  31.9310349  84.3632209
  84.1504087  25.1549061  89.9861170  84.7903466  25.0137820  89.2884134
  83.3181618  24.8683574  89.6099772  96.0131341  33.2367493  88.9175430
  96.4467847  33.1442782  89.7658484  96.7262921  33.2124993  88.2795446
  84.9264391  34.4551491  86.0996163  85.7204990  33.9601812  85.8978738
  84.2156083  33.9269355  85.7363868  89.7459236  36.8369587  90.4508530
  89.7996258  37.4060523  91.2186246  88.8774017  37.0071472  90.0862567
  81.2347155  28.5994573  82.1755915  80.3044743  28.5379029  82.3925877
  81.3304627  28.0770526  81.3792557  81.1532704  25.1249386  84.7634157
  81.4139521  26.0394719  84.6543317  81.9749876  24.6573829  84.9130770
  82.6257629  26.5387143  91.9332982  83.2980682  26.3304505  91.2845630
  81.7987415  26.3409229  91.4938214  96.8746890  33.2791194  91.4508315
  97.0682780  34.1837004  91.6967590  96.7747508  32.8198613  92.2846900
  88.5283201  23.1649084  93.9498642  87.8811116  23.8639034  93.8563119
  89.2984216  23.5985228  94.3174891  91.9361999  33.4297936  97.0249196
  91.7847505  33.2008488  96.1079279  91.9266678  34.3868538  97.0380541
  88.7047335  31.0029849  92.0095462  89.6339395  31.1541009  91.8364429
  88.2838365  31.0913870  91.1544109  87.5035667  35.0280513  89.7794000
  87.3646753  34.6599298  90.6519938  86.7150263  35.5428153  89.6077958
  88.0983819  40.1289610  81.1219536  88.2735575  39.6577653  81.9365159
  87.4116607  40.7555376  81.3500797  89.0540882  34.4062116  87.1682838
  88.7190715  34.3662886  88.0640487  88.5544828  33.7406832  86.6953248
  83.0285126  29.8129746  92.6935419  82.8904924  29.0809985  93.2946958
  83.9390050  29.7238646  92.4119606  91.9900074  31.7518151  77.4419897
  91.3729244  31.0264979  77.3452950  91.5216562  32.5127511  77.0986971
  85.6567427  29.5249706  92.1819098  86.3667045  28.8842898  92.1405717
  85.6136735  29.7762600  93.1045279  93.6454206  36.4617059  95.1025678
  93.5866752  35.7776279  94.4356261  94.0473724  37.2036049  94.6506304
  84.3696361  26.5114923  94.0014738  83.8333718  26.0605662  94.6536334
  83.7813069  26.6460832  93.2585202  82.6644904  43.2778973  87.8959396
  82.9041503  43.9097497  88.5738415  81.8214101  42.9267013  88.1824756
  83.7798620  25.9703575  76.5641201  82.9028086  25.8492376  76.2003448
  84.2556373  25.1789653  76.3120090  93.6471613  34.4256643  93.3339657
  92.7598392  34.0882565  93.4566056  94.2170164  33.6939674  93.5708423
  75.3000760  30.7580735  86.6582709  75.9871800  30.4442465  86.0703724
  75.1448889  31.6622099  86.3849960  80.1035482  25.6470931  91.0867732
  80.0193671  25.0396601  90.3518142  79.2818188  26.1379949  91.0877229
  87.1772766  39.0858095  90.3000900  87.1042938  39.8913067  90.8120205
  86.7350159  39.2850061  89.4748922  86.9662546  38.3229865  83.8103722
  86.1830068  38.8651545  83.9041946  87.6655291  38.8403845  84.2097963
  90.2759196  24.1324495  86.4537927  90.7727895  23.3794457  86.1338998
  89.5046177  24.1688811  85.8881137  98.1288953  29.8364860  88.0956219
  98.1178830  30.7189576  87.7250152  97.2606333  29.4836411  87.9010756
  89.6371450  38.9844929  92.4559059  90.3499422  39.6192394  92.3834961
  89.1461478  39.0808795  91.6399061  91.3588977  32.8896182  84.0276351
  90.4245255  33.0097644  83.8581055  91.5365645  31.9868649  83.7636361
  86.8594165  26.2741878  86.1809612  86.4891952  25.7212918  86.8690518
  87.3553257  25.6700011  85.6284612  94.7461528  28.7313501  84.5626385
  95.2121980  29.5641493  84.4886688  95.1969028  28.2658483  85.2671643
  84.6883363  36.7339373  93.2764630  85.3892823  37.3675856  93.4294024
  84.2178478  37.0754104  92.5160269  92.8137759  35.0757322  81.5612537
  93.0897603  34.9613917  82.4706411  91.9442258  34.6774807  81.5224710
  92.7178191  21.0994088  88.6017286  91.8041270  21.3298315  88.7699493
  93.1471292  21.1832532  89.4531319  92.4884649  29.2883980  91.1017180
  91.8356099  29.5359888  90.4469633  92.8665029  28.4748118  90.7679658
  89.4491823  39.3243673  85.2045351  89.6314218  38.5065329  85.6673103
  90.2724809  39.5411366  84.7670241  89.7833989  38.2511858  82.4660399
  90.3121755  37.7404313  81.8530561  90.0462208  37.9354389  83.3305932
  88.5372222  30.0303791  97.5883217  87.8612859  29.9297920  98.2585593
  89.3599856  29.8743005  98.0519215  80.2851081  36.2675728  90.2095733
  80.8704518  35.5219416  90.3423637  80.0875920  36.5779684  91.0932396
  83.1389737  39.3026975  85.2258175  82.4700112  39.7873103  84.7422215
  83.0002606  39.5496196  86.1401553  74.8768736  28.8381328  88.9300176
  74.9152836  28.3044919  89.7237294  74.3709029  28.3116533  88.3111153
  87.2795005  41.3370719  91.8240833  87.8313313  41.5002340  92.5889919
  87.6201199  41.9275156  91.1520858  82.2559498  23.6845868  92.4262718
  82.3200825  24.5460699  92.0140116  82.1926619  23.0719870  91.6935077
  81.7311771  25.7569001  96.0735752  82.3583810  25.3746078  96.6873277
  80.8739690  25.5383203  96.4391445  92.1305879  36.1631976  97.6789488
  92.6745783  36.7761934  97.1844443  91.5492724  36.7211555  98.1956501
  78.5077314  27.5645430  82.0054107  78.8030755  26.6556108  81.9521161
  77.6065349  27.5433170  81.6835109  90.4163392  39.2852694  88.8104516
  90.2914532  38.4842434  88.3015461  91.0742483  39.7798888  88.3218485
  82.0371561  25.6401427  87.9881656  81.3158146  26.2537394  87.8489129
  82.8264816  26.1759191  87.9098302  92.4798301  37.0861714  90.4384066
  91.5328636  36.9667065  90.3662392  92.8281074  36.1984212  90.5210327
  84.8397874  22.9755853  94.2622307  85.3632276  23.2218150  95.0248617
  84.6210207  23.8075888  93.8425445  80.2365155  25.2459528  82.1293432
  79.9077861  24.3656907  81.9468538  80.5904526  25.1907196  83.0169822
  89.4844734  36.8814430  86.6388418  89.3369696  35.9531138  86.8195988
  90.3098228  36.9034521  86.1545493  83.3506978  25.5332498  82.4968910
  83.6903051  26.0618419  81.7747518  83.7979099  25.8712904  83.2727476
  93.0878856  37.7042989  87.7253291  94.0125403  37.4985851  87.5877742
  92.9194159  37.4559390  88.6342632  86.0450419  23.9169548  91.9471978
  85.7047240  23.1177361  92.3492658  85.3389425  24.2171259  91.3748811
  86.6966891  21.0018861  90.3999301  87.5192960  20.5279339  90.2778191
  86.9404955  21.7809344  90.8997987  85.3375125  24.0307119  80.6962203
  86.0583488  24.4088372  80.1925920  84.7140430  24.7495996  80.7997181
  89.4806248  24.7352268  81.6320535  89.6969863  25.6176906  81.3309363
  89.0000316  24.3438481  80.9026177  84.2205470  27.6937981  88.2091280
  84.0750050  28.0078284  89.1015561  83.7430673  28.3122882  87.6562178
  86.0801853  24.6840529  88.2572169  86.0663421  23.7881623  87.9204467
  86.7974281  24.6911193  88.8910455  87.9327983  25.1177870  90.3025297
  87.6745761  26.0394940  90.3009627  87.4013024  24.7208304  90.9925761
  92.8774172  38.2228657  83.0815382  93.0511050  37.6575079  82.3289234
  93.3703063  39.0229552  82.8994872  78.6951132  30.2343326  91.1478941
  78.1504600  31.0103134  91.2799215  79.5730482  30.5814130  90.9898062
  85.4838749  23.5654910  83.5259739  85.6054660  22.6371556  83.7250627
  85.1940791  23.5793596  82.6138055  88.3529939  21.2509820  86.6626459
  88.3751636  21.3149153  85.7078439  88.7697998  20.4114329  86.8566965
  98.7313563  30.9865080  84.7005682  99.1744709  30.2372405  84.3024805
  97.8540074  30.9775216  84.3179414  93.8649345  37.5395421  80.1812280
  94.5600249  38.1602114  80.3999595  94.2072495  36.6890772  80.4564658
  79.4817154  29.3613222  94.0409098  78.7398890  29.5095857  94.6273728
  79.1609898  29.6221488  93.1775847  95.7640768  34.9895127  81.7099611
  96.2892092  35.3282399  80.9848931  95.6763120  34.0542142  81.5262746
  87.4260816  38.9029200  93.8389488  87.7347943  38.6578347  94.7112187
  88.2236298  39.1075839  93.3508358  87.4481428  41.0567110  86.0694864
  87.0086419  40.5643489  86.7627721  88.1989545  40.5140078  85.8286939
  79.9273767  37.2478651  86.0719492  80.7531787  36.9482423  85.6918136
  79.5767819  36.4786273  86.5209281  84.8955301  36.6005119  88.1417166
  84.2735310  35.9375824  87.8419394  85.5660168  36.6266251  87.4590814
  78.1282372  35.1664977  87.0308426  77.2914281  34.7387152  86.8492427
  78.1006018  35.3597421  87.9679217  84.9679828  25.0786907  97.7349672
  85.0167984  25.9549030  97.3527442  85.5102342  24.5364300  97.1621315
  95.4534674  35.6228030  97.0150809  94.6630217  35.6052169  96.4755308
  95.2168028  36.1616324  97.7699846  95.5732549  32.4720497  94.3283538
  95.6230554  32.3070504  95.2699060  95.4646472  31.6047756  93.9381418
  84.4568808  35.1509042  81.6175626  84.6056928  35.8344507  80.9642299
  85.2635251  35.1314132  82.1325082  92.8636311  28.4551425  95.6442844
  93.7646174  28.3157889  95.3526842  92.9384286  28.6205879  96.5841022
  87.1979117  25.8318279  94.4896031  86.3282426  26.1251845  94.2178619
  87.4338597  26.4158724  95.2103294  97.0750746  34.8917438  94.5725559
  96.7835554  35.2547419  95.4089020  96.4622877  34.1784446  94.3938891
  98.2746428  32.4570318  87.0928129  99.1093319  32.8960122  87.2565690
  98.4105557  31.9808971  86.2736375  95.3237934  30.0150053  93.0405617
  95.7992055  30.2077699  92.2324468  94.4003499  30.0709239  92.7949001
  82.2121441  31.1774220  82.6236695  81.9667482  30.2736550  82.8216906
  82.3817355  31.1791370  81.6816173  89.9018150  22.0497896  92.0061451
  90.4200094  22.7858923  91.6807940  89.5473283  22.3561890  92.8408210
  81.4817088  26.9102577  80.1222857  80.7886333  26.9846932  79.4662893
  81.2368840  26.1462921  80.6444374  90.1530745  18.4698179  87.5262348
  90.4332498  17.8021368  88.1522774  90.9381351  18.6627274  87.0137011
  87.9564213  37.6457173  79.0887374  87.3838180  38.2647360  78.6357846
  88.5297007  38.1956534  79.6227296  94.0239603  26.8915813  91.2733923
  94.9757026  26.9913910  91.2946147  93.8543053  26.0994081  91.7832007
  92.0453982  23.9771396  91.4593324  91.4503914  24.2576409  90.7639812
  91.7603679  24.4665297  92.2310065  91.1761473  37.9294323  80.2195956
  92.1092146  37.8639885  80.4228832  91.0884686  38.7650590  79.7610489
  93.8049490  37.2460193  77.1799904  93.7263121  36.9120057  78.0735662
  94.6259156  37.7381961  77.1791376  96.5027681  30.1121933  90.3876222
  96.4704001  29.1737933  90.5735906  97.1128304  30.1905969  89.6542047
  88.3411012  28.9817985  76.4303426  89.2870116  28.8524194  76.4991844
  87.9625257  28.2432647  76.9072855  96.6522169  26.9032976  90.4334506
  96.1361218  26.1191433  90.2464434  97.5362118  26.5751693  90.5981025
  94.3132896  20.6473992  86.3930318  94.1157717  20.3389080  87.2773650
  94.9232602  21.3735630  86.5228248 102.3204231  31.1737939  89.5282259
 103.0507619  30.9123227  90.0889962 101.7111176  30.4366661  89.5684327
 100.4019528  29.3145802  90.1256710  99.6752691  29.1801767  89.5173202
  99.9866815  29.6222631  90.9313428  88.2249704  33.0335732  97.8904083
  89.1452714  33.2114331  98.0844130  88.1899287  32.0891777  97.7383783
  86.5253929  26.9067962  76.3658312  85.6185384  26.6101075  76.4421025
  86.8029910  26.6097780  75.4992598  77.4431869  28.2274325  86.8157358
  77.1234653  27.3739633  86.5231732  76.8965297  28.4422903  87.5715325
  81.2211777  30.9436766  90.5326865  81.4397786  31.8753874  90.5514898
  81.6337550  30.5844741  91.3181668  88.1415994  21.4504852  82.5202553
  87.3316723  21.1051937  82.8957799  88.8300411  21.1412395  83.1090164
  90.0706543  20.5282898  84.1426850  90.6237581  20.9478352  84.8016873
  90.3076629  19.6018646  84.1849806  86.0939642  26.5169972  99.9229613
  85.9936369  27.4664329  99.8541705  85.8761184  26.1888211  99.0505684
  85.2952713  23.7654897  76.5070291  86.1571877  24.0909795  76.7666108
  85.4803057  22.9786393  75.9943357  77.3120129  31.8477237  88.7850480
  76.6183601  31.4331190  88.2720434  78.0593120  31.8897773  88.1883898
  93.4485350  22.6383424  83.6505514  92.8684019  23.2968228  83.2683566
  93.1821282  21.8160768  83.2392931  91.8988916  22.0388481  85.8526834
  92.3988695  22.1505016  85.0441153  92.5424524  21.7349534  86.4927643
  85.9570912  29.9467111  98.7394675  85.4737994  30.7467471  98.9458564
  86.0431851  29.9575056  97.7862119  79.2256872  31.7795491  86.6616494
  79.2027560  31.8783178  85.7098378  79.5357508  32.6260641  86.9833661
  81.8844249  33.8371646  90.7763109  82.8387503  33.8055588  90.7093040
  81.6856773  33.3762269  91.5913335  82.4743632  32.4072762  93.3433907
  83.2936521  32.9016840  93.3668744  82.7480439  31.4904730  93.3151474
  92.2310228  24.7983514  82.7061862  91.3436083  25.0833165  82.4882057
  92.6464217  24.6377277  81.8589139  95.5824764  24.8230035  86.4216201
  96.3585154  25.3126487  86.6940818  94.8572898  25.2488089  86.8788071
  98.0197323  25.5357654  87.4790142  98.6141813  25.2953390  86.7683450
  98.0923906  24.8164785  88.1063678  80.2394478  39.3791265  87.7933307
  80.1048946  38.6191666  87.2271305  79.8226541  40.1032165  87.3262096
  91.3753441  34.5628189  76.8009882  92.0789291  34.7678191  77.4167538
  90.6516090  35.1304950  77.0658966  92.2051252  30.3138050  82.9212152
  92.1486453  30.7706601  82.0819785  92.7579594  29.5528734  82.7434995
  96.0156057  26.1027782  83.7462272  95.7592992  25.7024417  84.5770479
  95.3908926  26.8171576  83.6212411 100.3268395  28.8423855  86.2533563
  99.7667953  28.9117044  87.0265125  99.7211899  28.6664840  85.5333059
  83.3963604  40.2760582  88.0051749  83.2795988  41.2206015  87.9030440
  82.5756050  39.9734144  88.3937549  93.2840139  35.0010718  78.8508342
  94.1185743  34.5691916  78.6685817  93.1224482  34.8292731  79.7785237
  92.9386031  31.5042831  80.2164681  92.8834835  31.3387103  79.2753126
  92.3132086  32.2118864  80.3726871  77.7278546  26.7410895  94.0426104
  78.3737409  26.2309849  94.5313329  77.5195697  27.4779577  94.6169529
  90.2531938  33.8091743  99.5418244  91.1223098  33.9832395  99.1804879
  89.7738690  34.6286160  99.4193974  86.2482156  21.0050940  79.7950000
  86.2360826  21.9492780  79.9518271  87.1405578  20.8221086  79.5009461
  84.4218118  40.9288844  91.2207678  85.3245365  40.9612454  91.5374173
  84.1955488  39.9989295  91.2354014  86.1771720  39.6819831  87.8817756
  85.2267351  39.6821692  87.7682129  86.4804206  38.9352565  87.3653791
  90.0634276  17.5993717  84.0495937  89.2966672  17.0452203  84.1952619
  90.4744981  17.6715586  84.9110088  82.0676037  23.8878513  98.1401118
  82.9307498  23.5315317  98.3504442  81.4941448  23.5492407  98.8276522
 101.9124414  45.5180369  88.9463519 102.5502824  45.3987116  88.2426859
 101.7945257  46.4661213  89.0051471  98.7214120  45.4707797  88.8825044
  98.3832632  45.3548862  87.9945578  99.5903888  45.0698962  88.8626050
  94.5800936  47.3243273  84.8721934  94.0165801  47.2333210  84.1038222
  94.4653331  46.5043178  85.3524427  99.2033903  46.6242649  94.8411249
  99.1922544  46.2295447  93.9691753  99.3654543  45.8908721  95.4345021
  92.1265368  48.8194465  87.7106155  92.9186660  48.4785290  87.2952454
  92.3662018  48.9289440  88.6308308 100.1600494  50.9914241  80.1836399
  99.5088474  51.5768322  79.7970413 100.9544857  51.5220436  80.2431437
  94.0856122  48.0803378  80.5823534  94.8586998  47.5332365  80.4436410
  94.4381521  48.9447628  80.7937995  95.9241164  49.4079761  93.7890433
  95.6331030  50.3125391  93.6737099  96.5598149  49.4496288  94.5034503
  96.8497371  46.7856609  90.3791793  97.4460943  46.5612631  89.6648756
  96.9072343  46.0441355  90.9817241  96.4222399  44.2396044  78.2141984
  96.6747920  43.7177566  77.4525447  95.4846959  44.0762190  78.3168667
 101.4665682  43.2431823  86.0216727 102.2528772  42.8251246  85.6707144
 101.7304387  44.1477915  86.1898375 101.6375760  48.6804673  80.7205384
 101.0021593  48.7539300  81.4326288 101.3073166  49.2698272  80.0424463
 106.8674109  43.1807056  86.9249705 107.5999281  42.6106273  87.1587535
 106.1113465  42.7928656  87.3656211  96.1418688  46.1424150  80.4166359
  96.0254946  45.4669054  81.0847443  96.2520948  45.6556524  79.5998512
  98.4850229  45.6034297  84.1213048  98.1208436  45.0764918  84.8325969
  99.3417345  45.2132767  83.9479533 104.3899530  36.8928630  91.3844314
 104.0582855  37.7624041  91.1605529 103.7945143  36.5764914  92.0638344
  98.1255716  40.6324197  79.1174396  98.2930118  41.5004434  79.4844867
  97.9352885  40.7951479  78.1935686 100.8831049  49.0941176  90.7840227
 100.5831772  49.9966215  90.6756034 100.5382109  48.8273359  91.6361380
  94.3343531  45.5454973  86.8176931  93.4094027  45.4131187  87.0254623
  94.5827944  46.3249192  87.3146874 104.2828193  41.6123716  88.4637664
 103.3745070  41.5439125  88.1696425 104.2315789  42.0895661  89.2919490
  98.1044937  43.0881855  80.1021063  97.9844562  43.5338905  80.9406543
  97.4097525  43.4367172  79.5434601  91.6952342  45.1888246  87.6520720
  91.8244723  45.4422725  88.5660132  91.0149793  45.7815954  87.3325375
  95.8651829  55.8585496  83.7511194  95.7875859  56.8093321  83.8299675
  95.2613473  55.5131369  84.4086121  98.3569059  43.0313362  96.4072561
  97.5802393  43.5907282  96.3975426  98.9959622  43.5170145  96.9287431
 106.1489839  39.8140155  90.2415538 105.5064220  40.1072688  89.5955333
 105.6444768  39.6993075  91.0468735 103.8030003  43.5603328  80.9301397
 104.7147859  43.7930715  80.7549095 103.2939650  44.1440372  80.3676476
  96.6115431  45.8398815  95.9690528  97.3530116  46.3783859  95.6925352
  95.9052417  46.4665104  96.1262080 102.0870771  47.9827956  94.5662690
 102.4954127  47.5410366  93.8217322 101.3648032  47.4080583  94.8196883
  98.4401841  42.9200562  91.9396247  99.2863036  43.3439976  92.0830896
  98.3800479  42.2634187  92.6334810 102.4099585  48.5429146  88.3214979
 101.7808448  48.7074860  87.6191047 102.0225248  48.9570756  89.0925943
 106.2888817  49.4783584  85.6759342 105.6039855  49.8582485  85.1256376
 106.3732667  50.0878911  86.4091290 101.5901286  40.5804931  93.5977420
 101.3462218  41.3346991  93.0611696 101.8661217  40.9590278  94.4324667
 103.5439749  47.1243543  92.2754686 103.7556644  47.7675303  91.5989067
 103.4969497  46.2905860  91.8076616 101.1465978  39.7361364  89.1791258
 100.2850457  40.0342617  89.4707996 101.1728413  39.9531763  88.2472291
  97.9627547  48.2803554  85.5865064  98.4265893  48.5591257  84.7969686
  97.6984345  47.3786999  85.4038154  94.8551628  47.8275036  88.5244827
  95.4252985  48.2562304  87.8862312  95.4459740  47.5457621  89.2229013
  96.8996433  44.4026707  82.3954629  97.6020477  44.8547750  82.8628555
  96.5677062  43.7610526  83.0234522  95.3476795  42.9938463  96.7705838
  94.7175455  43.6754744  97.0041235  95.2412883  42.8821545  95.8258977
  90.6421767  42.6610259  87.6971762  89.8520821  42.9167788  87.2211873
  91.1333015  43.4758597  87.8023803 104.6585577  50.0015499  90.4477043
 105.4803021  49.5995686  90.1659725 104.6547980  49.8983733  91.3993159
  92.5936513  43.0254839  84.6555239  91.7967676  43.1373533  85.1738735
  92.3662105  43.3641491  83.7896130  98.4242180  49.5499542  92.6037754
  98.4886613  50.0119949  93.4395926  97.7153104  48.9196907  92.7320064
  88.9259470  42.9140750  90.1286753  89.1767509  43.7987760  90.3944329
  89.4619019  42.7345351  89.3561845 112.7491570  46.3454247  86.7962015
 111.9955278  45.7761645  86.6406019 112.8839111  46.3116912  87.7432649
  98.1390198  51.2167649  82.4716734  98.0035873  52.0619185  82.9001582
  98.6800011  51.4186927  81.7082668  94.6257538  37.2959229  99.1331089
  94.2324483  36.7425428  99.8078734  95.4423678  37.6069808  99.5237607
  91.5919595  48.7343087  83.0444659  92.1044116  49.5286338  83.1950224
  92.2442308  48.0369378  82.9778261  93.4014480  51.8508844  85.1267412
  93.5781108  52.7726808  84.9388396  94.1971314  51.5367263  85.5561792
  97.5425499  38.7117108  96.7251346  98.2835212  39.3124261  96.6455808
  97.7743421  37.9694746  96.1669389  92.6866837  43.8973476  95.0029576
  92.5720352  42.9958733  95.3036675  91.8311354  44.1437172  94.6514392
  99.7658674  51.8391216  96.6017076  99.3222529  51.0527594  96.2837981
 100.4275888  52.0270366  95.9360967  94.5245796  53.3687017  91.1277755
  95.0753221  53.2404081  90.3554749  93.6857271  53.6681906  90.7772648
 101.8639912  52.1194016  94.6298478 101.8458388  52.9402897  94.1378747
 102.7859832  51.9948091  94.8548619  98.3212967  49.6338145  95.4721986
  98.8541303  48.8726433  95.2421294  97.7927048  49.3411797  96.2146140
 101.4882662  34.7398211  91.0015628 101.1446931  35.6299853  90.9254738
 101.8561624  34.5499869  90.1385213  89.5568512  47.0631742  83.8204230
  90.3943734  47.4728750  83.6037937  89.7346780  46.1231184  83.7904424
 101.4532944  44.7306822  79.5088063 100.9379568  45.5011427  79.7476450
 101.1810253  44.0571959  80.1321124  99.0380055  39.5756523  84.5673301
  98.1821652  39.1863374  84.3878940  99.4507007  39.6548484  83.7073087
 100.5679202  37.1102866  88.9664861 100.0643998  37.0733002  88.1532666
 100.8609809  38.0195609  89.0261518  96.8122088  37.1941596  87.9731043
  97.6775085  36.9984405  87.6136932  96.8799597  36.9651948  88.9000399
 106.4267218  47.4839177  81.4441236 105.6496661  47.1450336  80.9996398
 107.1058699  47.4891800  80.7696201 101.2419247  42.6033914  81.3347844
 100.9369383  42.9180064  82.1857987 102.1949690  42.6815334  81.3775177
  99.6865679  48.7624138  82.9840798  99.1587041  48.0276897  82.6714035
  99.1853182  49.5398814  82.7380766 104.6658525  46.9573158  88.1007844
 104.0082200  47.6472420  88.1887973 105.4698925  47.3469590  88.4441831
  94.4184407  39.4243804  85.3447409  94.9928159  39.2018986  84.6120602
  95.0055389  39.4932499  86.0976011 103.4763984  45.3117531  86.1511786
 103.9895866  45.9447523  86.6533496 104.1265208  44.7118726  85.7855146
  94.7453994  41.4548265  79.3643295  93.9091306  41.7922952  79.6852569
  94.6058764  41.3197245  78.4270432  96.7207075  36.2985053  84.0722479
  96.0671487  35.9834070  83.4479094  96.6787549  35.6760793  84.7982302
  97.8318279  46.5804348  75.9875771  96.9245341  46.3493601  76.1866920
  98.3289311  45.7841967  76.1749752 100.7386358  55.2901855  78.9072457
 100.0648057  55.5933552  79.5157415 101.1252180  56.0930936  78.5577914
  99.9544815  42.7866986  88.3970126  99.0367376  43.0081933  88.2391815
 100.3704959  42.8613297  87.5381834 100.7379863  44.1858402  83.5272807
 101.4851682  44.6979799  83.2179929 101.0071452  43.8642455  84.3877200
  99.0106513  46.6816943  80.5099761  98.1017732  46.3975976  80.6072231
  99.0401597  47.1016021  79.6503068 104.2425780  50.2923532  84.2790929
 103.7888107  49.4514442  84.3356119 103.6119747  50.9284931  84.6165709
 103.1858700  41.2215518  85.5091596 102.4481457  40.7092905  85.8401839
 103.4385473  40.7815900  84.6974873 102.6858720  52.1300029  85.2140747
 102.9781694  52.6905086  84.4953112 103.1957340  52.4228590  85.9693906
 103.2870327  33.9991770  86.1033365 103.5929204  33.1389134  85.8159280
 104.0122932  34.5909391  85.9032359  89.5794683  44.4022457  84.4914963
  89.3819083  43.8091818  83.7666030  89.0241347  44.0974667  85.2090902
  97.5591407  44.2945563  86.6109556  97.6140017  43.3419400  86.5352033
  96.7482609  44.4505003  87.0950855  98.7082601  48.2225687  77.8487840
  98.2702031  47.5061545  77.3893477  99.4493042  48.4501801  77.2872931
  95.4983767  42.9122623  84.3699935  94.6851632  43.2116794  84.7765127
  95.9942761  42.5178312  85.0874417  97.6492345  52.9080380  86.3034200
  97.6068524  53.1341226  85.3742732  98.5655044  52.6743755  86.4520001
 101.0957979  43.3764448  93.2014829 101.4507366  43.6035921  94.0609295
 101.7430110  43.7082824  92.5792084 106.8255716  46.4982884  83.9064158
 106.6873614  46.6884480  82.9785347 106.4691934  47.2602266  84.3632209
  94.9897842  40.4840979  89.9861170  95.6297221  40.3429738  89.2884134
  94.1575372  40.1975492  89.6099772 106.8525095  48.5659411  88.9175430
 107.2861602  48.4734700  89.7658484 107.5656676  48.5416911  88.2795446
  95.7658146  49.7843409  86.0996163  96.5598744  49.2893729  85.8978738
  95.0549838  49.2561272  85.7363868 100.5852990  52.1661505  90.4508530
 100.6390012  52.7352441  91.2186246  99.7167771  52.3363390  90.0862567
  92.0740909  43.9286491  82.1755915  91.1438497  43.8670946  82.3925877
  92.1698381  43.4062444  81.3792557  91.9926458  40.4541304  84.7634157
  92.2533275  41.3686637  84.6543317  92.8143630  39.9865746  84.9130770
  93.4651383  41.8679061  91.9332982  94.1374437  41.6596423  91.2845630
  92.6381170  41.6701147  91.4938214 107.7140645  48.6083111  91.4508315
 107.9076535  49.5128922  91.6967590 107.6141263  48.1490530  92.2846900
  99.3676955  38.4941002  93.9498642  98.7204870  39.1930951  93.8563119
 100.1377971  38.9277146  94.3174891 102.7755753  48.7589854  97.0249196
 102.6241260  48.5300406  96.1079279 102.7660433  49.7160455  97.0380541
  99.5441090  46.3321767  92.0095462 100.4733150  46.4832926  91.8364429
  99.1232120  46.4205788  91.1544109  98.3429422  50.3572431  89.7794000
  98.2040507  49.9891216  90.6519938  97.5544018  50.8720071  89.6077958
  98.9377574  55.4581528  81.1219536  99.1129329  54.9869571  81.9365159
  98.2510362  56.0847294  81.3500797  99.8934637  49.7354034  87.1682838
  99.5584469  49.6954804  88.0640487  99.3938582  49.0698750  86.6953248
  93.8678881  45.1421664  92.6935419  93.7298679  44.4101903  93.2946958
  94.7783804  45.0530564  92.4119606 102.8293828  47.0810068  77.4419897
 102.2122999  46.3556896  77.3452950 102.3610317  47.8419428  77.0986971
  96.4961181  44.8541623  92.1819098  97.2060800  44.2134815  92.1405717
  96.4530489  45.1054518  93.1045279 104.4847960  51.7908977  95.1025678
 104.4260506  51.1068197  94.4356261 104.8867478  52.5327967  94.6506304
  95.2090115  41.8406841  94.0014738  94.6727472  41.3897580  94.6536334
  94.6206824  41.9752750  93.2585202  93.5038659  58.6070890  87.8959396
  93.7435257  59.2389415  88.5738415  92.6607855  58.2558930  88.1824756
  94.6192374  41.2995493  76.5641201  93.7421841  41.1784293  76.2003448
  95.0950127  40.5081571  76.3120090 104.4865367  49.7548560  93.3339657
 103.5992146  49.4174482  93.4566056 105.0563918  49.0231592  93.5708423
  86.1394514  46.0872652  86.6582709  86.8265554  45.7734382  86.0703724
  85.9842643  46.9914017  86.3849960  90.9429237  40.9762849  91.0867732
  90.8587425  40.3688518  90.3518142  90.1211943  41.4671867  91.0877229
  98.0166521  54.4150013  90.3000900  97.9436692  55.2204984  90.8120205
  97.5743914  54.6141979  89.4748922  97.8056300  53.6521783  83.8103722
  97.0223822  54.1943463  83.9041946  98.5049045  54.1695763  84.2097963
 101.1152950  39.4616412  86.4537927 101.6121650  38.7086375  86.1338998
 100.3439932  39.4980729  85.8881137 108.9682708  45.1656778  88.0956219
 108.9572584  46.0481493  87.7250152 108.1000087  44.8128329  87.9010756
 100.4765204  54.3136847  92.4559059 101.1893176  54.9484312  92.3834961
  99.9855233  54.4100713  91.6399061 102.1982731  48.2188100  84.0276351
 101.2639010  48.3389562  83.8581055 102.3759400  47.3160566  83.7636361
  97.6987919  41.6033795  86.1809612  97.3285707  41.0504836  86.8690518
  98.1947012  40.9991929  85.6284612 105.5855282  44.0605419  84.5626385
 106.0515735  44.8933410  84.4886688 106.0362783  43.5950400  85.2671643
  95.5277118  52.0631290  93.2764630  96.2286577  52.6967773  93.4294024
  95.0572233  52.4046022  92.5160269 103.6531514  50.4049240  81.5612537
 103.9291357  50.2905835  82.4706411 102.7836012  50.0066725  81.5224710
 103.5571945  36.4286006  88.6017286 102.6435025  36.6590233  88.7699493
 103.9865047  36.5124450  89.4531319 103.3278404  44.6175898  91.1017180
 102.6749854  44.8651805  90.4469633 103.7058784  43.8040036  90.7679658
 100.2885578  54.6535591  85.2045351 100.4707972  53.8357247  85.6673103
 101.1118564  54.8703283  84.7670241 100.6227743  53.5803776  82.4660399
 101.1515509  53.0696231  81.8530561 100.8855963  53.2646306  83.3305932
  99.3765977  45.3595709  97.5883217  98.7006614  45.2589838  98.2585593
 100.1993611  45.2034923  98.0519215  91.1244836  51.5967645  90.2095733
  91.7098273  50.8511333  90.3423637  90.9269674  51.9071602  91.0932396
  93.9783491  54.6318893  85.2258175  93.3093866  55.1165020  84.7422215
  93.8396361  54.8788113  86.1401553  85.7162491  44.1673246  88.9300176
  85.7546590  43.6336836  89.7237294  85.2102783  43.6408451  88.3111153
  98.1188760  56.6662636  91.8240833  98.6707068  56.8294258  92.5889919
  98.4594953  57.2567074  91.1520858  93.0953253  39.0137786  92.4262718
  93.1594579  39.8752617  92.0140116  93.0320373  38.4011788  91.6935077
  92.5705525  41.0860919  96.0735752  93.1977564  40.7037996  96.6873277
  91.7133444  40.8675121  96.4391445 102.9699634  51.4923894  97.6789488
 103.5139538  52.1053852  97.1844443 102.3886479  52.0503472  98.1956501
  89.3471068  42.8937348  82.0054107  89.6424509  41.9848026  81.9521161
  88.4459104  42.8725087  81.6835109 101.2557147  54.6144612  88.8104516
 101.1308286  53.8134352  88.3015461 101.9136238  55.1090805  88.3218485
  92.8765315  40.9693344  87.9881656  92.1551901  41.5829312  87.8489129
  93.6658571  41.5051109  87.9098302 103.3192055  52.4153632  90.4384066
 102.3722391  52.2958983  90.3662392 103.6674828  51.5276130  90.5210327
  95.6791629  38.3047771  94.2622307  96.2026030  38.5510067  95.0248617
  95.4603962  39.1367806  93.8425445  91.0758910  40.5751445  82.1293432
  90.7471616  39.6948824  81.9468538  91.4298280  40.5199114  83.0169822
 100.3238489  52.2106348  86.6388418 100.1763451  51.2823056  86.8195988
 101.1491982  52.2326439  86.1545493  94.1900733  40.8624415  82.4968910
  94.5296805  41.3910336  81.7747518  94.6372853  41.2004821  83.2727476
 103.9272610  53.0334907  87.7253291 104.8519158  52.8277768  87.5877742
 103.7587914  52.7851308  88.6342632  96.8844174  39.2461466  91.9471978
  96.5440994  38.4469279  92.3492658  96.1783180  39.5463177  91.3748811
  97.5360645  36.3310778  90.3999301  98.3586715  35.8571257  90.2778191
  97.7798709  37.1101262  90.8997987  96.1768880  39.3599037  80.6962203
  96.8977242  39.7380290  80.1925920  95.5534184  40.0787914  80.7997181
 100.3200003  40.0644186  81.6320535 100.5363617  40.9468824  81.3309363
  99.8394070  39.6730399  80.9026177  95.0599224  43.0229899  88.2091280
  94.9143805  43.3370202  89.1015561  94.5824428  43.6414799  87.6562178
  96.9195607  40.0132447  88.2572169  96.9057176  39.1173540  87.9204467
  97.6368035  40.0203111  88.8910455  98.7721738  40.4469787  90.3025297
  98.5139516  41.3686858  90.3009627  98.2406778  40.0500222  90.9925761
 103.7167927  53.5520574  83.0815382 103.8904804  52.9866997  82.3289234
 104.2096818  54.3521469  82.8994872  89.5344886  45.5635243  91.1478941
  88.9898354  46.3395051  91.2799215  90.4124236  45.9106048  90.9898062
  96.3232503  38.8946827  83.5259739  96.4448414  37.9663473  83.7250627
  96.0334545  38.9085513  82.6138055  99.1923693  36.5801738  86.6626459
  99.2145390  36.6441071  85.7078439  99.6091752  35.7406246  86.8566965
 109.5707318  46.3156997  84.7005682 110.0138464  45.5664322  84.3024805
 108.6933828  46.3067134  84.3179414 104.7043099  52.8687339  80.1812280
 105.3994004  53.4894031  80.3999595 105.0466249  52.0182690  80.4564658
  90.3210908  44.6905140  94.0409098  89.5792644  44.8387775  94.6273728
  90.0003653  44.9513405  93.1775847 106.6034522  50.3187044  81.7099611
 107.1285846  50.6574317  80.9848931 106.5156875  49.3834060  81.5262746
  98.2654571  54.2321118  93.8389488  98.5741697  53.9870265  94.7112187
  99.0630053  54.4367756  93.3508358  98.2875183  56.3859028  86.0694864
  97.8480173  55.8935406  86.7627721  99.0383300  55.8431995  85.8286939
  90.7667522  52.5770568  86.0719492  91.5925542  52.2774340  85.6918136
  90.4161574  51.8078191  86.5209281  95.7349055  51.9297037  88.1417166
  95.1129064  51.2667742  87.8419394  96.4053922  51.9558168  87.4590814
  88.9676127  50.4956895  87.0308426  88.1308035  50.0679069  86.8492427
  88.9399772  50.6889338  87.9679217  95.8073583  40.4078825  97.7349672
  95.8561738  41.2840947  97.3527442  96.3496097  39.8656218  97.1621315
 106.2928428  50.9519948  97.0150809 105.5023972  50.9344087  96.4755308
 106.0561783  51.4908242  97.7699846 106.4126303  47.8012414  94.3283538
 106.4624308  47.6362422  95.2699060 106.3040227  46.9339673  93.9381418
  95.2962562  50.4800960  81.6175626  95.4450682  51.1636424  80.9642299
  96.1029005  50.4606050  82.1325082 103.7030066  43.7843342  95.6442844
 104.6039928  43.6449807  95.3526842 103.7778040  43.9497797  96.5841022
  98.0372871  41.1610197  94.4896031  97.1676180  41.4543763  94.2178619
  98.2732351  41.7450642  95.2103294 107.9144500  50.2209356  94.5725559
 107.6229308  50.5839336  95.4089020 107.3016631  49.5076364  94.3938891
 109.1140182  47.7862236  87.0928129 109.9487074  48.2252040  87.2565690
 109.2499311  47.3100889  86.2736375 106.1631688  45.3441970  93.0405617
 106.6385810  45.5369617  92.2324468 105.2397254  45.4001156  92.7949001
  93.0515195  46.5066138  82.6236695  92.8061237  45.6028468  82.8216906
  93.2211110  46.5083288  81.6816173 100.7411905  37.3789814  92.0061451
 101.2593849  38.1150841  91.6807940 100.3867038  37.6853807  92.8408210
  92.3210843  42.2394495  80.1222857  91.6280087  42.3138850  79.4662893
  92.0762594  41.4754839  80.6444374 100.9924499  33.7990096  87.5262348
 101.2726253  33.1313286  88.1522774 101.7775106  33.9919192  87.0137011
  98.7957968  52.9749090  79.0887374  98.2231935  53.5939278  78.6357846
  99.3690761  53.5248452  79.6227296 104.8633357  42.2207730  91.2733923
 105.8150780  42.3205828  91.2946147 104.6936808  41.4285999  91.7832007
 102.8847737  39.3063314  91.4593324 102.2897669  39.5868326  90.7639812
 102.5997434  39.7957215  92.2310065 102.0155227  53.2586241  80.2195956
 102.9485900  53.1931802  80.4228832 101.9278440  54.0942507  79.7610489
 104.6443244  52.5752111  77.1799904 104.5656876  52.2411974  78.0735662
 105.4652911  53.0673879  77.1791376 107.3421435  45.4413850  90.3876222
 107.3097755  44.5029851  90.5735906 107.9522059  45.5197887  89.6542047
  99.1804766  44.3109903  76.4303426 100.1263871  44.1816111  76.4991844
  98.8019011  43.5724565  76.9072855 107.4915924  42.2324894  90.4334506
 106.9754972  41.4483350  90.2464434 108.3755872  41.9043610  90.5981025
 105.1526651  35.9765909  86.3930318 104.9551472  35.6680997  87.2773650
 105.7626356  36.7027548  86.5228248 113.1597985  46.5029857  89.5282259
 113.8901374  46.2415145  90.0889962 112.5504931  45.7658579  89.5684327
 111.2413282  44.6437720  90.1256710 110.5146446  44.5093685  89.5173202
 110.8260569  44.9514548  90.9313428  99.0643459  48.3627649  97.8904083
  99.9846468  48.5406248  98.0844130  99.0293042  47.4183695  97.7383783
  97.3647683  42.2359880  76.3658312  96.4579139  41.9392992  76.4421025
  97.6423664  41.9389698  75.4992598  88.2825624  43.5566243  86.8157358
  87.9628408  42.7031551  86.5231732  87.7359052  43.7714821  87.5715325
  92.0605531  46.2728684  90.5326865  92.2791541  47.2045792  90.5514898
  92.4731305  45.9136658  91.3181668  98.9809749  36.7796769  82.5202553
  98.1710477  36.4343854  82.8957799  99.6694166  36.4704313  83.1090164
 100.9100297  35.8574816  84.1426850 101.4631336  36.2770269  84.8016873
 101.1470384  34.9310564  84.1849806  96.9333396  41.8461890  99.9229613
  96.8330123  42.7956247  99.8541705  96.7154938  41.5180129  99.0505684
  96.1346468  39.0946815  76.5070291  96.9965632  39.4201713  76.7666108
  96.3196812  38.3078311  75.9943357  88.1513884  47.1769154  88.7850480
  87.4577355  46.7623107  88.2720434  88.8986875  47.2189691  88.1883898
 104.2879104  37.9675341  83.6505514 103.7077773  38.6260145  83.2683566
 104.0215037  37.1452686  83.2392931 102.7382671  37.3680399  85.8526834
 103.2382449  37.4796933  85.0441153 103.3818279  37.0641452  86.4927643
  96.7964666  45.2759029  98.7394675  96.3131748  46.0759389  98.9458564
  96.8825606  45.2866973  97.7862119  90.0650626  47.1087408  86.6616494
  90.0421314  47.2075095  85.7098378  90.3751263  47.9552559  86.9833661
  92.7238004  49.1663563  90.7763109  93.6781258  49.1347506  90.7093040
  92.5250528  48.7054187  91.5913335  93.3137386  47.7364679  93.3433907
  94.1330275  48.2308758  93.3668744  93.5874194  46.8196647  93.3151474
 103.0703982  40.1275432  82.7061862 102.1829837  40.4125082  82.4882057
 103.4857971  39.9669195  81.8589139 106.4218518  40.1521953  86.4216201
 107.1978909  40.6418405  86.6940818 105.6966653  40.5780007  86.8788071
 108.8591077  40.8649572  87.4790142 109.4535568  40.6245308  86.7683450
 108.9317661  40.1456702  88.1063678  91.0788233  54.7083183  87.7933307
  90.9442701  53.9483584  87.2271305  90.6620295  55.4324083  87.3262096
 102.2147196  49.8920106  76.8009882 102.9183046  50.0970109  77.4167538
 101.4909845  50.4596868  77.0658966 103.0445006  45.6429968  82.9212152
 102.9880207  46.0998519  82.0819785 103.5973349  44.8820652  82.7434995
 106.8549812  41.4319699  83.7462272 106.5986746  41.0316335  84.5770479
 106.2302680  42.1463493  83.6212411 111.1662150  44.1715773  86.2533563
 110.6061708  44.2408962  87.0265125 110.5605653  43.9956757  85.5333059
  94.2357359  55.6052500  88.0051749  94.1189743  56.5497932  87.9030440
  93.4149805  55.3026061  88.3937549 104.1233893  50.3302635  78.8508342
 104.9579497  49.8983834  78.6685817 103.9618236  50.1584649  79.7785237
 103.7779785  46.8334749  80.2164681 103.7228589  46.6679020  79.2753126
 103.1525841  47.5410782  80.3726871  88.5672300  42.0702813  94.0426104
  89.2131164  41.5601767  94.5313329  88.3589451  42.8071495  94.6169529
 101.0925693  49.1383661  99.5418244 101.9616852  49.3124313  99.1804879
 100.6132444  49.9578077  99.4193974  97.0875911  36.3342858  79.7950000
  97.0754581  37.2784698  79.9518271  97.9799333  36.1513003  79.5009461
  95.2611873  56.2580762  91.2207678  96.1639119  56.2904372  91.5374173
  95.0349243  55.3281213  91.2354014  97.0165475  55.0111748  87.8817756
  96.0661106  55.0113610  87.7682129  97.3197961  54.2644483  87.3653791
 100.9028030  32.9285634  84.0495937 100.1360426  32.3744121  84.1952619
 101.3138735  33.0007503  84.9110088  92.9069791  39.2170430  98.1401118
  93.7701253  38.8607235  98.3504442  92.3335202  38.8784325  98.8276522
 112.7518168  60.8472287  88.9463519 113.3896578  60.7279034  88.2426859
 112.6339011  61.7953131  89.0051471 109.5607875  60.7999715  88.8825044
 109.2226386  60.6840779  87.9945578 110.4297643  60.3990880  88.8626050
 105.4194690  62.6535191  84.8721934 104.8559555  62.5625128  84.1038222
 105.3047085  61.8335096  85.3524427 110.0427658  61.9534566  94.8411249
 110.0316298  61.5587365  93.9691753 110.2048297  61.2200639  95.4345021
 102.9659122  64.1486383  87.7106155 103.7580414  63.8077207  87.2952454
 103.2055772  64.2581358  88.6308308 110.9994249  66.3206159  80.1836399
 110.3482229  66.9060239  79.7970413 111.7938612  66.8512354  80.2431437
 104.9249876  63.4095296  80.5823534 105.6980752  62.8624283  80.4436410
 105.2775275  64.2739545  80.7937995 106.7634919  64.7371678  93.7890433
 106.4724785  65.6417309  93.6737099 107.3991903  64.7788206  94.5034503
 107.6891126  62.1148527  90.3791793 108.2854698  61.8904549  89.6648756
 107.7466097  61.3733272  90.9817241 107.2616154  59.5687962  78.2141984
 107.5141675  59.0469483  77.4525447 106.3240713  59.4054108  78.3168667
 112.3059437  58.5723740  86.0216727 113.0922526  58.1543164  85.6707144
 112.5698141  59.4769833  86.1898375 112.4769514  64.0096591  80.7205384
 111.8415347  64.0831217  81.4326288 112.1466921  64.5990190  80.0424463
 117.7067864  58.5098974  86.9249705 118.4393036  57.9398190  87.1587535
 116.9507220  58.1220574  87.3656211 106.9812443  61.4716068  80.4166359
 106.8648701  60.7960971  81.0847443 107.0914703  60.9848442  79.5998512
 109.3243984  60.9326215  84.1213048 108.9602191  60.4056836  84.8325969
 110.1811100  60.5424684  83.9479533 115.2293284  52.2220548  91.3844314
 114.8976609  53.0915959  91.1605529 114.6338898  51.9056832  92.0638344
 108.9649471  55.9616115  79.1174396 109.1323873  56.8296351  79.4844867
 108.7746640  56.1243397  78.1935686 111.7224804  64.4233094  90.7840227
 111.4225527  65.3258133  90.6756034 111.3775863  64.1565277  91.6361380
 105.1737285  60.8746891  86.8176931 104.2487782  60.7423105  87.0254623
 105.4221698  61.6541110  87.3146874 115.1221948  56.9415634  88.4637664
 114.2138825  56.8731042  88.1696425 115.0709543  57.4187579  89.2919490
 108.9438691  58.4173772  80.1021063 108.8238317  58.8630823  80.9406543
 108.2491280  58.7659090  79.5434601 102.5346096  60.5180164  87.6520720
 102.6638477  60.7714643  88.5660132 101.8543548  61.1107872  87.3325375
 106.7045584  71.1877414  83.7511194 106.6269613  72.1385239  83.8299675
 106.1007227  70.8423287  84.4086121 109.1962813  58.3605280  96.4072561
 108.4196147  58.9199200  96.3975426 109.8353376  58.8462062  96.9287431
 116.9883594  55.1432072  90.2415538 116.3457974  55.4364605  89.5955333
 116.4838522  55.0284993  91.0468735 114.6423758  58.8895246  80.9301397
 115.5541614  59.1222632  80.7549095 114.1333405  59.4732290  80.3676476
 107.4509186  61.1690733  95.9690528 108.1923870  61.7075777  95.6925352
 106.7446171  61.7957022  96.1262080 112.9264525  63.3119873  94.5662690
 113.3347881  62.8702284  93.8217322 112.2041787  62.7372501  94.8196883
 109.2795595  58.2492480  91.9396247 110.1256791  58.6731894  92.0830896
 109.2194233  57.5926104  92.6334810 113.2493340  63.8721064  88.3214979
 112.6202202  64.0366778  87.6191047 112.8619002  64.2862674  89.0925943
 117.1282572  64.8075502  85.6759342 116.4433610  65.1874403  85.1256376
 117.2126421  65.4170828  86.4091290 112.4295041  55.9096848  93.5977420
 112.1855973  56.6638909  93.0611696 112.7054971  56.2882196  94.4324667
 114.3833503  62.4535461  92.2754686 114.5950399  63.0967221  91.5989067
 114.3363252  61.6197777  91.8076616 111.9859732  55.0653281  89.1791258
 111.1244211  55.3634535  89.4707996 112.0122167  55.2823680  88.2472291
 108.8021302  63.6095472  85.5865064 109.2659647  63.8883175  84.7969686
 108.5378100  62.7078917  85.4038154 105.6945383  63.1566954  88.5244827
 106.2646740  63.5854222  87.8862312 106.2853495  62.8749538  89.2229013
 107.7390188  59.7318624  82.3954629 108.4414231  60.1839668  82.8628555
 107.4070816  59.0902443  83.0234522 106.1870549  58.3230381  96.7705838
 105.5569210  59.0046662  97.0041235 106.0806637  58.2113463  95.8258977
 101.4815522  57.9902177  87.6971762 100.6914576  58.2459706  87.2211873
 101.9726769  58.8050515  87.8023803 115.4979331  65.3307416  90.4477043
 116.3196775  64.9287604  90.1659725 115.4941734  65.2275650  91.3993159
 103.4330267  58.3546756  84.6555239 102.6361430  58.4665451  85.1738735
 103.2055859  58.6933409  83.7896130 109.2635935  64.8791460  92.6037754
 109.3280367  65.3411867  93.4395926 108.5546859  64.2488824  92.7320064
  99.7653225  58.2432668  90.1286753 100.0161263  59.1279677  90.3944329
 100.3012773  58.0637269  89.3561845 108.9783952  66.5459567  82.4716734
 108.8429627  67.3911103  82.9001582 109.5193765  66.7478845  81.7082668
 105.4651292  52.6251147  99.1331089 105.0718238  52.0717345  99.8078734
 106.2817432  52.9361725  99.5237607 102.4313350  64.0635005  83.0444659
 102.9437870  64.8578255  83.1950224 103.0836063  63.3661296  82.9778261
 104.2408235  67.1800761  85.1267412 104.4174863  68.1018726  84.9388396
 105.0365068  66.8659181  85.5561792 108.3819253  54.0409026  96.7251346
 109.1228966  54.6416179  96.6455808 108.6137176  53.2986664  96.1669389
 103.5260591  59.2265393  95.0029576 103.4114106  58.3250650  95.3036675
 102.6705109  59.4729090  94.6514392 110.6052429  67.1683134  96.6017076
 110.1616283  66.3819512  96.2837981 111.2669642  67.3562284  95.9360967
 105.3639550  68.6978935  91.1277755 105.9146975  68.5695998  90.3554749
 104.5251026  68.9973824  90.7772648 112.7033667  67.4485933  94.6298478
 112.6852142  68.2694815  94.1378747 113.6253587  67.3240009  94.8548619
 109.1606721  64.9630063  95.4721986 109.6935058  64.2018351  95.2421294
 108.6320802  64.6703715  96.2146140 112.3276416  50.0690129  91.0015628
 111.9840685  50.9591771  90.9254738 112.6955379  49.8791787  90.1385213
 100.3962267  62.3923659  83.8204230 101.2337489  62.8020668  83.6037937
 100.5740534  61.4523102  83.7904424 112.2926699  60.0598740  79.5088063
 111.7773322  60.8303345  79.7476450 112.0204007  59.3863876  80.1321124
 109.8773810  54.9048441  84.5673301 109.0215406  54.5155291  84.3878940
 110.2900762  54.9840402  83.7073087 111.4072956  52.4394784  88.9664861
 110.9037752  52.4024919  88.1532666 111.7003563  53.3487527  89.0261518
 107.6515842  52.5233514  87.9731043 108.5168839  52.3276322  87.6136932
 107.7193351  52.2943866  88.9000399 117.2660973  62.8131095  81.4441236
 116.4890416  62.4742254  80.9996398 117.9452454  62.8183718  80.7696201
 112.0813002  57.9325832  81.3347844 111.7763138  58.2471981  82.1857987
 113.0343444  58.0107252  81.3775177 110.5259434  64.0916055  82.9840798
 109.9980795  63.3568815  82.6714035 110.0246937  64.8690732  82.7380766
 115.5052280  62.2865076  88.1007844 114.8475954  62.9764337  88.1887973
 116.3092679  62.6761508  88.4441831 105.2578161  54.7535722  85.3447409
 105.8321913  54.5310903  84.6120602 105.8449144  54.8224416  86.0976011
 114.3157739  60.6409449  86.1511786 114.8289620  61.2739440  86.6533496
 114.9658963  60.0410644  85.7855146 105.5847749  56.7840183  79.3643295
 104.7485061  57.1214869  79.6852569 105.4452518  56.6489163  78.4270432
 107.5600829  51.6276971  84.0722479 106.9065241  51.3125988  83.4479094
 107.5181303  51.0052711  84.7982302 108.6712034  61.9096266  75.9875771
 107.7639096  61.6785519  76.1866920 109.1683066  61.1133885  76.1749752
 111.5780113  70.6193773  78.9072457 110.9041812  70.9225470  79.5157415
 111.9645935  71.4222853  78.5577914 110.7938569  58.1158904  88.3970126
 109.8761131  58.3373851  88.2391815 111.2098713  58.1905215  87.5381834
 111.5773617  59.5150320  83.5272807 112.3245436  60.0271717  83.2179929
 111.8465207  59.1934373  84.3877200 109.8500267  62.0108861  80.5099761
 108.9411487  61.7267893  80.6072231 109.8795351  62.4307939  79.6503068
 115.0819535  65.6215450  84.2790929 114.6281862  64.7806360  84.3356119
 114.4513502  66.2576848  84.6165709 114.0252454  56.5507436  85.5091596
 113.2875211  56.0384822  85.8401839 114.2779228  56.1107818  84.6974873
 113.5252474  67.4591947  85.2140747 113.8175448  68.0197004  84.4953112
 114.0351095  67.7520508  85.9693906 114.1264082  49.3283688  86.1033365
 114.4322959  48.4681052  85.8159280 114.8516687  49.9201308  85.9032359
 100.4188438  59.7314375  84.4914963 100.2212838  59.1383735  83.7666030
  99.8635102  59.4266585  85.2090902 108.3985161  59.6237481  86.6109556
 108.4533771  58.6711318  86.5352033 107.5876363  59.7796920  87.0950855
 109.5476355  63.5517604  77.8487840 109.1095785  62.8353463  77.3893477
 110.2886796  63.7793719  77.2872931 106.3377521  58.2414541  84.3699935
 105.5245387  58.5408711  84.7765127 106.8336516  57.8470230  85.0874417
 108.4886099  68.2372298  86.3034200 108.4462278  68.4633144  85.3742732
 109.4048798  68.0035672  86.4520001 111.9351733  58.7056365  93.2014829
 112.2901121  58.9327839  94.0609295 112.5823864  59.0374742  92.5792084
 117.6649470  61.8274801  83.9064158 117.5267369  62.0176397  82.9785347
 117.3085689  62.5894184  84.3632209 105.8291596  55.8132896  89.9861170
 106.4690975  55.6721656  89.2884134 104.9969127  55.5267410  89.6099772
 117.6918850  63.8951328  88.9175430 118.1255356  63.8026617  89.7658484
 118.4050430  63.8708829  88.2795446 106.6051900  65.1135327  86.0996163
 107.3992499  64.6185647  85.8978738 105.8943592  64.5853190  85.7363868
 111.4246745  67.4953422  90.4508530 111.4783767  68.0644359  91.2186246
 110.5561526  67.6655307  90.0862567 102.9134664  59.2578409  82.1755915
 101.9832252  59.1962864  82.3925877 103.0092135  58.7354361  81.3792557
 102.8320213  55.7833221  84.7634157 103.0927030  56.6978555  84.6543317
 103.6537385  55.3157664  84.9130770 104.3045138  57.1970979  91.9332982
 104.9768191  56.9888341  91.2845630 103.4774924  56.9993065  91.4938214
 118.5534399  63.9375029  91.4508315 118.7470289  64.8420839  91.6967590
 118.4535017  63.4782448  92.2846900 110.2070710  53.8232920  93.9498642
 109.5598625  54.5222869  93.8563119 110.9771725  54.2569063  94.3174891
 113.6149508  64.0881772  97.0249196 113.4635014  63.8592323  96.1079279
 113.6054187  65.0452373  97.0380541 110.3834844  61.6613684  92.0095462
 111.3126904  61.8124844  91.8364429 109.9625874  61.7497705  91.1544109
 109.1823176  65.6864349  89.7794000 109.0434262  65.3183133  90.6519938
 108.3937772  66.2011988  89.6077958 109.7771328  70.7873445  81.1219536
 109.9523084  70.3161489  81.9365159 109.0904116  71.4139212  81.3500797
 110.7328391  65.0645952  87.1682838 110.3978224  65.0246722  88.0640487
 110.2332337  64.3990667  86.6953248 104.7072635  60.4713582  92.6935419
 104.5692433  59.7393820  93.2946958 105.6177559  60.3822482  92.4119606
 113.6687583  62.4101986  77.4419897 113.0516753  61.6848814  77.3452950
 113.2004071  63.1711346  77.0986971 107.3354936  60.1833541  92.1819098
 108.0454554  59.5426733  92.1405717 107.2924244  60.4346436  93.1045279
 115.3241714  67.1200894  95.1025678 115.2654261  66.4360114  94.4356261
 115.7261233  67.8619884  94.6506304 106.0483870  57.1698759  94.0014738
 105.5121227  56.7189497  94.6536334 105.4600578  57.3044668  93.2585202
 104.3432413  73.9362808  87.8959396 104.5829012  74.5681332  88.5738415
 103.5001610  73.5850848  88.1824756 105.4586129  56.6287410  76.5641201
 104.5815595  56.5076211  76.2003448 105.9343882  55.8373488  76.3120090
 115.3259122  65.0840478  93.3339657 114.4385901  64.7466400  93.4566056
 115.8957673  64.3523509  93.5708423  96.9788269  61.4164570  86.6582709
  97.6659309  61.1026300  86.0703724  96.8236398  62.3205935  86.3849960
 101.7822991  56.3054766  91.0867732 101.6981180  55.6980436  90.3518142
 100.9605697  56.7963785  91.0877229 108.8560275  69.7441931  90.3000900
 108.7830447  70.5496902  90.8120205 108.4137668  69.9433896  89.4748922
 108.6450055  68.9813701  83.8103722 107.8617577  69.5235381  83.9041946
 109.3442800  69.4987680  84.2097963 111.9546705  54.7908330  86.4537927
 112.4515404  54.0378292  86.1338998 111.1833686  54.8272647  85.8881137
 119.8076462  60.4948696  88.0956219 119.7966339  61.3773411  87.7250152
 118.9393842  60.1420246  87.9010756 111.3158959  69.6428765  92.4559059
 112.0286931  70.2776229  92.3834961 110.8248987  69.7392631  91.6399061
 113.0376486  63.5480017  84.0276351 112.1032764  63.6681480  83.8581055
 113.2153154  62.6452484  83.7636361 108.5381674  56.9325713  86.1809612
 108.1679461  56.3796753  86.8690518 109.0340766  56.3283846  85.6284612
 116.4249037  59.3897337  84.5626385 116.8909489  60.2225328  84.4886688
 116.8756537  58.9242318  85.2671643 106.3670872  67.3923208  93.2764630
 107.0680332  68.0259691  93.4294024 105.8965987  67.7337940  92.5160269
 114.4925268  65.7341158  81.5612537 114.7685112  65.6197752  82.4706411
 113.6229767  65.3358643  81.5224710 114.3965700  51.7577923  88.6017286
 113.4828779  51.9882150  88.7699493 114.8258801  51.8416368  89.4531319
 114.1672158  59.9467815  91.1017180 113.5143608  60.1943723  90.4469633
 114.5452538  59.1331954  90.7679658 111.1279332  69.9827509  85.2045351
 111.3101727  69.1649165  85.6673103 111.9512318  70.1995201  84.7670241
 111.4621498  68.9095694  82.4660399 111.9909264  68.3988148  81.8530561
 111.7249717  68.5938224  83.3305932 110.2159731  60.6887627  97.5883217
 109.5400368  60.5881756  98.2585593 111.0387365  60.5326840  98.0519215
 101.9638590  66.9259563  90.2095733 102.5492027  66.1803251  90.3423637
 101.7663429  67.2363520  91.0932396 104.8177245  69.9610810  85.2258175
 104.1487621  70.4456938  84.7422215 104.6790115  70.2080031  86.1401553
  96.5556245  59.4965163  88.9300176  96.5940345  58.9628754  89.7237294
  96.0496538  58.9700369  88.3111153 108.9582514  71.9954554  91.8240833
 109.5100822  72.1586175  92.5889919 109.2988708  72.5858992  91.1520858
 103.9347007  54.3429704  92.4262718 103.9988334  55.2044535  92.0140116
 103.8714128  53.7303705  91.6935077 103.4099280  56.4152836  96.0735752
 104.0371319  56.0329914  96.6873277 102.5527199  56.1967038  96.4391445
 113.8093388  66.8215811  97.6789488 114.3533292  67.4345770  97.1844443
 113.2280233  67.3795390  98.1956501 100.1864823  58.2229265  82.0054107
 100.4818264  57.3139944  81.9521161  99.2852858  58.2017005  81.6835109
 112.0950901  69.9436529  88.8104516 111.9702041  69.1426269  88.3015461
 112.7529992  70.4382723  88.3218485 103.7159070  56.2985262  87.9881656
 102.9945655  56.9121230  87.8489129 104.5052325  56.8343027  87.9098302
 114.1585810  67.7445550  90.4384066 113.2116145  67.6250901  90.3662392
 114.5068583  66.8568048  90.5210327 106.5185383  53.6339688  94.2622307
 107.0419785  53.8801985  95.0248617 106.2997716  54.4659723  93.8425445
 101.9152664  55.9043363  82.1293432 101.5865370  55.0240742  81.9468538
 102.2692035  55.8491032  83.0169822 111.1632243  67.5398266  86.6388418
 111.0157205  66.6114973  86.8195988 111.9885737  67.5618357  86.1545493
 105.0294487  56.1916333  82.4968910 105.3690560  56.7202254  81.7747518
 105.4766608  56.5296739  83.2727476 114.7666365  68.3626825  87.7253291
 115.6912912  68.1569686  87.5877742 114.5981668  68.1143226  88.6342632
 107.7237928  54.5753384  91.9471978 107.3834749  53.7761197  92.3492658
 107.0176934  54.8755094  91.3748811 108.3754400  51.6602696  90.3999301
 109.1980469  51.1863174  90.2778191 108.6192464  52.4393180  90.8997987
 107.0162634  54.6890954  80.6962203 107.7370997  55.0672207  80.1925920
 106.3927939  55.4079831  80.7997181 111.1593757  55.3936103  81.6320535
 111.3757372  56.2760741  81.3309363 110.6787824  55.0022317  80.9026177
 105.8992979  58.3521817  88.2091280 105.7537559  58.6662120  89.1015561
 105.4218182  58.9706717  87.6562178 107.7589362  55.3424365  88.2572169
 107.7450930  54.4465458  87.9204467 108.4761790  55.3495028  88.8910455
 109.6115492  55.7761705  90.3025297 109.3533270  56.6978776  90.3009627
 109.0800533  55.3792139  90.9925761 114.5561681  68.8812492  83.0815382
 114.7298559  68.3158914  82.3289234 115.0490572  69.6813387  82.8994872
 100.3738641  60.8927161  91.1478941  99.8292109  61.6686969  91.2799215
 101.2517991  61.2397966  90.9898062 107.1626258  54.2238745  83.5259739
 107.2842169  53.2955391  83.7250627 106.8728300  54.2377431  82.6138055
 110.0317448  51.9093655  86.6626459 110.0539145  51.9732988  85.7078439
 110.4485507  51.0698164  86.8566965 120.4101072  61.6448915  84.7005682
 120.8532218  60.8956240  84.3024805 119.5327583  61.6359051  84.3179414
 115.5436854  68.1979256  80.1812280 116.2387758  68.8185949  80.3999595
 115.8860004  67.3474608  80.4564658 101.1604663  60.0197057  94.0409098
 100.4186399  60.1679693  94.6273728 100.8397407  60.2805323  93.1775847
 117.4428277  65.6478962  81.7099611 117.9679601  65.9866235  80.9848931
 117.3550629  64.7125977  81.5262746 109.1048325  69.5613036  93.8389488
 109.4135452  69.3162182  94.7112187 109.9023807  69.7659674  93.3508358
 109.1268937  71.7150945  86.0694864 108.6873928  71.2227324  86.7627721
 109.8777054  71.1723913  85.8286939 101.6061276  67.9062486  86.0719492
 102.4319296  67.6066258  85.6918136 101.2555328  67.1370108  86.5209281
 106.5742810  67.2588954  88.1417166 105.9522819  66.5959659  87.8419394
 107.2447676  67.2850086  87.4590814  99.8069881  65.8248813  87.0308426
  98.9701790  65.3970987  86.8492427  99.7793527  66.0181256  87.9679217
 106.6467337  55.7370742  97.7349672 106.6955493  56.6132865  97.3527442
 107.1889851  55.1948135  97.1621315 117.1322183  66.2811866  97.0150809
 116.3417726  66.2636004  96.4755308 116.8955537  66.8200159  97.7699846
 117.2520058  63.1304332  94.3283538 117.3018063  62.9654339  95.2699060
 117.1433981  62.2631591  93.9381418 106.1356316  65.8092878  81.6175626
 106.2844437  66.4928342  80.9642299 106.9422760  65.7897968  82.1325082
 114.5423820  59.1135260  95.6442844 115.4433683  58.9741725  95.3526842
 114.6171795  59.2789715  96.5841022 108.8766626  56.4902115  94.4896031
 108.0069935  56.7835681  94.2178619 109.1126106  57.0742560  95.2103294
 118.7538255  65.5501273  94.5725559 118.4623063  65.9131254  95.4089020
 118.1410386  64.8368282  94.3938891 119.9533937  63.1154153  87.0928129
 120.7880828  63.5543957  87.2565690 120.0893066  62.6392806  86.2736375
 117.0025443  60.6733888  93.0405617 117.4779564  60.8661534  92.2324468
 116.0791008  60.7293074  92.7949001 103.8908949  61.8358055  82.6236695
 103.6454991  60.9320385  82.8216906 104.0604864  61.8375206  81.6816173
 111.5805659  52.7081732  92.0061451 112.0987603  53.4442759  91.6807940
 111.2260792  53.0145725  92.8408210 103.1604597  57.5686413  80.1222857
 102.4673842  57.6430768  79.4662893 102.9156349  56.8046756  80.6444374
 111.8318254  49.1282014  87.5262348 112.1120007  48.4605203  88.1522774
 112.6168860  49.3211110  87.0137011 109.6351722  68.3041008  79.0887374
 109.0625689  68.9231195  78.6357846 110.2084516  68.8540370  79.6227296
 115.7027112  57.5499648  91.2733923 116.6544535  57.6497746  91.2946147
 115.5330562  56.7577917  91.7832007 113.7241491  54.6355231  91.4593324
 113.1291423  54.9160244  90.7639812 113.4391188  55.1249132  92.2310065
 112.8548982  68.5878158  80.2195956 113.7879655  68.5223720  80.4228832
 112.7672195  69.4234425  79.7610489 115.4836998  67.9044029  77.1799904
 115.4050630  67.5703892  78.0735662 116.3046665  68.3965796  77.1791376
 118.1815190  60.7705768  90.3876222 118.1491510  59.8321769  90.5735906
 118.7915813  60.8489805  89.6542047 110.0198521  59.6401821  76.4303426
 110.9657625  59.5108029  76.4991844 109.6412765  58.9016483  76.9072855
 118.3309678  57.5616811  90.4334506 117.8148727  56.7775268  90.2464434
 119.2149627  57.2335528  90.5981025 115.9920405  51.3057827  86.3930318
 115.7945226  50.9972915  87.2773650 116.6020111  52.0319466  86.5228248
 109.9037213  63.6919567  97.8904083 110.8240223  63.8698166  98.0844130
 109.8686796  62.7475612  97.7383783 108.2041438  57.5651797  76.3658312
 107.2972893  57.2684910  76.4421025 108.4817419  57.2681615  75.4992598
  99.1219378  58.8858161  86.8157358  98.8022162  58.0323469  86.5231732
  98.5752806  59.1006739  87.5715325 102.8999286  61.6020602  90.5326865
 103.1185295  62.5337709  90.5514898 103.3125059  61.2428576  91.3181668
 109.8203503  52.1088687  82.5202553 109.0104232  51.7635772  82.8957799
 110.5087920  51.7996231  83.1090164 111.7494052  51.1866734  84.1426850
 112.3025090  51.6062187  84.8016873 111.9864138  50.2602482  84.1849806
 107.7727151  57.1753807  99.9229613 107.6723878  58.1248164  99.8541705
 107.5548693  56.8472046  99.0505684 106.9740222  54.4238732  76.5070291
 107.8359386  54.7493631  76.7666108 107.1590566  53.6370228  75.9943357
  98.9907638  62.5061072  88.7850480  98.2971109  62.0915025  88.2720434
  99.7380629  62.5481609  88.1883898 115.1272859  53.2967259  83.6505514
 114.5471528  53.9552063  83.2683566 114.8608791  52.4744603  83.2392931
 113.5776425  52.6972317  85.8526834 114.0776204  52.8088851  85.0441153
 114.2212033  52.3933369  86.4927643 107.6358421  60.6050946  98.7394675
 107.1525503  61.4051306  98.9458564 107.7219360  60.6158891  97.7862119
 100.9044381  62.4379326  86.6616494 100.8815069  62.5367013  85.7098378
 101.2145017  63.2844477  86.9833661 103.5631758  64.4955481  90.7763109
 104.5175012  64.4639423  90.7093040 103.3644282  64.0346105  91.5913335
 104.1531141  63.0656597  93.3433907 104.9724030  63.5600676  93.3668744
 104.4267948  62.1488565  93.3151474 113.9097737  55.4567349  82.7061862
 113.0223592  55.7417000  82.4882057 114.3251726  55.2961113  81.8589139
 117.2612273  55.4813870  86.4216201 118.0372663  55.9710323  86.6940818
 116.5360407  55.9071924  86.8788071 119.6984832  56.1941489  87.4790142
 120.2929322  55.9537225  86.7683450 119.7711415  55.4748620  88.1063678
 101.9181987  70.0375100  87.7933307 101.7836455  69.2775501  87.2271305
 101.5014050  70.7616000  87.3262096 113.0540950  65.2212024  76.8009882
 113.7576800  65.4262026  77.4167538 112.3303599  65.7888786  77.0658966
 113.8838761  60.9721885  82.9212152 113.8273962  61.4290437  82.0819785
 114.4367103  60.2112570  82.7434995 117.6943566  56.7611617  83.7462272
 117.4380501  56.3608253  84.5770479 117.0696434  57.4755411  83.6212411
 105.0751113  70.9344417  88.0051749 104.9583497  71.8789850  87.9030440
 104.2543559  70.6317979  88.3937549 114.9627648  65.6594553  78.8508342
 115.7973252  65.2275752  78.6685817 114.8011991  65.4876567  79.7785237
 114.6173540  62.1626666  80.2164681 114.5622344  61.9970938  79.2753126
 113.9919595  62.8702699  80.3726871  99.4066055  57.3994731  94.0426104
 100.0524918  56.8893685  94.5313329  99.1983206  58.1363412  94.6169529
 111.9319447  64.4675578  99.5418244 112.8010607  64.6416231  99.1804879
 111.4526199  65.2869995  99.4193974 107.9269665  51.6634775  79.7950000
 107.9148335  52.6076615  79.9518271 108.8193087  51.4804921  79.5009461
 106.1005627  71.5872679  91.2207678 107.0032874  71.6196290  91.5374173
 105.8742997  70.6573130  91.2354014 107.8559229  70.3403666  87.8817756
 106.9054860  70.3405527  87.7682129 108.1591715  69.5936400  87.3653791
 111.7421785  48.2577552  84.0495937 110.9754181  47.7036039  84.1952619
 112.1532490  48.3299421  84.9110088 103.7463546  54.5462348  98.1401118
 104.6095007  54.1899153  98.3504442 103.1728956  54.2076243  98.8276522
 120.4001629  76.1291632  88.8825044 120.0620141  76.0132697  87.9945578
 121.2691397  75.7282797  88.8626050 116.2588445  77.9827109  84.8721934
 115.6953310  77.8917046  84.1038222 116.1440840  77.1627013  85.3524427
 120.8821412  77.2826484  94.8411249 120.8710053  76.8879282  93.9691753
 121.0442052  76.5492557  95.4345021 113.8052877  79.4778300  87.7106155
 114.5974169  79.1369125  87.2952454 114.0449527  79.5873275  88.6308308
 115.7643631  78.7387214  80.5823534 116.5374507  78.1916201  80.4436410
 116.1169029  79.6031463  80.7937995 117.6028673  80.0663596  93.7890433
 117.3118539  80.9709227  93.6737099 118.2385658  80.1080124  94.5034503
 118.5284880  77.4440444  90.3791793 119.1248452  77.2196467  89.6648756
 118.5859852  76.7025190  90.9817241 118.1009908  74.8979880  78.2141984
 118.3535429  74.3761401  77.4525447 117.1634468  74.7346025  78.3168667
 117.8206197  76.8007986  80.4166359 117.7042455  76.1252889  81.0847443
 117.9308457  76.3140360  79.5998512 120.1637738  76.2618133  84.1213048
 119.7995945  75.7348754  84.8325969 121.0204854  75.8716602  83.9479533
 119.8043225  71.2908032  79.1174396 119.9717627  72.1588269  79.4844867
 119.6140394  71.4535314  78.1935686 116.0131040  76.2038808  86.8176931
 115.0881536  76.0715022  87.0254623 116.2615453  76.9833027  87.3146874
 119.7832446  73.7465690  80.1021063 119.6632071  74.1922741  80.9406543
 119.0885034  74.0951008  79.5434601 113.3739851  75.8472082  87.6520720
 113.5032232  76.1006561  88.5660132 112.6937302  76.4399790  87.3325375
 117.5439338  86.5169332  83.7511194 117.4663368  87.4677157  83.8299675
 116.9400982  86.1715204  84.4086121 120.0356568  73.6897197  96.4072561
 119.2589902  74.2491117  96.3975426 120.6747131  74.1753980  96.9287431
 118.2902940  76.4982651  95.9690528 119.0317625  77.0367695  95.6925352
 117.5839926  77.1248939  96.1262080 120.1189350  73.5784398  91.9396247
 120.9650545  74.0023811  92.0830896 120.0587987  72.9218022  92.6334810
 119.6415056  78.9387390  85.5865064 120.1053402  79.2175093  84.7969686
 119.3771854  78.0370834  85.4038154 116.5339137  78.4858871  88.5244827
 117.1040494  78.9146140  87.8862312 117.1247249  78.2041456  89.2229013
 118.5783942  75.0610542  82.3954629 119.2807986  75.5131586  82.8628555
 118.2464571  74.4194361  83.0234522 117.0264304  73.6522299  96.7705838
 116.3962964  74.3338580  97.0041235 116.9200392  73.5405380  95.8258977
 112.3209276  73.3194095  87.6971762 111.5308330  73.5751623  87.2211873
 112.8120524  74.1342433  87.8023803 114.2724022  73.6838674  84.6555239
 113.4755185  73.7957368  85.1738735 114.0449614  74.0225326  83.7896130
 120.1029689  80.2083377  92.6037754 120.1674122  80.6703784  93.4395926
 119.3940613  79.5780742  92.7320064 110.6046979  73.5724585  90.1286753
 110.8555018  74.4571595  90.3944329 111.1406528  73.3929187  89.3561845
 119.8177707  81.8751485  82.4716734 119.6823382  82.7203020  82.9001582
 120.3587519  82.0770762  81.7082668 116.3045047  67.9543065  99.1331089
 115.9111992  67.4009263  99.8078734 117.1211187  68.2653643  99.5237607
 113.2707104  79.3926923  83.0444659 113.7831625  80.1870173  83.1950224
 113.9229817  78.6953213  82.9778261 115.0801989  82.5092679  85.1267412
 115.2568617  83.4310644  84.9388396 115.8758823  82.1951098  85.5561792
 119.2213008  69.3700944  96.7251346 119.9622721  69.9708097  96.6455808
 119.4530930  68.6278581  96.1669389 114.3654346  74.5557311  95.0029576
 114.2507861  73.6542568  95.3036675 113.5098863  74.8021008  94.6514392
 116.2033305  84.0270853  91.1277755 116.7540730  83.8987916  90.3554749
 115.3644780  84.3265742  90.7772648 120.0000476  80.2921981  95.4721986
 120.5328812  79.5310269  95.2421294 119.4714557  79.9995632  96.2146140
 111.2356021  77.7215577  83.8204230 112.0731243  78.1312585  83.6037937
 111.4134289  76.7815019  83.7904424 120.7167564  70.2340358  84.5673301
 119.8609161  69.8447209  84.3878940 121.1294516  70.3132319  83.7073087
 118.4909597  67.8525431  87.9731043 119.3562594  67.6568240  87.6136932
 118.5587106  67.6235783  88.9000399 121.3653188  79.4207973  82.9840798
 120.8374550  78.6860733  82.6714035 120.8640691  80.1982649  82.7380766
 116.0971916  70.0827639  85.3447409 116.6715668  69.8602821  84.6120602
 116.6842898  70.1516334  86.0976011 116.4241503  72.1132100  79.3643295
 115.5878815  72.4506787  79.6852569 116.2846273  71.9781080  78.4270432
 118.3994584  66.9568888  84.0722479 117.7458996  66.6417905  83.4479094
 118.3575058  66.3344629  84.7982302 119.5105788  77.2388183  75.9875771
 118.6032850  77.0077437  76.1866920 120.0076820  76.4425803  76.1749752
 120.6894022  77.3400778  80.5099761 119.7805241  77.0559811  80.6072231
 120.7189106  77.7599857  79.6503068 111.2582192  75.0606292  84.4914963
 111.0606592  74.4675653  83.7666030 110.7028856  74.7558503  85.2090902
 119.2378916  74.9529399  86.6109556 119.2927526  74.0003235  86.5352033
 118.4270118  75.1088838  87.0950855 120.3870110  78.8809522  77.8487840
 119.9489540  78.1645381  77.3893477 121.1280551  79.1085637  77.2872931
 117.1771276  73.5706459  84.3699935 116.3639141  73.8700629  84.7765127
 117.6730270  73.1762147  85.0874417 119.3279854  83.5664216  86.3034200
 119.2856033  83.7925062  85.3742732 120.2442553  83.3327590  86.4520001
 116.6685351  71.1424814  89.9861170 117.3084730  71.0013573  89.2884134
 115.8362881  70.8559327  89.6099772 117.4445655  80.4427245  86.0996163
 118.2386253  79.9477565  85.8978738 116.7337347  79.9145108  85.7363868
 113.7528418  74.5870326  82.1755915 112.8226006  74.5254782  82.3925877
 113.8485890  74.0646279  81.3792557 113.6713967  71.1125139  84.7634157
 113.9320784  72.0270472  84.6543317 114.4931139  70.6449582  84.9130770
 115.1438892  72.5262896  91.9332982 115.8161946  72.3180258  91.2845630
 114.3168679  72.3284982  91.4938214 120.0216931  81.0156267  89.7794000
 119.8828016  80.6475051  90.6519938 119.2331527  81.5303906  89.6077958
 120.6165082  86.1165363  81.1219536 120.7916838  85.6453406  81.9365159
 119.9297871  86.7431129  81.3500797 121.5722146  80.3937869  87.1682838
 121.2371978  80.3538639  88.0640487 121.0726091  79.7282585  86.6953248
 115.5466390  75.8005499  92.6935419 115.4086188  75.0685738  93.2946958
 116.4571313  75.7114399  92.4119606 118.1748690  75.5125459  92.1819098
 118.8848309  74.8718651  92.1405717 118.1317998  75.7638353  93.1045279
 116.8877624  72.4990676  94.0014738 116.3514981  72.0481415  94.6536334
 116.2994333  72.6336585  93.2585202 115.1826168  89.2654726  87.8959396
 115.4222766  89.8973250  88.5738415 114.3395364  88.9142766  88.1824756
 116.2979883  71.9579328  76.5641201 115.4209350  71.8368129  76.2003448
 116.7737636  71.1665406  76.3120090 107.8182023  76.7456488  86.6582709
 108.5053063  76.4318218  86.0703724 107.6630152  77.6497852  86.3849960
 112.6216746  71.6346684  91.0867732 112.5374934  71.0272354  90.3518142
 111.7999452  72.1255702  91.0877229 119.6954030  85.0733848  90.3000900
 119.6224201  85.8788820  90.8120205 119.2531423  85.2725814  89.4748922
 119.4843809  84.3105618  83.8103722 118.7011331  84.8527298  83.9041946
 120.1836554  84.8279598  84.2097963 119.3775428  72.2617631  86.1809612
 119.0073216  71.7088671  86.8690518 119.8734521  71.6575764  85.6284612
 117.2064627  82.7215126  93.2764630 117.9074086  83.3551609  93.4294024
 116.7359742  83.0629857  92.5160269 112.8032345  82.2551481  90.2095733
 113.3885782  81.5095169  90.3423637 112.6057183  82.5655437  91.0932396
 115.6571000  85.2902728  85.2258175 114.9881375  85.7748856  84.7422215
 115.5183870  85.5371949  86.1401553 107.3949999  74.8257081  88.9300176
 107.4334099  74.2920672  89.7237294 106.8890292  74.2992286  88.3111153
 119.7976269  87.3246472  91.8240833 120.3494577  87.4878093  92.5889919
 120.1382462  87.9150909  91.1520858 114.7740762  69.6721621  92.4262718
 114.8382088  70.5336452  92.0140116 114.7107882  69.0595623  91.6935077
 114.2493034  71.7444754  96.0735752 114.8765073  71.3621831  96.6873277
 113.3920953  71.5258956  96.4391445 111.0258577  73.5521183  82.0054107
 111.3212018  72.6431862  81.9521161 110.1246613  73.5308923  81.6835109
 114.5552824  71.6277180  87.9881656 113.8339410  72.2413147  87.8489129
 115.3446080  72.1634944  87.9098302 117.3579138  68.9631606  94.2622307
 117.8813539  69.2093903  95.0248617 117.1391471  69.7951641  93.8425445
 112.7546419  71.2335281  82.1293432 112.4259125  70.3532660  81.9468538
 113.1085789  71.1782949  83.0169822 115.8688242  71.5208251  82.4968910
 116.2084314  72.0494172  81.7747518 116.3160362  71.8588657  83.2727476
 118.5631683  69.9045301  91.9471978 118.2228503  69.1053114  92.3492658
 117.8570689  70.2047012  91.3748811 119.2148154  66.9894614  90.3999301
 120.0374224  66.5155092  90.2778191 119.4586218  67.7685097  90.8997987
 117.8556389  70.0182872  80.6962203 118.5764751  70.3964125  80.1925920
 117.2321693  70.7371749  80.7997181 116.7386733  73.6813734  88.2091280
 116.5931314  73.9954037  89.1015561 116.2611937  74.2998635  87.6562178
 118.5983116  70.6716282  88.2572169 118.5844685  69.7757376  87.9204467
 119.3155544  70.6786946  88.8910455 120.4509247  71.1053623  90.3025297
 120.1927025  72.0270693  90.3009627 119.9194287  70.7084057  90.9925761
 111.2132395  76.2219079  91.1478941 110.6685863  76.9978887  91.2799215
 112.0911745  76.5689883  90.9898062 118.0020012  69.5530663  83.5259739
 118.1235923  68.6247309  83.7250627 117.7122054  69.5669349  82.6138055
 120.8711202  67.2385573  86.6626459 120.8932899  67.3024906  85.7078439
 121.2879261  66.3990082  86.8566965 111.9998417  75.3488975  94.0409098
 111.2580153  75.4971610  94.6273728 111.6791162  75.6097241  93.1775847
 119.9442080  84.8904953  93.8389488 120.2529206  84.6454100  94.7112187
 120.7417562  85.0951592  93.3508358 119.9662692  87.0442863  86.0694864
 119.5267682  86.5519242  86.7627721 120.7170809  86.5015831  85.8286939
 112.4455031  83.2354404  86.0719492 113.2713051  82.9358176  85.6918136
 112.0949083  82.4662026  86.5209281 117.4136564  82.5880872  88.1417166
 116.7916573  81.9251577  87.8419394 118.0841431  82.6142004  87.4590814
 110.6463636  81.1540730  87.0308426 109.8095544  80.7262905  86.8492427
 110.6187281  81.3473174  87.9679217 117.4861092  71.0662660  97.7349672
 117.5349247  71.9424783  97.3527442 118.0283606  70.5240053  97.1621315
 116.9750071  81.1384795  81.6175626 117.1238191  81.8220260  80.9642299
 117.7816514  81.1189885  82.1325082 119.7160380  71.8194032  94.4896031
 118.8463689  72.1127598  94.2178619 119.9519860  72.4034477  95.2103294
 114.7302704  77.1649973  82.6236695 114.4848746  76.2612303  82.8216906
 114.8998619  77.1667123  81.6816173 113.9998352  72.8978331  80.1222857
 113.3067596  72.9722685  79.4662893 113.7550103  72.1338674  80.6444374
 120.4745477  83.6332926  79.0887374 119.9019444  84.2523113  78.6357846
 121.0478270  84.1832287  79.6227296 119.0435192  72.8943715  76.3658312
 118.1366648  72.5976828  76.4421025 119.3211173  72.5973533  75.4992598
 109.9613133  74.2150078  86.8157358 109.6415917  73.3615386  86.5231732
 109.4146561  74.4298656  87.5715325 113.7393040  76.9312519  90.5326865
 113.9579050  77.8629627  90.5514898 114.1518814  76.5720494  91.3181668
 120.6597258  67.4380605  82.5202553 119.8497986  67.0927690  82.8957799
 121.3481675  67.1288148  83.1090164 118.6120905  72.5045725  99.9229613
 118.5117632  73.4540082  99.8541705 118.3942447  72.1763964  99.0505684
 117.8133977  69.7530650  76.5070291 118.6753141  70.0785548  76.7666108
 117.9984321  68.9662146  75.9943357 109.8301393  77.8352990  88.7850480
 109.1364864  77.4206943  88.2720434 110.5774384  77.8773526  88.1883898
 118.4752175  75.9342864  98.7394675 117.9919257  76.7343224  98.9458564
 118.5613115  75.9450809  97.7862119 111.7438135  77.7671244  86.6616494
 111.7208823  77.8658931  85.7098378 112.0538772  78.6136394  86.9833661
 114.4025513  79.8247399  90.7763109 115.3568767  79.7931341  90.7093040
 114.2038037  79.3638022  91.5913335 114.9924895  78.3948515  93.3433907
 115.8117784  78.8892593  93.3668744 115.2661703  77.4780483  93.3151474
 112.7575742  85.3667018  87.7933307 112.6230210  84.6067419  87.2271305
 112.3407804  86.0907918  87.3262096 115.9144868  86.2636335  88.0051749
 115.7977252  87.2081768  87.9030440 115.0937314  85.9609897  88.3937549
 110.2459809  72.7286649  94.0426104 110.8918673  72.2185602  94.5313329
 110.0376960  73.4655330  94.6169529 118.7663420  66.9926693  79.7950000
 118.7542090  67.9368533  79.9518271 119.6586842  66.8096839  79.5009461
 116.9399382  86.9164597  91.2207678 117.8426628  86.9488207  91.5374173
 116.7136752  85.9865048  91.2354014 118.6952984  85.6695584  87.8817756
 117.7448615  85.6697445  87.7682129 118.9985470  84.9228318  87.3653791
 114.5857300  69.8754266  98.1401118 115.4488762  69.5191070  98.3504442
 114.0122711  69.5368160  98.8276522 118.6575778  92.0748405  86.6582709
 119.3446818  91.7610135  86.0703724 118.5023907  92.9789770  86.3849960
 118.2343754  90.1548999  88.9300176 118.2727853  89.6212589  89.7237294
 117.7284047  89.6284204  88.3111153 121.4857390  96.4832648  87.0308426
 120.6489299  96.0554822  86.8492427 121.4581036  96.6765091  87.9679217
 120.8006887  89.5441996  86.8157358 120.4809671  88.6907304  86.5231732
 120.2540315  89.7590574  87.5715325 120.6695147  93.1644907  88.7850480
 119.9758618  92.7498860  88.2720434 121.4168138  93.2065444  88.1883898
  74.1864321   2.2063784  70.4756501  74.1088351   3.1571609  70.5544982
  73.5825965   1.8609656  71.1331427  71.8251151   4.9549178  74.6204703
  72.0647749   5.5867702  75.2983722  70.9820348   4.6037218  74.9070062
  72.2995983   0.9797180  71.9503482  71.6306359   1.4643308  71.4667522
  72.1608853   1.2266400  72.8646860  76.4401252   3.0140924  78.5486140
  76.9919560   3.1772545  79.3135225  76.7807445   3.6045361  77.8766165
  69.4000725   1.0561470  74.5178613  69.2655193   0.2961871  73.9516611
  68.9832787   1.7802370  74.0507402  72.5569851   1.9530787  74.7297056
  72.4402235   2.8976219  74.6275746  71.7362297   1.6504349  75.1182855
  73.5824365   2.6059049  77.9452984  74.4851612   2.6382659  78.2619479
  73.3561735   1.6759500  77.9599320  87.8820367   7.1478002  75.6070350
  87.5438878   7.0319067  74.7190885  88.7510135   6.7469167  75.5871356
  83.7407183   9.0013478  71.5967241  83.1772048   8.9103415  70.8283529
  83.6259578   8.1813383  72.0769734  88.3640150   8.3012854  81.5656556
  88.3528791   7.9065652  80.6937059  88.5260789   7.5678926  82.1590327
  81.2871614  10.4964670  74.4351462  82.0792906  10.1555495  74.0197761
  81.5268265  10.6059645  75.3553615  89.3206741  12.6684446  66.9081706
  88.6694721  13.2538526  66.5215720  90.1151104  13.1990641  66.9676743
  83.2462368   9.7573583  67.3068840  84.0193244   9.2102570  67.1681716
  83.5987767  10.6217833  67.5183302  85.0847411  11.0849965  80.5135740
  84.7937277  11.9895596  80.3982406  85.7204395  11.1266493  81.2279809
  86.0103618   8.4626814  77.1037099  86.6067190   8.2382836  76.3894062
  86.0678589   7.7211559  77.7062547  90.7982006  10.3574878  67.4450690
  90.1627839  10.4309504  68.1571595  90.4679413  10.9468477  66.7669770
  85.3024935   7.8194355  67.1411665  85.1861193   7.1439259  67.8092750
  85.4127195   7.3326729  66.3243818  87.6456476   7.2804502  70.8458354
  87.2814683   6.7535123  71.5571276  88.5023592   6.8902971  70.6724840
  90.0437296  10.7711381  77.5085533  89.7438019  11.6736420  77.4001341
  89.6988356  10.5043564  78.3606686  83.4949778   7.2225178  73.5422238
  82.5700274   7.0901392  73.7499930  83.7434191   8.0019397  74.0392180
  80.8558589   6.8658451  74.3766027  80.9850970   7.1192930  75.2905439
  80.1756040   7.4586159  74.0570682  85.0258076  17.5355701  70.4756501
  84.9482106  18.4863526  70.5544982  84.4219719  17.1901574  71.1331427
  85.7721678   7.5169020  82.6935835  86.5136362   8.0554064  82.4170659
  85.0658663   8.1435309  82.8507387  91.2477018   9.6598161  81.2907996
  91.6560374   9.2180571  80.5462629  90.5254279   9.0850788  81.5442189
  91.5705832  10.2199351  75.0460285  90.9414695  10.3845065  74.3436353
  91.1831494  10.6340961  75.8171249  95.4495064  11.1553789  72.4004649
  94.7646102  11.5352690  71.8501682  95.5338913  11.7649116  73.1336597
  92.7045996   8.8013748  78.9999993  92.9162891   9.4445508  78.3234374
  92.6575744   7.9676065  78.5321923  87.1233794   9.9573759  72.3110370
  87.5872140  10.2361462  71.5214993  86.8590592   9.0557204  72.1283461
  84.0157875   9.5045241  75.2490134  84.5859232   9.9332509  74.6107618
  84.6065987   9.2227826  75.9474319  79.8028014   4.3380464  74.4217069
  79.0127068   4.5937993  73.9457180  80.2939261   5.1528802  74.5269110
  93.8191824  11.6785703  77.1722350  94.6409267  11.2765891  76.8905032
  93.8154227  11.5753938  78.1238466  81.7542759   4.7025044  71.3800546
  80.9573923   4.8143738  71.8984042  81.5268352   5.0411696  70.5141436
  87.5848427  11.2269747  79.3283060  87.6492860  11.6890154  80.1641232
  86.8759351  10.5967112  79.4565370  78.0865717   4.5910955  76.8532060
  78.3373756   5.4757965  77.1189636  78.6225265   4.4115556  76.0807152
  87.2996445  12.8937854  69.1962041  87.1642120  13.7389390  69.6246889
  87.8406257  13.0957132  68.4327975  80.7525842  10.4113292  69.7689966
  81.2650363  11.2056543  69.9195531  81.4048555   9.7139583  69.7023567
  82.5620727  13.5279049  71.8512719  82.7387355  14.4497013  71.6633703
  83.3577560  13.2137468  72.2807099  81.8473083   5.5743680  81.7274882
  81.7326599   4.6728938  82.0281981  80.9917601   5.8207377  81.3759699
  88.9264921  13.5161421  83.3262383  88.4828775  12.7297799  83.0083287
  89.5882135  13.7040571  82.6606274  83.6852042  15.0457222  77.8523061
  84.2359467  14.9174286  77.0800055  82.8463518  15.3452111  77.5017954
  91.0246159  13.7964221  81.3543784  91.0064635  14.6173102  80.8624053
  91.9466079  13.6718296  81.5793925  87.4819213  11.3108350  82.1967293
  88.0147550  10.5496638  81.9666600  86.9533294  11.0182002  82.9391447
  78.7174759   8.7401947  70.5449536  79.5549981   9.1498955  70.3283244
  78.8953027   7.8001389  70.5149730  88.8471926  10.4394343  69.7086105
  88.3193288   9.7047102  69.3959342  88.3459429  11.2169019  69.4626073
  93.8264772   8.6343363  74.8253151  93.1688447   9.3242625  74.9133279
  94.6305171   9.0239795  75.1687137  86.9924526   8.2574553  62.7121078
  86.0851588   8.0263806  62.9112227  87.4895558   7.4612172  62.8995059
  89.8992605  16.9672060  65.6317764  89.2254304  17.2703757  66.2402722
  90.2858427  17.7701140  65.2823221  88.1712760   8.3587148  67.2345068
  87.2623979   8.0746181  67.3317537  88.2007843   8.7786226  66.3748374
  93.4032027  11.9693737  71.0036235  92.9494354  11.1284647  71.0601426
  92.7725994  12.6055136  71.3411015  91.8464966  13.8070234  71.9386053
  92.1387941  14.3675291  71.2198419  92.3563587  14.0998795  72.6939212
  78.7400930   6.0792662  71.2160270  78.5425330   5.4862023  70.4911336
  78.1847594   5.7744872  71.9336209  87.8688847   9.8995891  64.5733146
  87.4308277   9.1831750  64.1138784  88.6099288  10.1272006  64.0118238
  86.8098592  14.5850585  73.0279507  86.7674770  14.8111431  72.0988039
  87.7261290  14.3513960  73.1765308  96.0131342  10.2429616  75.6420736
  96.4467849  10.1504905  76.4903790  96.7262923  10.2187116  75.0040752
  84.9264392  11.4613614  72.8241469  85.7204991  10.9663934  72.6224044
  84.2156085  10.9331477  72.4609175  89.7459237  13.8431710  77.1753837
  89.7996259  14.4122646  77.9431553  88.8774018  14.0133595  76.8107874
  81.2347156   5.6056696  68.9001222  80.3044744   5.5441151  69.1171184
  81.3304628   5.0832649  68.1037863  96.8746891  10.2853316  78.1753622
  97.0682782  11.1899127  78.4212897  96.7747510   9.8260735  79.0092207
  91.9362000  10.4360059  83.7494502  91.7847507  10.2070611  82.8324586
  91.9266680  11.3930660  83.7625847  88.7047337   8.0091972  78.7340769
  89.6339397   8.1603131  78.5609736  88.2838367   8.0975992  77.8789415
  87.5035668  12.0342636  76.5039306  87.3646754  11.6661420  77.3765244
  86.7150265  12.5490276  76.3323264  88.0983820  17.1351733  67.8464843
  88.2735576  16.6639776  68.6610466  87.4116608  17.7617499  68.0746104
  89.0540883  11.4124239  73.8928144  88.7190716  11.3725009  74.7885794
  88.5544829  10.7468955  73.4198554  83.0285127   6.8191869  79.4180725
  82.8904925   6.0872108  80.0192264  83.9390051   6.7300769  79.1364913
  91.9900075   8.7580273  64.1665204  91.3729246   8.0327101  64.0698256
  91.5216564   9.5189633  63.8232278  85.6567428   6.5311828  78.9064405
  86.3667047   5.8905020  78.8651023  85.6136736   6.7824723  79.8290586
  93.6454207  13.4679181  81.8270984  93.5866753  12.7838402  81.1601567
  94.0473725  14.2098171  81.3751610  82.6644906  20.2841095  74.6204703
  82.9041504  20.9159619  75.2983722  81.8214102  19.9329135  74.9070062
  93.6471614  11.4318765  80.0584964  92.7598393  11.0944687  80.1811363
  94.2170165  10.7001797  80.2953729  75.3000761   7.7642857  73.3828015
  75.9871801   7.4504587  72.7949031  75.1448890   8.6684222  73.1095267
  87.1772767  16.0920218  77.0246207  87.1042939  16.8975189  77.5365512
  86.7350161  16.2912184  76.1994228  86.9662547  15.3291988  70.5349029
  86.1830069  15.8713668  70.6287253  87.6655292  15.8465967  70.9343270
  89.6371451  15.9907052  79.1804366  90.3499423  16.6254517  79.1080267
  89.1461480  16.0870918  78.3644368  91.3588978   9.8958304  70.7521657
  90.4245257  10.0159767  70.5826362  91.5365646   8.9930771  70.4881667
  84.6883364  13.7401495  80.0009937  85.3892824  14.3737978  80.1539331
  84.2178479  14.0816227  79.2405576  92.8137760  12.0819445  68.2857844
  93.0897604  11.9676040  69.1951718  91.9442259  11.6836930  68.2470017
  89.4491824  16.3305796  71.9290657  89.6314219  15.5127452  72.3918410
  90.2724810  16.5473488  71.4915547  89.7833990  15.2573981  69.1905706
  90.3121756  14.7466436  68.5775868  90.0462209  14.9416511  70.0551239
  88.5372223   7.0365914  84.3128524  87.8612860   6.9360043  84.9830899
  89.3599857   6.8805128  84.7764521  80.2851083  13.2737850  76.9341039
  80.8704519  12.5281538  77.0668943  80.0875921  13.5841807  77.8177703
  83.1389738  16.3089098  71.9503482  82.4700113  16.7935225  71.4667522
  83.0002607  16.5558318  72.8646860  74.8768737   5.8443451  75.6545482
  74.9152837   5.3107041  76.4482600  74.3709030   5.3178656  75.0356460
  87.2795006  18.3432841  78.5486140  87.8313314  18.5064463  79.3135225
  87.6201200  18.9337279  77.8766165  92.1305881  13.1694099  84.4034794
  92.6745785  13.7824057  83.9089749  91.5492726  13.7273677  84.9201807
  78.5077315   4.5707553  68.7299414  78.8030756   3.6618231  68.6766467
  77.6065351   4.5495292  68.4080416  90.4163394  16.2914817  75.5349822
  90.2914533  15.4904557  75.0260768  91.0742485  16.7861010  75.0463792
  92.4798302  14.0923837  77.1629372  91.5328638  13.9729188  77.0907699
  92.8281075  13.2046335  77.2455634  89.4844735  13.8876553  73.3633724
  89.3369698  12.9593260  73.5441294  90.3098229  13.9096644  72.8790800
  93.0878857  14.7105112  74.4498597  94.0125405  14.5047973  74.3123048
  92.9194161  14.4621513  75.3587939  92.8774173  15.2290779  69.8060689
  93.0511051  14.6637202  69.0534541  93.3703065  16.0291674  69.6240179
  78.6951133   7.2405448  77.8724247  78.1504601   8.0165256  78.0044522
  79.5730483   7.5876253  77.7143369  93.8649346  14.5457544  66.9057587
  94.5600250  15.1664236  67.1244902  94.2072496  13.6952895  67.1809965
  79.4817155   6.3675345  80.7654404  78.7398891   6.5157980  81.3519035
  79.1609899   6.6283610  79.9021154  95.7640769  11.9957249  68.4344918
  96.2892093  12.3344522  67.7094238  95.6763122  11.0604264  68.2508052
  87.4260818  15.9091323  80.5634794  87.7347944  15.6640470  81.4357494
  88.2236300  16.1137961  80.0753665  87.4481430  18.0629232  72.7940171
  87.0086420  17.5705611  73.4873028  88.1989547  17.5202200  72.5532246
  79.9273769  14.2540773  72.7964799  80.7531789  13.9544545  72.4163442
  79.5767821  13.4848396  73.2454588  84.8955302  13.6067242  74.8662473
  84.2735311  12.9437947  74.5664700  85.5660169  13.6328373  74.1836120
  78.1282374  12.1727100  73.7553733  77.2914282  11.7449274  73.5737734
  78.1006019  12.3659543  74.6924524  95.4534675  12.6290153  83.7396116
  94.6630219  12.6114292  83.2000615  95.2168030  13.1678446  84.4945152
  84.4568809  12.1571165  68.3420933  84.6056929  12.8406629  67.6887606
  85.2635252  12.1376255  68.8570389  97.0750747  11.8979561  81.2970866
  96.7835555  12.2609541  82.1334327  96.4622878  11.1846569  81.1184198
  82.2121442   8.1836342  69.3482002  81.9667484   7.2798672  69.5462212
  82.3817356   8.1853493  68.4061480  87.9564214  14.6519295  65.8132681
  87.3838181  15.2709482  65.3603152  88.5297008  15.2018657  66.3472602
  91.1761474  14.9356445  66.9441263  92.1092147  14.8702007  67.1474138
  91.0884687  15.7712712  66.4855795  93.8049491  14.2522316  63.9045210
  93.7263122  13.9182179  64.7980968  94.6259158  14.7444084  63.9036683
  88.2249705  10.0397854  84.6149390  89.1452715  10.2176453  84.8089437
  88.1899288   9.0953900  84.4629089  77.4431870   5.2336448  73.5402665
  77.1234655   4.3801756  73.2477039  76.8965299   5.4485026  74.2960632
  81.2211778   7.9498889  77.2572171  81.4397788   8.8815997  77.2760205
  81.6337552   7.5906863  78.0426975  77.3120130   8.8539359  75.5095786
  76.6183602   8.4393312  74.9965741  78.0593121   8.8959896  74.9129205
  85.9570913   6.9529233  85.4639982  85.4737995   7.7529594  85.6703871
  86.0431852   6.9637178  84.5107426  79.2256873   8.7857613  73.3861801
  79.2027561   8.8845300  72.4343684  79.5357509   9.6322764  73.7078967
  81.8844251  10.8433768  77.5008416  82.8387504  10.8117710  77.4338347
  81.6856774  10.3824392  78.3158641  82.4743633   9.4134884  80.0679213
  83.2936522   9.9078963  80.0914050  82.7480441   8.4966852  80.0396781
  80.2394480  16.3853388  74.5178613  80.1048947  15.6253789  73.9516611
  79.8226542  17.1094288  74.0507402  91.3753443  11.5690311  63.5255189
  92.0789293  11.7740314  64.1412844  90.6516091  12.1367073  63.7904272
  83.3963605  17.2822705  74.7297056  83.2795990  18.2268137  74.6275746
  82.5756052  16.9796266  75.1182855  93.2840140  12.0072840  65.5753649
  94.1185744  11.5754039  65.3931124  93.1224483  11.8354854  66.5030543
  92.9386032   8.5104954  66.9409988  92.8834836   8.3449225  65.9998432
  92.3132087   9.2180987  67.0972178  77.7278547   3.7473018  80.7671410
  78.3737411   3.2371972  81.2558635  77.5195698   4.4841700  81.3414835
  90.2531939  10.8153866  86.2663551  91.1223099  10.9894518  85.9050186
  89.7738691  11.6348282  86.1439280  84.4218120  17.9350967  77.9452984
  85.3245366  17.9674577  78.2619479  84.1955490  17.0051418  77.9599320
  86.1771722  16.6881953  74.6063063  85.2267353  16.6883815  74.4927435
  86.4804208  15.9414688  74.0899098 101.9124415  22.5242492  75.6708825
 102.5502825  22.4049239  74.9672166 101.7945258  23.4723335  75.7296778
  98.7214121  22.4769920  75.6070350  98.3832633  22.3610984  74.7190885
  99.5903890  22.0761085  75.5871356  94.5800937  24.3305396  71.5967241
  94.0165802  24.2395333  70.8283529  94.4653332  23.5105300  72.0769734
  99.2033904  23.6304771  81.5656556  99.1922545  23.2357570  80.6937059
  99.3654544  22.8970844  82.1590327  92.1265369  25.8256588  74.4351462
  92.9186661  25.4847412  74.0197761  92.3662019  25.9351563  75.3553615
 100.1600496  27.9976364  66.9081706  99.5088475  28.5830444  66.5215720
 100.9544859  28.5282559  66.9676743  94.0856123  25.0865501  67.3068840
  94.8586999  24.5394488  67.1681716  94.4381522  25.9509750  67.5183302
  95.9241165  26.4141883  80.5135740  95.6331031  27.3187514  80.3982406
  96.5598150  26.4558411  81.2279809  96.8497372  23.7918732  77.1037099
  97.4460945  23.5674754  76.3894062  96.9072344  23.0503477  77.7062547
  96.4222401  21.2458167  64.9387290  96.6747921  20.7239688  64.1770753
  95.4846960  21.0824312  65.0413974 101.4665684  20.2493945  72.7462034
 102.2528773  19.8313369  72.3952451 101.7304388  21.1540038  72.9143682
 101.6375761  25.6866796  67.4450690 101.0021594  25.7601422  68.1571595
 101.3073167  26.2760394  66.7669770 106.8674111  20.1869179  73.6495012
 107.5999283  19.6168395  73.8832842 106.1113466  19.7990779  74.0901518
  96.1418689  23.1486273  67.1411665  96.0254948  22.4731176  67.8092750
  96.2520949  22.6618647  66.3243818  98.4850230  22.6096420  70.8458354
  98.1208438  22.0827041  71.5571276  99.3417346  22.2194889  70.6724840
 104.3899531  13.8990753  78.1089621 104.0582856  14.7686164  77.8850836
 103.7945144  13.5827037  78.7883651  98.1255717  17.6386320  65.8419703
  98.2930120  18.5066556  66.2090174  97.9352886  17.8013601  64.9180992
 100.8831051  26.1003299  77.5085533 100.5831774  27.0028337  77.4001341
 100.5382110  25.8335482  78.3606686  94.3343532  22.5517095  73.5422238
  93.4094028  22.4193310  73.7499930  94.5827945  23.3311315  74.0392180
 104.2828194  18.6185839  75.1882971 103.3745072  18.5501247  74.8941732
 104.2315790  19.0957784  76.0164796  98.1044938  20.0943977  66.8266370
  97.9844563  20.5401028  67.6651850  97.4097527  20.4429295  66.2679908
  91.6952343  22.1950369  74.3766027  91.8244724  22.4484848  75.2905439
  91.0149794  22.7878077  74.0570682  95.8651830  32.8647619  70.4756501
  95.7875860  33.8155444  70.5544982  95.2613474  32.5193491  71.1331427
  98.3569060  20.0375484  83.1317868  97.5802394  20.5969405  83.1220733
  98.9959623  20.5232267  83.6532738 106.1489841  16.8202277  76.9660845
 105.5064221  17.1134810  76.3200639 105.6444769  16.7055198  77.7714041
 103.8030004  20.5665450  67.6546704 104.7147861  20.7992837  67.4794401
 103.2939651  21.1502495  67.0921782  96.6115432  22.8460938  82.6935835
  97.3530117  23.3845982  82.4170659  95.9052418  23.4727227  82.8507387
 102.0870772  24.9890078  81.2907996 102.4954128  24.5472489  80.5462629
 101.3648034  24.4142706  81.5442189  98.4401842  19.9262685  78.6641553
  99.2863037  20.3502099  78.8076202  98.3800480  19.2696309  79.3580117
 102.4099587  25.5491269  75.0460285 101.7808449  25.7136983  74.3436353
 102.0225249  25.9632878  75.8171249 106.2888819  26.4845707  72.4004649
 105.6039857  26.8644608  71.8501682 106.3732668  27.0941033  73.1336597
 101.5901287  17.5867053  80.3222727 101.3462219  18.3409114  79.7857003
 101.8661218  17.9652401  81.1569974 103.5439750  24.1305666  78.9999993
 103.7556645  24.7737426  78.3234374 103.4969498  23.2967982  78.5321923
 101.1465979  16.7423486  75.9036565 100.2850458  17.0404740  76.1953302
 101.1728414  16.9593885  74.9717597  97.9627549  25.2865677  72.3110370
  98.4265894  25.5653380  71.5214993  97.6984347  24.3849122  72.1283461
  94.8551630  24.8337159  75.2490134  95.4252987  25.2624427  74.6107618
  95.4459741  24.5519743  75.9474319  96.8996435  21.4088829  69.1199936
  97.6020478  21.8609873  69.5873862  96.5677063  20.7672648  69.7479829
  95.3476796  20.0000586  83.4951145  94.7175457  20.6816867  83.7286542
  95.2412884  19.8883668  82.5504283  90.6421769  19.6672382  74.4217069
  89.8520823  19.9229911  73.9457180  91.1333016  20.4820720  74.5269110
 104.6585578  27.0077621  77.1722350 105.4803022  26.6057808  76.8905032
 104.6547981  26.9045855  78.1238466  92.5936514  20.0316961  71.3800546
  91.7967677  20.1435655  71.8984042  92.3662106  20.3703613  70.5141436
  98.4242182  26.5561664  79.3283060  98.4886614  27.0182072  80.1641232
  97.7153105  25.9259029  79.4565370  88.9259472  19.9202872  76.8532060
  89.1767510  20.8049882  77.1189636  89.4619020  19.7407474  76.0807152
 112.7491571  23.3516370  73.5207321 111.9955280  22.7823768  73.3651326
 112.8839112  23.3179034  74.4677956  98.1390199  28.2229772  69.1962041
  98.0035874  29.0681308  69.6246889  98.6800012  28.4249050  68.4327975
  94.6257539  14.3021352  85.8576396  94.2324484  13.7487550  86.5324040
  95.4423679  14.6131930  86.2482914  91.5919597  25.7405210  69.7689966
  92.1044117  26.5348460  69.9195531  92.2442309  25.0431500  69.7023567
  93.4014481  28.8570966  71.8512719  93.5781110  29.7788931  71.6633703
  94.1971315  28.5429385  72.2807099  97.5425500  15.7179231  83.4496653
  98.2835213  16.3186384  83.3701115  97.7743423  14.9756869  82.8914695
  92.6866838  20.9035598  81.7274882  92.5720353  20.0020855  82.0281981
  91.8311356  21.1499295  81.3759699  99.7658676  28.8453338  83.3262383
  99.3222530  28.0589717  83.0083287 100.4275889  29.0332489  82.6606274
  94.5245797  30.3749140  77.8523061  95.0753222  30.2466203  77.0800055
  93.6857273  30.6744029  77.5017954 101.8639914  29.1256138  81.3543784
 101.8458389  29.9465019  80.8624053 102.7859834  29.0010214  81.5793925
  98.3212968  26.6400268  82.1967293  98.8541305  25.8788556  81.9666600
  97.7927049  26.3473920  82.9391447 101.4882663  11.7460334  77.7260934
 101.1446932  12.6361976  77.6500045 101.8561625  11.5561991  76.8630519
  89.5568513  24.0693864  70.5449536  90.3943735  24.4790873  70.3283244
  89.7346781  23.1293306  70.5149730 101.4532946  21.7368945  66.2333369
 100.9379569  22.5073550  66.4721757 101.1810254  21.0634081  66.8566431
  99.0380057  16.5818646  71.2918608  98.1821653  16.1925496  71.1124246
  99.4507008  16.6610607  70.4318393 100.5679203  14.1164989  75.6910167
 100.0643999  14.0795124  74.8777973 100.8609810  15.0257732  75.7506824
  96.8122089  14.2003719  74.6976349  97.6775086  14.0046527  74.3382239
  96.8799598  13.9714070  75.6245706 106.4267220  24.4901300  68.1686543
 105.6496662  24.1512459  67.7241705 107.1058701  24.4953923  67.4941508
 101.2419249  19.6096037  68.0593151 100.9369384  19.9242186  68.9103294
 102.1949691  19.6877457  68.1020484  99.6865681  25.7686260  69.7086105
  99.1587042  25.0339020  69.3959342  99.1853183  26.5460937  69.4626073
 104.6658527  23.9635281  74.8253151 104.0082201  24.6534542  74.9133279
 105.4698926  24.3531713  75.1687137  94.4184408  16.4305927  72.0692716
  94.9928160  16.2081108  71.3365909  95.0055391  16.4994621  72.8221317
 103.4763985  22.3179654  72.8757093 103.9895867  22.9509645  73.3778802
 104.1265209  21.7180849  72.5100453  94.7453995  18.4610388  66.0888601
  93.9091308  18.7985074  66.4097876  94.6058765  18.3259367  65.1515738
  96.7207076  13.3047176  70.7967785  96.0671488  12.9896193  70.1724400
  96.6787550  12.6822916  71.5227608  97.8318281  23.5866471  62.7121078
  96.9245342  23.3555724  62.9112227  98.3289313  22.7904090  62.8995059
 100.7386360  32.2963978  65.6317764 100.0648058  32.5995675  66.2402722
 101.1252182  33.0993058  65.2823221  99.9544816  19.7929109  75.1215433
  99.0367378  20.0144056  74.9637121 100.3704960  19.8675420  74.2627140
 100.7379864  21.1920525  70.2518113 101.4851683  21.7041922  69.9425235
 101.0071454  20.8704577  71.1122507  99.0106514  23.6879065  67.2345068
  98.1017733  23.4038098  67.3317537  99.0401598  24.1078144  66.3748374
 104.2425782  27.2985655  71.0036235 103.7888109  26.4576565  71.0601426
 103.6119748  27.9347053  71.3411015 103.1858701  18.2277641  72.2336903
 102.4481458  17.7155027  72.5647145 103.4385475  17.7878023  71.4220180
 102.6858721  29.1362152  71.9386053 102.9781695  29.6967209  71.2198419
 103.1957341  29.4290713  72.6939212  89.5794685  21.4084580  71.2160270
  89.3819084  20.8153940  70.4911336  89.0241349  21.1036790  71.9336209
  97.5591408  21.3007686  73.3354863  97.6140018  20.3481522  73.2597340
  96.7482610  21.4567125  73.8196161  98.7082602  25.2287809  64.5733146
  98.2702032  24.5123668  64.1138784  99.4493043  25.4563924  64.0118238
  95.4983768  19.9184746  71.0945242  94.6851634  20.2178916  71.5010434
  95.9942762  19.5240435  71.8119724  97.6492346  29.9142503  73.0279507
  97.6068525  30.1403349  72.0988039  98.5655045  29.6805877  73.1765308
 101.0957980  20.3826570  79.9260136 101.4507368  20.6098043  80.7854602
 101.7430111  20.7144947  79.3037391 106.8255717  23.5045006  70.6309465
 106.6873615  23.6946602  69.7030654 106.4691936  24.2664389  71.0877516
  94.9897843  17.4903101  76.7106477  95.6297222  17.3491860  76.0129440
  94.1575373  17.2037615  76.3345079 106.8525096  25.5721533  75.6420736
 107.2861603  25.4796822  76.4903790 107.5656677  25.5479034  75.0040752
  95.7658147  26.7905532  72.8241469  96.5598745  26.2955852  72.6224044
  95.0549839  26.2623395  72.4609175 100.5852991  29.1723627  77.1753837
 100.6390014  29.7414564  77.9431553  99.7167773  29.3425512  76.8107874
  92.0740910  20.9348614  68.9001222  91.1438498  20.8733069  69.1171184
  92.1698382  20.4124566  68.1037863  91.9926459  17.4603426  71.4879464
  92.2533277  18.3748760  71.3788624  92.8143632  16.9927869  71.6376076
  93.4651385  18.8741184  78.6578288  94.1374438  18.6658546  78.0090937
  92.6381171  18.6763270  78.2183520 107.7140646  25.6145234  78.1753622
 107.9076536  26.5191044  78.4212897 107.6141264  25.1552653  79.0092207
  99.3676957  15.5003124  80.6743949  98.7204872  16.1993074  80.5808425
 100.1377972  15.9339268  81.0420197 102.7755755  25.7651977  83.7494502
 102.6241261  25.5362528  82.8324586 102.7660434  26.7222578  83.7625847
  99.5441091  23.3383889  78.7340769 100.4733151  23.4895049  78.5609736
  99.1232121  23.4267910  77.8789415  98.3429423  27.3634554  76.5039306
  98.2040508  26.9953338  77.3765244  97.5544019  27.8782193  76.3323264
  98.9377575  32.4643650  67.8464843  99.1129330  31.9931693  68.6610466
  98.2510363  33.0909416  68.0746104  99.8934638  26.7416156  73.8928144
  99.5584471  26.7016926  74.7885794  99.3938584  26.0760872  73.4198554
  93.8678882  22.1483786  79.4180725  93.7298680  21.4164025  80.0192264
  94.7783805  22.0592687  79.1364913 102.8293830  24.0872191  64.1665204
 102.2123000  23.3619019  64.0698256 102.3610318  24.8481551  63.8232278
  96.4961183  21.8603746  78.9064405  97.2060801  21.2196938  78.8651023
  96.4530491  22.1116641  79.8290586 104.4847961  28.7971099  81.8270984
 104.4260507  28.1130319  81.1601567 104.8867480  29.5390089  81.3751610
  95.2090117  18.8468964  80.7260044  94.6727474  18.3959702  81.3781641
  94.6206825  18.9814873  79.9830509  93.5038660  35.6133013  74.6204703
  93.7435258  36.2451537  75.2983722  92.6607857  35.2621053  74.9070062
  94.6192376  18.3057615  63.2886508  93.7421842  18.1846416  62.9248755
  95.0950129  17.5143693  63.0365397 104.4865369  26.7610683  80.0584964
 103.5992147  26.4236605  80.1811363 105.0563920  26.0293714  80.2953729
  86.1394516  23.0934775  73.3828015  86.8265555  22.7796505  72.7949031
  85.9842644  23.9976139  73.1095267  90.9429238  17.9824971  77.8113039
  90.8587427  17.3750641  77.0763449  90.1211944  18.4733990  77.8122535
  98.0166522  31.4212135  77.0246207  97.9436693  32.2267107  77.5365512
  97.5743915  31.6204101  76.1994228  97.8056302  30.6583905  70.5349029
  97.0223823  31.2005586  70.6287253  98.5049047  31.1757885  70.9343270
 101.1152952  16.4678535  73.1783234 101.6121651  15.7148497  72.8584304
 100.3439933  16.5042852  72.6126443 108.9682709  22.1718900  74.8201525
 108.9572585  23.0543616  74.4495459 108.1000088  21.8190451  74.6256063
 100.4765205  31.3198969  79.1804366 101.1893178  31.9546434  79.1080267
  99.9855234  31.4162835  78.3644368 102.1982732  25.2250222  70.7521657
 101.2639011  25.3451685  70.5826362 102.3759401  24.3222689  70.4881667
  97.6987920  18.6095918  72.9054919  97.3285708  18.0566958  73.5935824
  98.1947013  18.0054051  72.3529919 105.5855284  21.0667541  71.2871692
 106.0515736  21.8995533  71.2131994 106.0362784  20.6012523  71.9916950
  95.5277119  29.0693413  80.0009937  96.2286578  29.7029896  80.1539331
  95.0572234  29.4108144  79.2405576 103.6531515  27.4111363  68.2857844
 103.9291359  27.2967957  69.1951718 102.7836014  27.0128848  68.2470017
 103.5571946  13.4348128  75.3262593 102.6435026  13.6652355  75.4944800
 103.9865048  13.5186572  76.1776625 103.3278405  21.6238020  77.8262487
 102.6749855  21.8713928  77.1714940 103.7058785  20.8102159  77.4924964
 100.2885579  31.6597714  71.9290657 100.4707973  30.8419369  72.3918410
 101.1118565  31.8765406  71.4915547 100.6227744  30.5865899  69.1905706
 101.1515511  30.0758353  68.5775868 100.8855964  30.2708429  70.0551239
  99.3765978  22.3657831  84.3128524  98.7006615  22.2651961  84.9830899
 100.1993612  22.2097045  84.7764521  91.1244837  28.6029768  76.9341039
  91.7098274  27.8573456  77.0668943  90.9269675  28.9133725  77.8177703
  93.9783492  31.6381015  71.9503482  93.3093868  32.1227143  71.4667522
  93.8396362  31.8850236  72.8646860  85.7162492  21.1735368  75.6545482
  85.7546591  20.6398959  76.4482600  85.2102785  20.6470574  75.0356460
  98.1188761  33.6724759  78.5486140  98.6707069  33.8356380  79.3135225
  98.4594954  34.2629197  77.8766165  93.0953254  16.0199909  79.1508025
  93.1594581  16.8814740  78.7385422  93.0320374  15.4073910  78.4180383
  92.5705527  18.0923041  82.7981059  93.1977565  17.7100119  83.4118583
  91.7133445  17.8737243  83.1636751 102.9699635  28.4986016  84.4034794
 103.5139539  29.1115975  83.9089749 102.3886480  29.0565595  84.9201807
  89.3471069  19.8999470  68.7299414  89.6424510  18.9910149  68.6766467
  88.4459105  19.8787210  68.4080416 101.2557148  31.6206734  75.5349822
 101.1308288  30.8196474  75.0260768 101.9136239  32.1152928  75.0463792
  92.8765316  17.9755467  74.7126962  92.1551902  18.5891435  74.5734436
  93.6658572  18.5113232  74.6343608 103.3192057  29.4215755  77.1629372
 102.3722392  29.3021106  77.0907699 103.6674830  28.5338253  77.2455634
  95.6791630  15.3109893  80.9867614  96.2026032  15.5572190  81.7493923
  95.4603963  16.1429928  80.5670751  91.0758911  17.5813568  68.8538739
  90.7471617  16.7010947  68.6713845  91.4298282  17.5261237  69.7415128
 100.3238490  29.2168471  73.3633724 100.1763452  28.2885178  73.5441294
 101.1491983  29.2388561  72.8790800  94.1900734  17.8686538  69.2214217
  94.5296807  18.3972459  68.4992825  94.6372855  18.2066944  69.9972783
 103.9272612  30.0397029  74.4498597 104.8519159  29.8339891  74.3123048
 103.7587915  29.7913431  75.3587939  96.8844175  16.2523589  78.6717285
  96.5440995  15.4531402  79.0737965  96.1783181  16.5525299  78.0994118
  97.5360647  13.3372901  77.1244608  98.3586716  12.8633379  77.0023498
  97.7798710  14.1163385  77.6243294  96.1768881  16.3661159  67.4207509
  96.8977244  16.7442412  66.9171226  95.5534185  17.0850036  67.5242487
 100.3200004  17.0706308  68.3565842 100.5363619  17.9530946  68.0554670
  99.8394071  16.6792522  67.6271484  95.0599226  20.0292022  74.9336586
  94.9143806  20.3432325  75.8260868  94.5824429  20.6476922  74.3807485
  96.9195608  17.0194570  74.9817476  96.9057177  16.1235663  74.6449774
  97.6368036  17.0265233  75.6155762  98.7721739  17.4531910  77.0270603
  98.5139517  18.3748980  77.0254934  98.2406779  17.0562344  77.7171067
 103.7167928  30.5582697  69.8060689 103.8904805  29.9929119  69.0534541
 104.2096819  31.3583592  69.6240179  89.5344888  22.5697366  77.8724247
  88.9898356  23.3457174  78.0044522  90.4124238  22.9168170  77.7143369
  96.3232504  15.9008950  70.2505046  96.4448416  14.9725596  70.4495933
  96.0334547  15.9147636  69.3383361  99.1923695  13.5863860  73.3871766
  99.2145392  13.6503193  72.4323745  99.6091754  12.7468369  73.5812272
 109.5707319  23.3219120  71.4250988 110.0138465  22.5726445  71.0270112
 108.6933829  23.3129256  71.0424720 104.7043100  29.8749461  66.9057587
 105.3994005  30.4956154  67.1244902 105.0466250  29.0244813  67.1809965
  90.3210910  21.6967262  80.7654404  89.5792646  21.8449898  81.3519035
  90.0003654  21.9575528  79.9021154 106.6034523  27.3249167  68.4344918
 107.1285848  27.6636440  67.7094238 106.5156876  26.3896182  68.2508052
  98.2654572  31.2383240  80.5634794  98.5741699  30.9932387  81.4357494
  99.0630054  31.4429879  80.0753665  98.2875184  33.3921150  72.7940171
  97.8480175  32.8997529  73.4873028  99.0383301  32.8494118  72.5532246
  90.7667523  29.5832691  72.7964799  91.5925543  29.2836463  72.4163442
  90.4161575  28.8140313  73.2454588  95.7349056  28.9359159  74.8662473
  95.1129066  28.2729864  74.5664700  96.4053923  28.9620291  74.1836120
  88.9676128  27.5019017  73.7553733  88.1308037  27.0741192  73.5737734
  88.9399774  27.6951461  74.6924524  95.8073584  17.4140947  84.4594979
  95.8561739  18.2903070  84.0772748  96.3496098  16.8718340  83.8866622
 106.2928430  27.9582070  83.7396116 105.5023973  27.9406209  83.2000615
 106.0561784  28.4970364  84.4945152 106.4126305  24.8074537  81.0528844
 106.4624310  24.6424544  81.9944367 106.3040228  23.9401796  80.6626725
  95.2962563  27.4863083  68.3420933  95.4450684  28.1698547  67.6887606
  96.1029007  27.4668173  68.8570389 103.7030067  20.7905465  82.3688151
 104.6039930  20.6511930  82.0772149 103.7778041  20.9559920  83.3086328
  98.0372872  18.1672320  81.2141337  97.1676182  18.4605886  80.9423926
  98.2732353  18.7512765  81.9348601 107.9144501  27.2271478  81.2970866
 107.6229310  27.5901459  82.1334327 107.3016633  26.5138487  81.1184198
 109.1140184  24.7924358  73.8173436 109.9487075  25.2314162  73.9810996
 109.2499313  24.3163011  72.9981682 106.1631690  22.3504093  79.7650924
 106.6385811  22.5431739  78.9569775 105.2397255  22.4063279  79.5194307
  93.0515196  23.5128260  69.3482002  92.8061238  22.6090590  69.5462212
  93.2211111  23.5145411  68.4061480 100.7411906  14.3851937  78.7306758
 101.2593850  15.1212963  78.4053246 100.3867039  14.6915930  79.5653517
  92.3210844  19.2456618  66.8468163  91.6280089  19.3200973  66.1908199
  92.0762596  18.4816961  67.3689680  98.7957969  29.9811213  65.8132681
  98.2231936  30.6001400  65.3603152  99.3690762  30.5310575  66.3472602
 104.8633359  19.2269853  77.9979229 105.8150782  19.3267951  78.0191453
 104.6936809  18.4348122  78.5077314 102.8847738  16.3125436  78.1838630
 102.2897670  16.5930449  77.4885119 102.5997435  16.8019337  78.9555371
 102.0155229  30.2648363  66.9441263 102.9485902  30.1993925  67.1474138
 101.9278441  31.1004630  66.4855795 104.6443245  29.5814233  63.9045210
 104.5656877  29.2474097  64.7980968 105.4652912  30.0736001  63.9036683
 107.3421436  22.4475973  77.1121529 107.3097757  21.5091973  77.2981213
 107.9522060  22.5260009  76.3787354  99.1804767  21.3172026  63.1548733
 100.1263872  21.1878234  63.2237151  98.8019012  20.5786688  63.6318161
 107.4915925  19.2387016  77.1579812 106.9754974  18.4545473  76.9709741
 108.3755873  18.9105733  77.3226332 105.1526652  12.9828032  73.1175625
 104.9551473  12.6743120  74.0018957 105.7626357  13.7089671  73.2473555
 113.1597986  23.5091980  76.2527566 113.8901375  23.2477268  76.8135269
 112.5504932  22.7720702  76.2929634 111.2413283  21.6499842  76.8502017
 110.5146447  21.5155807  76.2418509 110.8260570  21.9576671  77.6558735
  99.0643460  25.3689772  84.6149390  99.9846469  25.5468371  84.8089437
  99.0293043  24.4245817  84.4629089  97.3647684  19.2422002  63.0903618
  96.4579140  18.9455115  63.1666332  97.6423665  18.9451820  62.2237904
  88.2825625  20.5628366  73.5402665  87.9628409  19.7093674  73.2477039
  87.7359053  20.7776944  74.2960632  92.0605532  23.2790807  77.2572171
  92.2791542  24.2107914  77.2760205  92.4731306  22.9198781  78.0426975
  98.9809750  13.7858892  69.2447860  98.1710478  13.4405977  69.6203106
  99.6694167  13.4766436  69.8335471 100.9100298  12.8636939  70.8672156
 101.4631337  13.2832392  71.5262179 101.1470385  11.9372687  70.9095112
  96.9333398  18.8524012  86.6474920  96.8330125  19.8018369  86.5787011
  96.7154940  18.5242251  85.7750990  96.1346469  16.1008937  63.2315597
  96.9965633  16.4263836  63.4911415  96.3196813  15.3140433  62.7188663
  88.1513885  24.1831277  75.5095786  87.4577356  23.7685230  74.9965741
  88.8986876  24.2251814  74.9129205 104.2879106  14.9737464  70.3750820
 103.7077775  15.6322268  69.9928873 104.0215038  14.1514808  69.9638238
 102.7382672  14.3742522  72.5772141 103.2382450  14.4859056  71.7686460
 103.3818280  14.0703574  73.2172949  96.7964668  22.2821151  85.4639982
  96.3131749  23.0821511  85.6703871  96.8825607  22.2929096  84.5107426
  90.0650627  24.1149531  73.3861801  90.0421315  24.2137218  72.4343684
  90.3751264  24.9614682  73.7078967  92.7238005  26.1725686  77.5008416
  93.6781259  26.1409628  77.4338347  92.5250529  25.7116310  78.3158641
  93.3137387  24.7426802  80.0679213  94.1330276  25.2370881  80.0914050
  93.5874195  23.8258770  80.0396781 103.0703984  17.1337554  69.4307169
 102.1829839  17.4187205  69.2127363 103.4857973  16.9731318  68.5834446
 106.4218520  17.1584075  73.1461508 107.1978910  17.6480528  73.4186125
 105.6966654  17.5842129  73.6033377 108.8591078  17.8711694  74.2035449
 109.4535569  17.6307430  73.4928757 108.9317662  17.1518825  74.8308985
  91.0788234  31.7145305  74.5178613  90.9442702  30.9545706  73.9516611
  90.6620296  32.4386205  74.0507402 102.2147197  26.8982229  63.5255189
 102.9183047  27.1032231  64.1412844 101.4909846  27.4658991  63.7904272
 103.0445007  22.6492090  69.6457459 102.9880209  23.1060642  68.8065091
 103.5973350  21.8882775  69.4680302 106.8549813  18.4381822  70.4707578
 106.5986747  18.0378458  71.3015786 106.2302681  19.1525616  70.3457718
 111.1662151  21.1777895  72.9778870 110.6061709  21.2471085  73.7510432
 110.5605654  21.0018880  72.2578366  94.2357360  32.6114622  74.7297056
  94.1189744  33.5560055  74.6275746  93.4149806  32.3088184  75.1182855
 104.1233894  27.3364758  65.5753649 104.9579498  26.9045957  65.3931124
 103.9618237  27.1646772  66.5030543 103.7779787  23.8396871  66.9409988
 103.7228590  23.6741143  65.9998432 103.1525842  24.5472904  67.0972178
  88.5672302  19.0764936  80.7671410  89.2131165  18.5663890  81.2558635
  88.3589453  19.8133617  81.3414835 101.0925694  26.1445783  86.2663551
 101.9616853  26.3186436  85.9050186 100.6132445  26.9640200  86.1439280
  97.0875912  13.3404980  66.5195306  97.0754582  14.2846820  66.6763577
  97.9799334  13.1575126  66.2254768  95.2611874  33.2642884  77.9452984
  96.1639121  33.2966495  78.2619479  95.0349244  32.3343335  77.9599320
  97.0165476  32.0173871  74.6063063  96.0661107  32.0175732  74.4927435
  97.3197962  31.2706605  74.0899098  92.9069793  16.2232553  84.8646424
  93.7701254  15.8669358  85.0749749  92.3335203  15.8846448  85.5521829
 112.7518170  37.8534409  75.6708825 113.3896579  37.7341157  74.9672166
 112.6339012  38.8015253  75.7296778 109.5607876  37.8061837  75.6070350
 109.2226387  37.6902902  74.7190885 110.4297644  37.4053002  75.5871356
 105.4194692  39.6597314  71.5967241 104.8559557  39.5687251  70.8283529
 105.3047087  38.8397218  72.0769734 110.0427659  38.9596689  81.5656556
 110.0316300  38.5649487  80.6937059 110.2048298  38.2262762  82.1590327
 102.9659123  41.1548505  74.4351462 103.7580415  40.8139330  74.0197761
 103.2055774  41.2643480  75.3553615 110.9994250  43.3268281  66.9081706
 110.3482230  43.9122362  66.5215720 111.7938613  43.8574476  66.9676743
 104.9249877  40.4157419  67.3068840 105.6980753  39.8686406  67.1681716
 105.2775276  41.2801668  67.5183302 106.7634920  41.7433801  80.5135740
 106.4724786  42.6479432  80.3982406 107.3991904  41.7850328  81.2279809
 107.6891127  39.1210649  77.1037099 108.2854699  38.8966672  76.3894062
 107.7466098  38.3795395  77.7062547 107.2616155  36.5750085  64.9387290
 107.5141676  36.0531606  64.1770753 106.3240714  36.4116230  65.0413974
 112.3059438  35.5785863  72.7462034 113.0922527  35.1605286  72.3952451
 112.5698142  36.4831955  72.9143682 112.4769515  41.0158713  67.4450690
 111.8415348  41.0893340  68.1571595 112.1466922  41.6052312  66.7669770
 117.7067865  35.5161096  73.6495012 118.4393037  34.9460313  73.8832842
 116.9507221  35.1282697  74.0901518 106.9812444  38.4778191  67.1411665
 106.8648702  37.8023094  67.8092750 107.0914704  37.9910565  66.3243818
 109.3243985  37.9388338  70.8458354 108.9602192  37.4118959  71.5571276
 110.1811101  37.5486807  70.6724840 115.2293285  29.2282670  78.1089621
 114.8976610  30.0978081  77.8850836 114.6338899  28.9118954  78.7883651
 108.9649472  32.9678237  65.8419703 109.1323874  33.8358474  66.2090174
 108.7746641  33.1305519  64.9180992 111.7224805  41.4295216  77.5085533
 111.4225528  42.3320255  77.4001341 111.3775865  41.1627400  78.3606686
 105.1737287  37.8809013  73.5422238 104.2487783  37.7485227  73.7499930
 105.4221700  38.6603232  74.0392180 115.1221949  33.9477757  75.1882971
 114.2138826  33.8793165  74.8941732 115.0709545  34.4249701  76.0164796
 108.9438693  35.4235895  66.8266370 108.8238318  35.8692946  67.6651850
 108.2491281  35.7721213  66.2679908 102.5346098  37.5242287  74.3766027
 102.6638479  37.7776766  75.2905439 101.8543549  38.1169995  74.0570682
 106.7045585  48.1939537  70.4756501 106.6269615  49.1447362  70.5544982
 106.1007228  47.8485409  71.1331427 109.1962815  35.3667402  83.1317868
 108.4196149  35.9261322  83.1220733 109.8353378  35.8524185  83.6532738
 116.9883595  32.1494195  76.9660845 116.3457975  32.4426728  76.3200639
 116.4838524  32.0347115  77.7714041 114.6423759  35.8957368  67.6546704
 115.5541615  36.1284755  67.4794401 114.1333406  36.4794412  67.0921782
 107.4509187  38.1752855  82.6935835 108.1923871  38.7137899  82.4170659
 106.7446172  38.8019144  82.8507387 112.9264527  40.3181996  81.2907996
 113.3347883  39.8764406  80.5462629 112.2041788  39.7434623  81.5442189
 109.2795597  35.2554603  78.6641553 110.1256792  35.6794016  78.8076202
 109.2194234  34.5988227  79.3580117 113.2493341  40.8783187  75.0460285
 112.6202204  41.0428901  74.3436353 112.8619003  41.2924796  75.8171249
 117.1282573  41.8137624  72.4004649 116.4433611  42.1936526  71.8501682
 117.2126422  42.4232951  73.1336597 112.4295042  32.9158971  80.3222727
 112.1855974  33.6701032  79.7857003 112.7054972  33.2944319  81.1569974
 114.3833505  39.4597583  78.9999993 114.5950400  40.1029343  78.3234374
 114.3363253  38.6259900  78.5321923 111.9859734  32.0715404  75.9036565
 111.1244213  32.3696658  76.1953302 112.0122168  32.2885803  74.9717597
 108.8021303  40.6157595  72.3110370 109.2659649  40.8945298  71.5214993
 108.5378101  39.7141039  72.1283461 105.6945384  40.1629076  75.2490134
 106.2646741  40.5916345  74.6107618 106.2853496  39.8811661  75.9474319
 107.7390189  36.7380747  69.1199936 108.4414232  37.1901791  69.5873862
 107.4070818  36.0964566  69.7479829 106.1870551  35.3292504  83.4951145
 105.5569211  36.0108784  83.7286542 106.0806639  35.2175585  82.5504283
 101.4815523  34.9964300  74.4217069 100.6914577  35.2521828  73.9457180
 101.9726770  35.8112638  74.5269110 115.4979333  42.3369539  77.1722350
 116.3196776  41.9349726  76.8905032 115.4941736  42.2337773  78.1238466
 103.4330268  35.3608879  71.3800546 102.6361432  35.4727573  71.8984042
 103.2055861  35.6995531  70.5141436 109.2635936  41.8853582  79.3283060
 109.3280369  42.3473989  80.1641232 108.5546860  41.2550947  79.4565370
  99.7653226  35.2494790  76.8532060 100.0161264  36.1341800  77.1189636
 100.3012774  35.0699392  76.0807152 108.9783954  43.5521690  69.1962041
 108.8429629  44.3973225  69.6246889 109.5193766  43.7540967  68.4327975
 105.4651293  29.6313269  85.8576396 105.0718239  29.0779468  86.5324040
 106.2817434  29.9423848  86.2482914 102.4313351  41.0697128  69.7689966
 102.9437872  41.8640378  69.9195531 103.0836064  40.3723418  69.7023567
 104.2408236  44.1862884  71.8512719 104.4174864  45.1080849  71.6633703
 105.0365069  43.8721303  72.2807099 108.3819254  31.0471149  83.4496653
 109.1228968  31.6478302  83.3701115 108.6137177  30.3048786  82.8914695
 103.5260592  36.2327516  81.7274882 103.4114108  35.3312773  82.0281981
 102.6705110  36.4791213  81.3759699 110.6052430  44.1745256  83.3262383
 110.1616284  43.3881635  83.0083287 111.2669644  44.3624407  82.6606274
 105.3639551  45.7041058  77.8523061 105.9146976  45.5758121  77.0800055
 104.5251027  46.0035947  77.5017954 112.7033668  44.4548056  81.3543784
 112.6852144  45.2756937  80.8624053 113.6253588  44.3302131  81.5793925
 109.1606722  41.9692186  82.1967293 109.6935059  41.2080474  81.9666600
 108.6320803  41.6765837  82.9391447 112.3276417  27.0752252  77.7260934
 111.9840687  27.9653893  77.6500045 112.6955380  26.8853909  76.8630519
 100.3962268  39.3985782  70.5449536 101.2337490  39.8082790  70.3283244
 100.5740536  38.4585224  70.5149730 112.2926700  37.0660863  66.2333369
 111.7773323  37.8365467  66.4721757 112.0204008  36.3925999  66.8566431
 109.8773811  31.9110563  71.2918608 109.0215407  31.5217414  71.1124246
 110.2900763  31.9902524  70.4318393 111.4072958  29.4456907  75.6910167
 110.9037753  29.4087042  74.8777973 111.7003565  30.3549649  75.7506824
 107.6515844  29.5295636  74.6976349 108.5168840  29.3338445  74.3382239
 107.7193352  29.3005988  75.6245706 117.2660974  39.8193217  68.1686543
 116.4890417  39.4804377  67.7241705 117.9452455  39.8245840  67.4941508
 112.0813003  34.9387955  68.0593151 111.7763139  35.2534104  68.9103294
 113.0343445  35.0169375  68.1020484 110.5259435  41.0978178  69.7086105
 109.9980797  40.3630938  69.3959342 110.0246938  41.8752854  69.4626073
 115.5052281  39.2927199  74.8253151 114.8475956  39.9826460  74.9133279
 116.3092680  39.6823630  75.1687137 105.2578163  31.7597844  72.0692716
 105.8321915  31.5373026  71.3365909 105.8449145  31.8286539  72.8221317
 114.3157740  37.6471571  72.8757093 114.8289622  38.2801563  73.3778802
 114.9658964  37.0472767  72.5100453 105.5847750  33.7902305  66.0888601
 104.7485062  34.1276992  66.4097876 105.4452519  33.6551285  65.1515738
 107.5600830  28.6339093  70.7967785 106.9065243  28.3188110  70.1724400
 107.5181305  28.0114834  71.5227608 108.6712035  38.9158388  62.7121078
 107.7639097  38.6847642  62.9112227 109.1683067  38.1196008  62.8995059
 111.5780114  47.6255895  65.6317764 110.9041813  47.9287592  66.2402722
 111.9645936  48.4284976  65.2823221 110.7938571  35.1221027  75.1215433
 109.8761132  35.3435974  74.9637121 111.2098714  35.1967337  74.2627140
 111.5773618  36.5212442  70.2518113 112.3245437  37.0333840  69.9425235
 111.8465208  36.1996495  71.1122507 109.8500269  39.0170983  67.2345068
 108.9411488  38.7330016  67.3317537 109.8795352  39.4370062  66.3748374
 115.0819536  42.6277573  71.0036235 114.6281863  41.7868483  71.0601426
 114.4513503  43.2638971  71.3411015 114.0252456  33.5569559  72.2336903
 113.2875212  33.0446945  72.5647145 114.2779229  33.1169940  71.4220180
 113.5252475  44.4654069  71.9386053 113.8175450  45.0259126  71.2198419
 114.0351096  44.7582630  72.6939212 114.1264083  26.3345811  72.8278672
 114.4322960  25.4743174  72.5404587 114.8516688  26.9263431  72.6277666
 100.4188439  36.7376497  71.2160270 100.2212839  36.1445858  70.4911336
  99.8635103  36.4328707  71.9336209 108.3985163  36.6299604  73.3354863
 108.4533772  35.6773440  73.2597340 107.5876365  36.7859043  73.8196161
 109.5476356  40.5579727  64.5733146 109.1095786  39.8415586  64.1138784
 110.2886797  40.7855842  64.0118238 106.3377523  35.2476664  71.0945242
 105.5245388  35.5470834  71.5010434 106.8336517  34.8532352  71.8119724
 108.4886101  45.2434420  73.0279507 108.4462279  45.4695267  72.0988039
 109.4048799  45.0097795  73.1765308 111.9351734  35.7118488  79.9260136
 112.2901122  35.9389961  80.7854602 112.5823866  36.0436865  79.3037391
 117.6649471  38.8336924  70.6309465 117.5267370  39.0238520  69.7030654
 117.3085690  39.5956307  71.0877516 105.8291597  32.8195019  76.7106477
 106.4690977  32.6783778  76.0129440 104.9969128  32.5329532  76.3345079
 117.6918851  40.9013451  75.6420736 118.1255358  40.8088740  76.4903790
 118.4050432  40.8770951  75.0040752 106.6051901  42.1197449  72.8241469
 107.3992500  41.6247770  72.6224044 105.8943594  41.5915313  72.4609175
 111.4246746  44.5015545  77.1753837 111.4783768  45.0706481  77.9431553
 110.5561527  44.6717430  76.8107874 102.9134665  36.2640531  68.9001222
 101.9832253  36.2024987  69.1171184 103.0092137  35.7416484  68.1037863
 102.8320214  32.7895344  71.4879464 103.0927031  33.7040677  71.3788624
 103.6537386  32.3219787  71.6376076 104.3045139  34.2033101  78.6578288
 104.9768193  33.9950463  78.0090937 103.4774926  34.0055187  78.2183520
 118.5534400  40.9437152  78.1753622 118.7470291  41.8482962  78.4212897
 118.4535019  40.4844571  79.0092207 110.2070711  30.8295042  80.6743949
 109.5598626  31.5284992  80.5808425 110.9771727  31.2631186  81.0420197
 113.6149509  41.0943894  83.7494502 113.4635016  40.8654446  82.8324586
 113.6054189  42.0514496  83.7625847 110.3834846  38.6675807  78.7340769
 111.3126906  38.8186967  78.5609736 109.9625876  38.7559828  77.8789415
 109.1823177  42.6926471  76.5039306 109.0434263  42.3245256  77.3765244
 108.3937774  43.2074111  76.3323264 109.7771329  47.7935568  67.8464843
 109.9523085  47.3223611  68.6610466 109.0904117  48.4201334  68.0746104
 110.7328392  42.0708074  73.8928144 110.3978225  42.0308844  74.7885794
 110.2332338  41.4052790  73.4198554 104.7072636  37.4775704  79.4180725
 104.5692434  36.7455943  80.0192264 105.6177560  37.3884604  79.1364913
 113.6687584  39.4164108  64.1665204 113.0516755  38.6910937  64.0698256
 113.2004073  40.1773469  63.8232278 107.3354937  37.1895663  78.9064405
 108.0454556  36.5488856  78.8651023 107.2924245  37.4408558  79.8290586
 115.3241716  44.1263017  81.8270984 115.2654262  43.4422237  81.1601567
 115.7261234  44.8682007  81.3751610 106.0483871  34.1760881  80.7260044
 105.5121228  33.7251620  81.3781641 105.4600579  34.3106790  79.9830509
 104.3432415  50.9424931  74.6204703 104.5829013  51.5743455  75.2983722
 103.5001611  50.5912971  74.9070062 105.4586130  33.6349533  63.2886508
 104.5815596  33.5138334  62.9248755 105.9343883  32.8435611  63.0365397
 115.3259123  42.0902601  80.0584964 114.4385902  41.7528523  80.1811363
 115.8957674  41.3585632  80.2953729  96.9788270  38.4226693  73.3828015
  97.6659310  38.1088423  72.7949031  96.8236399  39.3268057  73.1095267
 101.7822992  33.3116889  77.8113039 101.6981181  32.7042559  77.0763449
 100.9605699  33.8025907  77.8122535 108.8560276  46.7504053  77.0246207
 108.7830448  47.5559025  77.5365512 108.4137670  46.9496019  76.1994228
 108.6450056  45.9875823  70.5349029 107.8617578  46.5297503  70.6287253
 109.3442801  46.5049803  70.9343270 111.9546706  31.7970453  73.1783234
 112.4515406  31.0440415  72.8584304 111.1833688  31.8334769  72.6126443
 119.8076464  37.5010818  74.8201525 119.7966340  38.3835534  74.4495459
 118.9393843  37.1482369  74.6256063 111.3158960  46.6490887  79.1804366
 112.0286932  47.2838352  79.1080267 110.8248989  46.7454753  78.3644368
 113.0376487  40.5542140  70.7521657 112.1032766  40.6743602  70.5826362
 113.2153155  39.6514607  70.4881667 108.5381675  33.9387836  72.9054919
 108.1679462  33.3858876  73.5935824 109.0340767  33.3345969  72.3529919
 116.4249038  36.3959459  71.2871692 116.8909490  37.2287451  71.2131994
 116.8756539  35.9304441  71.9916950 106.3670873  44.3985331  80.0009937
 107.0680333  45.0321814  80.1539331 105.8965988  44.7400062  79.2405576
 114.4925269  42.7403280  68.2857844 114.7685113  42.6259875  69.1951718
 113.6229768  42.3420765  68.2470017 114.3965701  28.7640046  75.3262593
 113.4828781  28.9944273  75.4944800 114.8258802  28.8478490  76.1776625
 114.1672159  36.9529938  77.8262487 113.5143610  37.2005846  77.1714940
 114.5452539  36.1394076  77.4924964 111.1279333  46.9889631  71.9290657
 111.3101728  46.1711287  72.3918410 111.9512319  47.2057323  71.4915547
 111.4621499  45.9157816  69.1905706 111.9909265  45.4050271  68.5775868
 111.7249718  45.6000347  70.0551239 110.2159732  37.6949749  84.3128524
 109.5400369  37.5943878  84.9830899 111.0387366  37.5388963  84.7764521
 101.9638592  43.9321686  76.9341039 102.5492028  43.1865374  77.0668943
 101.7663430  44.2425642  77.8177703 104.8177247  46.9672933  71.9503482
 104.1487622  47.4519061  71.4667522 104.6790116  47.2142153  72.8646860
  96.5556246  36.5027286  75.6545482  96.5940346  35.9690877  76.4482600
  96.0496539  35.9762491  75.0356460 108.9582515  49.0016677  78.5486140
 109.5100823  49.1648298  79.3135225 109.2988709  49.5921114  77.8766165
 103.9347009  31.3491826  79.1508025 103.9988335  32.2106657  78.7385422
 103.8714129  30.7365828  78.4180383 103.4099281  33.4214959  82.7981059
 104.0371320  33.0392036  83.4118583 102.5527200  33.2029161  83.1636751
 113.8093390  43.8277934  84.4034794 114.3533294  44.4407892  83.9089749
 113.2280235  44.3857512  84.9201807 100.1864824  35.2291388  68.7299414
 100.4818265  34.3202066  68.6766467  99.2852860  35.2079127  68.4080416
 112.0950903  46.9498652  75.5349822 111.9702042  46.1488392  75.0260768
 112.7529994  47.4444845  75.0463792 103.7159071  33.3047385  74.7126962
 102.9945657  33.9183352  74.5734436 104.5052327  33.8405149  74.6343608
 114.1585811  44.7507672  77.1629372 113.2116147  44.6313023  77.0907699
 114.5068584  43.8630170  77.2455634 106.5185384  30.6401811  80.9867614
 107.0419786  30.8864108  81.7493923 106.2997718  31.4721846  80.5670751
 101.9152665  32.9105486  68.8538739 101.5865372  32.0302865  68.6713845
 102.2692036  32.8553154  69.7415128 111.1632244  44.5460388  73.3633724
 111.0157207  43.6177096  73.5441294 111.9885738  44.5680479  72.8790800
 105.0294489  33.1978455  69.2214217 105.3690561  33.7264377  68.4992825
 105.4766609  33.5358862  69.9972783 114.7666366  45.3688947  74.4498597
 115.6912914  45.1631808  74.3123048 114.5981670  45.1205348  75.3587939
 107.7237929  31.5815506  78.6717285 107.3834750  30.7823319  79.0737965
 107.0176936  31.8817217  78.0994118 108.3754401  28.6664819  77.1244608
 109.1980471  28.1925297  77.0023498 108.6192465  29.4455302  77.6243294
 107.0162636  31.6953077  67.4207509 107.7370998  32.0734330  66.9171226
 106.3927940  32.4141954  67.5242487 111.1593759  32.3998226  68.3565842
 111.3757373  33.2822864  68.0554670 110.6787826  32.0084439  67.6271484
 105.8992980  35.3583939  74.9336586 105.7537561  35.6724242  75.8260868
 105.4218184  35.9768840  74.3807485 107.7589363  32.3486487  74.9817476
 107.7450932  31.4527581  74.6449774 108.4761791  32.3557151  75.6155762
 109.6115494  32.7823827  77.0270603 109.3533271  33.7040898  77.0254934
 109.0800534  32.3854262  77.7171067 114.5561682  45.8874615  69.8060689
 114.7298560  45.3221037  69.0534541 115.0490574  46.6875509  69.6240179
 100.3738642  37.8989284  77.8724247  99.8292110  38.6749092  78.0044522
 101.2517992  38.2460088  77.7143369 107.1626259  31.2300868  70.2505046
 107.2842170  30.3017514  70.4495933 106.8728301  31.2439553  69.3383361
 110.0317449  28.9155778  73.3871766 110.0539146  28.9795111  72.4323745
 110.4485508  28.0760287  73.5812272 120.4101074  38.6511038  71.4250988
 120.8532220  37.9018363  71.0270112 119.5327584  38.6421174  71.0424720
 115.5436855  45.2041379  66.9057587 116.2387759  45.8248072  67.1244902
 115.8860005  44.3536730  67.1809965 101.1604664  37.0259180  80.7654404
 100.4186400  37.1741815  81.3519035 100.8397408  37.2867446  79.9021154
 117.4428278  42.6541085  68.4344918 117.9679602  42.9928357  67.7094238
 117.3550631  41.7188100  68.2508052 109.1048327  46.5675158  80.5634794
 109.4135453  46.3224305  81.4357494 109.9023809  46.7721797  80.0753665
 109.1268939  48.7213068  72.7940171 108.6873929  48.2289446  73.4873028
 109.8777056  48.1786035  72.5532246 101.6061278  44.9124609  72.7964799
 102.4319298  44.6128381  72.4163442 101.2555330  44.1432231  73.2454588
 106.5742811  44.2651077  74.8662473 105.9522820  43.6021782  74.5664700
 107.2447678  44.2912209  74.1836120  99.8069883  42.8310935  73.7553733
  98.9701791  42.4033109  73.5737734  99.7793528  43.0243378  74.6924524
 106.6467338  32.7432865  84.4594979 106.6955494  33.6194988  84.0772748
 107.1889853  32.2010258  83.8866622 117.1322184  43.2873988  83.7396116
 116.3417728  43.2698127  83.2000615 116.8955539  43.8262282  84.4945152
 117.2520059  40.1366455  81.0528844 117.3018064  39.9716462  81.9944367
 117.1433982  39.2693714  80.6626725 106.1356318  42.8155000  68.3420933
 106.2844438  43.4990465  67.6887606 106.9422761  42.7960090  68.8570389
 114.5423821  36.1197383  82.3688151 115.4433684  35.9803847  82.0772149
 114.6171796  36.2851837  83.3086328 108.8766627  33.4964237  81.2141337
 108.0069936  33.7897803  80.9423926 109.1126107  34.0804682  81.9348601
 118.7538256  42.5563396  81.2970866 118.4623064  42.9193377  82.1334327
 118.1410387  41.8430404  81.1184198 119.9533938  40.1216276  73.8173436
 120.7880830  40.5606080  73.9810996 120.0893067  39.6454929  72.9981682
 117.0025444  37.6796011  79.7650924 117.4779566  37.8723657  78.9569775
 116.0791010  37.7355196  79.5194307 103.8908951  38.8420178  69.3482002
 103.6454993  37.9382508  69.5462212 104.0604865  38.8437328  68.4061480
 111.5805661  29.7143854  78.7306758 112.0987604  30.4504881  78.4053246
 111.2260793  30.0207848  79.5653517 103.1604598  34.5748535  66.8468163
 102.4673843  34.6492890  66.1908199 102.9156350  33.8108879  67.3689680
 111.8318255  26.1344137  74.2507654 112.1120009  25.4667326  74.8768081
 112.6168862  26.3273232  73.7382318 109.6351723  45.3103131  65.8132681
 109.0625690  45.9293318  65.3603152 110.2084517  45.8602492  66.3472602
 115.7027113  34.5561771  77.9979229 116.6544536  34.6559868  78.0191453
 115.5330564  33.7640039  78.5077314 113.7241493  31.6417354  78.1838630
 113.1291425  31.9222367  77.4885119 113.4391189  32.1311255  78.9555371
 112.8548983  45.5940281  66.9441263 113.7879656  45.5285842  67.1474138
 112.7672196  46.4296548  66.4855795 115.4837000  44.9106151  63.9045210
 115.4050631  44.5766015  64.7980968 116.3046667  45.4027919  63.9036683
 118.1815191  37.7767890  77.1121529 118.1491511  36.8383891  77.2981213
 118.7915815  37.8551927  76.3787354 110.0198522  36.6463943  63.1548733
 110.9657627  36.5170152  63.2237151 109.6412767  35.9078605  63.6318161
 118.3309679  34.5678934  77.1579812 117.8148728  33.7837391  76.9709741
 119.2149628  34.2397650  77.3226332 115.9920406  28.3119949  73.1175625
 115.7945227  28.0035038  74.0018957 116.6020112  29.0381588  73.2473555
 109.9037214  40.6981690  84.6149390 110.8240224  40.8760289  84.8089437
 109.8686797  39.7537735  84.4629089 108.2041439  34.5713920  63.0903618
 107.2972894  34.2747033  63.1666332 108.4817420  34.2743738  62.2237904
  99.1219379  35.8920283  73.5402665  98.8022164  35.0385591  73.2477039
  98.5752808  36.1068861  74.2960632 102.8999287  38.6082724  77.2572171
 103.1185297  39.5399832  77.2760205 103.3125061  38.2490699  78.0426975
 109.8203505  29.1150810  69.2447860 109.0104233  28.7697894  69.6203106
 110.5087922  28.8058353  69.8335471 111.7494053  28.1928856  70.8672156
 112.3025092  28.6124310  71.5262179 111.9864139  27.2664604  70.9095112
 107.7727152  34.1815930  86.6474920 107.6723879  35.1310287  86.5787011
 107.5548694  33.8534169  85.7750990 106.9740224  31.4300855  63.2315597
 107.8359388  31.7555753  63.4911415 107.1590568  30.6432351  62.7188663
  98.9907639  39.5123195  75.5095786  98.2971111  39.0977147  74.9965741
  99.7380630  39.5543731  74.9129205 115.1272860  30.3029381  70.3750820
 114.5471529  30.9614186  69.9928873 114.8608793  29.4806726  69.9638238
 113.5776426  29.7034439  72.5772141 114.0776205  29.8150974  71.7686460
 114.2212034  29.3995492  73.2172949 107.6358422  37.6113069  85.4639982
 107.1525504  38.4113429  85.6703871 107.7219361  37.6221014  84.5107426
 100.9044382  39.4441448  73.3861801 100.8815070  39.5429136  72.4343684
 101.2145018  40.2906599  73.7078967 103.5631760  41.5017604  77.5008416
 104.5175013  41.4701546  77.4338347 103.3644283  41.0408227  78.3158641
 104.1531142  40.0718720  80.0679213 104.9724031  40.5662798  80.0914050
 104.4267950  39.1550688  80.0396781 113.9097738  32.4629472  69.4307169
 113.0223593  32.7479122  69.2127363 114.3251727  32.3023235  68.5834446
 117.2612274  32.4875993  73.1461508 118.0372664  32.9772445  73.4186125
 116.5360408  32.9134047  73.6033377 119.6984833  33.2003612  74.2035449
 120.2929324  32.9599348  73.4928757 119.7711417  32.4810743  74.8308985
 101.9181989  47.0437223  74.5178613 101.7836456  46.2837624  73.9516611
 101.5014051  47.7678123  74.0507402 113.0540952  42.2274147  63.5255189
 113.7576802  42.4324149  64.1412844 112.3303600  42.7950908  63.7904272
 113.8838762  37.9784008  69.6457459 113.8273963  38.4352559  68.8065091
 114.4367104  37.2174692  69.4680302 117.6943568  33.7673740  70.4707578
 117.4380502  33.3670375  71.3015786 117.0696436  34.4817534  70.3457718
 105.0751114  47.9406540  74.7297056 104.9583499  48.8851973  74.6275746
 104.2543561  47.6380102  75.1182855 114.9627649  42.6656676  65.5753649
 115.7973253  42.2337874  65.3931124 114.8011992  42.4938689  66.5030543
 114.6173541  39.1688789  66.9409988 114.5622345  39.0033060  65.9998432
 113.9919596  39.8764822  67.0972178  99.4066056  34.4056853  80.7671410
 100.0524920  33.8955807  81.2558635  99.1983207  35.1425535  81.3414835
 111.9319448  41.4737701  86.2663551 112.8010608  41.6478353  85.9050186
 111.4526200  42.2932118  86.1439280 107.9269667  28.6696898  66.5195306
 107.9148336  29.6138738  66.6763577 108.8193088  28.4867043  66.2254768
 106.1005629  48.5934802  77.9452984 107.0032875  48.6258412  78.2619479
 105.8742999  47.6635253  77.9599320 107.8559231  47.3465788  74.6063063
 106.9054862  47.3467650  74.4927435 108.1591717  46.5998523  74.0899098
 111.7421786  25.2639675  70.7741243 110.9754182  24.7098161  70.9197926
 112.1532491  25.3361543  71.6355395 103.7463547  31.5524470  84.8646424
 104.6095009  31.1961275  85.0749749 103.1728958  31.2138365  85.5521829
 120.4001630  53.1353755  75.6070350 120.0620142  53.0194820  74.7190885
 121.2691398  52.7344920  75.5871356 116.2588446  54.9889231  71.5967241
 115.6953311  54.8979168  70.8283529 116.1440841  54.1689136  72.0769734
 120.8821413  54.2888607  81.5656556 120.8710054  53.8941405  80.6937059
 121.0442053  53.5554679  82.1590327 113.8052878  56.4840423  74.4351462
 114.5974170  56.1431248  74.0197761 114.0449528  56.5935398  75.3553615
 115.7643632  55.7449336  67.3068840 116.5374508  55.1978323  67.1681716
 116.1169031  56.6093586  67.5183302 117.6028674  57.0725718  80.5135740
 117.3118540  57.9771349  80.3982406 118.2385659  57.1142246  81.2279809
 118.5284881  54.4502567  77.1037099 119.1248454  54.2258589  76.3894062
 118.5859853  53.7087312  77.7062547 118.1009910  51.9042002  64.9387290
 118.3535430  51.3823524  64.1770753 117.1634469  51.7408148  65.0413974
 117.8206198  53.8070108  67.1411665 117.7042457  53.1315012  67.8092750
 117.9308458  53.3202482  66.3243818 120.1637739  53.2680255  70.8458354
 119.7995947  52.7410876  71.5571276 121.0204855  52.8778724  70.6724840
 119.8043226  48.2970155  65.8419703 119.9717629  49.1650392  66.2090174
 119.6140395  48.4597437  64.9180992 116.0131041  53.2100931  73.5422238
 115.0881537  53.0777145  73.7499930 116.2615454  53.9895150  74.0392180
 119.7832447  50.7527813  66.8266370 119.6632072  51.1984863  67.6651850
 119.0885036  51.1013130  66.2679908 113.3739852  52.8534204  74.3766027
 113.5032233  53.1068683  75.2905439 112.6937303  53.4461912  74.0570682
 117.5439339  63.5231454  70.4756501 117.4663369  64.4739279  70.5544982
 116.9400983  63.1777327  71.1331427 120.0356569  50.6959320  83.1317868
 119.2589903  51.2553240  83.1220733 120.6747132  51.1816103  83.6532738
 118.2902941  53.5044773  82.6935835 119.0317626  54.0429817  82.4170659
 117.5839927  54.1311062  82.8507387 120.1189351  50.5846520  78.6641553
 120.9650546  51.0085934  78.8076202 120.0587989  49.9280145  79.3580117
 119.6415058  55.9449512  72.3110370 120.1053403  56.2237215  71.5214993
 119.3771856  55.0432957  72.1283461 116.5339139  55.4920994  75.2490134
 117.1040496  55.9208262  74.6107618 117.1247250  55.2103579  75.9474319
 118.5783944  52.0672665  69.1199936 119.2807987  52.5193708  69.5873862
 118.2464572  51.4256484  69.7479829 117.0264305  50.6584421  83.4951145
 116.3962966  51.3400702  83.7286542 116.9200393  50.5467503  82.5504283
 112.3209278  50.3256217  74.4217069 111.5308332  50.5813746  73.9457180
 112.8120525  51.1404555  74.5269110 114.2724023  50.6900797  71.3800546
 113.4755186  50.8019491  71.8984042 114.0449615  51.0287449  70.5141436
 120.1029691  57.2145500  79.3283060 120.1674123  57.6765907  80.1641232
 119.3940614  56.5842865  79.4565370 110.6046981  50.5786708  76.8532060
 110.8555019  51.4633718  77.1189636 111.1406529  50.3991309  76.0807152
 119.8177708  58.8813607  69.1962041 119.6823383  59.7265143  69.6246889
 120.3587521  59.0832885  68.4327975 116.3045048  44.9605187  85.8576396
 115.9111993  44.4071386  86.5324040 117.1211188  45.2715766  86.2482914
 113.2707106  56.3989045  69.7689966 113.7831626  57.1932296  69.9195531
 113.9229818  55.7015336  69.7023567 115.0801990  59.5154802  71.8512719
 115.2568619  60.4372766  71.6633703 115.8758824  59.2013221  72.2807099
 119.2213009  46.3763066  83.4496653 119.9622722  46.9770219  83.3701115
 119.4530932  45.6340704  82.8914695 114.3654347  51.5619434  81.7274882
 114.2507862  50.6604691  82.0281981 113.5098865  51.8083130  81.3759699
 116.2033306  61.0332975  77.8523061 116.7540731  60.9050039  77.0800055
 115.3644782  61.3327864  77.5017954 120.0000477  57.2984103  82.1967293
 120.5328814  56.5372391  81.9666600 119.4714558  57.0057755  82.9391447
 111.2356022  54.7277700  70.5449536 112.0731244  55.1374708  70.3283244
 111.4134290  53.7877142  70.5149730 120.7167566  47.2402481  71.2918608
 119.8609162  46.8509331  71.1124246 121.1294517  47.3194442  70.4318393
 118.4909598  44.8587554  74.6976349 119.3562595  44.6630363  74.3382239
 118.5587107  44.6297906  75.6245706 121.3653190  56.4270096  69.7086105
 120.8374551  55.6922855  69.3959342 120.8640692  57.2044772  69.4626073
 116.0971917  47.0889762  72.0692716 116.6715669  46.8664943  71.3365909
 116.6842900  47.1578456  72.8221317 116.4241504  49.1194223  66.0888601
 115.5878817  49.4568910  66.4097876 116.2846274  48.9843203  65.1515738
 118.3994585  43.9631011  70.7967785 117.7458997  43.6480028  70.1724400
 118.3575059  43.3406751  71.5227608 119.5105790  54.2450306  62.7121078
 118.6032851  54.0139559  62.9112227 120.0076822  53.4487925  62.8995059
 120.6894023  54.3462901  67.2345068 119.7805242  54.0621934  67.3317537
 120.7189107  54.7661979  66.3748374 111.2582194  52.0668415  71.2160270
 111.0606593  51.4737776  70.4911336 110.7028858  51.7620625  71.9336209
 119.2378917  51.9591521  73.3354863 119.2927527  51.0065358  73.2597340
 118.4270119  52.1150961  73.8196161 120.3870111  55.8871645  64.5733146
 119.9489541  55.1707503  64.1138784 121.1280552  56.1147759  64.0118238
 117.1771277  50.5768581  71.0945242 116.3639143  50.8762752  71.5010434
 117.6730271  50.1824270  71.8119724 119.3279855  60.5726338  73.0279507
 119.2856034  60.7987184  72.0988039 120.2442554  60.3389713  73.1765308
 116.6685352  48.1486937  76.7106477 117.3084731  48.0075696  76.0129440
 115.8362882  47.8621450  76.3345079 117.4445656  57.4489367  72.8241469
 118.2386254  56.9539687  72.6224044 116.7337348  56.9207230  72.4609175
 113.7528419  51.5932449  68.9001222 112.8226007  51.5316904  69.1171184
 113.8485891  51.0708402  68.1037863 113.6713968  48.1187262  71.4879464
 113.9320786  49.0332595  71.3788624 114.4931141  47.6511704  71.6376076
 115.1438894  49.5325019  78.6578288 115.8161947  49.3242381  78.0090937
 114.3168680  49.3347105  78.2183520 120.0216932  58.0218389  76.5039306
 119.8828017  57.6537174  77.3765244 119.2331528  58.5366029  76.3323264
 120.6165084  63.1227486  67.8464843 120.7916839  62.6515529  68.6610466
 119.9297872  63.7493252  68.0746104 121.5722147  57.3999992  73.8928144
 121.2371980  57.3600762  74.7885794 121.0726093  56.7344708  73.4198554
 115.5466391  52.8067622  79.4180725 115.4086189  52.0747861  80.0192264
 116.4571314  52.7176522  79.1364913 118.1748692  52.5187581  78.9064405
 118.8848310  51.8780773  78.8651023 118.1318000  52.7700476  79.8290586
 116.8877626  49.5052799  80.7260044 116.3514983  49.0543538  81.3781641
 116.2994334  49.6398708  79.9830509 115.1826169  66.2716848  74.6204703
 115.4222767  66.9035373  75.2983722 114.3395366  65.9204888  74.9070062
 116.2979884  48.9641450  63.2886508 115.4209351  48.8430251  62.9248755
 116.7737638  48.1727529  63.0365397 107.8182025  53.7518610  73.3828015
 108.5053064  53.4380340  72.7949031 107.6630153  54.6559975  73.1095267
 112.6216747  48.6408807  77.8113039 112.5374936  48.0334476  77.0763449
 111.7999453  49.1317825  77.8122535 119.6954031  62.0795971  77.0246207
 119.6224202  62.8850942  77.5365512 119.2531424  62.2787937  76.1994228
 119.4843811  61.3167741  70.5349029 118.7011332  61.8589421  70.6287253
 120.1836556  61.8341720  70.9343270 119.3775429  49.2679753  72.9054919
 119.0073217  48.7150794  73.5935824 119.8734522  48.6637887  72.3529919
 117.2064628  59.7277248  80.0009937 117.9074087  60.3613731  80.1539331
 116.7359743  60.0691980  79.2405576 112.8032346  59.2613603  76.9341039
 113.3885783  58.5157291  77.0668943 112.6057184  59.5717560  77.8177703
 115.6571001  62.2964851  71.9503482 114.9881377  62.7810978  71.4667522
 115.5183871  62.5434071  72.8646860 107.3950001  51.8319204  75.6545482
 107.4334100  51.2982794  76.4482600 106.8890294  51.3054409  75.0356460
 119.7976270  64.3308594  78.5486140 120.3494578  64.4940216  79.3135225
 120.1382463  64.9213032  77.8766165 114.7740763  46.6783744  79.1508025
 114.8382090  47.5398575  78.7385422 114.7107883  46.0657746  78.4180383
 114.2493036  48.7506877  82.7981059 114.8765074  48.3683954  83.4118583
 113.3920954  48.5321079  83.1636751 111.0258578  50.5583306  68.7299414
 111.3212019  49.6493984  68.6766467 110.1246614  50.5371045  68.4080416
 114.5552825  48.6339302  74.7126962 113.8339411  49.2475270  74.5734436
 115.3446081  49.1697067  74.6343608 117.3579139  45.9693729  80.9867614
 117.8813541  46.2156025  81.7493923 117.1391472  46.8013764  80.5670751
 112.7546420  48.2397403  68.8538739 112.4259126  47.3594782  68.6713845
 113.1085791  48.1845072  69.7415128 115.8688243  48.5270373  69.2214217
 116.2084316  49.0556294  68.4992825 116.3160364  48.8650779  69.9972783
 118.5631684  46.9107424  78.6717285 118.2228504  46.1115237  79.0737965
 117.8570690  47.2109135  78.0994118 119.2148156  43.9956736  77.1244608
 120.0374225  43.5217214  77.0023498 119.4586219  44.7747220  77.6243294
 117.8556390  47.0244995  67.4207509 118.5764753  47.4026248  66.9171226
 117.2321694  47.7433872  67.5242487 116.7386734  50.6875857  74.9336586
 116.5931315  51.0016160  75.8260868 116.2611938  51.3060757  74.3807485
 118.5983117  47.6778405  74.9817476 118.5844686  46.7819498  74.6449774
 119.3155545  47.6849069  75.6155762 120.4509248  48.1115745  77.0270603
 120.1927026  49.0332816  77.0254934 119.9194288  47.7146180  77.7171067
 111.2132397  53.2281201  77.8724247 110.6685865  54.0041009  78.0044522
 112.0911747  53.5752006  77.7143369 118.0020013  46.5592785  70.2505046
 118.1235924  45.6309431  70.4495933 117.7122056  46.5731471  69.3383361
 120.8711204  44.2447696  73.3871766 120.8932901  44.3087029  72.4323745
 121.2879263  43.4052204  73.5812272 111.9998419  52.3551098  80.7654404
 111.2580155  52.5033733  81.3519035 111.6791163  52.6159363  79.9021154
 119.9442081  61.8967076  80.5634794 120.2529208  61.6516223  81.4357494
 120.7417563  62.1013714  80.0753665 119.9662693  64.0504985  72.7940171
 119.5267683  63.5581364  73.4873028 120.7170810  63.5077953  72.5532246
 112.4455032  60.2416526  72.7964799 113.2713052  59.9420298  72.4163442
 112.0949084  59.4724149  73.2454588 117.4136565  59.5942995  74.8662473
 116.7916575  58.9313700  74.5664700 118.0841432  59.6204126  74.1836120
 110.6463637  58.1602853  73.7553733 109.8095546  57.7325027  73.5737734
 110.6187283  58.3535296  74.6924524 117.4861093  48.0724783  84.4594979
 117.5349248  48.9486905  84.0772748 118.0283607  47.5302176  83.8866622
 116.9750072  58.1446918  68.3420933 117.1238193  58.8282382  67.6887606
 117.7816516  58.1252008  68.8570389 119.7160381  48.8256155  81.2141337
 118.8463691  49.1189721  80.9423926 119.9519862  49.4096600  81.9348601
 114.7302705  54.1712096  69.3482002 114.4848747  53.2674426  69.5462212
 114.8998620  54.1729246  68.4061480 113.9998353  49.9040453  66.8468163
 113.3067598  49.9784808  66.1908199 113.7550105  49.1400797  67.3689680
 120.4745478  60.6395048  65.8132681 119.9019445  61.2585235  65.3603152
 121.0478271  61.1894410  66.3472602 119.0435193  49.9005837  63.0903618
 118.1366649  49.6038950  63.1666332 119.3211174  49.6035656  62.2237904
 109.9613134  51.2212201  73.5402665 109.6415918  50.3677509  73.2477039
 109.4146562  51.4360779  74.2960632 113.7393041  53.9374642  77.2572171
 113.9579051  54.8691750  77.2760205 114.1518815  53.5782616  78.0426975
 120.6597259  44.4442727  69.2447860 119.8497987  44.0989812  69.6203106
 121.3481676  44.1350271  69.8335471 118.6120907  49.5107848  86.6474920
 118.5117634  50.4602205  86.5787011 118.3942449  49.1826087  85.7750990
 117.8133978  46.7592773  63.2315597 118.6753142  47.0847671  63.4911415
 117.9984322  45.9724269  62.7188663 109.8301394  54.8415112  75.5095786
 109.1364865  54.4269065  74.9965741 110.5774385  54.8835649  74.9129205
 118.4752177  52.9404986  85.4639982 117.9919258  53.7405347  85.6703871
 118.5613116  52.9512931  84.5107426 111.7438136  54.7733366  73.3861801
 111.7208824  54.8721053  72.4343684 112.0538773  55.6198517  73.7078967
 114.4025514  56.8309521  77.5008416 115.3568768  56.7993464  77.4338347
 114.2038038  56.3700145  78.3158641 114.9924896  55.4010637  80.0679213
 115.8117785  55.8954716  80.0914050 115.2661704  54.4842605  80.0396781
 112.7575743  62.3729141  74.5178613 112.6230211  61.6129542  73.9516611
 112.3407805  63.0970041  74.0507402 115.9144869  63.2698458  74.7297056
 115.7977253  64.2143890  74.6275746 115.0937315  62.9672019  75.1182855
 110.2459811  49.7348771  80.7671410 110.8918674  49.2247725  81.2558635
 110.0376962  50.4717453  81.3414835 118.7663421  43.9988816  66.5195306
 118.7542091  44.9430656  66.6763577 119.6586843  43.8158961  66.2254768
 116.9399383  63.9226720  77.9452984 117.8426630  63.9550330  78.2619479
 116.7136753  62.9927171  77.9599320 118.6952985  62.6757706  74.6063063
 117.7448616  62.6759568  74.4927435 118.9985471  61.9290441  74.0899098
 114.5857302  46.8816388  84.8646424 115.4488763  46.5253193  85.0749749
 114.0122712  46.5430283  85.5521829 118.6575779  69.0810528  73.3828015
 119.3446819  68.7672258  72.7949031 118.5023908  69.9851893  73.1095267
 118.2343755  67.1611121  75.6545482 118.2727855  66.6274712  76.4482600
 117.7284048  66.6346327  75.0356460 121.4857392  73.4894770  73.7553733
 120.6489300  73.0616945  73.5737734 121.4581037  73.6827214  74.6924524
 120.8006888  66.5504119  73.5402665 120.4809673  65.6969427  73.2477039
 120.2540316  66.7652697  74.2960632 120.6695148  70.1707030  75.5095786
 119.9758620  69.7560983  74.9965741 121.4168139  70.2127567  74.9129205
  95.8651832   9.8709742  57.2001808  95.7875861  10.8217567  57.2790288
  95.2613475   9.5255614  57.8576734  93.5038661  12.6195136  61.3450010
  93.7435260  13.2513660  62.0229028  92.6607858  12.2683176  61.6315369
  93.9783494   8.6443138  58.6748788  93.3093869   9.1289266  58.1912828
  93.8396363   8.8912358  59.5892167  98.1188762  10.6786881  65.2731447
  98.6707070  10.8418503  66.0380532  98.4594956  11.2691319  64.6011471
  91.0788235   8.7207428  61.2423920  90.9442703   7.9607829  60.6761918
  90.6620298   9.4448328  60.7752709  94.2357361   9.6176745  61.4542363
  94.1189745  10.5622177  61.3521053  93.4149807   9.3150306  61.8428162
  95.2611875  10.2705007  64.6698291  96.1639122  10.3028617  64.9864786
  95.0349245   9.3405458  64.6844627 109.5607877  14.8123960  62.3315657
 109.2226389  14.6965025  61.4436192 110.4297645  14.4115125  62.3116663
 105.4194693  16.6659436  58.3212548 104.8559558  16.5749373  57.5528836
 105.3047088  15.8459341  58.8015040 110.0427660  15.9658812  68.2901862
 110.0316301  15.5711610  67.4182366 110.2048300  15.2324884  68.8835634
 102.9659125  18.1610628  61.1596768 103.7580417  17.8201453  60.7443068
 103.2055775  18.2705603  62.0798922 110.9994251  20.3330404  53.6327013
 110.3482231  20.9184484  53.2461026 111.7938614  20.8636599  53.6922050
 104.9249879  17.4219541  54.0314147 105.6980755  16.8748528  53.8927023
 105.2775278  18.2863790  54.2428608 106.7634921  18.7495923  67.2381046
 106.4724787  19.6541554  67.1227713 107.3991906  18.7912451  67.9525116
 107.6891128  16.1272772  63.8282406 108.2854700  15.9028794  63.1139369
 107.7466100  15.3857517  64.4307854 112.4769517  18.0220836  54.1695997
 111.8415350  18.0955462  54.8816902 112.1466923  18.6114435  53.4915076
 106.9812445  15.4840313  53.8656972 106.8648703  14.8085217  54.5338056
 107.0914705  14.9972687  53.0489125 109.3243986  14.9450460  57.5703661
 108.9602193  14.4181081  58.2816583 110.1811102  14.5548929  57.3970147
 111.7224806  18.4357339  64.2330840 111.4225529  19.3382378  64.1246647
 111.3775866  18.1689522  65.0851993 105.1737288  14.8871136  60.2667544
 104.2487784  14.7547350  60.4745236 105.4221701  15.6665355  60.7637487
 102.5346099  14.5304409  61.1011333 102.6638480  14.7838888  62.0150745
 101.8543550  15.1232117  60.7815989 106.7045586  25.2001659  57.2001808
 106.6269616  26.1509484  57.2790288 106.1007230  24.8547532  57.8576734
 107.4509188  15.1814978  69.4181142 108.1923873  15.7200022  69.1415965
 106.7446174  15.8081267  69.5752693 112.9264528  17.3244119  68.0153303
 113.3347884  16.8826529  67.2707935 112.2041789  16.7496746  68.2687496
 113.2493342  17.8845309  61.7705592 112.6202205  18.0491023  61.0681660
 112.8619005  18.2986919  62.5416556 117.1282574  18.8199747  59.1249956
 116.4433613  19.1998648  58.5746989 117.2126424  19.4295074  59.8581903
 114.3833506  16.4659706  65.7245299 114.5950401  17.1091466  65.0479680
 114.3363254  15.6322023  65.2567229 108.8021304  17.6219717  59.0355677
 109.2659650  17.9007420  58.2460300 108.5378102  16.7203162  58.8528768
 105.6945385  17.1691199  61.9735440 106.2646742  17.5978467  61.3352925
 106.2853497  16.8873783  62.6719626 101.4815524  12.0026422  61.1462376
 100.6914578  12.2583951  60.6702486 101.9726772  12.8174760  61.2514416
 115.4979334  19.3431661  63.8967657 116.3196778  18.9411849  63.6150338
 115.4941737  19.2399896  64.8483772 103.4330270  12.3671002  58.1045852
 102.6361433  12.4789696  58.6229348 103.2055862  12.7057654  57.2386743
 109.2635937  18.8915705  66.0528367 109.3280370  19.3536112  66.8886539
 108.5546861  18.2613070  66.1810677  99.7653227  12.2556913  63.5777367
 100.0161266  13.1403923  63.8434943 100.3012776  12.0761514  62.8052458
 108.9783955  20.5583812  55.9207347 108.8429630  21.4035348  56.3492195
 109.5193768  20.7603090  55.1573281 102.4313352  18.0759250  56.4935273
 102.9437873  18.8702501  56.6440837 103.0836065  17.3785541  56.4268874
 104.2408237  21.1925007  58.5758026 104.4174865  22.1142971  58.3879010
 105.0365071  20.8783426  59.0052405 103.5260594  13.2389638  68.4520189
 103.4114109  12.3374896  68.7527288 102.6705111  13.4853335  68.1005005
 110.6052431  21.1807379  70.0507690 110.1616286  20.3943757  69.7328594
 111.2669645  21.3686529  69.3851580 105.3639553  22.7103180  64.5768368
 105.9146978  22.5820244  63.8045362 104.5251028  23.0098069  64.2263261
 112.7033669  21.4610179  68.0789091 112.6852145  22.2819060  67.5869360
 113.6253589  21.3364254  68.3039232 109.1606724  18.9754308  68.9212599
 109.6935060  18.2142596  68.6911907 108.6320805  18.6827960  69.6636754
 100.3962269  16.4047905  57.2694843 101.2337491  16.8144913  57.0528551
 100.5740537  15.4647347  57.2395037 110.5259436  18.1040301  56.4331411
 109.9980798  17.3693060  56.1204649 110.0246939  18.8814977  56.1871379
 115.5052282  16.2989321  61.5498457 114.8475957  16.9888583  61.6378586
 116.3092682  16.6885753  61.8932444 108.6712036  15.9220511  49.4366384
 107.7639098  15.6909764  49.6357533 109.1683068  15.1258130  49.6240366
 111.5780115  24.6318018  52.3563070 110.9041814  24.9349715  52.9648028
 111.9645937  25.4347098  52.0068527 109.8500270  16.0233106  53.9590374
 108.9411489  15.7392139  54.0562844 109.8795354  16.4432184  53.0993681
 115.0819537  19.6339695  57.7281542 114.6281864  18.7930605  57.7846732
 114.4513504  20.2701094  58.0656322 113.5252477  21.4716192  58.6631360
 113.8175451  22.0321249  57.9443726 114.0351097  21.7644753  59.4184519
 100.4188440  13.7438620  57.9405576 100.2212840  13.1507981  57.2156643
  99.8635104  13.4390830  58.6581515 109.5476358  17.5641849  51.2978453
 109.1095788  16.8477708  50.8384090 110.2886799  17.7917964  50.7363544
 108.4886102  22.2496543  59.7524813 108.4462281  22.4757389  58.8233345
 109.4048801  22.0159918  59.9010614 117.6918852  17.9075573  62.3666043
 118.1255359  17.8150863  63.2149097 118.4050433  17.8833074  61.7286059
 106.6051903  19.1259572  59.5486776 107.3992501  18.6309892  59.3469351
 105.8943595  18.5977435  59.1854481 111.4246747  21.5077668  63.8999144
 111.4783769  22.0768604  64.6676859 110.5561528  21.6779553  63.5353181
 102.9134666  13.2702654  55.6246529 101.9832254  13.2087109  55.8416491
 103.0092138  12.7478607  54.8283170 118.5534402  17.9499274  64.8998928
 118.7470292  18.8545085  65.1458203 118.4535020  17.4906693  65.7337513
 113.6149510  18.1006017  70.4739809 113.4635017  17.8716569  69.5569893
 113.6054190  19.0576618  70.4871154 110.3834847  15.6737930  65.4586075
 111.3126907  15.8249089  65.2855043 109.9625877  15.7621950  64.6034722
 109.1823179  19.6988594  63.2284613 109.0434264  19.3307378  64.1010551
 108.3937775  20.2136233  63.0568571 109.7771331  24.7997690  54.5710150
 109.9523086  24.3285734  55.3855772 109.0904119  25.4263457  54.7991410
 110.7328394  19.0770197  60.6173451 110.3978226  19.0370967  61.5131101
 110.2332339  18.4114913  60.1443861 104.7072638  14.4837827  66.1426032
 104.5692436  13.7518066  66.7437571 105.6177561  14.3946727  65.8610220
 113.6687585  16.4226231  50.8910510 113.0516756  15.6973059  50.7943563
 113.2004074  17.1835591  50.5477585 107.3354938  14.1957786  65.6309712
 108.0454557  13.5550978  65.5896330 107.2924246  14.4470681  66.5535892
 115.3241717  21.1325139  68.5516291 115.2654263  20.4484360  67.8846874
 115.7261235  21.8744129  68.0996917 104.3432416  27.9487053  61.3450010
 104.5829014  28.5805577  62.0229028 103.5001612  27.5975093  61.6315369
 115.3259124  19.0964723  66.7830270 114.4385903  18.7590645  66.9056669
 115.8957675  18.3647755  67.0199036  96.9788271  15.4288815  60.1073322
  97.6659311  15.1150545  59.5194337  96.8236400  16.3330180  59.8340573
 108.8560278  23.7566176  63.7491514 108.7830449  24.5621147  64.2610818
 108.4137671  23.9558142  62.9239535 108.6450057  22.9937946  57.2594335
 107.8617579  23.5359626  57.3532560 109.3442802  23.5111925  57.6588576
 111.3158961  23.6553010  65.9049672 112.0286933  24.2900475  65.8325574
 110.8248990  23.7516876  65.0889674 113.0376488  17.5604262  57.4766964
 112.1032767  17.6805725  57.3071668 113.2153157  16.6576729  57.2126974
 106.3670875  21.4047453  66.7255243 107.0680334  22.0383936  66.8784637
 105.8965990  21.7462185  65.9650882 114.4925271  19.7465403  55.0103150
 114.7685114  19.6321998  55.9197024 113.6229769  19.3482888  54.9715323
 111.1279335  23.9951754  58.6535964 111.3101729  23.1773410  59.1163716
 111.9512321  24.2119446  58.2160854 111.4621500  22.9219939  55.9151012
 111.9909266  22.4112394  55.3021174 111.7249720  22.6062469  56.7796545
 110.2159734  14.7011872  71.0373831 109.5400371  14.6006001  71.7076206
 111.0387368  14.5451085  71.5009828 101.9638593  20.9383808  63.6586346
 102.5492030  20.1927496  63.7914250 101.7663431  21.2487765  64.5423010
 104.8177248  23.9735056  58.6748788 104.1487623  24.4581183  58.1912828
 104.6790118  24.2204276  59.5892167  96.5556248  13.5089408  62.3790789
  96.5940347  12.9752999  63.1727907  96.0496540  12.9824614  61.7601766
 108.9582517  26.0078799  65.2731447 109.5100825  26.1710421  66.0380532
 109.2988710  26.5983237  64.6011471 113.8093391  20.8340057  71.1280101
 114.3533295  21.4470015  70.6335056 113.2280236  21.3919635  71.6447114
 100.1864825  12.2353511  55.4544720 100.4818266  11.3264189  55.4011774
  99.2852861  12.2141250  55.1325723 112.0950904  23.9560775  62.2595129
 111.9702043  23.1550515  61.7506074 112.7529995  24.4506968  61.7709099
 114.1585812  21.7569795  63.8874679 113.2116148  21.6375146  63.8153006
 114.5068585  20.8692293  63.9700940 111.1632246  21.5522511  60.0879031
 111.0157208  20.6239218  60.2686601 111.9885739  21.5742602  59.6036106
 114.7666367  22.3751070  61.1743904 115.6912915  22.1693931  61.0368355
 114.5981671  22.1267471  62.0833245 114.5561684  22.8936737  56.5305995
 114.7298561  22.3283160  55.7779848 115.0490575  23.6937632  56.3485485
 100.3738643  14.9051406  64.5969554  99.8292111  15.6811214  64.7289828
 101.2517993  15.2522211  64.4388676 115.5436856  22.2103502  53.6302894
 116.2387761  22.8310194  53.8490208 115.8860006  21.3598853  53.9055271
 101.1604665  14.0321303  67.4899711 100.4186401  14.1803938  68.0764341
 100.8397410  14.2929568  66.6266460 117.4428279  19.6603207  55.1590224
 117.9679603  19.9990480  54.4339544 117.3550632  18.7250222  54.9753359
 109.1048328  23.5737281  67.2880101 109.4135454  23.3286428  68.1602801
 109.9023810  23.7783919  66.7998971 109.1268940  25.7275190  59.5185478
 108.6873930  25.2351569  60.2118334 109.8777057  25.1848158  59.2777553
 101.6061279  21.9186731  59.5210106 102.4319299  21.6190503  59.1408749
 101.2555331  21.1494354  59.9699894 106.5742812  21.2713199  61.5907779
 105.9522821  20.6083904  61.2910007 107.2447679  21.2974331  60.9081427
  99.8069884  19.8373058  60.4799039  98.9701792  19.4095232  60.2983040
  99.7793529  20.0305501  61.4169830 117.1322185  20.2936111  70.4641422
 116.3417729  20.2760250  69.9245922 116.8955540  20.8324404  71.2190459
 106.1356319  19.8217123  55.0666240 106.2844439  20.5052587  54.4132912
 106.9422762  19.8022213  55.5815695 118.7538257  19.5625519  68.0216172
 118.4623065  19.9255499  68.8579633 118.1410388  18.8492527  67.8429504
 103.8908952  15.8482300  56.0727309 103.6454994  14.9444630  56.2707519
 104.0604867  15.8499451  55.1306787 109.6351725  22.3165253  52.5377987
 109.0625692  22.9355440  52.0848459 110.2084518  22.8664615  53.0717909
 112.8548984  22.6002403  53.6686569 113.7879657  22.5347965  53.8719445
 112.7672197  23.4358670  53.2101102 115.4837001  21.9168274  50.6290517
 115.4050633  21.5828137  51.5226275 116.3046668  22.4090042  50.6281989
 109.9037216  17.7043812  71.3394697 110.8240225  17.8822411  71.5334743
 109.8686799  16.7599857  71.1874396  99.1219381  12.8982406  60.2647971
  98.8022165  12.0447714  59.9722345  98.5752809  13.1130984  61.0205939
 102.8999288  15.6144847  63.9817478 103.1185298  16.5461955  64.0005512
 103.3125062  15.2552821  64.7672282  98.9907641  16.5185317  62.2341093
  98.2971112  16.1039270  61.7211047  99.7380632  16.5605854  61.6374512
 107.6358424  14.6175191  72.1885288 107.1525505  15.4175552  72.3949177
 107.7219363  14.6283136  71.2352732 100.9044383  16.4503571  60.1107108
 100.8815071  16.5491258  59.1588991 101.2145020  17.2968722  60.4324274
 103.5631761  18.5079726  64.2253722 104.5175015  18.4763668  64.1583654
 103.3644285  18.0470350  65.0403948 104.1531143  17.0780842  66.7924520
 104.9724032  17.5724921  66.8159357 104.4267951  16.1612810  66.7642087
 101.9181990  24.0499346  61.2423920 101.7836458  23.2899746  60.6761918
 101.5014052  24.7740245  60.7752709 113.0540953  19.2336269  50.2500495
 113.7576803  19.4386272  50.8658151 112.3303602  19.8013031  50.5149579
 105.0751116  24.9468663  61.4542363 104.9583500  25.8914095  61.3521053
 104.2543562  24.6442224  61.8428162 114.9627650  19.6718798  52.2998955
 115.7973254  19.2399997  52.1176430 114.8011993  19.5000812  53.2275850
 114.6173542  16.1750912  53.6655295 114.5622346  16.0095183  52.7243739
 113.9919598  16.8826945  53.8217484  99.4066057  11.4118976  67.4916717
 100.0524921  10.9017930  67.9803942  99.1983208  12.1487658  68.0660142
 111.9319450  18.4799824  72.9908857 112.8010609  18.6540476  72.6295492
 111.4526201  19.2994240  72.8684587 106.1005630  25.5996925  64.6698291
 107.0032876  25.6320535  64.9864786 105.8743000  24.6697375  64.6844627
 107.8559232  24.3527911  61.3308370 106.9054863  24.3529773  61.2172742
 108.1591718  23.6060646  60.8144404 120.4001632  30.1415878  62.3315657
 120.0620143  30.0256942  61.4436192 121.2691400  29.7407043  62.3116663
 116.2588447  31.9951354  58.3212548 115.6953312  31.9041291  57.5528836
 116.1440842  31.1751258  58.8015040 120.8821415  31.2950729  68.2901862
 120.8710055  30.9003528  67.4182366 121.0442054  30.5616802  68.8835634
 113.8052879  33.4902546  61.1596768 114.5974171  33.1493370  60.7443068
 114.0449529  33.5997521  62.0798922 115.7643633  32.7511459  54.0314147
 116.5374509  32.2040446  53.8927023 116.1169032  33.6155708  54.2428608
 117.6028676  34.0787841  67.2381046 117.3118542  34.9833472  67.1227713
 118.2385660  34.1204369  67.9525116 118.5284883  31.4564690  63.8282406
 119.1248455  31.2320712  63.1139369 118.5859854  30.7149435  64.4307854
 118.1009911  28.9104125  51.6632597 118.3535432  28.3885646  50.9016060
 117.1634470  28.7470270  51.7659281 117.8206200  30.8132231  53.8656972
 117.7042458  30.1377134  54.5338056 117.9308460  30.3264605  53.0489125
 120.1637741  30.2742378  57.5703661 119.7995948  29.7472999  58.2816583
 121.0204857  29.8840847  57.3970147 119.8043228  25.3032278  52.5665010
 119.9717630  26.1712514  52.9335481 119.6140397  25.4659559  51.6426299
 116.0131042  30.2163053  60.2667544 115.0881539  30.0839268  60.4745236
 116.2615455  30.9957273  60.7637487 119.7832448  27.7589935  53.5511676
 119.6632074  28.2046986  54.3897157 119.0885037  28.1075253  52.9925215
 113.3739853  29.8596327  61.1011333 113.5032234  30.1130806  62.0150745
 112.6937305  30.4524035  60.7815989 117.5439341  40.5293577  57.2001808
 117.4663370  41.4801402  57.2790288 116.9400984  40.1839449  57.8576734
 120.0356570  27.7021442  69.8563175 119.2589904  28.2615363  69.8466039
 120.6747133  28.1878225  70.3778045 118.2902943  30.5106896  69.4181142
 119.0317627  31.0491940  69.1415965 117.5839928  31.1373184  69.5752693
 120.1189352  27.5908643  65.3886860 120.9650548  28.0148057  65.5321509
 120.0587990  26.9342267  66.0825423 119.6415059  32.9511635  59.0355677
 120.1053404  33.2299338  58.2460300 119.3771857  32.0495079  58.8528768
 116.5339140  32.4983116  61.9735440 117.1040497  32.9270385  61.3352925
 117.1247252  32.2165701  62.6719626 118.5783945  29.0734787  55.8445242
 119.2807988  29.5255831  56.3119169 118.2464573  28.4318606  56.4725135
 117.0264306  27.6646544  70.2196452 116.3962967  28.3462825  70.4531848
 116.9200394  27.5529626  69.2749590 112.3209279  27.3318340  61.1462376
 111.5308333  27.5875868  60.6702486 112.8120526  28.1466678  61.2514416
 114.2724024  27.6962919  58.1045852 113.4755187  27.8081613  58.6229348
 114.0449616  28.0349571  57.2386743 120.1029692  34.2207622  66.0528367
 120.1674124  34.6828030  66.8886539 119.3940616  33.5904987  66.1810677
 110.6046982  27.5848830  63.5777367 110.8555020  28.4695840  63.8434943
 111.1406530  27.4053432  62.8052458 119.8177709  35.8875730  55.9207347
 119.6823384  36.7327266  56.3492195 120.3587522  36.0895008  55.1573281
 116.3045049  21.9667310  72.5821703 115.9111995  21.4133508  73.2569347
 117.1211189  22.2777888  72.9728220 113.2707107  33.4051168  56.4935273
 113.7831627  34.1994418  56.6440837 113.9229820  32.7077458  56.4268874
 115.0801992  36.5216924  58.5758026 115.2568620  37.4434889  58.3879010
 115.8758825  36.2075343  59.0052405 119.2213010  23.3825189  70.1741959
 119.9622723  23.9832342  70.0946422 119.4530933  22.6402827  69.6160002
 114.3654348  28.5681556  68.4520189 114.2507863  27.6666813  68.7527288
 113.5098866  28.8145253  68.1005005 116.2033307  38.0395098  64.5768368
 116.7540732  37.9112161  63.8045362 115.3644783  38.3389987  64.2263261
 120.0000478  34.3046226  68.9212599 120.5328815  33.5434514  68.6911907
 119.4714559  34.0119878  69.6636754 111.2356024  31.7339822  57.2694843
 112.0731246  32.1436831  57.0528551 111.4134291  30.7939264  57.2395037
 120.7167567  24.2464604  58.0163914 119.8609163  23.8571454  57.8369553
 121.1294519  24.3256564  57.1563700 118.4909599  21.8649677  61.4221656
 119.3562596  21.6692485  61.0627545 118.5587108  21.6360028  62.3491013
 121.3653191  33.4332218  56.4331411 120.8374552  32.6984978  56.1204649
 120.8640694  34.2106895  56.1871379 116.0971918  24.0951885  58.7938023
 116.6715670  23.8727066  58.0611216 116.6842901  24.1640579  59.5466624
 116.4241506  26.1256346  52.8133908 115.5878818  26.4631032  53.1343183
 116.2846275  25.9905325  51.8761045 118.3994586  20.9693133  57.5213092
 117.7458998  20.6542151  56.8969707 118.3575060  20.3468874  58.2472915
 119.5105791  31.2512429  49.4366384 118.6032853  31.0201682  49.6357533
 120.0076823  30.4550048  49.6240366 120.6894024  31.3525023  53.9590374
 119.7805244  31.0684056  54.0562844 120.7189108  31.7724102  53.0993681
 111.2582195  29.0730538  57.9405576 111.0606595  28.4799898  57.2156643
 110.7028859  28.7682748  58.6581515 119.2378918  28.9653644  60.0600170
 119.2927528  28.0127480  59.9842646 118.4270120  29.1213083  60.5441468
 120.3870112  32.8933767  51.2978453 119.9489542  32.1769626  50.8384090
 121.1280553  33.1209882  50.7363544 117.1771278  27.5830704  57.8190548
 116.3639144  27.8824874  58.2255741 117.6730273  27.1886393  58.5365031
 119.3279856  37.5788461  59.7524813 119.2856035  37.8049307  58.8233345
 120.2442555  37.3451835  59.9010614 116.6685353  25.1549059  63.4351783
 117.3084732  25.0137818  62.7374747 115.8362884  24.8683573  63.0590385
 117.4445657  34.4551490  59.5486776 118.2386256  33.9601810  59.3469351
 116.7337349  33.9269353  59.1854481 113.7528421  28.5994571  55.6246529
 112.8226009  28.5379027  55.8416491 113.8485892  28.0770524  54.8283170
 113.6713970  25.1249384  58.2124770 113.9320787  26.0394718  58.1033931
 114.4931142  24.6573827  58.3621383 115.1438895  26.5387141  65.3823595
 115.8161948  26.3304504  64.7336244 114.3168681  26.3409227  64.9428827
 120.0216933  35.0280512  63.2284613 119.8828019  34.6599296  64.1010551
 119.2331529  35.5428151  63.0568571 120.6165085  40.1289608  54.5710150
 120.7916841  39.6577651  55.3855772 119.9297873  40.7555374  54.7991410
 121.5722148  34.4062114  60.6173451 121.2371981  34.3662884  61.5131101
 121.0726094  33.7406830  60.1443861 115.5466392  29.8129744  66.1426032
 115.4086190  29.0809983  66.7437571 116.4571316  29.7238645  65.8610220
 118.1748693  29.5249704  65.6309712 118.8848311  28.8842896  65.5896330
 118.1318001  29.7762599  66.5535892 116.8877627  26.5114922  67.4505351
 116.3514984  26.0605660  68.1026947 116.2994335  26.6460830  66.7075815
 115.1826170  43.2778971  61.3450010 115.4222769  43.9097495  62.0229028
 114.3395367  42.9267011  61.6315369 116.2979886  25.9703573  50.0131815
 115.4209352  25.8492374  49.6494061 116.7737639  25.1789651  49.7610703
 107.8182026  30.7580733  60.1073322 108.5053066  30.4442463  59.5194337
 107.6630155  31.6622097  59.8340573 112.6216748  25.6470929  64.5358346
 112.5374937  25.0396599  63.8008755 111.7999454  26.1379948  64.5367842
 119.6954032  39.0858093  63.7491514 119.6224204  39.8913065  64.2610818
 119.2531425  39.2850059  62.9239535 119.4843812  38.3229863  57.2594335
 118.7011334  38.8651544  57.3532560 120.1836557  38.8403843  57.6588576
 119.3775431  26.2741876  59.6300225 119.0073218  25.7212916  60.3181131
 119.8734523  25.6700009  59.0775225 117.2064629  36.7339371  66.7255243
 117.9074089  37.3675854  66.8784637 116.7359744  37.0754102  65.9650882
 112.8032347  36.2675726  63.6586346 113.3885784  35.5219414  63.7914250
 112.6057186  36.5779683  64.5423010 115.6571002  39.3026973  58.6748788
 114.9881378  39.7873101  58.1912828 115.5183872  39.5496194  59.5892167
 107.3950002  28.8381326  62.3790789 107.4334102  28.3044917  63.1727907
 106.8890295  28.3116532  61.7601766 119.7976271  41.3370717  65.2731447
 120.3494579  41.5002338  66.0380532 120.1382465  41.9275155  64.6011471
 114.7740764  23.6845867  65.8753331 114.8382091  24.5460698  65.4630729
 114.7107885  23.0719868  65.1425690 114.2493037  25.7568999  69.5226366
 114.8765076  25.3746077  70.1363890 113.3920956  25.5383201  69.8882058
 111.0258580  27.5645428  55.4544720 111.3212021  26.6556107  55.4011774
 110.1246615  27.5433168  55.1325723 114.5552827  25.6401425  61.4372269
 113.8339412  26.2537393  61.2979742 115.3446082  26.1759190  61.3588915
 117.3579140  22.9755851  67.7112921 117.8813542  23.2218148  68.4739230
 117.1391473  23.8075886  67.2916058 112.7546421  25.2459526  55.5784046
 112.4259127  24.3656905  55.3959151 113.1085792  25.1907195  56.4660435
 115.8688244  25.5332496  55.9459523 116.2084317  26.0618417  55.2238132
 116.3160365  25.8712902  56.7218090 118.5631685  23.9169546  65.3962591
 118.2228506  23.1177360  65.7983271 117.8570691  24.2171257  64.8239424
 119.2148157  21.0018859  63.8489914 120.0374226  20.5279337  63.7268805
 119.4586221  21.7809343  64.3488601 117.8556391  24.0307117  54.1452816
 118.5764754  24.4088370  53.6416533 117.2321696  24.7495994  54.2487794
 116.7386736  27.6937980  61.6581893 116.5931316  28.0078283  62.5506174
 116.2611939  28.3122880  61.1052792 118.5983119  24.6840528  61.7062782
 118.5844687  23.7881621  61.3695080 119.3155547  24.6911191  62.3401069
 120.4509249  25.1177868  63.7515910 120.1927027  26.0394938  63.7500240
 119.9194290  24.7208302  64.4416374 111.2132398  30.2343324  64.5969554
 110.6685866  31.0103132  64.7289828 112.0911748  30.5814128  64.4388676
 118.0020015  23.5654908  56.9750353 118.1235926  22.6371554  57.1741240
 117.7122057  23.5793594  56.0628668 120.8711205  21.2509818  60.1117072
 120.8932902  21.3149151  59.1569052 121.2879264  20.4114327  60.3057579
 111.9998420  29.3613220  67.4899711 111.2580156  29.5095856  68.0764341
 111.6791164  29.6221486  66.6266460 119.9442082  38.9029198  67.2880101
 120.2529209  38.6578345  68.1602801 120.7417564  39.1075837  66.7998971
 119.9662694  41.0567108  59.5185478 119.5267685  40.5643487  60.2118334
 120.7170811  40.5140076  59.2777553 112.4455033  37.2478649  59.5210106
 113.2713053  36.9482421  59.1408749 112.0949085  36.4786271  59.9699894
 117.4136567  36.6005117  61.5907779 116.7916576  35.9375822  61.2910007
 118.0841434  36.6266249  60.9081427 110.6463638  35.1664975  60.4799039
 109.8095547  34.7387150  60.2983040 110.6187284  35.3597419  61.4169830
 117.4861094  25.0786905  71.1840285 117.5349250  25.9549028  70.8018055
 118.0283608  24.5364298  70.6111928 116.9750074  35.1509040  55.0666240
 117.1238194  35.8344505  54.4132912 117.7816517  35.1314131  55.5815695
 119.7160383  25.8318278  67.9386644 118.8463692  26.1251844  67.6669232
 119.9519863  26.4158723  68.6593907 114.7302706  31.1774218  56.0727309
 114.4848748  30.2736548  56.2707519 114.8998621  31.1791369  55.1306787
 113.9998354  26.9102576  53.5713470 113.3067599  26.9846931  52.9153506
 113.7550106  26.1462919  54.0934987 120.4745479  37.6457171  52.5377987
 119.9019446  38.2647358  52.0848459 121.0478273  38.1956533  53.0717909
 119.0435195  26.9067960  49.8148925 118.1366650  26.6101073  49.8911638
 119.3211176  26.6097778  48.9483211 109.9613135  28.2274323  60.2647971
 109.6415919  27.3739632  59.9722345 109.4146563  28.4422902  61.0205939
 113.7393043  30.9436764  63.9817478 113.9579052  31.8753872  64.0005512
 114.1518816  30.5844739  64.7672282 120.6597260  21.4504850  55.9693166
 119.8497989  21.1051935  56.3448412 121.3481677  21.1412394  56.5580778
 118.6120908  26.5169970  73.3720227 118.5117635  27.4664327  73.3032318
 118.3942450  26.1888209  72.4996297 117.8133979  23.7654895  49.9560904
 118.6753143  24.0909794  50.2156721 117.9984323  22.9786391  49.4433970
 109.8301395  31.8477235  62.2341093 109.1364867  31.4331188  61.7211047
 110.5774386  31.8897771  61.6374512 118.4752178  29.9467109  72.1885288
 117.9919260  30.7467469  72.3949177 118.5613117  29.9575054  71.2352732
 111.7438138  31.7795489  60.1107108 111.7208826  31.8783176  59.1588991
 112.0538774  32.6260640  60.4324274 114.4025515  33.8371644  64.2253722
 115.3568769  33.8055586  64.1583654 114.2038039  33.3762268  65.0403948
 114.9924898  32.4072760  66.7924520 115.8117787  32.9016839  66.8159357
 115.2661705  31.4904728  66.7642087 112.7575744  39.3791263  61.2423920
 112.6230212  38.6191664  60.6761918 112.3407807  40.1032163  60.7752709
 115.9144870  40.2760580  61.4542363 115.7977254  41.2206013  61.3521053
 115.0937316  39.9734142  61.8428162 110.2459812  26.7410894  67.4916717
 110.8918675  26.2309848  67.9803942 110.0376963  27.4779575  68.0660142
 118.7663422  21.0050938  53.2440613 118.7542092  21.9492778  53.4008884
 119.6586844  20.8221084  52.9500074 116.9399384  40.9288842  64.6698291
 117.8426631  40.9612452  64.9864786 116.7136754  39.9989293  64.6844627
 118.6952986  39.6819829  61.3308370 117.7448617  39.6821690  61.2172742
 118.9985472  38.9352563  60.8144404 114.5857303  23.8878511  71.5891731
 115.4488764  23.5315316  71.7995056 114.0122713  23.5492406  72.2767135
 118.6575780  46.0872650  60.1073322 119.3446820  45.7734380  59.5194337
 118.5023909  46.9914015  59.8340573 118.2343756  44.1673244  62.3790789
 118.2727856  43.6336835  63.1727907 117.7284049  43.6408449  61.7601766
 121.4857393  50.4956893  60.4799039 120.6489301  50.0679067  60.2983040
 121.4581038  50.6889336  61.4169830 120.8006890  43.5566241  60.2647971
 120.4809674  42.7031549  59.9722345 120.2540318  43.7714819  61.0205939
 120.6695150  47.1769153  62.2341093 119.9758621  46.7623105  61.7211047
 121.4168141  47.2189689  61.6374512 117.5439342  17.5355700  43.9247114
 117.4663372  18.4863525  44.0035595 116.9400985  17.1901572  44.5822041
 115.1826172  20.2841094  48.0695316 115.4222770  20.9159618  48.7474335
 114.3395368  19.9329134  48.3560676 115.6571004  16.3089096  45.3994095
 114.9881379  16.7935224  44.9158135 115.5183873  16.5558316  46.3137473
 119.7976272  18.3432839  51.9976753 120.3494580  18.5064461  52.7625838
 120.1382466  18.9337277  51.3256778 112.7575746  16.3853386  47.9669227
 112.6230213  15.6253787  47.4007225 112.3407808  17.1094286  47.4998016
 115.9144871  17.2822703  48.1787669 115.7977256  18.2268135  48.0766360
 115.0937318  16.9796264  48.5673469 116.9399386  17.9350965  51.3943598
 117.8426632  17.9674575  51.7110093 116.7136756  17.0051416  51.4089934
 118.6575782  23.0934773  46.8318629 119.3446821  22.7796503  46.2439644
 118.5023910  23.9976138  46.5585880 118.2343758  21.1735366  49.1036096
 118.2727857  20.6398957  49.8973214 117.7284051  20.6470572  48.4847073
 121.4857394  27.5019016  47.2044346 120.6489303  27.0741190  47.0228347
 121.4581040  27.6951459  48.1415137 120.8006891  20.5628364  46.9893278
 120.4809675  19.7093672  46.6967652 120.2540319  20.7776942  47.7451245
 120.6695151  24.1831275  48.9586399 119.9758622  23.7685228  48.4456354
 121.4168142  24.2251812  48.3619818  24.8630073  62.9547817 118.7336534
  24.1891772  63.2579513 119.3421492  25.2495895  63.7576897 118.3841991
  28.8286814  60.5333300 120.0076357  29.5237719  61.1539993 120.2263672
  29.1709964  59.6828651 120.2828735  22.9201682  60.6395052 118.9151451
  22.3475649  61.2585239 118.4621923  23.4934476  61.1894414 119.4491373
  26.1398942  60.9232202 120.0460033  27.0729615  60.8577764 120.2492909
  26.0522155  61.7588469 119.5874566  28.7686959  60.2398072 117.0063981
  28.6900590  59.9057936 117.8999739  29.5896626  60.7319840 117.0055453
  26.3390911  57.5566068 116.6273959  27.0426761  57.7616070 117.2431615
  25.6153559  58.1242830 116.8923043  28.2477608  57.9948597 118.6772419
  29.0823212  57.5629795 118.4949894  28.0861951  57.8230611 119.6049314
  36.8761883  68.5118248 128.7727596  37.5140293  68.3924995 128.0690936
  36.7582726  69.4599092 128.8315548  29.5438405  70.3181153 124.6986011
  28.9803270  70.2271090 123.9302299  29.4290800  69.4981057 125.1788504
  35.1237964  73.9852120 120.0100476  34.4725944  74.5706201 119.6234490
  35.9182327  74.5158315 120.0695514  29.0493591  71.0741257 120.4087611
  29.8224467  70.5270245 120.2700487  29.4018990  71.9385507 120.6202072
  31.3859869  67.2333924 118.0406061  31.6385389  66.7115445 117.2789524
  30.4484428  67.0700069 118.1432744  36.4303152  66.2369702 125.8480804
  37.2166241  65.8189125 125.4971221  36.6941856  67.1415794 126.0162452
  36.6013229  71.6742552 120.5469461  35.9659062  71.7477179 121.2590365
  36.2710635  72.2636151 119.8688540  41.8311579  66.1744935 126.7513782
  42.5636751  65.6044152 126.9851612  41.0750934  65.7866536 127.1920288
  31.1056157  69.1362030 120.2430436  30.9892416  68.4606933 120.9111520
  31.2158417  68.6494403 119.4262589  33.4487698  68.5972177 123.9477125
  33.0845906  68.0702798 124.6590046  34.3054814  68.2070646 123.7743610
  33.0893185  63.6262076 118.9438473  33.2567588  64.4942313 119.3108944
  32.8990354  63.7889358 118.0199763  33.0682406  66.0819734 119.9285140
  32.9482031  66.5276785 120.7670620  32.3734995  66.4305052 119.3698678
  30.8289298  78.8523376 123.5775271  30.7513328  79.8031201 123.6563752
  30.2250942  78.5069248 124.2350198  38.7667472  66.5541207 120.7565474
  39.6785329  66.7868594 120.5813172  38.2577119  67.1378251 120.1940553
  37.3737055  71.5367025 128.1479056  36.7445917  71.7012740 127.4455124
  36.9862717  71.9508635 128.9190020  41.2526287  72.4721463 125.5023419
  40.5677325  72.8520365 124.9520453  41.3370136  73.0816790 126.2355367
  32.9265017  71.2741434 125.4129141  33.3903362  71.5529137 124.6233763
  32.6621815  70.3724878 125.2302231  31.8633903  67.3964586 122.2218706
  32.5657946  67.8485630 122.6892632  31.5314531  66.7548405 122.8498599
  39.6223046  72.9953378 130.2741120  40.4440490  72.5933565 129.9923802
  39.6185449  72.8921612 131.2257236  47.7129039  69.3392126 126.6226092
  46.9592748  68.7699524 126.4670096  47.8476580  69.3054791 127.5696726
  33.1027667  74.2105529 122.2980811  32.9673342  75.0557064 122.7265659
  33.6437480  74.4124806 121.5346745  26.5557065  71.7280967 122.8708736
  27.0681585  72.5224217 123.0214301  27.2079778  71.0307257 122.8042338
  28.3651949  74.8446723 124.9531489  28.5418578  75.7664688 124.7652473
  29.1608783  74.5305142 125.3825869  24.5205981  70.0569621 123.6468307
  25.3581203  70.4666629 123.4302014  24.6984249  69.1169063 123.6168501
  36.4170414  67.7244702 119.3352140  35.9017037  68.4949306 119.5740527
  36.1447722  67.0509838 119.9585201  34.0017525  62.5694402 124.3937378
  33.1459121  62.1801253 124.2143017  34.4144476  62.6486363 123.5337164
  41.3904688  70.4777056 121.2705313  40.6134130  70.1388216 120.8260475
  42.0696169  70.4829679 120.5960278  36.2056717  65.5971794 121.1611921
  35.9006852  65.9117943 122.0122064  37.1587159  65.6753214 121.2039254
  34.6503149  71.7562017 122.8104875  34.1224510  71.0214777 122.4978112
  34.1490651  72.5336693 122.5644843  39.6295995  69.9511037 127.9271921
  38.9719669  70.6410299 128.0152050  40.4336394  70.3407469 128.2705908
  38.4401453  68.3055410 125.9775863  38.9533335  68.9385402 126.4797573
  39.0902677  67.7056606 125.6119223  29.7091463  64.4486144 119.1907372
  28.8728776  64.7860831 119.5116646  29.5696233  64.3135124 118.2534509
  32.7955749  69.5742227 115.8139848  31.8882811  69.3431481 116.0130997
  33.2926781  68.7779846 116.0013829  35.7023828  78.2839734 118.7336534
  35.0285526  78.5871431 119.3421492  36.0889650  79.0868815 118.3841991
  35.7017332  67.1796281 123.3536884  36.4489151  67.6917679 123.0444006
  35.9708922  66.8580334 124.2141277  33.9743982  69.6754822 120.3363838
  33.0655201  69.3913855 120.4336308  34.0039066  70.0953901 119.4767145
  39.2063250  73.2861412 124.1055006  38.7525577  72.4452321 124.1620196
  38.5757216  73.9222810 124.4429786  38.1496169  64.2153398 125.3355673
  37.4118926  63.7030784 125.6665916  38.4022943  63.7753779 124.5238950
  37.6496189  75.1237908 125.0404824  37.9419163  75.6842965 124.3217189
  38.1594809  75.4166469 125.7957983  32.5228876  67.2883443 126.4373633
  32.5777486  66.3357279 126.3616110  31.7120078  67.4442882 126.9214932
  33.6720070  71.2163566 117.6751917  33.2339500  70.4999425 117.2157554
  34.4130511  71.4439681 117.1137008  30.4621236  65.9060502 124.1964012
  29.6489102  66.2054673 124.6029204  30.9580230  65.5116191 124.9138494
  32.6129814  75.9018259 126.1298277  32.5705993  76.1279106 125.2006809
  33.5292513  75.6681634 126.2784078  41.7893185  69.4920763 123.7328235
  41.6511083  69.6822359 122.8049424  41.4329404  70.2540146 124.1896286
  41.8162564  71.5597290 128.7439507  42.2499071  71.4672579 129.5922561
  42.5294145  71.5354790 128.1059523  30.7295615  72.7781288 125.9260240
  31.5236213  72.2831609 125.7242815  30.0187307  72.2499151 125.5627945
  27.0378378  66.9224370 122.0019992  26.1075966  66.8608826 122.2189954
  27.1335850  66.4000323 121.2056634  42.6778114  71.6020990 131.2772392
  42.8714004  72.5066801 131.5231667  42.5778732  71.1428410 132.1110977
  33.9015043  78.4519407 120.9483613  34.0766798  77.9807450 121.7629236
  33.2147831  79.0785173 121.1764874  34.8572106  72.7291913 126.9946915
  34.5221939  72.6892683 127.8904564  34.3576052  72.0636629 126.5217325
  37.7931298  70.0747947 117.2683974  37.1760468  69.3494776 117.1717027
  37.3247786  70.8357308 116.9251048  29.5829844  64.2933372 116.3905278
  28.7059310  64.1722172 116.0267525  30.0587597  63.5019450 116.1384167
  32.7693770  76.6459662 123.6367799  31.9861291  77.1881342 123.7306023
  33.4686515  77.1633642 124.0362040  43.9320177  68.1594657 127.9220296
  43.9210053  69.0419372 127.5514229  43.0637557  67.8066208 127.7274833
  37.1620200  71.2125979 123.8540428  36.2276479  71.3327441 123.6845132
  37.3396869  70.3098446 123.5900438  40.5492752  67.0543298 124.3890462
  41.0153204  67.8871290 124.3150765  41.0000252  66.5888280 125.0935720
  38.6168983  73.3987119 121.3876614  38.8928827  73.2843714 122.2970488
  37.7473482  73.0004604 121.3488787  35.2523047  77.6473470 125.0309428
  35.4345441  76.8295126 125.4937180  36.0756033  77.8641162 124.5934318
  35.5865212  76.5741655 122.2924476  36.1152979  76.0634110 121.6794638
  35.8493432  76.2584185 123.1570009  24.3108537  65.8875227 121.8318184
  24.6061978  64.9785905 121.7785238  23.4096573  65.8662966 121.5099186
  36.2194616  77.6082491 128.6368593  36.0945756  76.8072231 128.1279538
  36.8773707  78.1028684 128.1482562  38.2829525  75.4091511 130.2648143
  37.3359860  75.2896862 130.1926469  38.6312298  74.5214009 130.3474404
  35.2875958  75.2044227 126.4652495  35.1400920  74.2760935 126.6460065
  36.1129451  75.2264318 125.9809570  29.1538202  63.8562294 122.3232987
  29.4934275  64.3848216 121.6011595  29.6010323  64.1942701 123.0991553
  38.8910080  76.0272786 127.5517368  39.8156627  75.8215647 127.4141819
  38.7225383  75.7789187 128.4606709  31.1406349  62.3536916 120.5226280
  31.8614712  62.7318169 120.0189997  30.5171653  63.0725793 120.6261258
  35.2837472  63.0582065 121.4584612  35.5001087  63.9406703 121.1573440
  34.8031539  62.6668278 120.7290254  38.6805396  76.5458453 122.9079459
  38.8542273  75.9804876 122.1553311  39.1734287  77.3459348 122.7258949
  44.5344787  69.3094876 124.5269759  44.9775933  68.5602202 124.1288882
  43.6571297  69.3005013 124.1443491  39.6680568  75.8625218 120.0076357
  40.3631473  76.4831911 120.2263672  40.0103719  75.0120569 120.2828735
  41.5671991  73.3124923 121.5363688  42.0923316  73.6512196 120.8113008
  41.4794344  72.3771939 121.3526823  30.2600031  73.4738839 121.4439703
  30.4088152  74.1574304 120.7906376  31.0666475  73.4543929 121.9589159
  44.0777652  70.7800115 126.9192206  44.9124543  71.2189919 127.0829767
  44.2136781  70.3038768 126.1000452  28.0152664  69.5004017 122.4500772
  27.7698706  68.5966347 122.6480983  28.1848579  69.5021167 121.5080250
  27.2848312  65.2332374 119.9486934  26.5917557  65.3076729 119.2926970
  27.0400064  64.4692718 120.4708451  33.7595437  75.9686970 118.9151451
  33.1869404  76.5877157 118.4621923  34.3328231  76.5186331 119.4491373
  36.9792697  76.2524120 120.0460033  37.9123370  76.1869681 120.2492909
  36.8915909  77.0880387 119.5874566  39.6080713  75.5689990 117.0063981
  39.5294345  75.2349854 117.8999739  40.4290380  76.0611758 117.0055453
  42.3058904  68.4351729 130.2140299  42.2735225  67.4967730 130.3999983
  42.9159528  68.5135766 129.4806124  34.1442235  67.3047782 116.2567503
  35.0901340  67.1753990 116.3255921  33.7656480  66.5662444 116.7336932
  48.1235454  69.4967736 129.3546336  48.8538843  69.2353024 129.9154039
  47.5142400  68.7596458 129.3948404  46.2050751  67.6375599 129.9520787
  45.4783915  67.5031564 129.3437279  45.7898038  67.9452427 130.7577505
  32.3285152  65.2297759 116.1922389  31.4216608  64.9330871 116.2685102
  32.6061133  64.9327577 115.3256675  33.9447218  59.7734648 122.3466630
  33.1347947  59.4281733 122.7221876  34.6331635  59.4642192 122.9354241
  31.0983937  62.0884694 116.3334368  31.9603101  62.4139592 116.5930185
  31.2834281  61.3016190 115.8207434  39.2516574  60.9613220 123.4769591
  38.6715243  61.6198024 123.0947643  38.9852506  60.1390565 123.0657008
  38.0341452  63.1213311 122.5325939  37.1467307  63.4062961 122.3146134
  38.4495441  62.9607074 121.6853216  41.3855988  63.1459832 126.2480278
  42.1616378  63.6356284 126.5204895  40.6604122  63.5717886 126.7052148
  43.8228546  63.8587451 127.3054219  44.4173037  63.6183187 126.5947527
  43.8955130  63.1394582 127.9327755  37.1784665  72.8857985 116.6273959
  37.8820515  73.0907988 117.2431615  36.4547314  73.4534747 116.8923043
  38.0082475  68.6367847 122.7476229  37.9517677  69.0936398 121.9083862
  38.5610818  67.8758531 122.5699072  41.8187281  64.4257579 123.5726349
  41.5624215  64.0254214 124.4034556  41.1940149  65.1401373 123.4476488
  46.1299619  67.1653652 126.0797640  45.5699177  67.2346841 126.8529202
  45.5243122  66.9894636 125.3597136  39.0871362  73.3240515 118.6772419
  39.9216966  72.8921713 118.4949894  38.9255705  73.1522528 119.6049314
  38.7417255  69.8272628 120.0428758  38.6866058  69.6616899 119.1017203
  38.1163310  70.5348661 120.1990948  32.0513380  59.3280737 119.6214077
  32.0392050  60.2722577 119.7782348  32.9436802  59.1450882 119.3273538
  40.3832160  85.6473070 124.6986011  39.8197025  85.5563007 123.9302299
  40.2684555  84.8272975 125.1788504  45.9631718  89.3144038 120.0100476
  45.3119698  89.8998118 119.6234490  46.7576081  89.8450233 120.0695514
  39.8887345  86.4033175 120.4087611  40.6618221  85.8562162 120.2700487
  40.2412744  87.2677424 120.6202072  42.2253623  82.5625841 118.0406061
  42.4779144  82.0407363 117.2789524  41.2878182  82.3991987 118.1432744
  47.2696906  81.5661620 125.8480804  48.0559995  81.1481043 125.4971221
  47.5335610  82.4707712 126.0162452  47.4406983  87.0034470 120.5469461
  46.8052816  87.0769096 121.2590365  47.1104390  87.5928069 119.8688540
  41.9449912  84.4653947 120.2430436  41.8286170  83.7898851 120.9111520
  42.0552172  83.9786321 119.4262589  44.2881453  83.9264094 123.9477125
  43.9239660  83.3994715 124.6590046  45.1448569  83.5362563 123.7743610
  43.9286940  78.9553994 118.9438473  44.0961342  79.8234230 119.3108944
  43.7384109  79.1181276 118.0199763  40.1374755  83.8684770 126.6441008
  39.2125251  83.7360984 126.8518700  40.3859168  84.6478989 127.1410951
  43.9076161  81.4111652 119.9285140  43.7875786  81.8568702 120.7670620
  43.2128749  81.7596969 119.3698678  49.6061227  81.8833125 120.7565474
  50.5179083  82.1160511 120.5813172  49.0970874  82.4670169 120.1940553
  46.9497202  78.0591161 129.0055335  46.0881681  78.3572414 129.2972073
  46.9759636  78.2761560 128.0736368  43.7658771  86.6033351 125.4129141
  44.2297117  86.8821054 124.6233763  43.5015569  85.7016796 125.2302231
  42.7027657  82.7256504 122.2218706  43.4051700  83.1777547 122.6892632
  42.3708286  82.0840322 122.8498599  36.4452991  80.9840056 127.5235840
  35.6552045  81.2397585 127.0475950  36.9364238  81.7988394 127.6287880
  38.3967736  81.3484636 124.4819316  37.5998900  81.4603330 125.0002812
  38.1693329  81.6871288 123.6160207  43.9421422  89.5397446 122.2980811
  43.8067097  90.3848982 122.7265659  44.4831234  89.7416724 121.5346745
  37.3950819  87.0572884 122.8708736  37.9075340  87.8516135 123.0214301
  38.0473532  86.3599175 122.8042338  39.2045704  90.1738641 124.9531489
  39.3812332  91.0956605 124.7652473  40.0002537  89.8597060 125.3825869
  47.2913885  73.0628008 130.8279705  46.9478155  73.9529650 130.7518815
  47.6592848  72.8729666 129.9649290  35.3599736  85.3861539 123.6468307
  36.1974958  85.7958547 123.4302014  35.5378004  84.4460981 123.6168501
  47.2564168  83.0536619 119.3352140  46.7410791  83.8241224 119.5740527
  46.9841477  82.3801755 119.9585201  44.8411279  77.8986320 124.3937378
  43.9852875  77.5093170 124.2143017  45.2538231  77.9778281 123.5337164
  46.3710426  75.4332663 128.7928938  45.8675221  75.3962798 127.9796743
  46.6641033  76.3425406 128.8525595  42.6153312  75.5171393 127.7995120
  43.4806308  75.3214202 127.4401009  42.6830821  75.2881745 128.7264476
  52.2298442  85.8068974 121.2705313  51.4527885  85.4680133 120.8260475
  52.9089923  85.8121597 120.5960278  47.0450471  80.9263711 121.1611921
  46.7400607  81.2409860 122.0122064  47.9980913  81.0045131 121.2039254
  45.4896903  87.0853935 122.8104875  44.9618265  86.3506694 122.4978112
  44.9884406  87.8628611 122.5644843  40.2215631  77.7473601 125.1711486
  40.7959383  77.5248782 124.4384679  40.8086613  77.8162295 125.9240088
  40.5485218  79.7778062 119.1907372  39.7122530  80.1152748 119.5116646
  40.4089987  79.6427042 118.2534509  42.5238298  74.6214850 123.8986556
  41.8702711  74.3063867 123.2743171  42.4818773  73.9990590 124.6246379
  43.6349503  84.9034145 115.8139848  42.7276565  84.6723398 116.0130997
  44.1320535  84.1071764 116.0013829  46.5417582  93.6131652 118.7336534
  45.8679281  93.9163349 119.3421492  46.9283404  94.4160732 118.3841991
  45.7576039  81.1096783 128.2234203  44.8398600  81.3311730 128.0655892
  46.1736182  81.1843094 127.3645911  46.5411087  82.5088199 123.3536884
  47.2882905  83.0209596 123.0444006  46.8102676  82.1872252 124.2141277
  44.8137737  85.0046740 120.3363838  43.9048956  84.7205773 120.4336308
  44.8432821  85.4245818 119.4767145  48.9889924  79.5445315 125.3355673
  48.2512680  79.0322701 125.6665916  49.2416697  79.1045697 124.5238950
  49.0901551  72.3221567 125.9297442  49.3960428  71.4618931 125.6423357
  49.8154156  72.9139187 125.7296436  35.3825907  82.7252254 124.3179040
  35.1850307  82.1321615 123.5930107  34.8272571  82.4204464 125.0354979
  43.3622631  82.6175360 126.4373633  43.4171241  81.6649197 126.3616110
  42.5513833  82.7734799 126.9214932  44.5113825  86.5455483 117.6751917
  44.0733254  85.8291342 117.2157554  45.2524265  86.7731598 117.1137008
  41.3014991  81.2352420 124.1964012  40.4882856  81.5346591 124.6029204
  41.7973985  80.8408109 124.9138494  52.6286939  84.8212680 123.7328235
  52.4904838  85.0114276 122.8049424  52.2723158  85.5832063 124.1896286
  40.7929065  78.8070776 129.8125247  41.4328445  78.6659535 129.1148211
  39.9606596  78.5205289 129.4363849  41.5689369  88.1073206 125.9260240
  42.3629968  87.6123526 125.7242815  40.8581062  87.5791069 125.5627945
  37.8772133  82.2516288 122.0019992  36.9469721  82.1900743 122.2189954
  37.9729605  81.7292241 121.2056634  37.7957682  78.7771101 124.5898234
  38.0564499  79.6916434 124.4807394  38.6174854  78.3095543 124.7394847
  44.7408797  93.7811324 120.9483613  44.9160553  93.3099368 121.7629236
  44.0541585  94.4077091 121.1764874  48.6325052  85.4039865 117.2683974
  48.0154223  84.6786693 117.1717027  48.1641541  86.1649225 116.9251048
  40.4223598  79.6225289 116.3905278  39.5453064  79.5014090 116.0267525
  40.8981351  78.8311368 116.1384167  46.9184174  77.7846209 126.2802004
  47.4152874  77.0316172 125.9603075  46.1471156  77.8210526 125.7145214
  48.0013955  86.5417896 123.8540428  47.0670234  86.6619359 123.6845132
  48.1790623  85.6390363 123.5900438  43.5019143  79.9263592 126.0073689
  43.1316930  79.3734633 126.6954595  43.9978235  79.3221726 125.4548689
  51.3886506  82.3835216 124.3890462  51.8546958  83.2163207 124.3150765
  51.8394007  81.9180197 125.0935720  49.4562737  88.7279037 121.3876614
  49.7322581  88.6135632 122.2970488  48.5867236  88.3296522 121.3488787
  49.3603169  74.7515803 128.4281363  48.4466249  74.9820030 128.5963570
  49.7896270  74.8354247 129.2795396  46.4258967  91.9033573 122.2924476
  46.9546733  91.3926028 121.6794638  46.6887186  91.5876103 123.1570009
  38.8984477  77.3367583 132.2526795  38.9625803  78.1982414 131.8404193
  38.8351597  76.7241585 131.5199154  35.1502292  81.2167145 121.8318184
  35.4455733  80.3077823 121.7785238  34.2490328  81.1954884 121.5099186
  38.6796539  79.2923141 127.8145733  37.9583125  79.9059109 127.6753206
  39.4689795  79.8280906 127.7362379  36.8790133  78.8981242 121.9557509
  36.5502840  78.0178621 121.7732615  37.2329504  78.8428911 122.8433899
  39.9931957  79.1854212 122.3232987  40.3328029  79.7140133 121.6011595
  40.4404077  79.5234618 123.0991553  42.6875397  77.5691263 131.7736055
  42.3472218  76.7699076 132.1756735  41.9814404  77.8692974 131.2012888
  43.3391869  74.6540575 130.2263378  44.1617939  74.1801053 130.1042268
  43.5829933  75.4331059 130.7262064  41.9800104  77.6828834 120.5226280
  42.7008466  78.0610086 120.0189997  41.3565408  78.4017710 120.6261258
  46.1231227  78.3873983 121.4584612  46.3394841  79.2698621 121.1573440
  45.6425294  77.9960196 120.7290254  40.8630448  81.3459696 128.0355357
  40.7175029  81.6599999 128.9279638  40.3855652  81.9644596 127.4826255
  42.7226831  78.3362244 128.0836246  42.7088400  77.4403337 127.7468544
  43.4399259  78.3432908 128.7174532  44.5752962  78.7699584 130.1289374
  44.3170739  79.6916655 130.1273704  44.0438002  78.3730019 130.8189838
  42.1263727  77.2176624 123.3523816  42.2479638  76.2893270 123.5514704
  41.8365769  77.2315310 122.4402132  44.9954917  74.9031535 126.4890536
  45.0176614  74.9670868 125.5342516  45.4122976  74.0636043 126.6831042
  50.5074323  91.1917136 120.0076357  51.2025227  91.8123828 120.2263672
  50.8497473  90.3412487 120.2828735  52.4065746  88.6416841 121.5363688
  52.9317070  88.9804114 120.8113008  52.3188099  87.7063856 121.3526823
  41.0993786  88.8030757 121.4439703  41.2481906  89.4866221 120.7906376
  41.9060229  88.7835847 121.9589159  38.8546419  84.8295934 122.4500772
  38.6092461  83.9258264 122.6480983  39.0242333  84.8313085 121.5080250
  38.1242066  80.5624292 119.9486934  37.4311311  80.6368647 119.2926970
  37.8793818  79.7984636 120.4708451  46.7955723  72.1219893 127.3526425
  47.0757477  71.4543082 127.9786851  47.5806330  72.3148989 126.8401088
  44.5989191  91.2978887 118.9151451  44.0263158  91.9169074 118.4621923
  45.1721985  91.8478249 119.4491373  47.8186451  91.5816037 120.0460033
  48.7517124  91.5161599 120.2492909  47.7309664  92.4172304 119.5874566
  50.4474468  90.8981908 117.0063981  50.3688099  90.5641771 117.8999739
  51.2684135  91.3903676 117.0055453  44.9835990  82.6339700 116.2567503
  45.9295095  82.5045908 116.3255921  44.6050235  81.8954362 116.7336932
  50.9557874  74.2995706 126.2194395  50.7582695  73.9910794 127.1037727
  51.5657580  75.0257345 126.3492325  43.1678907  80.5589676 116.1922389
  42.2610362  80.2622789 116.2685102  43.4454888  80.2619494 115.3256675
  44.7840973  75.1026566 122.3466630  43.9741701  74.7573651 122.7221876
  45.4725390  74.7934110 122.9354241  46.7131521  74.1804613 123.9690927
  47.2662560  74.6000066 124.6280950  46.9501607  73.2540361 124.0113883
  41.9377692  77.4176612 116.3334368  42.7996856  77.7431510 116.5930185
  42.1228036  76.6308108 115.8207434  50.0910328  76.2905138 123.4769591
  49.5108997  76.9489942 123.0947643  49.8246261  75.4682483 123.0657008
  48.5413894  75.6910196 125.6790911  49.0413673  75.8026730 124.8705230
  49.1849502  75.3871249 126.3191720  48.8735206  78.4505228 122.5325939
  47.9861061  78.7354879 122.3146134  49.2889195  78.2898992 121.6853216
  52.2249742  78.4751749 126.2480278  53.0010132  78.9648202 126.5204895
  51.4997876  78.9009804 126.7052148  48.0178420  88.2149903 116.6273959
  48.7214270  88.4199906 117.2431615  47.2941068  88.7826665 116.8923043
  48.8476230  83.9659764 122.7476229  48.7911431  84.4228316 121.9083862
  49.4004572  83.2050449 122.5699072  52.6581036  79.7549496 123.5726349
  52.4017970  79.3546132 124.4034556  52.0333904  80.4693290 123.4476488
  49.9265117  88.6532432 118.6772419  50.7610721  88.2213631 118.4949894
  49.7649460  88.4814446 119.6049314  49.5811009  85.1564546 120.0428758
  49.5259813  84.9908817 119.1017203  48.9557064  85.8640579 120.1990948
  42.8907135  74.6572655 119.6214077  42.8785804  75.6014495 119.7782348
  43.7830556  74.4742800 119.3273538  46.7059254  71.2515431 123.8760014
  45.9391650  70.6973918 124.0216696  47.1169959  71.3237300 124.7374165
  51.3878972  95.1069980 119.1907372  50.5516285  95.4444666 119.5116646
  51.2483742  94.9718959 118.2534509  51.2617353  94.9517207 116.3905278
  50.3846819  94.8306008 116.0267525  51.7375106  94.1603285 116.1384167
  48.9635821  95.8916210 119.9486934  48.2705066  95.9660565 119.2926970
  48.7187573  95.1276553 120.4708451  54.0072661  95.8881594 116.1922389
  53.1004117  95.5914707 116.2685102  54.2848642  95.5911412 115.3256675
  52.7771446  92.7468529 116.3334368  53.6390610  93.0723428 116.5930185
  52.9621790  91.9600025 115.8207434  53.7300889  89.9864572 119.6214077
  53.7179559  90.9306412 119.7782348  54.6224311  89.8034718 119.3273538
  24.8630074  39.9609939 105.4581841  24.1891773  40.2641636 106.0666799
  25.2495896  40.7639020 105.1087298  28.8286815  37.5395423 106.7321664
  29.5237720  38.1602115 106.9508979  29.1709965  36.6890774 107.0074042
  22.9201684  37.6457174 105.6396758  22.3475651  38.2647362 105.1867229
  23.4934477  38.1956536 106.1736679  26.1398943  37.9294325 106.7705340
  27.0729617  37.8639886 106.9738215  26.0522156  38.7650591 106.3119872
  28.7686960  37.2460195 103.7309287  28.6900592  36.9120059 104.6245045
  29.5896627  37.7381963 103.7300760  26.3390912  34.5628190 103.3519266
  27.0426762  34.7678193 103.9676921  25.6153561  35.1304952 103.6168349
  28.2477609  35.0010720 105.4017726  29.0823213  34.5691918 105.2195201
  28.0861952  34.8292733 106.3294620  36.8761884  45.5180371 115.4972902
  37.5140294  45.3987118 114.7936243  36.7582727  46.4661215 115.5560855
  29.5438406  47.3243275 111.4231318  28.9803271  47.2333212 110.6547606
  29.4290801  46.5043180 111.9033811  35.1237965  50.9914243 106.7345783
  34.4725945  51.5768323 106.3479797  35.9182328  51.5220438 106.7940821
  29.0493592  48.0803380 107.1332917  29.8224468  47.5332367 106.9945793
  29.4018991  48.9447629 107.3447379  31.3859870  44.2396046 104.7651367
  31.6385391  43.7177567 104.0034830  30.4484429  44.0762192 104.8678051
  36.4303153  43.2431825 112.5726111  37.2166242  42.8251248 112.2216528
  36.6941857  44.1477917 112.7407759  36.6013230  48.6804675 107.2714767
  35.9659063  48.7539301 107.9835672  36.2710637  49.2698274 106.5933847
  41.8311580  43.1807058 113.4759089  42.5636752  42.6106275 113.7096919
  41.0750936  42.7928658 113.9165595  31.1056159  46.1424152 106.9675742
  30.9892417  45.4669056 107.6356827  31.2158419  45.6556526 106.1507895
  33.4487700  45.6034299 110.6722431  33.0845907  45.0764920 111.3835353
  34.3054816  45.2132768 110.4988917  33.0893187  40.6324199 105.6683780
  33.2567589  41.5004435 106.0354251  32.8990356  40.7951481 104.7445069
  33.0682408  43.0881856 106.6530447  32.9482033  43.5338907 107.4915927
  32.3734996  43.4367174 106.0943985  30.8289300  55.8585498 110.3020578
  30.7513329  56.8093323 110.3809059  30.2250943  55.5131371 110.9595504
  38.7667474  43.5603330 107.4810781  39.6785330  43.7930716 107.3058478
  38.2577121  44.1440374 106.9185859  37.3737056  48.5429148 114.8724362
  36.7445918  48.7074862 114.1700430  36.9862718  48.9570758 115.6435326
  41.2526288  49.4783586 112.2268726  40.5677326  49.8582487 111.6765759
  41.3370137  50.0878913 112.9600674  32.9265018  48.2803556 112.1374447
  33.3903363  48.5591259 111.3479070  32.6621816  47.3787001 111.9547538
  31.8633904  44.4026709 108.9464013  32.5657947  44.8547752 109.4137939
  31.5314532  43.7610527 109.5743906  39.6223047  50.0015500 116.9986427
  40.4440491  49.5995688 116.7169109  39.6185450  49.8983735 117.9502543
  47.7129040  46.3454249 113.3471398  46.9592749  45.7761647 113.1915403
  47.8476582  46.3116913 114.2942033  33.1027669  51.2167651 109.0226118
  32.9673343  52.0619187 109.4510966  33.6437481  51.4186929 108.2592052
  26.5557066  48.7343089 109.5954043  27.0681587  49.5286339 109.7459608
  27.2079779  48.0369380 109.5287644  28.3651951  51.8508845 111.6776796
  28.5418579  52.7726810 111.4897780  29.1608784  51.5367265 112.1071176
  29.4883266  53.3687019 117.6787138  30.0390691  53.2404083 116.9064132
  28.6494742  53.6681908 117.3282031  24.5205983  47.0631743 110.3713613
  25.3581205  47.4728752 110.1547321  24.6984250  46.1231186 110.3413807
  36.4170415  44.7306824 106.0597446  35.9017038  45.5011429 106.2985834
  36.1447723  44.0571960 106.6830508  34.0017526  39.5756525 111.1182685
  33.1459122  39.1863375 110.9388323  34.4144478  39.6548486 110.2582470
  41.3904689  47.4839179 107.9950620  40.6134132  47.1450338 107.5505782
  42.0696170  47.4891802 107.3205585  36.2056718  42.6033916 107.8857228
  35.9006854  42.9180065 108.7367371  37.1587160  42.6815336 107.9284561
  34.6503150  48.7624140 109.5350182  34.1224511  48.0276899 109.2223419
  34.1490653  49.5398816 109.2890150  39.6295996  46.9573160 114.6517228
  38.9719670  47.6472421 114.7397356  40.4336395  47.3469592 114.9951214
  38.4401455  45.3117533 112.7021170  38.9533336  45.9447525 113.2042879
  39.0902679  44.7118728 112.3364530  29.7091465  41.4548267 105.9152678
  28.8728777  41.7922953 106.2361953  29.5696234  41.3197247 104.9779815
  32.7955750  46.5804350 102.5385155  31.8882812  46.3493603 102.7376304
  33.2926782  45.7841969 102.7259136  35.7023829  55.2901857 105.4581841
  35.0285528  55.5933554 106.0666799  36.0889651  56.0930937 105.1087298
  35.7017333  44.1858404 110.0782190  36.4489152  44.6979801 109.7689312
  35.9708923  43.8642457 110.9386584  33.9743983  46.6816945 107.0609145
  33.0655203  46.3975977 107.1581614  34.0039067  47.1016023 106.2012452
  39.2063251  50.2923534 110.8300312  38.7525578  49.4514444 110.8865503
  38.5757218  50.9284933 111.1675092  38.1496170  41.2215520 112.0600980
  37.4118927  40.7092906 112.3911222  38.4022944  40.7815902 111.2484257
  37.6496190  52.1300031 111.7650130  37.9419165  52.6905088 111.0462496
  38.1594811  52.4228592 112.5203289  32.5228878  44.2945565 113.1618940
  32.5777487  43.3419402 113.0861417  31.7120080  44.4505004 113.6460238
  33.6720071  48.2225688 104.3997223  33.2339501  47.5061547 103.9402861
  34.4130512  48.4501803 103.8382315  30.4621237  42.9122625 110.9209319
  29.6489103  43.2116796 111.3274511  30.9580232  42.5178314 111.6383801
  32.6129815  52.9080382 112.8543584  32.5705994  53.1341228 111.9252116
  33.5292514  52.6743757 113.0029385  41.7893186  46.4982885 110.4573542
  41.6511085  46.6884481 109.5294731  41.4329405  47.2602268 110.9141593
  41.8162566  48.5659412 115.4684813  42.2499072  48.4734701 116.3167867
  42.5294146  48.5416913 114.8304829  30.7295616  49.7843411 112.6505546
  31.5236215  49.2893731 112.4488121  30.0187308  49.2561274 112.2873252
  35.5490461  52.1661506 117.0017914  35.6027483  52.7352443 117.7695630
  34.6805242  52.3363392 116.6371951  27.0378380  43.9286493 108.7265299
  26.1075968  43.8670948 108.9435261  27.1335852  43.4062445 107.9301940
  42.6778115  48.6083113 118.0017699  42.8714005  49.5128924 118.2476974
  42.5778733  48.1490532 118.8356284  33.3066892  50.3572433 116.3303383
  33.1677978  49.9891217 117.2029321  32.5181488  50.8720072 116.1587341
  33.9015044  55.4581529 107.6728920  34.0766800  54.9869573 108.4874543
  33.2147832  56.0847296 107.9010181  34.8572107  49.7354036 113.7192221
  34.5221940  49.6954806 114.6149871  34.3576053  49.0698752 113.2462631
  37.7931299  47.0810070 103.9929281  37.1760470  46.3556898 103.8962333
  37.3247787  47.8419430 103.6496355  28.4676129  58.6070892 114.4468780
  28.7072728  59.2389416 115.1247799  27.6245326  58.2558932 114.7334139
  29.5829845  41.2995494 103.1150585  28.7059311  41.1784295 102.7512832
  30.0587598  40.5081573 102.8629474  32.9803991  54.4150015 116.8510284
  32.9074163  55.2204986 117.3629589  32.5381384  54.6141980 116.0258305
  32.7693771  53.6521785 110.3613106  31.9861293  54.1943465 110.4551330
  33.4686516  54.1695764 110.7607347  43.9320178  45.1656780 114.6465602
  43.9210055  46.0481495 114.2759536  43.0637558  44.8128330 114.4520140
  35.4402675  54.3136849 119.0068443  36.1530647  54.9484313 118.9344344
  34.9492703  54.4100715 118.1908445  37.1620202  48.2188101 110.5785734
  36.2276480  48.3389564 110.4090439  37.3396870  47.3160568 110.3145744
  40.5492753  44.0605421 111.1135769  41.0153205  44.8933412 111.0396071
  41.0000253  43.5950402 111.8181027  38.6168984  50.4049242 108.1121921
  38.8928828  50.2905836 109.0215795  37.7473483  50.0066727 108.0734094
  35.2523048  54.6535593 111.7554734  35.4345443  53.8357249 112.2182487
  36.0756034  54.8703285 111.3179624  35.5865214  53.5803778 109.0169783
  36.1152980  53.0696232 108.4039945  35.8493433  53.2646308 109.8815316
  28.9420962  54.6318895 111.7767559  28.2731337  55.1165022 111.2931599
  28.8033831  54.8788115 112.6910937  33.0826230  56.6662638 118.3750217
  33.6344538  56.8294260 119.1399302  33.4232424  57.2567076 117.7030242
  24.3108539  42.8937350 108.5563491  24.6061980  41.9848028 108.5030544
  23.4096574  42.8725089 108.2344493  36.2194617  54.6144614 115.3613899
  36.0945757  53.8134353 114.8524845  36.8773709  55.1090807 114.8727869
  38.2829526  52.4153634 116.9893449  37.3359861  52.2958985 116.9171776
  38.6312299  51.5276132 117.0719711  35.2875959  52.2106350 113.1897801
  35.1400922  51.2823057 113.3705371  36.1129453  52.2326441 112.7054877
  29.1538203  40.8624417 109.0478294  29.4934276  41.3910338 108.3256902
  29.6010324  41.2004823 109.8236860  38.8910081  53.0334909 114.2762674
  39.8156628  52.8277770 114.1387125  38.7225384  52.7851310 115.1852016
  31.1406351  39.3599039 107.2471586  31.8614713  39.7380291 106.7435303
  30.5171655  40.0787915 107.3506564  35.2837473  40.0644188 108.1829919
  35.5001088  40.9468825 107.8818747  34.8031541  39.6730401 107.4535561
  38.6805397  53.5520576 109.6324766  38.8542275  52.9866999 108.8798618
  39.1734288  54.3521471 109.4504256  44.5344788  46.3156999 111.2515065
  44.9775934  45.5664324 110.8534189  43.6571299  46.3067135 110.8688797
  39.6680570  52.8687340 106.7321664  40.3631474  53.4894033 106.9508979
  40.0103720  52.0182692 107.0074042  41.5671993  50.3187046 108.2608995
  42.0923317  50.6574319 107.5358315  41.4794345  49.3834061 108.0772129
  33.2512654  56.3859029 112.6204248  32.8117644  55.8935408 113.3137105
  34.0020770  55.8431997 112.3796323  25.7304992  52.5770570 112.6228876
  26.5563012  52.2774342 112.2427519  25.3799044  51.8078193 113.0718665
  30.6986526  51.9297038 114.6926550  30.0766535  51.2667743 114.3928777
  31.3691393  51.9558170 114.0100197  30.2600033  50.4800962 108.1685010
  30.4088153  51.1636426 107.5151683  31.0666476  50.4606052 108.6834466
  44.0777653  47.7862237 113.6437513  44.9124544  48.2252041 113.8075073
  44.2136782  47.3100891 112.8245759  28.0152666  46.5066139 109.1746079
  27.7698707  45.6028469 109.3726289  28.1848580  46.5083290 108.2325557
  27.2848313  42.2394497 106.6732240  26.5917558  42.3138852 106.0172276
  27.0400065  41.4754841 107.1953757  33.7595438  52.9749092 105.6396758
  33.1869405  53.5939279 105.1867229  34.3328232  53.5248454 106.1736679
  36.9792698  53.2586242 106.7705340  37.9123371  53.1931804 106.9738215
  36.8915911  54.0942509 106.3119872  42.3058906  45.4413852 116.9385606
  42.2735226  44.5029853 117.1245290  42.9159529  45.5197889 116.2051431
  34.1442237  44.3109905 102.9812810  35.0901341  44.1816113 103.0501228
  33.7656482  43.5724567 103.4582238  48.1235456  46.5029859 116.0791643
  48.8538844  46.2415147 116.6399346  47.5142401  45.7658581 116.1193711
  46.2050753  44.6437721 116.6766094  45.4783916  44.5093686 116.0682586
  45.7898040  44.9514550 117.4822812  32.3285154  42.2359881 102.9167695
  31.4216609  41.9392994 102.9930409  32.6061135  41.9389699 102.0501981
  33.9447219  36.7796771 109.0711937  33.1347948  36.4343856 109.4467183
  34.6331636  36.4704315 109.6599548  31.0983938  39.0946817 103.0579674
  31.9603102  39.4201715 103.3175492  31.2834283  38.3078312 102.5452740
  39.2516575  37.9675343 110.2014897  38.6715244  38.6260147 109.8192950
  38.9852508  37.1452688 109.7902315  38.0341453  40.1275433 109.2571246
  37.1467308  40.4125084 109.0391440  38.4495442  39.9669197 108.4098523
  41.3855989  40.1521954 112.9725585  42.1616379  40.6418407 113.2450202
  40.6604123  40.5780009 113.4297454  43.8228548  40.8649574 114.0299526
  44.4173038  40.6245310 113.3192834  43.8955131  40.1456704 114.6573062
  26.0425703  54.7083185 114.3442690  25.9080171  53.9483585 113.7780688
  25.6257766  55.4324084 113.8771479  37.1784666  49.8920108 103.3519266
  37.8820516  50.0970111 103.9676921  36.4547315  50.4596870 103.6168349
  38.0082477  45.6429969 109.4721536  37.9517678  46.0998521 108.6329168
  38.5610819  44.8820654 109.2944379  41.8187283  41.4319701 110.2971655
  41.5624217  41.0316337 111.1279863  41.1940151  42.1463495 110.1721795
  46.1299620  44.1715774 112.8042947  45.5699178  44.2408964 113.5774509
  45.5243124  43.9956759 112.0842443  29.1994829  55.6052502 114.5561133
  29.0827213  56.5497934 114.4539823  28.3787275  55.3026063 114.9446932
  39.0871364  50.3302637 105.4017726  39.9216968  49.8983836 105.2195201
  38.9255707  50.1584651 106.3294620  38.7417256  46.8334751 106.7674065
  38.6866060  46.6679022 105.8262509  38.1163311  47.5410783 106.9236255
  32.0513381  36.3342860 106.3459383  32.0392051  37.2784699 106.5027654
  32.9436803  36.1513005 106.0518845  30.2249343  56.2580763 117.7717061
  31.1276590  56.2904374 118.0883556  29.9986713  55.3281214 117.7863397
  31.9802945  55.0111750 114.4327140  31.0298576  55.0113612 114.3191512
  32.2835431  54.2644485 113.9163175  47.7155639  60.8472288 115.4972902
  48.3534049  60.7279036 114.7936243  47.5976482  61.7953132 115.5560855
  44.5245345  60.7999716 115.4334427  44.1863857  60.6840781 114.5454962
  45.3935113  60.3990882 115.4135433  45.0065128  61.9534568 121.3920633
  44.9953769  61.5587366 120.5201136  45.1685768  61.2200641 121.9854404
  37.9296593  64.1486384 114.2615539  38.7217885  63.8077209 113.8461838
  38.1693243  64.2581360 115.1817692  41.7272389  64.7371680 120.3399817
  41.4362255  65.6417311 120.2246483  42.3629374  64.7788208 121.0543886
  42.6528596  62.1148529 116.9301176  43.2492168  61.8904551 116.2158139
  42.7103568  61.3733274 117.5326624  47.2696907  58.5723742 112.5726111
  48.0559997  58.1543165 112.2216528  47.5335612  59.4769834 112.7407759
  52.6705334  58.5098975 113.4759089  53.4030506  57.9398192 113.7096919
  51.9144690  58.1220576 113.9165595  44.2881454  60.9326217 110.6722431
  43.9239661  60.4056838 111.3835353  45.1448570  60.5424686 110.4988917
  50.1930755  52.2220550 117.9353698  49.8614080  53.0915960 117.7114913
  49.5976368  51.9056834 118.6147728  46.6862274  64.4233096 117.3349610
  46.3862997  65.3258134 117.2265418  46.3413334  64.1565279 118.1870763
  40.1374756  60.8746892 113.3686315  39.2125252  60.7423106 113.5764007
  40.3859169  61.6541112 113.8656257  50.0859418  56.9415636 115.0147048
  49.1776295  56.8731044 114.7205809  50.0347014  57.4187581 115.8428873
  37.4983567  60.5180166 114.2030104  37.6275948  60.7714645 115.1169516
  36.8181018  61.1107874 113.8834759  44.1600284  58.3605281 122.9581945
  43.3833618  58.9199201 122.9484810  44.7990847  58.8462064 123.4796815
  51.9521065  55.1432074 116.7924922  51.3095445  55.4364607 116.1464716
  51.4475993  55.0284994 117.5978118  49.6061228  58.8895247 107.4810781
  50.5179084  59.1222634 107.3058478  49.0970875  59.4732291 106.9185859
  42.4146656  61.1690735 122.5199912  43.1561341  61.7075779 122.2434736
  41.7083642  61.7957023 122.6771464  47.8901996  63.3119875 121.1172073
  48.2985352  62.8702286 120.3726706  47.1679257  62.7372503 121.3706266
  44.2433066  58.2492482 118.4905630  45.0894261  58.6731895 118.6340279
  44.1831704  57.5926106 119.1844194  52.0920042  64.8075504 112.2268726
  51.4071081  65.1874405 111.6765759  52.1763892  65.4170830 112.9600674
  47.3932511  55.9096850 120.1486804  47.1493443  56.6638911 119.6121080
  47.6692442  56.2882198 120.9834051  49.3470974  62.4535463 118.8264070
  49.5587869  63.0967222 118.1498451  49.3000722  61.6197779 118.3586000
  46.9497203  55.0653283 115.7300642  46.0881682  55.3634537 116.0217379
  46.9759638  55.2823682 114.7981674  40.6582853  63.1566955 115.0754211
  41.2284210  63.5854224 114.4371695  41.2490965  62.8749540 115.7738396
  42.7027658  59.7318626 108.9464013  43.4051702  60.1839670 109.4137939
  42.3708287  59.0902445 109.5743906  41.1508020  58.3230383 123.3215222
  40.5206681  59.0046664 123.5550619  41.0444108  58.2113464 122.3768360
  36.4452992  57.9902179 114.2481146  35.6552046  58.2459707 113.7721257
  36.9364240  58.8050517 114.3533187  50.4616802  65.3307418 116.9986427
  51.2834246  64.9287605 116.7169109  50.4579205  65.2275652 117.9502543
  38.3967738  58.3546758 111.2064623  37.5998901  58.4665452 111.7248119
  38.1693330  58.6933410 110.3405513  44.2273405  64.8791461 119.1547137
  44.2917838  65.3411869 119.9905309  43.5184329  64.2488826 119.2829447
  34.7290695  58.2432669 116.6796137  34.9798734  59.1279679 116.9453713
  35.2650244  58.0637271 115.9071229  58.5522795  61.6746167 113.3471398
  57.7986503  61.1053565 113.1915403  58.6870336  61.6408831 114.2942033
  37.3950820  64.0635007 109.5954043  37.9075341  64.8578257 109.7459608
  38.0473533  63.3661297 109.5287644  43.3456724  54.0409028 123.2760730
  44.0866437  54.6416181 123.1965192  43.5774646  53.2986666 122.7178772
  38.4898062  59.2265395 121.5538959  38.3751577  58.3250652 121.8546058
  37.6342579  59.4729092 121.2023776  45.5689899  67.1683135 123.1526460
  45.1253754  66.3819514 122.8347364  46.2307113  67.3562286 122.4870351
  40.3277021  68.6978937 117.6787138  40.8784446  68.5696000 116.9064132
  39.4888496  68.9973826 117.3282031  47.6671137  67.4485935 121.1807861
  47.6489613  68.2694816 120.6888130  48.5891058  67.3240010 121.4058002
  44.1244192  64.9630065 122.0231370  44.6572528  64.2018353 121.7930677
  43.5958273  64.6703717 122.7655524  47.2913887  50.0690131 117.5525011
  46.9478156  50.9591772 117.4764122  47.6592849  49.8791788 116.6894596
  35.3599737  62.3923661 110.3713613  36.1974959  62.8020670 110.1547321
  35.5378005  61.4523103 110.3413807  44.8411280  54.9048443 111.1182685
  43.9852877  54.5155293 110.9388323  45.2538232  54.9840403 110.2582470
  46.3710427  52.4394786 115.5174245  45.8675223  52.4024921 114.7042050
  46.6641034  53.3487529 115.5770901  42.6153313  52.5233516 114.5240426
  43.4806310  52.3276324 114.1646316  42.6830822  52.2943867 115.4509783
  52.2298443  62.8131096 107.9950620  51.4527886  62.4742256 107.5505782
  52.9089924  62.8183720 107.3205585  47.0450472  57.9325834 107.8857228
  46.7400608  58.2471983 108.7367371  47.9980915  58.0107254 107.9284561
  50.4689750  62.2865078 114.6517228  49.8113425  62.9764339 114.7397356
  51.2730150  62.6761510 114.9951214  40.2215632  54.7535723 111.8956793
  40.7959384  54.5310905 111.1629986  40.8086614  54.8224418 112.6485394
  49.2795209  60.6409450 112.7021170  49.7927091  61.2739442 113.2042879
  49.9296433  60.0410646 112.3364530  42.5238300  51.6276972 110.6231862
  41.8702712  51.3125990 109.9988477  42.4818774  51.0052713 111.3491685
  45.7576040  58.1158906 114.9479510  44.8398601  58.3373853 114.7901198
  46.1736184  58.1905216 114.0891217  46.5411088  59.5150322 110.0782190
  47.2882907  60.0271719 109.7689312  46.8102677  59.1934374 110.9386584
  48.9889925  56.5507438 112.0600980  48.2512682  56.0384824 112.3911222
  49.2416698  56.1107819 111.2484257  49.0901552  49.3283690 112.6542749
  49.3960429  48.4681053 112.3668664  49.8154157  49.9201310 112.4541743
  35.3825908  59.7314376 111.0424347  35.1850308  59.1383737 110.3175413
  34.8272572  59.4266587 111.7600286  43.3622632  59.6237483 113.1618940
  43.4171242  58.6711319 113.0861417  42.5513834  59.7796922 113.6460238
  41.3014992  58.2414543 110.9209319  40.4882857  58.5408713 111.3274511
  41.7973986  57.8470231 111.6383801  46.8989204  58.7056367 119.7524213
  47.2538591  58.9327840 120.6118679  47.5461335  59.0374744 119.1301468
  52.6286941  61.8274803 110.4573542  52.4904839  62.0176399 109.5294731
  52.2723159  62.5894186 110.9141593  40.7929067  55.8132898 116.5370554
  41.4328446  55.6721657 115.8393517  39.9606597  55.5267412 116.1609156
  52.6556320  63.8951330 115.4684813  53.0892827  63.8026619 116.3167867
  53.3687901  63.8708831 114.8304829  46.3884215  67.4953424 117.0017914
  46.4421237  68.0644360 117.7695630  45.5198996  67.6655309 116.6371951
  37.8772134  59.2578410 108.7265299  36.9469722  59.1962866 108.9435261
  37.9729606  58.7354363 107.9301940  37.7957683  55.7833223 111.3143541
  38.0564500  56.6978556 111.2052701  38.6174855  55.3157666 111.4640153
  39.2682608  57.1970980 118.4842365  39.9405662  56.9888343 117.8355014
  38.4412395  56.9993066 118.0447597  53.5171870  63.9375031 118.0017699
  53.7107760  64.8420841 118.2476974  53.4172488  63.4782450 118.8356284
  45.1708180  53.8232921 120.5008026  44.5236095  54.5222871 120.4072502
  45.9409196  54.2569065 120.8684274  48.5786978  64.0881773 123.5758579
  48.4272485  63.8592325 122.6588663  48.5691658  65.0452375 123.5889924
  45.3472315  61.6613686 118.5604846  46.2764375  61.8124846 118.3873813
  44.9263345  61.7497707 117.7053492  39.6710106  60.4713583 119.2444802
  39.5329904  59.7393822 119.8456341  40.5815029  60.3822483 118.9628990
  42.2992406  60.1833543 118.7328482  43.0092025  59.5426735 118.6915100
  42.2561715  60.4346438 119.6554663  50.2879185  67.1200896 121.6535061
  50.2291731  66.4360116 120.9865644  50.6898703  67.8619886 121.2015687
  41.0121340  57.1698761 120.5524121  40.4758697  56.7189499 121.2045718
  40.4238049  57.3044669 119.8094586  39.3069884  73.9362810 114.4468780
  39.5466482  74.5681334 115.1247799  38.4639080  73.5850850 114.7334139
  50.2896592  65.0840480 119.8849041  49.4023371  64.7466402 120.0075440
  50.8595143  64.3523511 120.1217806  31.9425739  61.4164572 113.2092092
  32.6296779  61.1026302 112.6213108  31.7873868  62.3205936 112.9359344
  36.7460462  56.3054768 117.6377116  36.6618650  55.6980438 116.9027526
  35.9243168  56.7963787 117.6386612  43.8197746  69.7441932 116.8510284
  43.7467917  70.5496904 117.3629589  43.3775139  69.9433898 116.0258305
  46.9184175  54.7908332 113.0047311  47.4152875  54.0378294 112.6848381
  46.1471157  54.8272648 112.4390520  54.7713933  60.4948697 114.6465602
  54.7603809  61.3773413 114.2759536  53.9031312  60.1420248 114.4520140
  46.2796429  69.6428766 119.0068443  46.9924401  70.2776231 118.9344344
  45.7886458  69.7392632 118.1908445  43.5019144  56.9325715 112.7318996
  43.1316932  56.3796755 113.4199901  43.9978237  56.3283848 112.1793996
  51.3886507  59.3897338 111.1135769  51.8546960  60.2225330 111.0396071
  51.8394008  58.9242320 111.8181027  41.3308343  67.3923210 119.8274014
  42.0317802  68.0259693 119.9803408  40.8603458  67.7337941 119.0669653
  49.3603170  51.7577925 115.1526670  48.4466250  51.9882152 115.3208877
  49.7896272  51.8416369 116.0040702  49.1309629  59.9467817 117.6526564
  48.4781079  60.1943725 116.9979017  49.5090009  59.1331955 117.3189041
  45.1797202  60.6887628 124.1392601  44.5037839  60.5881758 124.8094976
  46.0024836  60.5326842 124.6028598  36.9276061  66.9259565 116.7605116
  37.5129498  66.1803253 116.8933020  36.7300899  67.2363522 117.6441780
  31.5193716  59.4965165 115.4809559  31.5577815  58.9628756 116.2746677
  31.0134008  58.9700371 114.8620537  43.9219985  71.9954556 118.3750217
  44.4738293  72.1586177 119.1399302  44.2626178  72.5858994 117.7030242
  38.8984478  54.3429706 118.9772102  38.9625804  55.2044536 118.5649499
  38.8351598  53.7303707 118.2444460  48.7730859  66.8215813 124.2298871
  49.3170763  67.4345772 123.7353826  48.1917704  67.3795392 124.7465884
  35.1502293  58.2229267 108.5563491  35.4455734  57.3139946 108.5030544
  34.2490329  58.2017007 108.2344493  47.0588372  69.9436531 115.3613899
  46.9339511  69.1426271 114.8524845  47.7167463  70.4382725 114.8727869
  38.6796540  56.2985264 114.5391039  37.9583126  56.9121231 114.3998513
  39.4689796  56.8343029 114.4607685  49.1223280  67.7445551 116.9893449
  48.1753616  67.6250903 116.9171776  49.4706053  66.8568049 117.0719711
  41.4822854  53.6339690 120.8131691  42.0057255  53.8801987 121.5758000
  41.2635187  54.4659725 120.3934828  36.8790135  55.9043365 108.6802816
  36.5502841  55.0240744 108.4977922  37.2329505  55.8491034 109.5679205
  39.9931958  56.1916335 109.0478294  40.3328030  56.7202256 108.3256902
  40.4404078  56.5296741 109.8236860  49.7303835  68.3626826 114.2762674
  50.6550383  68.1569688 114.1387125  49.5619139  68.1143227 115.1852016
  42.6875399  54.5753385 118.4981362  42.3472219  53.7761198 118.9002042
  41.9814405  54.8755096 117.9258195  43.3391871  51.6602698 116.9508685
  44.1617940  51.1863176 116.8287575  43.5829934  52.4393182 117.4507371
  41.9800105  54.6890956 107.2471586  42.7008468  55.0672209 106.7435303
  41.3565409  55.4079833 107.3506564  46.1231228  55.3936105 108.1829919
  46.3394842  56.2760743 107.8818747  45.6425295  55.0022319 107.4535561
  40.8630449  58.3521818 114.7600663  40.7175030  58.6662122 115.6524945
  40.3855653  58.9706719 114.2071562  42.7226832  55.3424366 114.8081553
  42.7088401  54.4465460 114.4713851  43.4399260  55.3495030 115.4419839
  44.5752963  55.7761707 116.8534680  44.3170741  56.6978777 116.8519011
  44.0438003  55.3792141 117.5435144  35.3376111  60.8927163 117.6988324
  34.7929580  61.6686971 117.8308599  36.2155461  61.2397967 117.5407446
  42.1263728  54.2238747 110.0769123  42.2479639  53.2955393 110.2760010
  41.8365770  54.2377433 109.1647438  44.9954918  51.9093657 113.2135843
  45.0176615  51.9732990 112.2587822  45.4122977  51.0698166 113.4076349
  55.3738543  61.6448917 111.2515065  55.8169689  60.8956242 110.8534189
  54.4965053  61.6359053 110.8688797  36.1242133  60.0197059 120.5918481
  35.3823869  60.1679694 121.1783112  35.8034878  60.2805325 119.7285231
  52.4065747  65.6478964 108.2608995  52.9317071  65.9866236 107.5358315
  52.3188100  64.7125979 108.0772129  44.0685796  69.5613037 120.3898871
  44.3772922  69.3162184 121.2621571  44.8661278  69.7659676 119.9017742
  34.7707352  65.8248814 113.5817810  33.9339260  65.3970989 113.4001811
  34.7430997  66.0181258 114.5188601  52.0959653  66.2811867 123.5660193
  51.3055197  66.2636006 123.0264692  51.8593008  66.8200161 124.3209229
  52.2157528  63.1304334 120.8792921  52.2655533  62.9654341 121.8208444
  52.1071452  62.2631593 120.4890802  49.5061291  59.1135262 122.1952228
  50.4071154  58.9741727 121.9036226  49.5809265  59.2789717 123.1350405
  43.8404096  56.4902116 121.0405414  42.9707405  56.7835683 120.7688003
  44.0763576  57.0742561 121.7612678  53.7175725  65.5501275 121.1234943
  53.4260533  65.9131256 121.9598404  53.1047856  64.8368284 120.9448275
  54.9171408  63.1154155 113.6437513  55.7518299  63.5543959 113.8075073
  55.0530536  62.6392808 112.8245759  51.9662913  60.6733890 119.5915001
  52.4417035  60.8661536 118.7833852  51.0428479  60.7293076 119.3458384
  46.5443130  52.7081733 118.5570835  47.0625074  53.4442760 118.2317323
  46.1898263  53.0145727 119.3917594  38.1242068  57.5686415 106.6732240
  37.4311313  57.6430770 106.0172276  37.8793819  56.8046758 107.1953757
  46.7955724  49.1282016 114.0771731  47.0757478  48.4605205 114.7032158
  47.5806331  49.3211112 113.5646395  50.6664582  57.5499650 117.8243306
  51.6182005  57.6497748 117.8455530  50.4968033  56.7577918 118.3341391
  48.6878962  54.6355233 118.0102707  48.0928894  54.9160246 117.3149196
  48.4028659  55.1249134 118.7819448  50.4474469  67.9044030 103.7309287
  50.3688101  67.5703894 104.6245045  51.2684136  68.3965798 103.7300760
  53.1452660  60.7705770 116.9385606  53.1128980  59.8321770 117.1245290
  53.7553284  60.8489806 116.2051431  53.2947149  57.5616813 116.9843889
  52.7786197  56.7775270 116.7973818  54.1787097  57.2335530 117.1490409
  50.9557876  51.3057829 112.9439702  50.7582697  50.9972917 113.8283034
  51.5657581  52.0319468 113.0737632  58.9629210  61.8321776 116.0791643
  59.6932599  61.5707065 116.6399346  58.3536156  61.0950498 116.1193711
  57.0444507  59.9729639 116.6766094  56.3177671  59.8385604 116.0682586
  56.6291794  60.2806468 117.4822812  44.8674684  63.6919569 124.4413467
  45.7877693  63.8698168 124.6353514  44.8324267  62.7475614 124.2893166
  34.0856849  58.8858162 113.3666742  33.7659633  58.0323471 113.0741116
  33.5390277  59.1006741 114.1224709  37.8636756  61.6020603 117.0836248
  38.0822766  62.5337711 117.1024282  38.2762530  61.2428578 117.8691052
  44.7840974  52.1088689 109.0711937  43.9741702  51.7635774 109.4467183
  45.4725391  51.7996232 109.6599548  46.7131522  51.1866736 110.6936233
  47.2662561  51.6062189 111.3526256  46.9501609  50.2602484 110.7359189
  33.9545109  62.5061074 115.3359863  33.2608580  62.0915027 114.8229818
  34.7018100  62.5481610 114.7393282  50.0910329  53.2967261 110.2014897
  49.5108998  53.9552065 109.8192950  49.8246262  52.4744605 109.7902315
  48.5413896  52.6972318 112.4036218  49.0413674  52.8088853 111.5950537
  49.1849504  52.3933371 113.0437026  42.5995892  60.6050948 125.2904059
  42.1162973  61.4051308 125.4967948  42.6856831  60.6158893 124.3371503
  35.8681851  62.4379328 113.2125878  35.8452539  62.5367015 112.2607761
  36.1782488  63.2844478 113.5343044  38.5269229  64.4955483 117.3272493
  39.4812483  64.4639425 117.2602424  38.3281753  64.0346106 118.1422718
  39.1168611  63.0656599 119.8943290  39.9361500  63.5600677 119.9178127
  39.3905419  62.1488567 119.8660858  48.8735207  55.4567351 109.2571246
  47.9861062  55.7417002 109.0391440  49.2889196  55.2961114 108.4098523
  52.2249743  55.4813872 112.9725585  53.0010134  55.9710324 113.2450202
  51.4997878  55.9071926 113.4297454  54.6622302  56.1941491 114.0299526
  55.2566793  55.9537227 113.3192834  54.7348886  55.4748622 114.6573062
  36.8819458  70.0375102 114.3442690  36.7473926  69.2775503 113.7780688
  36.4651520  70.7616002 113.8771479  48.8476231  60.9721887 109.4721536
  48.7911432  61.4290438 108.6329168  49.4004574  60.2112572 109.2944379
  52.6581037  56.7611619 110.2971655  52.4017971  56.3608255 111.1279863
  52.0333905  57.4755413 110.1721795  56.9693375  59.5007692 112.8042947
  56.4092933  59.5700881 113.5774509  56.3636878  59.3248677 112.0842443
  49.9265118  65.6594555 105.4017726  50.7610722  65.2275753 105.2195201
  49.7649461  65.4876569 106.3294620  34.3703525  57.3994733 120.5935487
  35.0162389  56.8893687 121.0822712  34.1620677  58.1363414 121.1678913
  46.8956918  64.4675580 126.0927628  47.7648077  64.6416232 125.7314263
  46.4163669  65.2869997 125.9703357  42.8907136  51.6634777 106.3459383
  42.8785806  52.6076617 106.5027654  43.7830558  51.4804923 106.0518845
  41.0643098  71.5872681 117.7717061  41.9670345  71.6196291 118.0883556
  40.8380468  70.6573132 117.7863397  46.7059255  48.2577554 110.6005320
  45.9391651  47.7036041 110.7462003  47.1169960  48.3299423 111.4619472
  58.5549393  76.1764206 115.4972902  59.1927803  76.0570953 114.7936243
  58.4370236  77.1245050 115.5560855  55.3639100  76.1291634 115.4334427
  55.0257611  76.0132699 114.5454962  56.2328868  75.7282799 115.4135433
  51.2225915  77.9827111 111.4231318  50.6590780  77.8917047 110.6547606
  51.1078310  77.1627015 111.9033811  55.8458883  77.2826486 121.3920633
  55.8347523  76.8879284 120.5201136  56.0079522  76.5492558 121.9854404
  48.7690347  79.4778302 114.2615539  49.5611639  79.1369127 113.8461838
  49.0086997  79.5873277 115.1817692  56.8025474  81.6498078 106.7345783
  56.1513454  82.2352159 106.3479797  57.5969837  82.1804273 106.7940821
  50.7281101  78.7387215 107.1332917  51.5011977  78.1916202 106.9945793
  51.0806500  79.6031465 107.3447379  52.5666144  80.0663598 120.3399817
  52.2756010  80.9709229 120.2246483  53.2023128  80.1080125 121.0543886
  53.4922351  77.4440446 116.9301176  54.0885923  77.2196469 116.2158139
  53.5497322  76.7025192 117.5326624  53.0647379  74.8979882 104.7651367
  53.3172900  74.3761403 104.0034830  52.1271938  74.7346027 104.8678051
  58.1090662  73.9015660 112.5726111  58.8953751  73.4835083 112.2216528
  58.3729366  74.8061752 112.7407759  58.2800739  79.3388510 107.2714767
  57.6446572  79.4123137 107.9835672  57.9498146  79.9282109 106.5933847
  63.5099089  73.8390893 113.4759089  64.2424261  73.2690110 113.7096919
  62.7538445  73.4512494 113.9165595  52.7843668  76.8007987 106.9675742
  52.6679926  76.1252891 107.6356827  52.8945928  76.3140361 106.1507895
  55.1275209  76.2618135 110.6722431  54.7633416  75.7348756 111.3835353
  55.9842325  75.8716604 110.4988917  61.0324509  67.5512467 117.9353698
  60.7007834  68.4207878 117.7114913  60.4370123  67.2348751 118.6147728
  54.7680696  71.2908034 105.6683780  54.9355098  72.1588271 106.0354251
  54.5777865  71.4535316 104.7445069  57.5256029  79.7525013 117.3349610
  57.2256752  80.6550052 117.2265418  57.1807088  79.4857196 118.1870763
  50.9768510  76.2038810 113.3686315  50.0519007  76.0715024 113.5764007
  51.2252923  76.9833029 113.8656257  60.9253173  72.2707553 115.0147048
  60.0170050  72.2022962 114.7205809  60.8740768  72.7479498 115.8428873
  54.7469917  73.7465692 106.6530447  54.6269542  74.1922743 107.4915927
  54.0522505  74.0951009 106.0943985  48.3377321  75.8472084 114.2030104
  48.4669702  76.1006563 115.1169516  47.6574773  76.4399792 113.8834759
  52.5076809  86.5169334 110.3020578  52.4300838  87.4677159 110.3809059
  51.9038452  86.1715206 110.9595504  54.9994038  73.6897199 122.9581945
  54.2227372  74.2491119 122.9484810  55.6384601  74.1753982 123.4796815
  62.7914819  70.4723992 116.7924922  62.1489199  70.7656525 116.1464716
  62.2869748  70.3576912 117.5978118  60.4454983  74.2187165 107.4810781
  61.3572839  74.4514552 107.3058478  59.9364630  74.8024209 106.9185859
  53.2540411  76.4982652 122.5199912  53.9955095  77.0367696 122.2434736
  52.5477396  77.1248941 122.6771464  58.7295750  78.6411793 121.1172073
  59.1379106  78.1994203 120.3726706  58.0073012  78.0664420 121.3706266
  55.0826820  73.5784400 118.4905630  55.9288016  74.0023813 118.6340279
  55.0225458  72.9218024 119.1844194  59.0524565  79.2012983 114.8724362
  58.4233427  79.3658698 114.1700430  58.6650227  79.6154593 115.6435326
  62.9313797  80.1367421 112.2268726  62.2464835  80.5166323 111.6765759
  63.0157646  80.7462748 112.9600674  58.2326266  71.2388768 120.1486804
  57.9887198  71.9930828 119.6121080  58.5086196  71.6174116 120.9834051
  60.1864728  77.7827380 118.8264070  60.3981624  78.4259140 118.1498451
  60.1394477  76.9489697 118.3586000  57.7890957  70.3945201 115.7300642
  56.9275436  70.6926454 116.0217379  57.8153392  70.6115600 114.7981674
  54.6052527  78.9387391 112.1374447  55.0690872  79.2175094 111.3479070
  54.3409325  78.0370836 111.9547538  51.4976608  78.4858873 115.0754211
  52.0677965  78.9146141 114.4371695  52.0884720  78.2041458 115.7738396
  53.5421413  75.0610544 108.9464013  54.2445456  75.5131588 109.4137939
  53.2102041  74.4194363 109.5743906  51.9901774  73.6522300 123.3215222
  51.3600435  74.3338581 123.5550619  51.8837862  73.5405382 122.3768360
  61.3010556  80.6599336 116.9986427  62.1228000  80.2579523 116.7169109
  61.2972959  80.5567570 117.9502543  55.0667160  80.2083379 119.1547137
  55.1311592  80.6703786 119.9905309  54.3578084  79.5780744 119.2829447
  45.5684450  73.5724587 116.6796137  45.8192488  74.4571597 116.9453713
  46.1043998  73.3929189 115.9071229  69.3916549  77.0038084 113.3471398
  68.6380258  76.4345482 113.1915403  69.5264091  76.9700749 114.2942033
  54.7815178  81.8751486 109.0226118  54.6460852  82.7203022 109.4510966
  55.3224990  82.0770764 108.2592052  51.2682517  67.9543066 125.6840473
  50.8749463  67.4009265 126.3588117  52.0848657  68.2653645 126.0746991
  48.2344575  79.3926925 109.5954043  48.7469095  80.1870175 109.7459608
  48.8867288  78.6953215 109.5287644  50.0439460  82.5092681 111.6776796
  50.2206088  83.4310646 111.4897780  50.8396293  82.1951100 112.1071176
  54.1850478  69.3700945 123.2760730  54.9260192  69.9708099 123.1965192
  54.4168401  68.6278583 122.7178772  49.3291816  74.5557313 121.5538959
  49.2145331  73.6542570 121.8546058  48.4736334  74.8021009 121.2023776
  56.4083654  82.4975053 123.1526460  55.9647508  81.7111432 122.8347364
  57.0700867  82.6854204 122.4870351  51.1670775  84.0270855 117.6787138
  51.7178200  83.8987918 116.9064132  50.3282251  84.3265744 117.3282031
  58.5064892  82.7777853 121.1807861  58.4883367  83.5986734 120.6888130
  59.4284812  82.6531928 121.4058002  54.9637946  80.2921982 122.0231370
  55.4966283  79.5310271 121.7930677  54.4352027  79.9995634 122.7655524
  58.1307641  65.3982048 117.5525011  57.7871910  66.2883690 117.4764122
  58.4986604  65.2083706 116.6894596  58.0957924  75.3890659 106.0597446
  57.5804547  76.1595264 106.2985834  57.8235232  74.7155796 106.6830508
  55.6805035  70.2340360 111.1182685  54.8246631  69.8447211 110.9388323
  56.0931987  70.3132321 110.2582470  57.2104181  67.7686704 115.5174245
  56.7068977  67.7316839 114.7042050  57.5034788  68.6779446 115.5770901
  53.4547067  67.8525433 114.5240426  54.3200064  67.6568242 114.1646316
  53.5224576  67.6235785 115.4509783  63.0692198  78.1423014 107.9950620
  62.2921641  77.8034174 107.5505782  63.7483679  78.1475637 107.3205585
  57.8844227  73.2617752 107.8857228  57.5794363  73.5763901 108.7367371
  58.8374669  73.3399171 107.9284561  56.3290659  79.4207975 109.5350182
  55.8012020  78.6860734 109.2223419  55.8278162  80.1982651 109.2890150
  61.3083505  77.6156995 114.6517228  60.6507179  78.3056257 114.7397356
  62.1123904  78.0053427 114.9951214  51.0609386  70.0827641 111.8956793
  51.6353138  69.8602823 111.1629986  51.6480369  70.1516336 112.6485394
  60.1188964  75.9701368 112.7021170  60.6320845  76.6031360 113.2042879
  60.7690188  75.3702564 112.3364530  51.3878974  72.1132102 105.9152678
  50.5516286  72.4506789 106.2361953  51.2483743  71.9781082 104.9779815
  53.3632054  66.9568890 110.6231862  52.7096466  66.6417907 109.9988477
  53.3212528  66.3344631 111.3491685  54.4743259  77.2388185 102.5385155
  53.5670321  77.0077439 102.7376304  54.9714291  76.4425804 102.7259136
  57.3811338  85.9485692 105.4581841  56.7073037  86.2517389 106.0666799
  57.7677160  86.7514773 105.1087298  56.5969795  73.4450824 114.9479510
  55.6792356  73.6665771 114.7901198  57.0129938  73.5197134 114.0891217
  57.3804842  74.8442239 110.0782190  58.1276661  75.3563637 109.7689312
  57.6496432  74.5226292 110.9386584  55.6531492  77.3400780 107.0609145
  54.7442712  77.0559813 107.1581614  55.6826576  77.7599859 106.2012452
  60.8850760  80.9507370 110.8300312  60.4313087  80.1098279 110.8865503
  60.2544727  81.5868768 111.1675092  59.8283679  71.8799356 112.0600980
  59.0906436  71.3676742 112.3911222  60.0810453  71.4399737 111.2484257
  59.3283699  82.7883866 111.7650130  59.6206673  83.3488923 111.0462496
  59.8382320  83.0812427 112.5203289  59.9295307  64.6575608 112.6542749
  60.2354184  63.7972971 112.3668664  60.6547912  65.2493228 112.4541743
  54.2016386  74.9529401 113.1618940  54.2564996  74.0003237 113.0861417
  53.3907589  75.1088840 113.6460238  55.3507580  78.8809524 104.3997223
  54.9127010  78.1645383 103.9402861  56.0918021  79.1085639 103.8382315
  52.1408746  73.5706460 110.9209319  51.3276612  73.8700631 111.3274511
  52.6367741  73.1762149 111.6383801  54.2917324  83.5664217 112.8543584
  54.2493503  83.7925064 111.9252116  55.2080023  83.3327592 113.0029385
  57.7382958  74.0348285 119.7524213  58.0932346  74.2619758 120.6118679
  58.3855089  74.3666662 119.1301468  63.4680695  77.1566721 110.4573542
  63.3298594  77.3468317 109.5294731  63.1116914  77.9186104 110.9141593
  51.6322821  71.1424816 116.5370554  52.2722200  71.0013575 115.8393517
  50.8000352  70.8559329 116.1609156  63.4950075  79.2243248 115.4684813
  63.9286581  79.1318537 116.3167867  64.2081655  79.2000748 114.8304829
  52.4083125  80.4427246 112.6505546  53.2023724  79.9477566 112.4488121
  51.6974817  79.9145109 112.2873252  57.2277970  82.8245342 117.0017914
  57.2814992  83.3936278 117.7695630  56.3592751  82.9947227 116.6371951
  50.1076363  72.5262898 118.4842365  50.7799416  72.3180260 117.8355014
  49.2806149  72.3284984 118.0447597  64.3565624  79.2666948 118.0017699
  64.5501514  80.1712759 118.2476974  64.2566242  78.8074367 118.8356284
  56.0101935  69.1524839 120.5008026  55.3629850  69.8514789 120.4072502
  56.7802950  69.5860983 120.8684274  59.4180733  79.4173691 123.5758579
  59.2666239  79.1884243 122.6588663  59.4085412  80.3744293 123.5889924
  56.1866069  76.9905604 118.5604846  57.1158129  77.1416763 118.3873813
  55.7657099  77.0789625 117.7053492  54.9854401  81.0156268 116.3303383
  54.8465487  80.6475053 117.2029321  54.1968997  81.5303908 116.1587341
  55.5802553  86.1165365 107.6728920  55.7554309  85.6453408 108.4874543
  54.8935341  86.7431131 107.9010181  56.5359616  80.3937871 113.7192221
  56.2009449  80.3538641 114.6149871  56.0363562  79.7282587 113.2462631
  50.5103860  75.8005501 119.2444802  50.3723658  75.0685740 119.8456341
  51.4208784  75.7114401 118.9628990  59.4718808  77.7393905 103.9929281
  58.8547979  77.0140733 103.8962333  59.0035296  78.5003266 103.6496355
  53.1386161  75.5125460 118.7328482  53.8485779  74.8718653 118.6915100
  53.0955469  75.7638355 119.6554663  61.1272940  82.4492814 121.6535061
  61.0685486  81.7652034 120.9865644  61.5292458  83.1911804 121.2015687
  51.8515095  72.4990678 120.5524121  51.3152452  72.0481417 121.2045718
  51.2631803  72.6336587 119.8094586  50.1463638  89.2654728 114.4468780
  50.3860237  89.8973252 115.1247799  49.3032835  88.9142768 114.7334139
  51.2617354  71.9579330 103.1150585  50.3846820  71.8368130 102.7512832
  51.7375107  71.1665408 102.8629474  61.1290347  80.4132398 119.8849041
  60.2417126  80.0758319 120.0075440  61.6988898  79.6815429 120.1217806
  42.7819494  76.7456489 113.2092092  43.4690534  76.4318219 112.6213108
  42.6267623  77.6497854 112.9359344  47.5854216  71.6346686 117.6377116
  47.5012405  71.0272355 116.9027526  46.7636922  72.1255704 117.6386612
  54.6591500  85.0733850 116.8510284  54.5861672  85.8788821 117.3629589
  54.2168893  85.2725816 116.0258305  54.4481280  84.3105620 110.3613106
  53.6648802  84.8527300 110.4551330  55.1474025  84.8279600 110.7607347
  57.7577930  70.1200249 113.0047311  58.2546629  69.3670212 112.6848381
  56.9864911  70.1564566 112.4390520  65.6107687  75.8240615 114.6465602
  65.5997564  76.7065330 114.2759536  64.7425067  75.4712166 114.4520140
  57.1190184  84.9720684 119.0068443  57.8318156  85.6068149 118.9344344
  56.6280212  85.0684550 118.1908445  58.8407711  78.8771937 110.5785734
  57.9063989  78.9973399 110.4090439  59.0184379  77.9744403 110.3145744
  54.3412899  72.2617632 112.7318996  53.9710686  71.7088673 113.4199901
  54.8371991  71.6575766 112.1793996  62.2280262  74.7189256 111.1135769
  62.6940714  75.5517248 111.0396071  62.6787762  74.2534238 111.8181027
  52.1702097  82.7215127 119.8274014  52.8711557  83.3551610 119.9803408
  51.6997212  83.0629859 119.0669653  60.2956493  81.0633077 108.1121921
  60.5716337  80.9489672 109.0215795  59.4260992  80.6650562 108.0734094
  60.1996925  67.0869843 115.1526670  59.2860005  67.3174070 115.3208877
  60.6290026  67.1708287 116.0040702  59.9703383  75.2759735 117.6526564
  59.3174833  75.5235642 116.9979017  60.3483763  74.4623873 117.3189041
  56.9310557  85.3119428 111.7554734  57.1132952  84.4941084 112.2182487
  57.7543543  85.5287120 111.3179624  57.2652723  84.2387613 109.0169783
  57.7940489  83.7280068 108.4039945  57.5280942  83.9230143 109.8815316
  56.0190956  76.0179546 124.1392601  55.3431593  75.9173675 124.8094976
  56.8418590  75.8618760 124.6028598  47.7669815  82.2551483 116.7605116
  48.3523252  81.5095170 116.8933020  47.5694654  82.5655439 117.6441780
  50.6208471  85.2902730 111.7767559  49.9518846  85.7748858 111.2931599
  50.4821340  85.5371950 112.6910937  42.3587470  74.8257083 115.4809559
  42.3971570  74.2920673 116.2746677  41.8527763  74.2992288 114.8620537
  54.7613739  87.3246473 118.3750217  55.3132047  87.4878095 119.1399302
  55.1019933  87.9150911 117.7030242  49.7378232  69.6721623 118.9772102
  49.8019559  70.5336454 118.5649499  49.6745353  69.0595625 118.2444460
  49.2130505  71.7444756 122.6245136  49.8402544  71.3621833 123.2382660
  48.3558424  71.5258958 122.9900828  57.8982126  85.2728449 115.3613899
  57.7733266  84.4718189 114.8524845  58.5561218  85.7674642 114.8727869
  49.5190295  71.6277181 114.5391039  48.7976880  72.2413149 114.3998513
  50.3083550  72.1634946 114.4607685  59.9617035  83.0737469 116.9893449
  59.0147370  82.9542820 116.9171776  60.3099808  82.1859967 117.0719711
  52.3216608  68.9631608 120.8131691  52.8451010  69.2093904 121.5758000
  52.1028941  69.7951643 120.3934828  56.9663468  82.8690185 113.1897801
  56.8188431  81.9406893 113.3705371  57.7916962  82.8910276 112.7054877
  60.5697590  83.6918744 114.2762674  61.4944137  83.4861605 114.1387125
  60.4012893  83.4435145 115.1852016  53.5269153  69.9045303 118.4981362
  53.1865974  69.1053116 118.9002042  52.8208159  70.2047014 117.9258195
  54.1785625  66.9894615 116.9508685  55.0011694  66.5155094 116.8287575
  54.4223689  67.7685099 117.4507371  52.8193860  70.0182874 107.2471586
  53.5402222  70.3964127 106.7435303  52.1959164  70.7371751 107.3506564
  56.9624982  70.7228023 108.1829919  57.1788597  71.6052661 107.8818747
  56.4819050  70.3314236 107.4535561  51.7024204  73.6813736 114.7600663
  51.5568784  73.9954039 115.6524945  51.2249407  74.2998636 114.2071562
  53.5620587  70.6716284 114.8081553  53.5482155  69.7757377 114.4713851
  54.2793015  70.6786948 115.4419839  55.4146717  71.1053624 116.8534680
  55.1564495  72.0270695 116.8519011  54.8831758  70.7084059 117.5435144
  60.3592906  84.2104411 109.6324766  60.5329784  83.6450834 108.8798618
  60.8521797  85.0105306 109.4504256  46.1769866  76.2219081 117.6988324
  45.6323334  76.9978888 117.8308599  47.0549216  76.5689885 117.5407446
  52.9657483  69.5530664 110.0769123  53.0873394  68.6247311 110.2760010
  52.6759525  69.5669350 109.1647438  55.8348673  67.2385575 113.2135843
  55.8570370  67.3024908 112.2587822  56.2516732  66.3990083 113.4076349
  66.2132297  76.9740834 111.2515065  66.6563443  76.2248160 110.8534189
  65.3358808  76.9650971 110.8688797  61.3468079  83.5271176 106.7321664
  62.0418983  84.1477869 106.9508979  61.6891229  82.6766527 107.0074042
  46.9635888  75.3488977 120.5918481  46.2217624  75.4971612 121.1783112
  46.6428632  75.6097242 119.7285231  63.2459502  80.9770881 108.2608995
  63.7710826  81.3158154 107.5358315  63.1581854  80.0417897 108.0772129
  54.9079550  84.8904955 120.3898871  55.2166677  84.6454102 121.2621571
  55.7055032  85.0951593 119.9017742  54.9300162  87.0442865 112.6204248
  54.4905153  86.5519243 113.3137105  55.6808279  86.5015832 112.3796323
  47.4092501  83.2354406 112.6228876  48.2350521  82.9358177 112.2427519
  47.0586553  82.4662028 113.0718665  52.3774035  82.5880874 114.6926550
  51.7554044  81.9251579 114.3928777  53.0478902  82.6142006 114.0100197
  45.6101107  81.1540732 113.5817810  44.7733015  80.7262906 113.4001811
  45.5824752  81.3473175 114.5188601  52.4498562  71.0662662 124.2859056
  52.4986718  71.9424785 123.9036825  52.9921076  70.5240055 123.7130699
  63.0551283  78.4596251 120.8792921  63.1049288  78.2946259 121.8208444
  62.9465206  77.5923510 120.4890802  51.9387542  81.1384797 108.1685010
  52.0875662  81.8220261 107.5151683  52.7453985  81.1189887 108.6834466
  60.3455045  74.4427179 122.1952228  61.2464908  74.3033644 121.9036226
  60.4203020  74.6081634 123.1350405  54.6797851  71.8194034 121.0405414
  53.8101160  72.1127600 120.7688003  54.9157331  72.4034479 121.7612678
  64.5569480  80.8793193 121.1234943  64.2654288  81.2423173 121.9598404
  63.9441611  80.1660201 120.9448275  65.7565162  78.4446073 113.6437513
  66.5912053  78.8835877 113.8075073  65.8924291  77.9684726 112.8245759
  62.8056668  76.0025808 119.5915001  63.2810790  76.1953454 118.7833852
  61.8822233  76.0584993 119.3458384  49.6940175  77.1649975 109.1746079
  49.4486216  76.2612305 109.3726289  49.8636089  77.1667125 108.2325557
  57.3836884  68.0373651 118.5570835  57.9018828  68.7734678 118.2317323
  57.0292017  68.3437644 119.3917594  57.6349479  64.4573934 114.0771731
  57.9151232  63.7897123 114.7032158  58.4200085  64.6503029 113.5646395
  55.4382947  83.6332928 105.6396758  54.8656914  84.2523115 105.1867229
  56.0115741  84.1832289 106.1736679  61.5058337  72.8791568 117.8243306
  62.4575760  72.9789665 117.8455530  61.3361787  72.0869836 118.3341391
  59.5272716  69.9647151 118.0102707  58.9322649  70.2452164 117.3149196
  59.2422413  70.4541052 118.7819448  58.6580207  83.9170078 106.7705340
  59.5910880  83.8515639 106.9738215  58.5703420  84.7526345 106.3119872
  61.2868224  83.2335948 103.7309287  61.2081855  82.8995812 104.6245045
  62.1077890  83.7257716 103.7300760  63.9846415  76.0997687 116.9385606
  63.9522735  75.1613688 117.1245290  64.5947038  76.1781724 116.2051431
  55.8229746  74.9693740 102.9812810  56.7688850  74.8399948 103.0501228
  55.4443991  74.2308402 103.4582238  64.1340903  72.8908731 116.9843889
  63.6179952  72.1067187 116.7973818  65.0180852  72.5627447 117.1490409
  61.7951630  66.6349746 112.9439702  61.5976451  66.3264834 113.8283034
  62.4051336  67.3611385 113.0737632  69.8022965  77.1613694 116.0791643
  70.5326353  76.8998982 116.6399346  69.1929910  76.4242416 116.1193711
  67.8838262  75.3021557 116.6766094  67.1571425  75.1677522 116.0682586
  67.4685549  75.6098385 117.4822812  55.7068438  79.0211486 124.4413467
  56.6271448  79.1990085 124.6353514  55.6718021  78.0767532 124.2893166
  54.0072663  72.8943717 102.9167695  53.1004118  72.5976829 102.9930409
  54.2848644  72.5973535 102.0501981  48.7030511  76.9312521 117.0836248
  48.9216520  77.8629629 117.1024282  49.1156284  76.5720495 117.8691052
  55.6234728  67.4380606 109.0711937  54.8135457  67.0927691 109.4467183
  56.3119145  67.1288150 109.6599548  57.5525277  66.5158653 110.6936233
  58.1056315  66.9354107 111.3526256  57.7895363  65.5894401 110.7359189
  53.5758376  72.5045727 126.4738997  53.4755103  73.4540084 126.4051088
  53.3579918  72.1763966 125.6015067  52.7771447  69.7530652 103.0579674
  53.6390611  70.0785550 103.3175492  52.9621792  68.9662148 102.5452740
  44.7938863  77.8352992 115.3359863  44.1002335  77.4206944 114.8229818
  45.5411854  77.8773528 114.7393282  60.9304084  68.6259178 110.2014897
  60.3502753  69.2843982 109.8192950  60.6640017  67.8036523 109.7902315
  59.3807650  68.0264236 112.4036218  59.8807429  68.1380771 111.5950537
  60.0243258  67.7225289 113.0437026  53.4389646  75.9342866 125.2904059
  52.9556728  76.7343226 125.4967948  53.5250585  75.9450811 124.3371503
  46.7075606  77.7671245 113.2125878  46.6846294  77.8658933 112.2607761
  47.0176242  78.6136396 113.5343044  49.3662984  79.8247400 117.3272493
  50.3206237  79.7931343 117.2602424  49.1675507  79.3638024 118.1422718
  49.9562366  78.3948516 119.8943290  50.7755255  78.8892595 119.9178127
  50.2299173  77.4780485 119.8660858  59.7128962  70.7859269 109.2571246
  58.8254817  71.0708919 109.0391440  60.1282951  70.6253032 108.4098523
  63.0643498  70.8105790 112.9725585  63.8403888  71.3002242 113.2450202
  62.3391632  71.2363844 113.4297454  65.5016057  71.5233409 114.0299526
  66.0960547  71.2829145 113.3192834  65.5742640  70.8040539 114.6573062
  47.7213212  85.3667020 114.3442690  47.5867680  84.6067421 113.7780688
  47.3045275  86.0907920 113.8771479  58.8572175  80.5503943 103.3519266
  59.5608025  80.7553946 103.9676921  58.1334824  81.1180705 103.6168349
  59.6869986  76.3013805 109.4721536  59.6305187  76.7582356 108.6329168
  60.2398328  75.5404489 109.2944379  63.4974792  72.0903537 110.2971655
  63.2411726  71.6900172 111.1279863  62.8727660  72.8047330 110.1721795
  67.8087129  74.8299610 112.8042947  67.2486687  74.8992799 113.5774509
  67.2030633  74.6540594 112.0842443  50.8782338  86.2636337 114.5561133
  50.7614722  87.2081769 114.4539823  50.0574784  85.9609898 114.9446932
  60.7658873  80.9886473 105.4017726  61.6004477  80.5567671 105.2195201
  60.6043216  80.8168486 106.3294620  60.4204765  77.4918586 106.7674065
  60.3653569  77.3262857 105.8262509  59.7950820  78.1994619 106.9236255
  45.2097280  72.7286650 120.5935487  45.8556143  72.2185604 121.0822712
  45.0014431  73.4655332 121.1678913  53.7300890  66.9926695 106.3459383
  53.7179560  67.9368535 106.5027654  54.6224312  66.8096840 106.0518845
  51.9036852  86.9164599 117.7717061  52.8064099  86.9488209 118.0883556
  51.6774222  85.9865050 117.7863397  53.6590454  85.6695585 114.4327140
  52.7086085  85.6697447 114.3191512  53.9622940  84.9228320 113.9163175
  57.5453010  63.5869472 110.6005320  56.7785406  63.0327958 110.7462003
  57.9563715  63.6591340 111.4619472  49.5494771  69.8754267 124.6910501
  50.4126232  69.5191072 124.9013826  48.9760182  69.5368162 125.3785906
  62.0619670  93.3119028 111.4231318  61.4984535  93.2208965 110.6547606
  61.9472065  92.4918933 111.9033811  59.6084102  94.8070220 114.2615539
  60.4005394  94.4661044 113.8461838  59.8480752  94.9165195 115.1817692
  67.6419229  96.9789996 106.7345783  66.9907208  97.5644076 106.3479797
  68.4363591  97.5096191 106.7940821  61.5674856  94.0679133 107.1332917
  62.3405732  93.5208120 106.9945793  61.9200255  94.9323382 107.3447379
  63.9041133  90.2271799 104.7651367  64.1566654  89.7053320 104.0034830
  62.9665693  90.0637945 104.8678051  68.9484416  89.2307578 112.5726111
  69.7347506  88.8127001 112.2216528  69.2123121  90.1353670 112.7407759
  69.1194494  94.6680428 107.2714767  68.4840327  94.7415054 107.9835672
  68.7891900  95.2574027 106.5933847  63.6237422  92.1299905 106.9675742
  63.5073680  91.4544809 107.6356827  63.7339682  91.6432279 106.1507895
  65.9668963  91.5910052 110.6722431  65.6027170  91.0640673 111.3835353
  66.8236079  91.2008521 110.4988917  65.6074450  86.6199952 105.6683780
  65.7748852  87.4880188 106.0354251  65.4171619  86.7827234 104.7445069
  61.8162265  91.5330728 113.3686315  60.8912761  91.4006942 113.5764007
  62.0646678  92.3124947 113.8656257  65.5863671  89.0757609 106.6530447
  65.4663296  89.5214660 107.4915927  64.8916259  89.4242927 106.0943985
  59.1771076  91.1764001 114.2030104  59.3063457  91.4298480 115.1169516
  58.4968527  91.7691709 113.8834759  71.2848737  89.5479083 107.4810781
  72.1966593  89.7806469 107.3058478  70.7758384  90.1316127 106.9185859
  68.6284712  85.7237119 115.7300642  67.7669191  86.0218372 116.0217379
  68.6547147  85.9407518 114.7981674  65.4446281  94.2679309 112.1374447
  65.9084627  94.5467012 111.3479070  65.1803079  93.3662754 111.9547538
  64.3815167  90.3902462 108.9464013  65.0839211  90.8423505 109.4137939
  64.0495796  89.7486280 109.5743906  58.1240501  88.6486014 114.2481146
  57.3339555  88.9043543 113.7721257  58.6151749  89.4634352 114.3533187
  60.0755247  89.0130593 111.2064623  59.2786410  89.1249288 111.7248119
  59.8480839  89.3517246 110.3405513  56.4078204  88.9016505 116.6796137
  56.6586243  89.7863515 116.9453713  56.9437753  88.7221106 115.9071229
  65.6208932  97.2043404 109.0226118  65.4854607  98.0494940 109.4510966
  66.1618745  97.4062682 108.2592052  59.0738329  94.7218842 109.5954043
  59.5862850  95.5162092 109.7459608  59.7261042  94.0245133 109.5287644
  60.8833214  97.8384598 111.6776796  61.0599842  98.7602563 111.4897780
  61.6790048  97.5243018 112.1071176  68.9701396  80.7273966 117.5525011
  68.6265665  81.6175608 117.4764122  69.3380358  80.5375624 116.6894596
  57.0387246  93.0507497 110.3713613  57.8762468  93.4604505 110.1547321
  57.2165514  92.1106939 110.3413807  68.9351678  90.7182577 106.0597446
  68.4198302  91.4887182 106.2985834  68.6628987  90.0447713 106.6830508
  66.5198789  85.5632278 111.1182685  65.6640386  85.1739128 110.9388323
  66.9325741  85.6424239 110.2582470  68.0497936  83.0978621 115.5174245
  67.5462732  83.0608756 114.7042050  68.3428543  84.0071364 115.5770901
  64.2940822  83.1817351 114.5240426  65.1593819  82.9860160 114.1646316
  64.3618331  82.9527703 115.4509783  73.9085952  93.4714932 107.9950620
  73.1315395  93.1326091 107.5505782  74.5877433  93.4767555 107.3205585
  68.7237981  88.5909669 107.8857228  68.4188117  88.9055818 108.7367371
  69.6768424  88.6691089 107.9284561  67.1684413  94.7499893 109.5350182
  66.6405775  94.0152652 109.2223419  66.6671916  95.5274569 109.2890150
  61.9003141  85.4119559 111.8956793  62.4746893  85.1894740 111.1629986
  62.4874123  85.4808253 112.6485394  62.2272728  87.4424020 105.9152678
  61.3910040  87.7798706 106.2361953  62.0877498  87.3073000 104.9779815
  64.2025809  82.2860808 110.6231862  63.5490221  81.9709825 109.9988477
  64.1606283  81.6636548 111.3491685  65.3137013  92.5680103 102.5385155
  64.4064075  92.3369356 102.7376304  65.8108045  91.7717722 102.7259136
  68.2205092 101.2777610 105.4581841  67.5466791 101.5809307 106.0666799
  68.6070914 102.0806690 105.1087298  67.4363549  88.7742741 114.9479510
  66.5186110  88.9957688 114.7901198  67.8523693  88.8489052 114.0891217
  68.2198597  90.1734157 110.0782190  68.9670416  90.6855554 109.7689312
  68.4890186  89.8518210 110.9386584  66.4925247  92.6692698 107.0609145
  65.5836466  92.3851731 107.1581614  66.5220331  93.0891776 106.2012452
  70.6677434  87.2091273 112.0600980  69.9300191  86.6968659 112.3911222
  70.9204207  86.7691655 111.2484257  70.7689061  79.9867525 112.6542749
  71.0747938  79.1264889 112.3668664  71.4941666  80.5785145 112.4541743
  57.0613417  90.3898212 111.0424347  56.8637817  89.7967573 110.3175413
  56.5060081  90.0850422 111.7600286  65.0410141  90.2821318 113.1618940
  65.0958751  89.3295155 113.0861417  64.2301343  90.4380757 113.6460238
  66.1901335  94.2101441 104.3997223  65.7520765  93.4937300 103.9402861
  66.9311776  94.4377556 103.8382315  62.9802501  88.8998378 110.9209319
  62.1670366  89.1992549 111.3274511  63.4761495  88.5054067 111.6383801
  74.3074450  92.4858638 110.4573542  74.1692348  92.6760234 109.5294731
  73.9510668  93.2478021 110.9141593  62.4716576  86.4716734 116.5370554
  63.1115955  86.3305493 115.8393517  61.6394106  86.1851247 116.1609156
  63.2476880  95.7719164 112.6505546  64.0417478  95.2769484 112.4488121
  62.5368572  95.2437027 112.2873252  59.5559643  89.9162246 108.7265299
  58.6257231  89.8546701 108.9435261  59.6517115  89.3938198 107.9301940
  59.4745192  86.4417059 111.3143541  59.7352009  87.3562392 111.2052701
  60.2962364  85.9741501 111.4640153  60.9470117  87.8554816 118.4842365
  61.6193171  87.6472178 117.8355014  60.1199904  87.6576902 118.0447597
  66.4196308 101.4457282 107.6728920  66.5948063 100.9745326 108.4874543
  65.7329096 102.0723049 107.9010181  70.3112562  93.0685823 103.9929281
  69.6941733  92.3432651 103.8962333  69.8429051  93.8295183 103.6496355
  62.1011108  87.2871247 103.1150585  61.2240575  87.1660048 102.7512832
  62.5768861  86.4957326 102.8629474  53.6213248  92.0748407 113.2092092
  54.3084288  91.7610137 112.6213108  53.4661377  92.9789772 112.9359344
  58.4247971  86.9638604 117.6377116  58.3406159  86.3564273 116.9027526
  57.6030677  87.4547622 117.6386612  68.5971684  85.4492167 113.0047311
  69.0940384  84.6962129 112.6848381  67.8258666  85.4856484 112.4390520
  69.6801465  94.2063854 110.5785734  68.7457744  94.3265317 110.4090439
  69.8578134  93.3036321 110.3145744  65.1806653  87.5909550 112.7318996
  64.8104441  87.0380591 113.4199901  65.6765746  86.9867684 112.1793996
  73.0674016  90.0481174 111.1135769  73.5334469  90.8809165 111.0396071
  73.5181517  89.5826155 111.8181027  71.1350248  96.3924995 108.1121921
  71.4110091  96.2781590 109.0215795  70.2654746  95.9942480 108.0734094
  71.0390679  82.4161761 115.1526670  70.1253759  82.6465987 115.3208877
  71.4683781  82.5000205 116.0040702  68.1046477  99.5679531 109.0169783
  68.6334243  99.0571985 108.4039945  68.3674697  99.2522061 109.8815316
  53.1981225  90.1549000 115.4809559  53.2365324  89.6212591 116.2746677
  52.6921517  89.6284206 114.8620537  60.5771987  85.0013541 118.9772102
  60.6413313  85.8628372 118.5649499  60.5139107  84.3887543 118.2444460
  56.8289802  88.8813103 108.5563491  57.1243243  87.9723781 108.5030544
  55.9277838  88.8600842 108.2344493  60.3584049  86.9569099 114.5391039
  59.6370635  87.5705067 114.3998513  61.1477305  87.4926864 114.4607685
  58.5577644  86.5627200 108.6802816  58.2290350  85.6824579 108.4977922
  58.9117014  86.5074869 109.5679205  61.6719467  86.8500170 109.0478294
  62.0115539  87.3786091 108.3256902  62.1191587  87.1880576 109.8236860
  64.3662908  85.2337221 118.4981362  64.0259728  84.4345034 118.9002042
  63.6601914  85.5338932 117.9258195  65.0179379  82.3186533 116.9508685
  65.8405449  81.8447011 116.8287575  65.2617443  83.0977017 117.4507371
  63.6587614  85.3474792 107.2471586  64.3795976  85.7256044 106.7435303
  63.0352918  86.0663668 107.3506564  67.8018737  86.0519941 108.1829919
  68.0182351  86.9344578 107.8818747  67.3212804  85.6606154 107.4535561
  62.5417958  89.0105654 114.7600663  62.3962539  89.3245957 115.6524945
  62.0643162  89.6290554 114.2071562  64.4014341  86.0008202 114.8081553
  64.3875910  85.1049295 114.4713851  65.1186769  86.0078866 115.4419839
  66.2540472  86.4345542 116.8534680  65.9958250  87.3562613 116.8519011
  65.7225512  86.0375977 117.5435144  57.0163620  91.5510998 117.6988324
  56.4717088  92.3270806 117.8308599  57.8942970  91.8981803 117.5407446
  63.8051237  84.8822582 110.0769123  63.9267148  83.9539228 110.2760010
  63.5153279  84.8961268 109.1647438  66.6742427  82.5677493 113.2135843
  66.6964124  82.6316826 112.2587822  67.0910486  81.7282001 113.4076349
  72.1861833  98.8563094 106.7321664  72.8812738  99.4769786 106.9508979
  72.5284983  98.0058445 107.0074042  74.0853256  96.3062799 108.2608995
  74.6104580  96.6450072 107.5358315  73.9975609  95.3709814 108.0772129
  58.2486256  98.5646323 112.6228876  59.0744276  98.2650095 112.2427519
  57.8980308  97.7953946 113.0718665  56.4494861  96.4832650 113.5817810
  55.6126769  96.0554824 113.4001811  56.4218506  96.6765093 114.5188601
  62.7781296  96.4676715 108.1685010  62.9269416  97.1512179 107.5151683
  63.5847739  96.4481805 108.6834466  60.5333929  92.4941892 109.1746079
  60.2879971  91.5904222 109.3726289  60.7029844  92.4959043 108.2325557
  59.8029577  88.2270250 106.6732240  59.1098821  88.3014605 106.0172276
  59.5581328  87.4630594 107.1953757  68.4743233  79.7865851 114.0771731
  68.7544987  79.1189040 114.7032158  69.2593840  79.9794947 113.5646395
  66.2776702  98.9624845 105.6396758  65.7050669  99.5815032 105.1867229
  66.8509495  99.5124207 106.1736679  69.4973961  99.2461995 106.7705340
  70.4304634  99.1807557 106.9738215  69.4097174 100.0818262 106.3119872
  72.1261978  98.5627866 103.7309287  72.0475610  98.2287729 104.6245045
  72.9471645  99.0549634 103.7300760  66.6623500  90.2985658 102.9812810
  67.6082605  90.1691866 103.0501228  66.2837745  89.5600320 103.4582238
  72.6345385  81.9641664 112.9439702  72.4370206  81.6556752 113.8283034
  73.2445090  82.6903303 113.0737632  64.8466417  88.2235634 102.9167695
  63.9397873  87.9268747 102.9930409  65.1242398  87.9265452 102.0501981
  55.7644358  89.5441998 113.3666742  55.4447142  88.6907306 113.0741116
  55.2177786  89.7590576 114.1224709  66.4628483  82.7672524 109.0711937
  65.6529211  82.4219609 109.4467183  67.1512900  82.4580068 109.6599548
  68.3919031  81.8450571 110.6936233  68.9450070  82.2646024 111.3526256
  68.6289118  80.9186319 110.7359189  63.6165202  85.0822570 103.0579674
  64.4784366  85.4077468 103.3175492  63.8015546  84.2954065 102.5452740
  55.6332618  93.1644909 115.3359863  54.9396089  92.7498862 114.8229818
  56.3805609  93.2065446 114.7393282  71.7697838  83.9551096 110.2014897
  71.1896507  84.6135900 109.8192950  71.5033771  83.1328441 109.7902315
  70.2201405  83.3556154 112.4036218  70.7201183  83.4672688 111.5950537
  70.8637013  83.0517207 113.0437026  57.5469360  93.0963163 113.2125878
  57.5240048  93.1950850 112.2607761  57.8569997  93.9428314 113.5343044
  70.5522716  86.1151186 109.2571246  69.6648571  86.4000837 109.0391440
  70.9676705  85.9544950 108.4098523  73.9037252  86.1397707 112.9725585
  74.6797643  86.6294160 113.2450202  73.1785387  86.5655762 113.4297454
  69.6965930  95.8795861 103.3519266  70.4001780  96.0845864 103.9676921
  68.9728579  96.4472623 103.6168349  70.5263740  91.6305722 109.4721536
  70.4698941  92.0874274 108.6329168  71.0792083  90.8696407 109.2944379
  74.3368546  87.4195454 110.2971655  74.0805480  87.0192090 111.1279863
  73.7121414  88.1339248 110.1721795  71.6052627  96.3178390 105.4017726
  72.4398231  95.8859589 105.2195201  71.4436970  96.1460404 106.3294620
  71.2598519  92.8210504 106.7674065  71.2047323  92.6554775 105.8262509
  70.6344575  93.5286536 106.9236255  56.0491034  88.0578568 120.5935487
  56.6949898  87.5477522 121.0822712  55.8408185  88.7947250 121.1678913
  64.5694645  82.3218613 106.3459383  64.5573315  83.2660453 106.5027654
  65.4618067  82.1388758 106.0518845  68.3846764  78.9161389 110.6005320
  67.6179160  78.3619876 110.7462003  68.7957469  78.9883258 111.4619472
  73.0666483 102.7715938 105.9152678  72.2303795 103.1090624 106.2361953
  72.9271252 102.6364917 104.9779815  72.9404863 102.6163165 103.1150585
  72.0634329 102.4951966 102.7512832  73.4162616 101.8249243 102.8629474
  70.6423331 103.5562168 106.6732240  69.9492576 103.6306523 106.0172276
  70.3975083 102.7922511 107.1953757  75.6860172 103.5527552 102.9167695
  74.7791627 103.2560665 102.9930409  75.9636153 103.2557370 102.0501981
  74.4558956 100.4114487 103.0579674  75.3178120 100.7369386 103.3175492
  74.6409300  99.6245983 102.5452740  75.4088399  97.6510530 106.3459383
  75.3967069  98.5952370 106.5027654  76.3011821  97.4680676 106.0518845
  24.8630076  16.9672062  92.1827147  24.1891774  17.2703759  92.7912105
  25.2495898  17.7701142  91.8332604  28.8286816  14.5457545  93.4566971
  29.5237721  15.1664238  93.6754285  29.1709967  13.6952897  93.7319348
  22.9201685  14.6519297  92.3642064  22.3475652  15.2709484  91.9112536
  23.4934479  15.2018659  92.8981986  26.1398945  14.9356447  93.4950646
  27.0729618  14.8702009  93.6983522  26.0522157  15.7712714  93.0365179
  28.7686961  14.2522318  90.4554594  28.6900593  13.9182181  91.3490352
  29.5896628  14.7444085  90.4546066  26.3390913  11.5690313  90.0764572
  27.0426763  11.7740315  90.6922228  25.6153562  12.1367075  90.3413656
  28.2477611  12.0072842  92.1263032  29.0823214  11.5754041  91.9440507
  28.0861953  11.8354856  93.0539927  36.8761886  22.5242493 102.2218209
  37.5140296  22.4049241 101.5181549  36.7582728  23.4723337 102.2806161
  29.5438408  24.3305398  98.1476625  28.9803273  24.2395335  97.3792913
  29.4290803  23.5105302  98.6279117  35.1237966  27.9976365  93.4591090
  34.4725946  28.5830446  93.0725103  35.9182329  28.5282560  93.5186127
  29.0493593  25.0865503  93.8578224  29.8224469  24.5394490  93.7191100
  29.4018992  25.9509752  94.0692685  31.3859871  21.2458169  91.4896674
  31.6385392  20.7239690  90.7280137  30.4484430  21.0824314  91.5923358
  36.4303154  20.2493947  99.2971417  37.2166243  19.8313370  98.9461834
  36.6941858  21.1540039  99.4653066  36.6013231  25.6866797  93.9960074
  35.9659064  25.7601424  94.7080979  36.2710638  26.2760396  93.3179153
  41.8311581  20.1869180 100.2004396  42.5636753  19.6168397 100.4342225
  41.0750937  19.7990781 100.6410901  31.1056160  23.1486275  93.6921049
  30.9892418  22.4731178  94.3602133  31.2158420  22.6618649  92.8753202
  33.4487701  22.6096422  97.3967738  33.0845908  22.0827043  98.1080660
  34.3054817  22.2194891  97.2234224  33.0893188  17.6386322  92.3929087
  33.2567590  18.5066558  92.7599558  32.8990357  17.8013603  91.4690376
  33.0682409  20.0943979  93.3775753  32.9482034  20.5401030  94.2161234
  32.3734997  20.4429297  92.8189292  30.8289301  32.8647621  97.0265885
  30.7513331  33.8155446  97.1054365  30.2250944  32.5193493  97.6840811
  38.7667475  20.5665452  94.2056088  39.6785331  20.7992839  94.0303785
  38.2577122  21.1502496  93.6431166  37.3737057  25.5491271 101.5969669
  36.7445920  25.7136985 100.8945737  36.9862719  25.9632880 102.3680633
  41.2526289  26.4845709  98.9514033  40.5677327  26.8644610  98.4011066
  41.3370138  27.0941035  99.6845980  32.9265019  25.2865679  98.8619754
  33.3903365  25.5653382  98.0724377  32.6621817  24.3849123  98.6792845
  31.8633905  21.4088831  95.6709319  32.5657949  21.8609875  96.1383246
  31.5314534  20.7672650  96.2989212  39.6223049  27.0077623 103.7231734
  40.4440492  26.6057810 103.4414415  39.6185452  26.9045857 104.6747849
  47.7129042  23.3516371 100.0716705  46.9592750  22.7823769  99.9160710
  47.8476583  23.3179036 101.0187340  33.1027670  28.2229774  95.7471424
  32.9673345  29.0681309  96.1756272  33.6437482  28.4249051  94.9837358
  26.5557067  25.7405212  96.3199350  27.0681588  26.5348462  96.4704914
  27.2079780  25.0431502  96.2532951  28.3651952  28.8570968  98.4022103
  28.5418580  29.7788933  98.2143087  29.1608785  28.5429387  98.8316482
  29.4883267  30.3749142 104.4032445  30.0390692  30.2466205 103.6309439
  28.6494743  30.6744031 104.0527338  24.5205984  24.0693866  97.0958920
  25.3581206  24.4790874  96.8792628  24.6984252  23.1293308  97.0659114
  36.4170416  21.7368947  92.7842753  35.9017040  22.5073551  93.0231140
  36.1447725  21.0634083  93.4075814  34.0017527  16.5818647  97.8427991
  33.1459123  16.1925498  97.6633630  34.4144479  16.6610608  96.9827777
  41.3904690  24.4901301  94.7195926  40.6134133  24.1512461  94.2751089
  42.0696171  24.4953925  94.0450892  36.2056719  19.6096039  94.6102534
  35.9006855  19.9242188  95.4612677  37.1587161  19.6877459  94.6529867
  34.6503151  25.7686262  96.2595488  34.1224513  25.0339022  95.9468726
  34.1490654  26.5460938  96.0135456  39.6295997  23.9635283 101.3762534
  38.9719672  24.6534544 101.4642663  40.4336396  24.3531715 101.7196521
  38.4401456  22.3179655  99.4266476  38.9533338  22.9509647  99.9288186
  39.0902680  21.7180851  99.0609836  29.7091466  18.4610389  92.6397985
  28.8728778  18.7985076  92.9607260  29.5696235  18.3259369  91.7025122
  32.7955751  23.5866472  89.2630461  31.8882813  23.3555726  89.4621610
  33.2926783  22.7904092  89.4504443  35.7023830  32.2963980  92.1827147
  35.0285529  32.5995676  92.7912105  36.0889652  33.0993060  91.8332604
  35.7017335  21.1920527  96.8027497  36.4489154  21.7041924  96.4934619
  35.9708924  20.8704579  97.6631891  33.9743985  23.6879067  93.7854451
  33.0655204  23.4038100  93.8826921  34.0039069  24.1078146  92.9257758
  39.2063252  27.2985657  97.5545619  38.7525579  26.4576567  97.6110809
  38.5757219  27.9347055  97.8920399  38.1496172  18.2277643  98.7846286
  37.4118929  17.7155029  99.1156529  38.4022945  17.7878024  97.9729563
  37.6496191  29.1362153  98.4895437  37.9419166  29.6967211  97.7707803
  38.1594812  29.4290714  99.2448596  32.5228879  21.3007688  99.8864247
  32.5777489  20.3481524  99.8106723  31.7120081  21.4567127 100.3705545
  33.6720073  25.2287811  91.1242530  33.2339502  24.5123670  90.6648167
  34.4130513  25.4563926  90.5627621  30.4621239  19.9184748  97.6454626
  29.6489104  20.2178918  98.0519818  30.9580233  19.5240436  98.3629108
  32.6129817  29.9142505  99.5788890  32.5705995  30.1403351  98.6497422
  33.5292515  29.6805879  99.7274691  41.7893187  23.5045008  97.1818848
  41.6511086  23.6946604  96.2540038  41.4329406  24.2664391  97.6386900
  41.8162567  25.5721535 102.1930120  42.2499074  25.4796824 103.0413174
  42.5294148  25.5479035 101.5550136  30.7295617  26.7905534  99.3750853
  31.5236216  26.2955854  99.1733428  30.0187310  26.2623397  99.0118558
  35.5490462  29.1723629 103.7263221  35.6027484  29.7414565 104.4940936
  34.6805243  29.3425514 103.3617258  27.0378381  20.9348615  95.4510606
  26.1075969  20.8733071  95.6680568  27.1335853  20.4124568  94.6547247
  42.6778116  25.6145236 104.7263005  42.8714007  26.5191046 104.9722280
  42.5778735  25.1552655 105.5601590  33.3066893  27.3634556 103.0548690
  33.1677979  26.9953340 103.9274628  32.5181490  27.8782195 102.8832648
  33.9015045  32.4643652  94.3974227  34.0766801  31.9931695  95.2119849
  33.2147833  33.0909418  94.6255487  34.8572108  26.7416158 100.4437528
  34.5221941  26.7016928 101.3395178  34.3576054  26.0760874  99.9707938
  37.7931300  24.0872193  90.7174587  37.1760471  23.3619021  90.6207640
  37.3247789  24.8481553  90.3741662  28.4676131  35.6133015 101.1714087
  28.7072729  36.2451539 101.8493105  27.6245327  35.2621055 101.4579446
  29.5829846  18.3057617  89.8395892  28.7059312  18.1846418  89.4758138
  30.0587599  17.5143695  89.5874780  32.9803992  31.4212137 103.5755591
  32.9074164  32.2267109 104.0874895  32.5381386  31.6204103 102.7503612
  32.7693772  30.6583907  97.0858412  31.9861294  31.2005587  97.1796637
  33.4686517  31.1757887  97.4852653  43.9320180  22.1718902 101.3710909
  43.9210056  23.0543618 101.0004842  43.0637559  21.8190453 101.1765446
  35.4402676  31.3198971 105.7313749  36.1530648  31.9546436 105.6589651
  34.9492705  31.4162837 104.9153751  37.1620203  25.2250224  97.3031041
  36.2276482  25.3451686  97.1335745  37.3396871  24.3222691  97.0391051
  40.5492754  21.0667543  97.8381075  41.0153206  21.8995535  97.7641378
  41.0000255  20.6012525  98.5426334  38.6168985  27.4111364  94.8367227
  38.8928829  27.2967959  95.7461101  37.7473484  27.0128849  94.7979400
  35.2523049  31.6597715  98.4800041  35.4345444  30.8419371  98.9427793
  36.0756035  31.8765408  98.0424931  35.5865215  30.5865900  95.7415089
  36.1152981  30.0758355  95.1285251  35.8493434  30.2708431  96.6060622
  28.9420963  31.6381017  98.5012865  28.2731338  32.1227145  98.0176905
  28.8033833  31.8850238  99.4156244  33.0826231  33.6724761 105.0995524
  33.6344539  33.8356382 105.8644609  33.4232425  34.2629198 104.4275548
  24.3108540  19.8999472  95.2808797  24.6061981  18.9910151  95.2275851
  23.4096576  19.8787212  94.9589800  36.2194619  31.6206736 102.0859206
  36.0945758  30.8196476 101.5770151  36.8773710  32.1152930 101.5973176
  38.2829527  29.4215756 103.7138756  37.3359863  29.3021107 103.6417083
  38.6312300  28.5338254 103.7965017  35.2875960  29.2168472  99.9143108
  35.1400923  28.2885180 100.0950678  36.1129454  29.2388563  99.4300183
  29.1538205  17.8686540  95.7723600  29.4934277  18.3972461  95.0502209
  29.6010325  18.2066946  96.5482167  38.8910082  30.0397031 101.0007981
  39.8156630  29.8339893 100.8632432  38.7225386  29.7913432 101.9097322
  31.1406352  16.3661161  93.9716893  31.8614714  16.7442414  93.4680610
  30.5171656  17.0850038  94.0751871  35.2837475  17.0706310  94.9075225
  35.5001089  17.9530948  94.6064053  34.8031542  16.6792524  94.1780867
  38.6805398  30.5582699  96.3570072  38.8542276  29.9929121  95.6043925
  39.1734290  31.3583594  96.1749562  44.5344790  23.3219122  97.9760372
  44.9775936  22.5726447  97.5779495  43.6571300  23.3129258  97.5934104
  39.6680571  29.8749463  93.4566971  40.3631476  30.4956156  93.6754285
  40.0103721  29.0244814  93.7319348  41.5671994  27.3249169  94.9854301
  42.0923318  27.6636441  94.2603621  41.4794347  26.3896184  94.8017436
  33.2512655  33.3921152  99.3449555  32.8117645  32.8997531 100.0382411
  34.0020772  32.8494120  99.1041630  25.7304994  29.5832693  99.3474183
  26.5563014  29.2836465  98.9672826  25.3799046  28.8140315  99.7963971
  30.6986527  28.9359161 101.4171856  30.0766536  28.2729866 101.1174084
  31.3691394  28.9620293 100.7345504  30.2600034  27.4863084  94.8930317
  30.4088154  28.1698549  94.2396989  31.0666477  27.4668174  95.4079772
  44.0777654  24.7924360 100.3682820  44.9124546  25.2314164 100.5320380
  44.2136783  24.3163013  99.5491065  28.0152667  23.5128262  95.8991386
  27.7698709  22.6090592  96.0971596  28.1848581  23.5145412  94.9570864
  27.2848314  19.2456620  93.3977547  26.5917559  19.3200975  92.7417583
  27.0400066  18.4816963  93.9199064  33.7595439  29.9811215  92.3642064
  33.1869406  30.6001402  91.9112536  34.3328233  30.5310576  92.8981986
  36.9792699  30.2648365  93.4950646  37.9123372  30.1993927  93.6983522
  36.8915912  31.1004632  93.0365179  39.6080716  29.5814235  90.4554594
  39.5294347  29.2474099  91.3490352  40.4290383  30.0736003  90.4546066
  42.3058907  22.4475975 103.6630913  42.2735227  21.5091975 103.8490596
  42.9159531  22.5260011 102.9296737  34.1442238  21.3172028  89.7058117
  35.0901343  21.1878236  89.7746535  33.7656483  20.5786689  90.1827545
  48.1235457  23.5091981 102.8036949  48.8538845  23.2477270 103.3644653
  47.5142402  22.7720703 102.8439017  46.2050754  21.6499844 103.4011401
  45.4783918  21.5155809 102.7927892  45.7898041  21.9576673 104.2068119
  32.3285155  19.2422004  89.6413002  31.4216610  18.9455117  89.7175715
  32.6061136  18.9451822  88.7747288  33.9447221  13.7858894  95.7957243
  33.1347949  13.4405979  96.1712489  34.6331638  13.4766437  96.3844855
  31.0983940  16.1008939  89.7824981  31.9603104  16.4263837  90.0420798
  31.2834284  15.3140435  89.2698047  39.2516576  14.9737466  96.9260204
  38.6715245  15.6322270  96.5438256  38.9852509  14.1514810  96.5147622
  38.0341454  17.1337556  95.9816552  37.1467309  17.4187207  95.7636747
  38.4495443  16.9731319  95.1343829  41.3855990  17.1584077  99.6970892
  42.1616380  17.6480529  99.9695508  40.6604124  17.5842131 100.1542761
  43.8228549  17.8711696 100.7544832  44.4173040  17.6307432 100.0438140
  43.8955133  17.1518827 101.3818368  26.0425705  31.7145307 101.0687997
  25.9080173  30.9545708 100.5025995  25.6257767  32.4386207 100.6016786
  37.1784668  26.8982231  90.0764572  37.8820518  27.1032233  90.6922228
  36.4547316  27.4658993  90.3413656  38.0082478  22.6492092  96.1966842
  37.9517679  23.1060643  95.3574475  38.5610820  21.8882777  96.0189685
  41.8187284  18.4381824  97.0216962  41.5624218  18.0378459  97.8525170
  41.1940152  19.1525618  96.8967101  46.1299622  21.1777897  99.5288253
  45.5699180  21.2471086 100.3019815  45.5243125  21.0018882  98.8087750
  29.1994830  32.6114624 101.2806440  29.0827215  33.5560057 101.1785130
  28.3787277  32.3088186 101.6692239  39.0871365  27.3364760  92.1263032
  39.9216969  26.9045958  91.9440507  38.9255708  27.1646774  93.0539927
  38.7417257  23.8396873  93.4919372  38.6866061  23.6741145  92.5507816
  38.1163312  24.5472906  93.6481561  32.0513383  13.3404982  93.0704690
  32.0392052  14.2846822  93.2272961  32.9436805  13.1575128  92.7764151
  30.2249345  33.2642886 104.4962368  31.1276591  33.2966496 104.8128863
  29.9986715  32.3343337 104.5108704  31.9802947  32.0173873 101.1572447
  31.0298578  32.0175734 101.0436819  32.2835433  31.2706607 100.6408481
  47.7155640  37.8534411 102.2218209  48.3534050  37.7341158 101.5181549
  47.5976483  38.8015255 102.2806161  44.5245346  37.8061839 102.1579734
  44.1863858  37.6902904 101.2700269  45.3935115  37.4053004 102.1380740
  40.3832162  39.6597315  98.1476625  39.8197027  39.5687252  97.3792913
  40.2684557  38.8397220  98.6279117  45.0065129  38.9596691 108.1165939
  44.9953770  38.5649489 107.2446443  45.1685769  38.2262763 108.7099711
  37.9296594  41.1548507 100.9860845  38.7217886  40.8139332 100.5707145
  38.1693244  41.2643482 101.9062999  45.9631721  43.3268283  93.4591090
  45.3119701  43.9122364  93.0725103  46.7576084  43.8574478  93.5186127
  39.8887348  40.4157420  93.8578224  40.6618224  39.8686407  93.7191100
  40.2412747  41.2801670  94.0692685  41.7272390  41.7433803 107.0645123
  41.4362256  42.6479433 106.9491790  42.3629375  41.7850330 107.7789193
  42.6528597  39.1210651 103.6546483  43.2492170  38.8966674 102.9403446
  42.7103569  38.3795397 104.2571931  42.2253626  36.5750086  91.4896674
  42.4779146  36.0531608  90.7280137  41.2878185  36.4116232  91.5923358
  47.2696909  35.5785865  99.2971417  48.0559998  35.1605288  98.9461834
  47.5335613  36.4831957  99.4653066  47.4406986  41.0158715  93.9960074
  46.8052819  41.0893342  94.7080979  47.1104392  41.6052314  93.3179153
  52.6705336  35.5161098 100.2004396  53.4030508  34.9460315 100.4342225
  51.9144691  35.1282698 100.6410901  41.9449914  38.4778192  93.6921049
  41.8286173  37.8023096  94.3602133  42.0552174  37.9910566  92.8753202
  44.2881455  37.9388340  97.3967738  43.9239663  37.4118960  98.1080660
  45.1448571  37.5486809  97.2234224  50.1930756  29.2282672 104.6599004
  49.8614081  30.0978083 104.4360219  49.5976369  28.9118956 105.3393035
  43.9286942  32.9678239  92.3929087  44.0961345  33.8358476  92.7599558
  43.7384111  33.1305521  91.4690376  46.6862276  41.4295218 104.0594917
  46.3862999  42.3320257 103.9510724  46.3413335  41.1627401 104.9116070
  40.1374757  37.8809015 100.0931621  39.2125254  37.7485229 100.3009313
  40.3859170  38.6603234 100.5901564  50.0859419  33.9477758 101.7392354
  49.1776297  33.8793167 101.4451115  50.0347015  34.4249703 102.5674180
  43.9076163  35.4235897  93.3775753  43.7875788  35.8692947  94.2161234
  43.2128752  35.7721214  92.8189292  37.4983568  37.5242288 100.9275411
  37.6275949  37.7776767 101.8414822  36.8181019  38.1169996 100.6080066
  44.1600285  35.3667404 109.6827252  43.3833619  35.9261324 109.6730116
  44.7990848  35.8524187 110.2042122  51.9521066  32.1494197 103.5170228
  51.3095446  32.4426730 102.8710023  51.4475994  32.0347117 104.3223425
  49.6061229  35.8957370  94.2056088  50.5179086  36.1284757  94.0303785
  49.0970877  36.4794414  93.6431166  42.4146657  38.1752857 109.2445219
  43.1561342  38.7137901 108.9680042  41.7083643  38.8019146 109.4016770
  47.8901997  40.3181998 107.8417380  48.2985353  39.8764408 107.0972012
  47.1679259  39.7434625 108.0951573  44.2433067  35.2554604 105.2150937
  45.0894262  35.6794018 105.3585586  44.1831705  34.5988229 105.9089500
  48.2130812  40.8783188 101.5969669  47.5839674  41.0428902 100.8945737
  47.8256474  41.2924798 102.3680633  52.0920044  41.8137626  98.9514033
  51.4071082  42.1936528  98.4011066  52.1763893  42.4232953  99.6845980
  47.3932512  32.9158973 106.8732111  47.1493444  33.6701033 106.3366386
  47.6692443  33.2944320 107.7079358  49.3470975  39.4597585 105.5509376
  49.5587870  40.1029345 104.8743757  49.3000723  38.6259902 105.0831306
  46.9497204  32.0715406 102.4545948  46.0881683  32.3696659 102.7462686
  46.9759639  32.2885805 101.5226981  43.7658774  40.6157596  98.8619754
  44.2297119  40.8945299  98.0724377  43.5015572  39.7141041  98.6792845
  40.6582855  40.1629078 101.7999517  41.2284212  40.5916346 101.1617002
  41.2490967  39.8811663 102.4983703  42.7027660  36.7380749  95.6709319
  43.4051703  37.1901792  96.1383246  42.3708288  36.0964568  96.2989212
  41.1508021  35.3292505 110.0460529  40.5206682  36.0108786 110.2795925
  41.0444109  35.2175587 109.1013667  36.4452994  34.9964301 100.9726453
  35.6552048  35.2521830 100.4966563  36.9364241  35.8112639 101.0778493
  50.4616803  42.3369541 103.7231734  51.2834247  41.9349728 103.4414415
  50.4579206  42.2337775 104.6747849  38.3967739  35.3608881  97.9309929
  37.5998902  35.4727575  98.4493425  38.1693331  35.6995533  97.0650820
  44.2273407  41.8853584 105.8792444  44.2917839  42.3473991 106.7150616
  43.5184331  41.2550949 106.0074754  34.7290697  35.2494792 103.4041444
  34.9798735  36.1341802 103.6699020  35.2650245  35.0699393 102.6316535
  58.5522796  38.6808289 100.0716705  57.7986505  38.1115687  99.9160710
  58.6870337  38.6470954 101.0187340  43.9421424  43.5521691  95.7471424
  43.8067099  44.3973227  96.1756272  44.4831237  43.7540969  94.9837358
  37.3950822  41.0697129  96.3199350  37.9075342  41.8640380  96.4704914
  38.0473535  40.3723420  96.2532951  39.2045706  44.1862886  98.4022103
  39.3812335  45.1080850  98.2143087  40.0002540  43.8721305  98.8316482
  43.3456725  31.0471150 110.0006036  44.0866438  31.6478303 109.9210499
  43.5774648  30.3048788 109.4424079  38.4898063  36.2327518 108.2784266
  38.3751578  35.3312775 108.5791365  37.6342581  36.4791214 107.9269082
  45.5689901  44.1745258 109.8771767  45.1253755  43.3881636 109.5592671
  46.2307114  44.3624408 109.2115657  40.3277022  45.7041060 104.4032445
  40.8784447  45.5758123 103.6309439  39.4888498  46.0035949 104.0527338
  47.6671139  44.4548058 107.9053168  47.6489614  45.2756939 107.4133437
  48.5891059  44.3302133 108.1303309  44.1244193  41.9692187 108.7476676
  44.6572530  41.2080476 108.5175984  43.5958274  41.6765839 109.4900831
  47.2913888  27.0752253 104.2770318  46.9478157  27.9653895 104.2009428
  47.6592850  26.8853911 103.4139903  35.3599738  39.3985784  97.0958920
  36.1974960  39.8082792  96.8792628  35.5378006  38.4585226  97.0659114
  47.2564171  37.0660864  92.7842753  46.7410794  37.8365469  93.0231140
  46.9841479  36.3926001  93.4075814  44.8411282  31.9110565  97.8427991
  43.9852878  31.5217416  97.6633630  45.2538233  31.9902526  96.9827777
  46.3710428  29.4456908 102.2419551  45.8675224  29.4087044 101.4287356
  46.6641035  30.3549651 102.3016208  42.6153314  29.5295638 101.2485733
  43.4806311  29.3338447 100.8891622  42.6830823  29.3005990 102.1755090
  52.2298445  39.8193219  94.7195926  51.4527887  39.4804379  94.2751089
  52.9089926  39.8245842  94.0450892  47.0450474  34.9387956  94.6102534
  46.7400609  35.2534106  95.4612677  47.9980916  35.0169376  94.6529867
  45.4896906  41.0978180  96.2595488  44.9618267  40.3630939  95.9468726
  44.9884408  41.8752856  96.0135456  50.4689752  39.2927200 101.3762534
  49.8113426  39.9826462 101.4642663  51.2730151  39.6823632 101.7196521
  40.2215633  31.7597846  98.6202100  40.7959385  31.5373028  97.8875293
  40.8086616  31.8286541  99.3730701  49.2795210  37.6471573  99.4266476
  49.7927092  38.2801565  99.9288186  49.9296434  37.0472768  99.0609836
  40.5485220  33.7902307  92.6397985  39.7122533  34.1276994  92.9607260
  40.4089990  33.6551287  91.7025122  42.5238301  28.6339095  97.3477169
  41.8702713  28.3188112  96.7233784  42.4818775  28.0114835  98.0736992
  43.6349506  38.9158390  89.2630461  42.7276568  38.6847644  89.4621610
  44.1320538  38.1196009  89.4504443  45.7576041  35.1221029 101.6724817
  44.8398603  35.3435976 101.5146505  46.1736185  35.1967339 100.8136524
  46.5411089  36.5212444  96.8027497  47.2882908  37.0333841  96.4934619
  46.8102679  36.1996497  97.6631891  44.8137739  39.0170985  93.7854451
  43.9048958  38.7330018  93.8826921  44.8432823  39.4370064  92.9257758
  50.0457007  42.6277574  97.5545619  49.5919334  41.7868484  97.6110809
  49.4150973  43.2638973  97.8920399  48.9889926  33.5569560  98.7846286
  48.2512683  33.0446947  99.1156529  49.2416700  33.1169942  97.9729563
  48.4889946  44.4654071  98.4895437  48.7812920  45.0259128  97.7707803
  48.9988566  44.7582632  99.2448596  49.0901554  26.3345812  99.3788056
  49.3960430  25.4743176  99.0913971  49.8154158  26.9263433  99.1787049
  35.3825910  36.7376499  97.7669653  35.1850309  36.1445860  97.0420720
  34.8272574  36.4328709  98.4845592  43.3622633  36.6299606  99.8864247
  43.4171243  35.6773442  99.8106723  42.5513835  36.7859045 100.3705545
  44.5113827  40.5579729  91.1242530  44.0733257  39.8415588  90.6648167
  45.2524268  40.7855843  90.5627621  41.3014993  35.2476665  97.6454626
  40.4882859  35.5470836  98.0519818  41.7973987  34.8532354  98.3629108
  43.4523571  45.2434422  99.5788890  43.4099750  45.4695269  98.6497422
  44.3686270  45.0097797  99.7274691  46.8989205  35.7118490 106.4769519
  47.2538593  35.9389963 107.3363985  47.5461336  36.0436867 105.8546775
  52.6286942  38.8336926  97.1818848  52.4904840  39.0238522  96.2540038
  52.2723161  39.5956308  97.6386900  40.7929068  32.8195021 103.2615860
  41.4328447  32.6783780 102.5638824  39.9606598  32.5329534 102.8854462
  52.6556321  40.9013453 102.1930120  53.0892828  40.8088742 103.0413174
  53.3687902  40.8770953 101.5550136  41.5689372  42.1197451  99.3750853
  42.3629970  41.6247771  99.1733428  40.8581064  41.5915314  99.0118558
  46.3884216  44.5015547 103.7263221  46.4421239  45.0706483 104.4940936
  45.5198998  44.6717432 103.3617258  37.8772135  36.2640533  95.4510606
  36.9469723  36.2024988  95.6680568  37.9729607  35.7416486  94.6547247
  37.7957684  32.7895346  98.0388847  38.0564502  33.7040679  97.9298008
  38.6174857  32.3219788  98.1885460  39.2682610  34.2033103 105.2087672
  39.9405663  33.9950465 104.5600321  38.4412396  34.0055189 104.7692904
  53.5171871  40.9437153 104.7263005  53.7107761  41.8482964 104.9722280
  53.4172489  40.4844572 105.5601590  45.1708182  30.8295044 107.2253333
  44.5236097  31.5284994 107.1317809  45.9409197  31.2631188 107.5929581
  48.5786980  41.0943896 110.3003886  48.4272486  40.8654448 109.3833970
  48.5691659  42.0514497 110.3135231  45.3472316  38.6675809 105.2850152
  46.2764376  38.8186968 105.1119120  44.9263346  38.7559830 104.4298799
  44.1460648  42.6926473 103.0548690  44.0071734  42.3245258 103.9274628
  43.3575244  43.2074113 102.8832648  45.6965863  42.0708076 100.4437528
  45.3615696  42.0308846 101.3395178  45.1969809  41.4052792  99.9707938
  39.6710107  37.4775706 105.9690109  39.5329905  36.7455945 106.5701648
  40.5815030  37.3884606 105.6874297  48.6325055  39.4164110  90.7174587
  48.0154225  38.6910938  90.6207640  48.1641543  40.1773471  90.3741662
  42.2992408  37.1895665 105.4573789  43.0092026  36.5488857 105.4160407
  42.2561716  37.4408560 106.3799969  50.2879186  44.1263019 108.3780368
  50.2291732  43.4422239 107.7110951  50.6898705  44.8682009 107.9260994
  41.0121342  34.1760883 107.2769428  40.4758699  33.7251622 107.9291024
  40.4238050  34.3106792 106.5339892  39.3069885  50.9424932 101.1714087
  39.5466483  51.5743457 101.8493105  38.4639082  50.5912972 101.4579446
  40.4223601  33.6349535  89.8395892  39.5453067  33.5138335  89.4758138
  40.8981354  32.8435613  89.5874780  50.2896594  42.0902603 106.6094347
  49.4023372  41.7528524 106.7320746  50.8595145  41.3585634 106.8463113
  31.9425741  38.4226694  99.9337399  32.6296781  38.1088424  99.3458414
  31.7873869  39.3268059  99.6604650  36.7460463  33.3116891 104.3622423
  36.6618652  32.7042560 103.6272833  35.9243169  33.8025909 104.3631919
  43.8197747  46.7504055 103.5755591  43.7467918  47.5559026 104.0874895
  43.3775140  46.9496021 102.7503612  46.9184177  31.7970454  99.7292618
  47.4152876  31.0440417  99.4093688  46.1471158  31.8334771  99.1635827
  54.7713934  37.5010820 101.3710909  54.7603810  38.3835535 101.0004842
  53.9031314  37.1482371 101.1765446  46.2796430  46.6490889 105.7313749
  46.9924403  47.2838354 105.6589651  45.7886459  46.7454755 104.9153751
  48.0013957  40.5542142  97.3031041  47.0670236  40.6743604  97.1335745
  48.1790626  39.6514608  97.0391051  43.5019145  33.9387837  99.4564302
  43.1316933  33.3858878 100.1445208  43.9978238  33.3345971  98.9039302
  51.3886509  36.3959461  97.8381075  51.8546961  37.2287452  97.7641378
  51.8394009  35.9304442  98.5426334  41.3308344  44.3985332 106.5519320
  42.0317804  45.0321815 106.7048714  40.8603459  44.7400064 105.7914959
  49.4562740  42.7403282  94.8367227  49.7322584  42.6259877  95.7461101
  48.5867239  42.3420767  94.7979400  49.3603171  28.7640048 101.8771976
  48.4466251  28.9944275 102.0454183  49.7896273  28.8478492 102.7286009
  49.1309630  36.9529940 104.3771871  48.4781080  37.2005847 103.7224323
  49.5090010  36.1394078 104.0434348  46.0916804  46.9889633  98.4800041
  46.2739198  46.1711289  98.9427793  46.9149790  47.2057325  98.0424931
  46.4258969  45.9157818  95.7415089  46.9546736  45.4050273  95.1285251
  46.6887189  45.6000348  96.6060622  45.1797203  37.6949751 110.8637908
  44.5037840  37.5943880 111.5340283  46.0024837  37.5388965 111.3273905
  36.9276062  43.9321687 103.4850423  37.5129499  43.1865375 103.6178327
  36.7300901  44.2425644 104.3687087  39.7814717  46.9672935  98.5012865
  39.1125093  47.4519062  98.0176905  39.6427587  47.2142155  99.4156244
  31.5193717  36.5027288 102.2054866  31.5577816  35.9690878 102.9991984
  31.0134010  35.9762493 101.5865843  43.9219986  49.0016678 105.0995524
  44.4738294  49.1648300 105.8644609  44.2626179  49.5921116 104.4275548
  38.8984479  31.3491828 105.7017408  38.9625806  32.2106659 105.2894806
  38.8351599  30.7365830 104.9689767  48.7730860  43.8277936 110.9544178
  49.3170764  44.4407894 110.4599133  48.1917705  44.3857514 111.4711191
  35.1502294  35.2291390  95.2808797  35.4455735  34.3202068  95.2275851
  34.2490330  35.2079129  94.9589800  47.0588373  46.9498654 102.0859206
  46.9339513  46.1488394 101.5770151  47.7167464  47.4444847 101.5973176
  38.6796541  33.3047386 101.2636346  37.9583127  33.9183354 101.1243819
  39.4689797  33.8405151 101.1852992  49.1223282  44.7507674 103.7138756
  48.1753617  44.6313025 103.6417083  49.4706055  43.8630172 103.7965017
  41.4822855  30.6401813 107.5376998  42.0057257  30.8864109 108.3003307
  41.2635188  31.4721848 107.1180135  36.8790136  32.9105487  95.4048123
  36.5502842  32.0302866  95.2223228  37.2329507  32.8553156  96.2924512
  46.1269715  44.5460390  99.9143108  45.9794677  43.6177098 100.0950678
  46.9523208  44.5680481  99.4300183  39.9931959  33.1978457  95.7723600
  40.3328032  33.7264379  95.0502209  40.4404080  33.5358863  96.5482167
  49.7303837  45.3688949 101.0007981  50.6550384  45.1631810 100.8632432
  49.5619140  45.1205350 101.9097322  42.6875400  31.5815508 105.2226668
  42.3472220  30.7823321 105.6247348  41.9814406  31.8817219 104.6503501
  43.3391872  28.6664820 103.6753991  44.1617941  28.1925299 103.5532882
  43.5829935  29.4455304 104.1752678  41.9800106  31.6953079  93.9716893
  42.7008469  32.0734332  93.4680610  41.3565410  32.4141956  94.0751871
  46.1231229  32.3998228  94.9075225  46.3394844  33.2822866  94.6064053
  45.6425296  32.0084441  94.1780867  40.8630451  35.3583941 101.4845970
  40.7175031  35.6724244 102.3770251  40.3855654  35.9768841 100.9316869
  42.7226833  32.3486489 101.5326859  42.7088402  31.4527582 101.1959157
  43.4399262  32.3557153 102.1665146  44.5752964  32.7823829 103.5779987
  44.3170742  33.7040900 103.5764317  44.0438005  32.3854264 104.2680451
  49.5199153  45.8874616  96.3570072  49.6936030  45.3221039  95.6043925
  50.0128044  46.6875511  96.1749562  35.3376113  37.8989285 104.4233631
  34.7929581  38.6749093 104.5553905  36.2155463  38.2460090 104.2652753
  42.1263729  31.2300869  96.8014430  42.2479641  30.3017515  97.0005317
  41.8365772  31.2439555  95.8892745  44.9954920  28.9155780  99.9381149
  45.0176617  28.9795113  98.9833129  45.4122979  28.0760288 100.1321656
  55.3738544  38.6511039  97.9760372  55.8169690  37.9018364  97.5779495
  54.4965054  38.6421176  97.5934104  50.5074325  45.2041381  93.4566971
  51.2025230  45.8248073  93.6754285  50.8497476  44.3536732  93.7319348
  36.1242135  37.0259182 107.3163788  35.3823871  37.1741817 107.9028418
  35.8034879  37.2867447 106.4530537  52.4065749  42.6541086  94.9854301
  52.9317073  42.9928359  94.2603621  52.3188101  41.7188102  94.8017436
  44.0685797  46.5675160 107.1144178  44.3772924  46.3224307 107.9866878
  44.8661279  46.7721798 106.6263048  44.0906409  48.7213070  99.3449555
  43.6511400  48.2289448 100.0382411  44.8414526  48.1786037  99.1041630
  36.5698748  44.9124610  99.3474183  37.3956768  44.6128382  98.9672826
  36.2192800  44.1432233  99.7963971  41.5380281  44.2651079 101.4171856
  40.9160291  43.6021784 101.1174084  42.2085148  44.2912211 100.7345504
  34.7707353  42.8310937 100.3063116  33.9339262  42.4033111 100.1247117
  34.7430999  43.0243380 101.2433907  52.0959655  43.2873990 110.2905499
  51.3055198  43.2698129 109.7509999  51.8593009  43.8262284 111.0454536
  52.2157530  40.1366456 107.6038228  52.2655535  39.9716464 108.5453751
  52.1071453  39.2693715 107.2136109  41.0993788  42.8155002  94.8930317
  41.2481909  43.4990466  94.2396989  41.9060232  42.7960092  95.4079772
  49.5061292  36.1197384 108.9197535  50.4071155  35.9803849 108.6281532
  49.5809267  36.2851839 109.8595712  43.8404097  33.4964239 107.7650721
  42.9707407  33.7897805 107.4933309  44.0763578  34.0804684 108.4857984
  53.7175726  42.5563398 107.8480249  53.4260535  42.9193378 108.6843710
  53.1047858  41.8430406 107.6693581  54.9171409  40.1216278 100.3682820
  55.7518300  40.5606082 100.5320380  55.0530538  39.6454931  99.5491065
  51.9662915  37.6796012 106.3160307  52.4417036  37.8723659 105.5079159
  51.0428480  37.7355198 106.0703691  38.8546421  38.8420180  95.8991386
  38.6092463  37.9382510  96.0971596  39.0242336  38.8437330  94.9570864
  46.5443131  29.7143856 105.2816141  47.0625075  30.4504883 104.9562630
  46.1898264  30.0207849 106.1162900  38.1242069  34.5748537  93.3977547
  37.4311314  34.6492892  92.7417583  37.8793821  33.8108881  93.9199064
  46.7955725  26.1344139 100.8017038  47.0757479  25.4667328 101.4277464
  47.5806332  26.3273234 100.2891702  50.6664584  34.5561773 104.5488613
  51.6182007  34.6559870 104.5700837  50.4968034  33.7640041 105.0586697
  48.6878963  31.6417356 104.7348014  48.0928895  31.9222368 104.0394502
  48.4028660  32.1311257 105.5064755  47.8186454  45.5940283  93.4950646
  48.7517127  45.5285844  93.6983522  47.7309666  46.4296549  93.0365179
  50.4474470  44.9106153  90.4554594  50.3688102  44.5766017  91.3490352
  51.2684137  45.4027921  90.4546066  53.1452661  37.7767892 103.6630913
  53.1128982  36.8383893 103.8490596  53.7553285  37.8551929 102.9296737
  44.9835992  36.6463945  89.7058117  45.9295097  36.5170153  89.7746535
  44.6050237  35.9078607  90.1827545  53.2947150  34.5678936 103.7089196
  52.7786199  33.7837392 103.5219125  54.1787098  34.2397652 103.8735715
  50.9557877  28.3119951  99.6685008  50.7582698  28.0035039 100.5528340
  51.5657582  29.0381590  99.7982938  58.9629211  38.8383899 102.8036949
  59.6932600  38.5769187 103.3644653  58.3536157  38.1012621 102.8439017
  57.0444508  36.9791762 103.4011401  56.3177672  36.8447727 102.7927892
  56.6291795  37.2868590 104.2068119  44.8674685  40.6981691 111.1658774
  45.7877694  40.8760290 111.3598820  44.8324268  39.7537737 111.0138473
  43.1678909  34.5713922  89.6413002  42.2610365  34.2747034  89.7175715
  43.4454890  34.2743740  88.7747288  34.0856850  35.8920285 100.0912048
  33.7659634  35.0385593  99.7986422  33.5390278  36.1068863 100.8470016
  37.8636757  38.6082726 103.8081555  38.0822767  39.5399834 103.8269589
  38.2762531  38.2490700 104.5936359  44.7840975  29.1150811  95.7957243
  43.9741704  28.7697896  96.1712489  45.4725392  28.8058355  96.3844855
  46.7131523  28.1928858  97.4181540  47.2662562  28.6124312  98.0771563
  46.9501610  27.2664606  97.4604496  41.9377694  31.4300857  89.7824981
  42.7996858  31.7555755  90.0420798  42.1228038  30.6432353  89.2698047
  33.9545110  39.5123196 102.0605170  33.2608581  39.0977149 101.5475124
  34.7018101  39.5543733 101.4638589  50.0910331  30.3029383  96.9260204
  49.5109000  30.9614187  96.5438256  49.8246263  29.4806728  96.5147622
  48.5413897  29.7034441  99.1281524  49.0413675  29.8150976  98.3195843
  49.1849505  29.3995494  99.7682333  42.5995893  37.6113071 112.0149365
  42.1162974  38.4113431 112.2213254  42.6856832  37.6221015 111.0616809
  35.8681852  39.4441450  99.9371185  35.8452541  39.5429138  98.9853068
  36.1782489  40.2906601 100.2588351  38.5269230  41.5017605 104.0517799
  39.4812484  41.4701548 103.9847731  38.3281754  41.0408229 104.8668025
  39.1168612  40.0718721 106.6188597  39.9361501  40.5662800 106.6423434
  39.3905420  39.1550689 106.5906164  48.8735209  32.4629474  95.9816552
  47.9861064  32.7479124  95.7636747  49.2889198  32.3023237  95.1343829
  52.2249745  32.4875995  99.6970892  53.0010135  32.9772447  99.9695508
  51.4997879  32.9134049 100.1542761  54.6622303  33.2003614 100.7544832
  55.2566794  32.9599350 100.0438140  54.7348887  32.4810744 101.3818368
  36.8819459  47.0437225 101.0687997  36.7473927  46.2837626 100.5025995
  36.4651521  47.7678125 100.6016786  48.0178422  42.2274148  90.0764572
  48.7214272  42.4324151  90.6922228  47.2941071  42.7950910  90.3413656
  48.8476232  37.9784010  96.1966842  48.7911434  38.4352561  95.3574475
  49.4004575  37.2174694  96.0189685  52.6581038  33.7673741  97.0216962
  52.4017972  33.3670377  97.8525170  52.0333906  34.4817535  96.8967101
  56.9693376  36.5069815  99.5288253  56.4092934  36.5763004 100.3019815
  56.3636879  36.3310799  98.8087750  40.0388585  47.9406542 101.2806440
  39.9220969  48.8851974 101.1785130  39.2181031  47.6380103 101.6692239
  49.9265119  42.6656678  92.1263032  50.7610723  42.2337876  91.9440507
  49.7649462  42.4938691  93.0539927  49.5811012  39.1688791  93.4919372
  49.5259815  39.0033062  92.5507816  48.9557067  39.8764824  93.6481561
  34.3703527  34.4056855 107.3180794  35.0162390  33.8955809 107.8068019
  34.1620678  35.1425537 107.8924219  46.8956919  41.4737703 112.8172934
  47.7648078  41.6478355 112.4559569  46.4163670  42.2932120 112.6948664
  42.8907137  28.6696900  93.0704690  42.8785807  29.6138740  93.2272961
  43.7830559  28.4867045  92.7764151  41.0643099  48.5934804 104.4962368
  41.9670346  48.6258414 104.8128863  40.8380469  47.6635255 104.5108704
  42.8196701  47.3465790 101.1572447  41.8692332  47.3467652 101.0436819
  43.1229187  46.5998525 100.6408481  46.7059257  25.2639676  97.3250627
  45.9391652  24.7098163  97.4707309  47.1169962  25.3361545  98.1864778
  58.5549395  53.1826329 102.2218209  59.1927805  53.0633076 101.5181549
  58.4370237  54.1307173 102.2806161  55.3639101  53.1353757 102.1579734
  55.0257612  53.0194821 101.2700269  56.2328869  52.7344922 102.1380740
  55.8458884  54.2888608 108.1165939  55.8347525  53.8941407 107.2446443
  56.0079523  53.5554681 108.7099711  56.8025475  58.6560201  93.4591090
  56.1513455  59.2414281  93.0725103  57.5969838  59.1866396  93.5186127
  52.5666145  57.0725720 107.0645123  52.2756011  57.9771351 106.9491790
  53.2023129  57.1142248 107.7789193  53.4922352  54.4502569 103.6546483
  54.0885924  54.2258591 102.9403446  53.5497323  53.7087314 104.2571931
  53.0647380  51.9042004  91.4896674  53.3172901  51.3823525  90.7280137
  52.1271939  51.7408150  91.5923358  58.1090663  50.9077782  99.2971417
  58.8953752  50.4897206  98.9461834  58.3729367  51.8123875  99.4653066
  58.2800740  56.3450633  93.9960074  57.6446573  56.4185259  94.7080979
  57.9498147  56.9344232  93.3179153  52.7843669  53.8070110  93.6921049
  52.6679927  53.1315013  94.3602133  52.8945929  53.3202484  92.8753202
  55.1275210  53.2680257  97.3967738  54.7633417  52.7410878  98.1080660
  55.9842326  52.8778726  97.2234224  61.0324511  44.5574590 104.6599004
  60.7007835  45.4270001 104.4360219  60.4370124  44.2410874 105.3393035
  54.7680697  48.2970157  92.3929087  54.9355099  49.1650393  92.7599558
  54.5777866  48.4597439  91.4690376  57.5256030  56.7587136 104.0594917
  57.2256753  57.6612175 103.9510724  57.1807090  56.4919319 104.9116070
  50.9768512  53.2100933 100.0931621  50.0519008  53.0777147 100.3009313
  51.2252925  53.9895152 100.5901564  54.7469918  50.7527814  93.3775753
  54.6269543  51.1984865  94.2161234  54.0522506  51.1013132  92.8189292
  52.5076810  63.5231456  97.0265885  52.4300840  64.4739281  97.1054365
  51.9038453  63.1777329  97.6840811  54.9994040  50.6959322 109.6827252
  54.2227374  51.2553242 109.6730116  55.6384603  51.1816105 110.2042122
  62.7914820  47.4786114 103.5170228  62.1489201  47.7718648 102.8710023
  62.2869749  47.3639035 104.3223425  60.4454984  51.2249288  94.2056088
  61.3572840  51.4576674  94.0303785  59.9364631  51.8086332  93.6431166
  53.2540412  53.5044775 109.2445219  53.9955096  54.0429819 108.9680042
  52.5477397  54.1311064 109.4016770  58.7295752  55.6473915 107.8417380
  59.1379108  55.2056326 107.0972012  58.0073013  55.0726543 108.0951573
  55.0826822  50.5846522 105.2150937  55.9288017  51.0085936 105.3585586
  55.0225459  49.9280146 105.9089500  59.0524566  56.2075106 101.5969669
  58.4233429  56.3720820 100.8945737  58.6650228  56.6216716 102.3680633
  62.9313798  57.1429544  98.9514033  62.2464836  57.5228445  98.4011066
  63.0157647  57.7524871  99.6845980  58.2326267  48.2450891 106.8732111
  57.9887199  48.9992951 106.3366386  58.5086197  48.6236238 107.7079358
  60.1864730  54.7889503 105.5509376  60.3981625  55.4321263 104.8743757
  60.1394478  53.9551819 105.0831306  54.6052528  55.9449514  98.8619754
  55.0690874  56.2237217  98.0724377  54.3409326  55.0432959  98.6792845
  51.4976609  55.4920996 101.7999517  52.0677966  55.9208264 101.1617002
  52.0884721  55.2103580 102.4983703  53.5421414  52.0672666  95.6709319
  54.2445458  52.5193710  96.1383246  53.2102043  51.4256485  96.2989212
  51.9901776  50.6584423 110.0460529  51.3600436  51.3400704 110.2795925
  51.8837864  50.5467505 109.1013667  61.3010558  57.6661458 103.7231734
  62.1228001  57.2641646 103.4414415  61.2972961  57.5629692 104.6747849
  55.0667161  57.2145502 105.8792444  55.1311594  57.6765909 106.7150616
  54.3578085  56.5842867 106.0074754  69.3916551  54.0100207 100.0716705
  68.6380259  53.4407605  99.9160710  69.5264092  53.9762871 101.0187340
  54.7815179  58.8813609  95.7471424  54.6460854  59.7265145  96.1756272
  55.3224991  59.0832887  94.9837358  51.2682518  44.9605189 112.4085780
  50.8749464  44.4071387 113.0833424  52.0848659  45.2715767 112.7992297
  54.1850479  46.3763068 110.0006036  54.9260193  46.9770221 109.9210499
  54.4168402  45.6340706 109.4424079  49.3291817  51.5619435 108.2784266
  49.2145333  50.6604693 108.5791365  48.4736335  51.8083132 107.9269082
  56.4083655  59.5037176 109.8771767  55.9647509  58.7173554 109.5592671
  57.0700869  59.6916326 109.2115657  58.5064893  59.7839976 107.9053168
  58.4883369  60.6048857 107.4133437  59.4284813  59.6594051 108.1303309
  54.9637947  57.2984105 108.7476676  55.4966284  56.5372393 108.5175984
  54.4352028  57.0057757 109.4900831  58.1307642  42.4044171 104.2770318
  57.7871912  43.2945813 104.2009428  58.4986605  42.2145829 103.4139903
  58.0957925  52.3952782  92.7842753  57.5804549  53.1657387  93.0231140
  57.8235234  51.7217918  93.4075814  55.6805036  47.2402483  97.8427991
  54.8246632  46.8509333  97.6633630  56.0931988  47.3194444  96.9827777
  57.2104183  44.7748826 102.2419551  56.7068978  44.7378961 101.4287356
  57.5034790  45.6841569 102.3016208  53.4547069  44.8587556 101.2485733
  54.3200065  44.6630365 100.8891622  53.5224578  44.6297908 102.1755090
  63.0692199  55.1485137  94.7195926  62.2921642  54.8096296  94.2751089
  63.7483680  55.1537760  94.0450892  57.8844228  50.2679874  94.6102534
  57.5794364  50.5826023  95.4612677  58.8374670  50.3461294  94.6529867
  56.3290660  56.4270097  96.2595488  55.8012022  55.6922857  95.9468726
  55.8278163  57.2044774  96.0135456  51.0609388  47.0889764  98.6202100
  51.6353140  46.8664945  97.8875293  51.6480370  47.1578458  99.3730701
  60.1188965  52.9763491  99.4266476  60.6320847  53.6093482  99.9288186
  60.7690189  52.3764686  99.0609836  51.3878975  49.1194225  92.6397985
  50.5516287  49.4568911  92.9607260  51.2483744  48.9843205  91.7025122
  53.3632055  43.9631013  97.3477169  52.7096468  43.6480030  96.7233784
  53.3212530  43.3406753  98.0736992  54.4743260  54.2450308  89.2630461
  53.5670322  54.0139561  89.4621610  54.9714292  53.4487927  89.4504443
  57.3811339  62.9547815  92.1827147  56.7073038  63.2579512  92.7912105
  57.7677161  63.7576895  91.8332604  56.5969796  50.4512946 101.6724817
  55.6792357  50.6727893 101.5146505  57.0129939  50.5259257 100.8136524
  57.3804844  51.8504362  96.8027497  58.1276662  52.3625759  96.4934619
  57.6496433  51.5288415  97.6631891  55.6531494  54.3462903  93.7854451
  54.7442713  54.0621935  93.8826921  55.6826578  54.7661981  92.9257758
  60.8850761  57.9569492  97.5545619  60.4313088  57.1160402  97.6110809
  60.2544728  58.5930890  97.8920399  59.8283681  48.8861478  98.7846286
  59.0906437  48.3738864  99.1156529  60.0810454  48.4461860  97.9729563
  59.3283700  59.7945989  98.4895437  59.6206675  60.3551046  97.7707803
  59.8382321  60.0874550  99.2448596  59.9295308  41.6637730  99.3788056
  60.2354185  40.8035094  99.0913971  60.6547913  42.2555350  99.1787049
  54.2016388  51.9591523  99.8864247  54.2564998  51.0065360  99.8106723
  53.3907590  52.1150962 100.3705545  55.3507582  55.8871646  91.1242530
  54.9127011  55.1707505  90.6648167  56.0918022  56.1147761  90.5627621
  52.1408748  50.5768583  97.6454626  51.3276613  50.8762754  98.0519818
  52.6367742  50.1824272  98.3629108  54.2917326  60.5726340  99.5788890
  54.2493504  60.7987186  98.6497422  55.2080024  60.3389714  99.7274691
  57.7382959  51.0410407 106.4769519  58.0932347  51.2681881 107.3363985
  58.3855091  51.3728784 105.8546775  51.6322822  48.1486938 103.2615860
  52.2722202  48.0075698 102.5638824  50.8000353  47.8621452 102.8854462
  63.4950076  56.2305370 102.1930120  63.9286583  56.1380659 103.0413174
  64.2081657  56.2062871 101.5550136  52.4083126  57.4489369  99.3750853
  53.2023725  56.9539689  99.1733428  51.6974819  56.9207232  99.0118558
  57.2277971  59.8307464 103.7263221  57.2814993  60.3998401 104.4940936
  56.3592752  60.0009349 103.3617258  48.6351439  48.1187263  98.0388847
  48.8958256  49.0332597  97.9298008  49.4568611  47.6511706  98.1885460
  50.1076364  49.5325021 105.2087672  50.7799418  49.3242383 104.5600321
  49.2806151  49.3347107 104.7692904  59.4180734  56.4235814 110.3003886
  59.2666241  56.1946365 109.3833970  59.4085414  57.3806415 110.3135231
  56.1866071  53.9967726 105.2850152  57.1158131  54.1478886 105.1119120
  55.7657101  54.0851747 104.4298799  54.9854402  58.0218391 103.0548690
  54.8465488  57.6537175 103.9274628  54.1968999  58.5366030 102.8832648
  55.5802554  63.1227487  94.3974227  55.7554310  62.6515531  95.2119849
  54.8935342  63.7493254  94.6255487  56.5359617  57.3999994 100.4437528
  56.2009450  57.3600764 101.3395178  56.0363563  56.7344710  99.9707938
  50.5103861  52.8067624 105.9690109  50.3723659  52.0747862 106.5701648
  51.4208785  52.7176524 105.6874297  59.4718809  54.7456028  90.7174587
  58.8547980  54.0202856  90.6207640  59.0035298  55.5065388  90.3741662
  53.1386162  52.5187583 105.4573789  53.8485781  51.8780775 105.4160407
  53.0955470  52.7700478 106.3799969  61.1272941  59.4554936 108.3780368
  61.0685487  58.7714156 107.7110951  61.5292459  60.1973926 107.9260994
  51.8515096  49.5052801 107.2769428  51.3152453  49.0543539 107.9291024
  51.2631805  49.6398710 106.5339892  50.1463640  66.2716850 101.1714087
  50.3860238  66.9035374 101.8493105  49.3032836  65.9204890 101.4579446
  51.2617355  48.9641452  89.8395892  50.3846821  48.8430253  89.4758138
  51.7375108  48.1727531  89.5874780  61.1290348  57.4194520 106.6094347
  60.2417127  57.0820442 106.7320746  61.6988899  56.6877551 106.8463113
  47.5854217  48.6408809 104.3622423  47.5012406  48.0334478 103.6272833
  46.7636924  49.1317827 104.3631919  54.6591501  62.0795973 103.5755591
  54.5861673  62.8850944 104.0874895  54.2168895  62.2787938 102.7503612
  54.4481281  61.3167743  97.0858412  53.6648803  61.8589423  97.1796637
  55.1474026  61.8341722  97.4852653  57.7577931  47.1262372  99.7292618
  58.2546631  46.3732334  99.4093688  56.9864913  47.1626689  99.1635827
  65.6107689  52.8302738 101.3710909  65.5997565  53.7127453 101.0004842
  64.7425068  52.4774288 101.1765446  57.1190185  61.9782807 105.7313749
  57.8318157  62.6130271 105.6589651  56.6280214  62.0746673 104.9153751
  58.8407712  55.8834059  97.3031041  57.9063991  56.0035522  97.1335745
  59.0184380  54.9806526  97.0391051  54.3412900  49.2679755  99.4564302
  53.9710687  48.7150795 100.1445208  54.8371992  48.6637889  98.9039302
  62.2280263  51.7251379  97.8381075  62.6940715  52.5579370  97.7641378
  62.6787764  51.2596360  98.5426334  60.2956494  58.0695200  94.8367227
  60.5716338  57.9551794  95.7461101  59.4260993  57.6712685  94.7979400
  60.1996926  44.0931966 101.8771976  59.2860006  44.3236192 102.0454183
  60.6290027  44.1770410 102.7286009  59.9703384  52.2821858 104.3771871
  59.3174835  52.5297765 103.7224323  60.3483764  51.4685996 104.0434348
  56.9310558  62.3181551  98.4800041  57.1132953  61.5003207  98.9427793
  57.7543544  62.5349243  98.0424931  57.2652724  61.2449736  95.7415089
  57.7940490  60.7342190  95.1285251  57.5280943  60.9292266  96.6060622
  56.0190957  53.0241669 110.8637908  55.3431595  52.9235798 111.5340283
  56.8418591  52.8680882 111.3273905  54.7613740  64.3308596 105.0995524
  55.3132048  64.4940218 105.8644609  55.1019934  64.9213034 104.4275548
  49.7378234  46.6783746 105.7017408  49.8019560  47.5398577 105.2894806
  49.6745354  46.0657747 104.9689767  49.2130506  48.7506878 109.3490443
  49.8402545  48.3683956 109.9627967  48.3558425  48.5321080 109.7146135
  59.6124615  59.1569854 110.9544178  60.1564519  59.7699812 110.4599133
  59.0311460  59.7149432 111.4711191  57.8982128  62.2790572 102.0859206
  57.7733267  61.4780311 101.5770151  58.5561219  62.7736765 101.5973176
  49.5190296  48.6339304 101.2636346  48.7976882  49.2475272 101.1243819
  50.3083552  49.1697069 101.1852992  59.9617036  60.0799592 103.7138756
  59.0147372  59.9604943 103.6417083  60.3099809  59.1922090 103.7965017
  52.3216609  45.9693731 107.5376998  52.8451011  46.2156027 108.3003307
  52.1028943  46.8013765 107.1180135  47.7183890  48.2397405  95.4048123
  47.3896597  47.3594784  95.2223228  48.0723261  48.1845074  96.2924512
  56.9663469  59.8752308  99.9143108  56.8188432  58.9469015 100.0950678
  57.7916963  59.8972399  99.4300183  50.8325714  48.5270375  95.7723600
  51.1721786  49.0556296  95.0502209  51.2797834  48.8650781  96.5482167
  60.5697591  60.6980867 101.0007981  61.4944139  60.4923728 100.8632432
  60.4012895  60.4497268 101.9097322  53.5269154  46.9107426 105.2226668
  53.1865975  46.1115239 105.6247348  52.8208161  47.2109136 104.6503501
  54.1785626  43.9956738 103.6753991  55.0011696  43.5217216 103.5532882
  54.4223690  44.7747222 104.1752678  52.8193861  47.0244997  93.9716893
  53.5402223  47.4026249  93.4680610  52.1959165  47.7433873  94.0751871
  56.9624984  47.7290145  94.9075225  57.1788598  48.6114783  94.6064053
  56.4819051  47.3376359  94.1780867  51.7024205  50.6875859 101.4845970
  51.5568786  51.0016162 102.3770251  51.2249409  51.3060759 100.9316869
  53.5620588  47.6778407 101.5326859  53.5482157  46.7819500 101.1959157
  54.2793016  47.6849070 102.1665146  55.4146719  48.1115747 103.5779987
  55.1564496  49.0332818 103.5764317  54.8831759  47.7146181 104.2680451
  60.3592907  61.2166534  96.3570072  60.5329785  60.6512957  95.6043925
  60.8521799  62.0167429  96.1749562  52.9657484  46.5592787  96.8014430
  53.0873395  45.6309433  97.0005317  52.6759526  46.5731473  95.8892745
  55.8348674  44.2447697  99.9381149  55.8570371  44.3087031  98.9833129
  56.2516733  43.4052206 100.1321656  66.2132299  53.9802957  97.9760372
  66.6563445  53.2310282  97.5779495  65.3358809  53.9713093  97.5934104
  61.3468080  60.5333298  93.4566971  62.0418984  61.1539991  93.6754285
  61.6891230  59.6828650  93.7319348  46.9635889  52.3551099 107.3163788
  46.2217625  52.5033735 107.9028418  46.6428633  52.6159365 106.4530537
  63.2459503  57.9833004  94.9854301  63.7710827  58.3220277  94.2603621
  63.1581856  57.0480019  94.8017436  54.9079552  61.8967078 107.1144178
  55.2166678  61.6516224 107.9866878  55.7055034  62.1013716 106.6263048
  54.9300164  64.0504987  99.3449555  54.4905154  63.5581366 100.0382411
  55.6808281  63.5077955  99.1041630  52.4498563  48.0724784 111.0104362
  52.4986719  48.9486907 110.6282132  52.9921078  47.5302177 110.4376005
  62.9353409  58.6165908 110.2905499  62.1448953  58.5990046 109.7509999
  62.6986764  59.1554201 111.0454536  63.0551284  55.4658374 107.6038228
  63.1049289  55.3008381 108.5453751  62.9465207  54.5985633 107.2136109
  51.9387543  58.1446920  94.8930317  52.0875663  58.8282384  94.2396989
  52.7453986  58.1252010  95.4079772  60.3455047  51.4489302 108.9197535
  61.2464909  51.3095767 108.6281532  60.4203021  51.6143757 109.8595712
  54.6797852  48.8256157 107.7650721  53.8101161  49.1189723 107.4933309
  54.9157332  49.4096602 108.4857984  65.7565163  55.4508195 100.3682820
  66.5912055  55.8897999 100.5320380  65.8924292  54.9746848  99.5491065
  62.8056669  53.0087930 106.3160307  63.2810791  53.2015576 105.5079159
  61.8822235  53.0647116 106.0703691  57.3836886  45.0435774 105.2816141
  57.9018830  45.7796801 104.9562630  57.0292018  45.3499767 106.1162900
  48.9635823  49.9040455  93.3977547  48.2705068  49.9784810  92.7417583
  48.7187575  49.1400799  93.9199064  57.6349480  41.4636056 100.8017038
  57.9151234  40.7959245 101.4277464  58.4200087  41.6565152 100.2891702
  55.4382948  60.6395050  92.3642064  54.8656915  61.2585237  91.9112536
  56.0115742  61.1894412  92.8981986  61.5058338  49.8853690 104.5488613
  62.4575761  49.9851788 104.5700837  61.3361789  49.0931959 105.0586697
  59.5272718  46.9709273 104.7348014  58.9322650  47.2514286 104.0394502
  59.2422414  47.4603174 105.5064755  58.6580208  60.9232200  93.4950646
  59.5910881  60.8577762  93.6983522  58.5703421  61.7588467  93.0365179
  61.2868225  60.2398071  90.4554594  61.2081856  59.9057934  91.3490352
  62.1077892  60.7319839  90.4546066  63.9846416  53.1059810 103.6630913
  63.9522736  52.1675811 103.8490596  64.5947040  53.1843847 102.9296737
  55.8229747  51.9755863  89.7058117  56.7688852  51.8462071  89.7746535
  55.4443992  51.2370525  90.1827545  64.1340904  49.8970853 103.7089196
  63.6179953  49.1129310 103.5219125  65.0180853  49.5689570 103.8735715
  61.7951631  43.6411869  99.6685008  61.5976453  43.3326957 100.5528340
  62.4051337  44.3673508  99.7982938  69.8022966  54.1675817 102.8036949
  70.5326354  53.9061105 103.3644653  69.1929911  53.4304539 102.8439017
  67.8838263  52.3083679 103.4011401  67.1571427  52.1739644 102.7927892
  67.4685550  52.6160508 104.2068119  55.7068439  56.0273609 111.1658774
  56.6271449  56.2052208 111.3598820  55.6718022  55.0829654 111.0138473
  54.0072664  49.9005839  89.6413002  53.1004119  49.6038952  89.7175715
  54.2848645  49.6035657  88.7747288  55.6234730  44.4442729  95.7957243
  54.8135458  44.0989814  96.1712489  56.3119147  44.1350273  96.3844855
  57.5525278  43.5220776  97.4181540  58.1056317  43.9416229  98.0771563
  57.7895364  42.5956524  97.4604496  53.5758377  49.5107849 113.1984304
  53.4755104  50.4602206 113.1296395  53.3579919  49.1826088 112.3260374
  52.7771449  46.7592774  89.7824981  53.6390613  47.0847673  90.0420798
  52.9621793  45.9724270  89.2698047  60.9304085  45.6321301  96.9260204
  60.3502754  46.2906105  96.5438256  60.6640018  44.8098646  96.5147622
  53.4389647  52.9404988 112.0149365  52.9556729  53.7405348 112.2213254
  53.5250586  52.9512933 111.0616809  49.3662985  56.8309523 104.0517799
  50.3206238  56.7993465 103.9847731  49.1675508  56.3700147 104.8668025
  49.9562367  55.4010639 106.6188597  50.7755256  55.8954718 106.6423434
  50.2299175  54.4842607 106.5906164  65.5016058  48.5295532 100.7544832
  66.0960549  48.2891267 100.0438140  65.5742642  47.8102662 101.3818368
  58.8572177  57.5566066  90.0764572  59.5608027  57.7616068  90.6922228
  58.1334825  58.1242828  90.3413656  59.6869987  53.3075927  96.1966842
  59.6305188  53.7644479  95.3574475  60.2398329  52.5466612  96.0189685
  67.8087131  51.8361732  99.5288253  67.2486689  51.9054922 100.3019815
  67.2030634  51.6602717  98.8087750  60.7658874  57.9948595  92.1263032
  61.6004478  57.5629794  91.9440507  60.6043217  57.8230609  93.0539927
  60.4204766  54.4980709  93.4919372  60.3653570  54.3324980  92.5507816
  59.7950821  55.2056741  93.6481561  45.2097281  49.7348773 107.3180794
  45.8556145  49.2247727 107.8068019  45.0014432  50.4717455 107.8924219
  57.7350673  56.8029620 112.8172934  58.6041833  56.9770273 112.4559569
  57.2557425  57.6224037 112.6948664  53.7300892  43.9988818  93.0704690
  53.7179561  44.9430657  93.2272961  54.6224313  43.8158963  92.7764151
  57.5453011  40.5931594  97.3250627  56.7785407  40.0390081  97.4707309
  57.9563716  40.6653463  98.1864778  49.5494772  46.8816390 111.4155808
  50.4126234  46.5253195 111.6259133  48.9760183  46.5430285 112.1031212
  69.3943149  68.5118246 102.2218209  70.0321559  68.3924994 101.5181549
  69.2763992  69.4599090 102.2806161  66.2032855  68.4645674 102.1579734
  65.8651367  68.3486739 101.2700269  67.0722624  68.0636840 102.1380740
  62.0619671  70.3181151  98.1476625  61.4984536  70.2271088  97.3792913
  61.9472066  69.4981055  98.6279117  66.6852638  69.6180526 108.1165939
  66.6741279  69.2233324 107.2446443  66.8473278  68.8846599 108.7099711
  59.6084103  71.8132342 100.9860845  60.4005395  71.4723167 100.5707145
  59.8480753  71.9227317 101.9062999  67.6419230  73.9852119  93.4591090
  66.9907210  74.5706199  93.0725103  68.4363593  74.5158313  93.5186127
  61.5674857  71.0741256  93.8578224  62.3405733  70.5270243  93.7191100
  61.9200256  71.9385505  94.0692685  63.4059899  72.4017638 107.0645123
  63.1149765  73.3063269 106.9491790  64.0416884  72.4434166 107.7789193
  64.3316106  69.7794486 103.6546483  64.9279679  69.5550509 102.9403446
  64.3891078  69.0379232 104.2571931  63.9041135  67.2333922  91.4896674
  64.1566655  66.7115443  90.7280137  62.9665694  67.0700067  91.5923358
  68.9484418  66.2369700  99.2971417  69.7347507  65.8189123  98.9461834
  69.2123122  67.1415792  99.4653066  69.1194495  71.6742550  93.9960074
  68.4840328  71.7477177  94.7080979  68.7891901  72.2636149  93.3179153
  74.3492845  66.1744933 100.2004396  75.0818017  65.6044150 100.4342225
  73.5932200  65.7866534 100.6410901  63.6237423  69.1362028  93.6921049
  63.5073682  68.4606931  94.3602133  63.7339683  68.6494402  92.8753202
  65.9668964  68.5972175  97.3967738  65.6027172  68.0702796  98.1080660
  66.8236080  68.2070644  97.2234224  71.8718265  59.8866507 104.6599004
  71.5401590  60.7561918 104.4360219  71.2763878  59.5702791 105.3393035
  65.6074451  63.6262075  92.3929087  65.7748854  64.4942311  92.7599558
  65.4171620  63.7889356  91.4690376  68.3649785  72.0879053 104.0594917
  68.0650508  72.9904092 103.9510724  68.0200844  71.8211237 104.9116070
  61.8162266  68.5392850 100.0931621  60.8912763  68.4069064 100.3009313
  62.0646679  69.3187070 100.5901564  71.7646928  64.6061594 101.7392354
  70.8563806  64.5377002 101.4451115  71.7134524  65.0833539 102.5674180
  65.5863672  66.0819732  93.3775753  65.4663297  66.5276783  94.2161234
  64.8916261  66.4305050  92.8189292  59.1771077  68.1826124 100.9275411
  59.3063458  68.4360603 101.8414822  58.4968528  68.7753832 100.6080066
  63.3470564  78.8523374  97.0265885  63.2694594  79.8031199  97.1054365
  62.7432208  78.5069246  97.6840811  65.8387794  66.0251239 109.6827252
  65.0621128  66.5845159 109.6730116  66.4778357  66.5108022 110.2042122
  73.6308575  62.8078032 103.5170228  72.9882955  63.1010565 102.8710023
  73.1263503  62.6930952 104.3223425  71.2848738  66.5541205  94.2056088
  72.1966595  66.7868592  94.0303785  70.7758385  67.1378249  93.6431166
  69.5689506  70.9765833 107.8417380  69.9772862  70.5348244 107.0972012
  68.8466768  70.4018461 108.0951573  65.9220576  65.9138440 105.2150937
  66.7681771  66.3377853 105.3585586  65.8619214  65.2572064 105.9089500
  69.8918321  71.5367024 101.5969669  69.2627183  71.7012738 100.8945737
  69.5043983  71.9508633 102.3680633  73.7707553  72.4721462  98.9514033
  73.0858591  72.8520363  98.4011066  73.8551402  73.0816788  99.6845980
  69.0720021  63.5742808 106.8732111  68.8280953  64.3284869 106.3366386
  69.3479952  63.9528156 107.7079358  71.0258484  70.1181421 105.5509376
  71.2375379  70.7613180 104.8743757  70.9788232  69.2843737 105.0831306
  68.6284713  62.7299241 102.4545948  67.7669192  63.0280495 102.7462686
  68.6547148  62.9469640 101.5226981  65.4446283  71.2741432  98.8619754
  65.9084628  71.5529135  98.0724377  65.1803081  70.3724876  98.6792845
  62.3370364  70.8212913 101.7999517  62.9071721  71.2500182 101.1617002
  62.9278476  70.5395498 102.4983703  64.3815169  67.3964584  95.6709319
  65.0839212  67.8485628  96.1383246  64.0495797  66.7548403  96.2989212
  62.8295530  65.9876341 110.0460529  62.1994191  66.6692622 110.2795925
  62.7231618  65.8759422 109.1013667  58.1240503  65.6548137 100.9726453
  57.3339557  65.9105665 100.4966563  58.6151750  66.4696475 101.0778493
  72.1404312  72.9953376 103.7231734  72.9621756  72.5933563 103.4414415
  72.1366715  72.8921610 104.6747849  60.0755248  66.0192716  97.9309929
  59.2786411  66.1311410  98.4493425  59.8480840  66.3579368  97.0650820
  65.9060916  72.5437419 105.8792444  65.9705348  73.0057827 106.7150616
  65.1971839  71.9134784 106.0074754  56.4078206  65.9078627 103.4041444
  56.6586244  66.7925637 103.6699020  56.9437754  65.7283229 102.6316535
  80.2310305  69.3392124 100.0716705  79.4774014  68.7699523  99.9160710
  80.3657846  69.3054789 101.0187340  65.6208933  74.2105527  95.7471424
  65.4854608  75.0557062  96.1756272  66.1618746  74.4124804  94.9837358
  62.1076273  60.2897107 112.4085780  61.7143218  59.7363305 113.0833424
  62.9242413  60.6007685 112.7992297  59.0738331  71.7280965  96.3199350
  59.5862851  72.5224215  96.4704914  59.7261043  71.0307255  96.2532951
  60.8833215  74.8446721  98.4022103  61.0599844  75.7664686  98.2143087
  61.6790049  74.5305140  98.8316482  65.0244234  61.7054986 110.0006036
  65.7653947  62.3062139 109.9210499  65.2562157  60.9632623 109.4424079
  60.1685572  66.8911353 108.2784266  60.0539087  65.9896610 108.5791365
  59.3130090  67.1375050 107.9269082  67.2477410  74.8329093 109.8771767
  66.8041264  74.0465472 109.5592671  67.9094623  75.0208244 109.2115657
  62.0064531  76.3624895 104.4032445  62.5571956  76.2341958 103.6309439
  61.1676007  76.6619784 104.0527338  69.3458648  75.1131893 107.9053168
  69.3277123  75.9340774 107.4133437  70.2678568  74.9885968 108.1303309
  65.8031702  72.6276023 108.7476676  66.3360039  71.8664311 108.5175984
  65.2745783  72.3349674 109.4900831  68.9701397  57.7336089 104.2770318
  68.6265666  58.6237730 104.2009428  69.3380359  57.5437746 103.4139903
  57.0387247  70.0569619  97.0958920  57.8762469  70.4666627  96.8792628
  57.2165515  69.1169061  97.0659114  68.9351680  67.7244700  92.7842753
  68.4198303  68.4949304  93.0231140  68.6628988  67.0509836  93.4075814
  66.5198791  62.5694401  97.8427991  65.6640387  62.1801251  97.6633630
  66.9325742  62.6486361  96.9827777  68.0497937  60.1040744 102.2419551
  67.5462733  60.0670879 101.4287356  68.3428544  61.0133487 102.3016208
  64.2940823  60.1879474 101.2485733  65.1593820  59.9922282 100.8891622
  64.3618332  59.9589825 102.1755090  73.9085954  70.4777054  94.7195926
  73.1315396  70.1388214  94.2751089  74.5877435  70.4829678  94.0450892
  68.7237983  65.5971792  94.6102534  68.4188118  65.9117941  95.4612677
  69.6768425  65.6753212  94.6529867  67.1684415  71.7562015  96.2595488
  66.6405776  71.0214775  95.9468726  66.6671917  72.5336692  96.0135456
  72.1477261  69.9511036 101.3762534  71.4900935  70.6410297 101.4642663
  72.9517660  70.3407468 101.7196521  61.9003142  62.4181681  98.6202100
  62.4746894  62.1956863  97.8875293  62.4874125  62.4870376  99.3730701
  70.9582719  68.3055408  99.4266476  71.4714601  68.9385400  99.9288186
  71.6083943  67.7056604  99.0609836  62.2272729  64.4486142  92.6397985
  61.3910042  64.7860829  92.9607260  62.0877499  64.3135122  91.7025122
  64.2025810  59.2922930  97.3477169  63.5490222  58.9771948  96.7233784
  64.1606284  58.6698671  98.0736992  65.3137015  69.5742225  89.2630461
  64.4064076  69.3431479  89.4621610  65.8108047  68.7779845  89.4504443
  68.2205094  78.2839733  92.1827147  67.5466792  78.5871429  92.7912105
  68.6070916  79.0868813  91.8332604  67.4363550  65.7804864 101.6724817
  66.5186112  66.0019811 101.5146505  67.8523694  65.8551174 100.8136524
  68.2198598  67.1796280  96.8027497  68.9670417  67.6917677  96.4934619
  68.4890188  66.8580332  97.6631891  66.4925248  69.6754820  93.7854451
  65.5836467  69.3913853  93.8826921  66.5220332  70.0953899  92.9257758
  71.7244516  73.2861410  97.5545619  71.2706843  72.4452320  97.6110809
  71.0938482  73.9222808  97.8920399  70.6677435  64.2153396  98.7846286
  69.9300192  63.7030782  99.1156529  70.9204209  63.7753777  97.9729563
  70.1677455  75.1237906  98.4895437  70.4600429  75.6842964  97.7707803
  70.6776075  75.4166467  99.2448596  70.7689062  56.9929648  99.3788056
  71.0747939  56.1327011  99.0913971  71.4941667  57.5847268  99.1787049
  57.0613419  67.3960334  97.7669653  56.8637818  66.8029695  97.0420720
  56.5060083  67.0912545  98.4845592  66.1901336  71.2163564  91.1242530
  65.7520766  70.4999423  90.6648167  66.9311777  71.4439679  90.5627621
  65.1311080  75.9018258  99.5788890  65.0887259  76.1279104  98.6497422
  66.0473779  75.6681632  99.7274691  68.5776714  66.3702325 106.4769519
  68.9326102  66.5973798 107.3363985  69.2248845  66.7020702 105.8546775
  74.3074451  69.4920761  97.1818848  74.1692349  69.6822357  96.2540038
  73.9510670  70.2540144  97.6386900  74.3343830  71.5597288 102.1930120
  74.7680337  71.4672577 103.0413174  75.0475411  71.5354788 101.5550136
  63.2476881  72.7781287  99.3750853  64.0417479  72.2831607  99.1733428
  62.5368573  72.2499150  99.0118558  68.0671725  75.1599382 103.7263221
  68.1208748  75.7290318 104.4940936  67.1986507  75.3301267 103.3617258
  59.5559644  66.9224368  95.4510606  58.6257232  66.8608824  95.6680568
  59.6517116  66.4000321  94.6547247  59.4745193  63.4479181  98.0388847
  59.7352011  64.3624514  97.9298008  60.2962366  62.9803624  98.1885460
  60.9470119  64.8616938 105.2087672  61.6193172  64.6534300 104.5600321
  60.1199905  64.6639024 104.7692904  75.1959380  71.6020989 104.7263005
  75.3895270  72.5066799 104.9722280  75.0959998  71.1428408 105.5601590
  66.8495691  61.4878879 107.2253333  66.2023606  62.1868829 107.1317809
  67.6196706  61.9215023 107.5929581  70.2574489  71.7527731 110.3003886
  70.1059995  71.5238283 109.3833970  70.2479168  72.7098333 110.3135231
  67.0259825  69.3259644 105.2850152  67.9551885  69.4770804 105.1119120
  66.6050855  69.4143665 104.4298799  65.8248157  73.3510309 103.0548690
  65.6859243  72.9829093 103.9274628  65.0362753  73.8657948 102.8832648
  66.4196309  78.4519405  94.3974227  66.5948064  77.9807448  95.2119849
  65.7329097  79.0785171  94.6255487  67.3753372  72.7291911 100.4437528
  67.0403205  72.6892681 101.3395178  66.8757318  72.0636627  99.9707938
  61.3497616  68.1359541 105.9690109  61.2117414  67.4039780 106.5701648
  62.2602539  68.0468441 105.6874297  70.3112564  70.0747946  90.7174587
  69.6941734  69.3494774  90.6207640  69.8429052  70.8357306  90.3741662
  63.9779917  67.8479501 105.4573789  64.6879535  67.2072693 105.4160407
  63.9349225  68.0992395 106.3799969  71.9666695  74.7846854 108.3780368
  71.9079241  74.1006074 107.7110951  72.3686214  75.5265844 107.9260994
  60.9857394  81.6008768 101.1714087  61.2253992  82.2327292 101.8493105
  60.1426591  81.2496808 101.4579446  62.1011110  64.2933370  89.8395892
  61.2240576  64.1722171  89.4758138  62.5768863  63.5019448  89.5874780
  71.9684103  72.7486438 106.6094347  71.0810881  72.4112360 106.7320746
  72.5382654  72.0169469 106.8463113  53.6213250  69.0810530  99.9337399
  54.3084289  68.7672260  99.3458414  53.4661378  69.9851894  99.6604650
  58.4247972  63.9700726 104.3622423  58.3406161  63.3626396 103.6272833
  57.6030678  64.4609745 104.3631919  65.4985256  77.4087890 103.5755591
  65.4255427  78.2142862 104.0874895  65.0562649  77.6079856 102.7503612
  65.2875036  76.6459660  97.0858412  64.5042557  77.1881340  97.1796637
  65.9867781  77.1633640  97.4852653  68.5971686  62.4554290  99.7292618
  69.0940385  61.7024252  99.4093688  67.8258667  62.4918606  99.1635827
  76.4501443  68.1594655 101.3710909  76.4391319  69.0419371 101.0004842
  75.5818823  67.8066206 101.1765446  67.9583939  77.3074724 105.7313749
  68.6711912  77.9422189 105.6589651  67.4673968  77.4038590 104.9153751
  69.6801466  71.2125977  97.3031041  68.7457745  71.3327439  97.1335745
  69.8578135  70.3098444  97.0391051  65.1806654  64.5971673  99.4564302
  64.8104442  64.0442713 100.1445208  65.6765747  63.9929806  98.9039302
  73.0674018  67.0543296  97.8381075  73.5334470  67.8871288  97.7641378
  73.5181518  66.5888278  98.5426334  63.0095853  75.0569168 106.5519320
  63.7105312  75.6905651 106.7048714  62.5390968  75.3983899 105.7914959
  71.1350249  73.3987118  94.8367227  71.4110093  73.2843712  95.7461101
  70.2654748  73.0004602  94.7979400  71.0390680  59.4223883 101.8771976
  70.1253760  59.6528110 102.0454183  71.4683782  59.5062327 102.7286009
  70.8097139  67.6113775 104.3771871  70.1568589  67.8589683 103.7224323
  71.1877519  66.7977913 104.0434348  67.7704313  77.6473468  98.4800041
  67.9526707  76.8295124  98.9427793  68.5937299  77.8641161  98.0424931
  68.1046478  76.5741653  95.7415089  68.6334245  76.0634108  95.1285251
  68.3674698  76.2584184  96.6060622  66.8584712  68.3533586 110.8637908
  66.1825349  68.2527716 111.5340283  67.6812346  68.1972800 111.3273905
  58.6063571  74.5905523 103.4850423  59.1917008  73.8449211 103.6178327
  58.4088410  74.9009479 104.3687087  61.4602226  77.6256770  98.5012865
  60.7912602  78.1102898  98.0176905  61.3215096  77.8725991  99.4156244
  53.1981226  67.1611123 102.2054866  53.2365325  66.6274714 102.9991984
  52.6921519  66.6346329 101.5865843  65.6007495  79.6600514 105.0995524
  66.1525803  79.8232135 105.8644609  65.9413688  80.2504952 104.4275548
  60.5771988  62.0075664 105.7017408  60.6413315  62.8690494 105.2894806
  60.5139108  61.3949665 104.9689767  60.0524261  64.0798796 109.3490443
  60.6796299  63.6975873 109.9627967  59.1952179  63.8612998 109.7146135
  70.4518369  74.4861771 110.9544178  70.9958273  75.0991729 110.4599133
  69.8705214  75.0441350 111.4711191  56.8289803  65.8875225  95.2808797
  57.1243244  64.9785904  95.2275851  55.9277839  65.8662965  94.9589800
  68.7375882  77.6082489 102.0859206  68.6127022  76.8072229 101.5770151
  69.3954973  78.1028683 101.5973176  60.3584050  63.9631222 101.2636346
  59.6370636  64.5767189 101.1243819  61.1477306  64.4988987 101.1852992
  70.8010791  75.4091509 103.7138756  69.8541126  75.2896860 103.6417083
  71.1493564  74.5214007 103.7965017  63.1610364  61.2985648 107.5376998
  63.6844766  61.5447945 108.3003307  62.9422697  62.1305683 107.1180135
  58.5577645  63.5689323  95.4048123  58.2290351  62.6886702  95.2223228
  58.9117016  63.5136992  96.2924512  67.8057224  75.2044226  99.9143108
  67.6582186  74.2760933 100.0950678  68.6310717  75.2264316  99.4300183
  61.6719468  63.8562293  95.7723600  62.0115541  64.3848214  95.0502209
  62.1191589  64.1942699  96.5482167  71.4091346  76.0272784 101.0007981
  72.3337893  75.8215646 100.8632432  71.2406649  75.7789185 101.9097322
  64.3662909  62.2399343 105.2226668  64.0259729  61.4407156 105.6247348
  63.6601915  62.5401054 104.6503501  65.0179381  59.3248656 103.6753991
  65.8405450  58.8509134 103.5532882  65.2617444  60.1039140 104.1752678
  63.6587615  62.3536914  93.9716893  64.3795978  62.7318167  93.4680610
  63.0352919  63.0725791  94.0751871  67.8018738  63.0582063  94.9075225
  68.0182353  63.9406701  94.6064053  67.3212805  62.6668277  94.1780867
  62.5417960  66.0167776 101.4845970  62.3962540  66.3308079 102.3770251
  62.0643163  66.6352677 100.9316869  64.4014342  63.0070324 101.5326859
  64.3875911  62.1111418 101.1959157  65.1186771  63.0140988 102.1665146
  66.2540473  63.4407665 103.5779987  65.9958251  64.3624735 103.5764317
  65.7225513  63.0438099 104.2680451  71.1986662  76.5458452  96.3570072
  71.3723539  75.9804874  95.6043925  71.6915553  77.3459347  96.1749562
  57.0163622  68.5573121 104.4233631  56.4717090  69.3332929 104.5553905
  57.8942972  68.9043925 104.2652753  63.8051238  61.8884705  96.8014430
  63.9267150  60.9601351  97.0005317  63.5153281  61.9023391  95.8892745
  66.6742429  59.5739615  99.9381149  66.6964126  59.6378948  98.9833129
  67.0910488  58.7344124 100.1321656  77.0526053  69.3094875  97.9760372
  77.4957199  68.5602200  97.5779495  76.1752563  69.3005011  97.5934104
  72.1861834  75.8625216  93.4566971  72.8812739  76.4831909  93.6754285
  72.5284985  75.0120567  93.7319348  57.8029644  67.6843017 107.3163788
  57.0611380  67.8325652 107.9028418  57.4822388  67.9451283 106.4530537
  74.0853257  73.3124922  94.9854301  74.6104582  73.6512194  94.2603621
  73.9975610  72.3771937  94.8017436  65.7473306  77.2258995 107.1144178
  66.0560433  76.9808142 107.9866878  66.5448788  77.4305634 106.6263048
  65.7693918  79.3796905  99.3449555  65.3298909  78.8873284 100.0382411
  66.5202035  78.8369873  99.1041630  58.2486257  75.5708446  99.3474183
  59.0744277  75.2712218  98.9672826  57.8980309  74.8016068  99.7963971
  63.2167790  74.9234914 101.4171856  62.5947800  74.2605619 101.1174084
  63.8872657  74.9496046 100.7345504  56.4494862  73.4894772 100.3063116
  55.6126771  73.0616947 100.1247117  56.4218508  73.6827216 101.2433907
  63.2892318  63.4016702 111.0104362  63.3380473  64.2778825 110.6282132
  63.8314832  62.8594095 110.4376005  73.7747164  73.9457825 110.2905499
  72.9842707  73.9281964 109.7509999  73.5380518  74.4846119 111.0454536
  73.8945039  70.7950292 107.6038228  73.9443044  70.6300299 108.5453751
  73.7858962  69.9277551 107.2136109  62.7781297  73.4738837  94.8930317
  62.9269418  74.1574302  94.2396989  63.5847741  73.4543927  95.4079772
  71.1848801  66.7781220 108.9197535  72.0858664  66.6387685 108.6281532
  71.2596776  66.9435675 109.8595712  65.5191606  64.1548074 107.7650721
  64.6494916  64.4481640 107.4933309  65.7551087  64.7388519 108.4857984
  75.3963235  73.2147233 107.8480249  75.1048044  73.5777214 108.6843710
  74.7835367  72.5014241 107.6693581  76.5958918  70.7800113 100.3682820
  77.4305809  71.2189917 100.5320380  76.7318047  70.3038766  99.5491065
  73.6450424  68.3379848 106.3160307  74.1204545  68.5307494 105.5079159
  72.7215989  68.3939034 106.0703691  60.5333930  69.5004015  95.8991386
  60.2879972  68.5966345  96.0971596  60.7029845  69.5021165  94.9570864
  68.2230640  60.3727691 105.2816141  68.7412584  61.1088718 104.9562630
  67.8685773  60.6791685 106.1162900  59.8029578  65.2332373  93.3977547
  59.1098823  65.3076728  92.7417583  59.5581330  64.4692716  93.9199064
  68.4743234  56.7927974 100.8017038  68.7544988  56.1251163 101.4277464
  69.2593841  56.9857070 100.2891702  66.2776703  75.9686968  92.3642064
  65.7050670  76.5877155  91.9112536  66.8509496  76.5186329  92.8981986
  72.3452093  65.2145608 104.5488613  73.2969516  65.3143706 104.5700837
  72.1755543  64.4223876 105.0586697  70.3666472  62.3001191 104.7348014
  69.7716404  62.5806204 104.0394502  70.0816169  62.7895092 105.5064755
  69.4973963  76.2524118  93.4950646  70.4304636  76.1869680  93.6983522
  69.4097175  77.0880385  93.0365179  72.1261979  75.5689988  90.4554594
  72.0475611  75.2349852  91.3490352  72.9471646  76.0611756  90.4546066
  74.8240170  68.4351728 103.6630913  74.7916491  67.4967728 103.8490596
  75.4340794  68.5135764 102.9296737  66.6623501  67.3047781  89.7058117
  67.6082606  67.1753989  89.7746535  66.2837746  66.5662442  90.1827545
  74.9734659  65.2262771 103.7089196  74.4573708  64.4421228 103.5219125
  75.8574607  64.8981488 103.8735715  72.6345386  58.9703787  99.6685008
  72.4370207  58.6618875 100.5528340  73.2445091  59.6965425  99.7982938
  80.6416720  69.4967734 102.8036949  81.3720109  69.2353023 103.3644653
  80.0323666  68.7596456 102.8439017  78.7232017  67.6375597 103.4011401
  77.9965181  67.5031562 102.7927892  78.3079304  67.9452426 104.2068119
  66.5462194  71.3565527 111.1658774  67.4665203  71.5344126 111.3598820
  66.5111777  70.4121572 111.0138473  64.8466418  65.2297757  89.6413002
  63.9397874  64.9330870  89.7175715  65.1242399  64.9327575  88.7747288
  55.7644359  66.5504120 100.0912048  55.4447143  65.6969429  99.7986422
  55.2177787  66.7652698 100.8470016  59.5424266  69.2666561 103.8081555
  59.7610276  70.1983669 103.8269589  59.9550040  68.9074536 104.5936359
  66.4628484  59.7734647  95.7957243  65.6529213  59.4281732  96.1712489
  67.1512901  59.4642190  96.3844855  68.3919032  58.8512693  97.4181540
  68.9450071  59.2708147  98.0771563  68.6289119  57.9248442  97.4604496
  64.4152132  64.8399767 113.1984304  64.3148859  65.7894124 113.1296395
  64.1973674  64.5118006 112.3260374  63.6165203  62.0884692  89.7824981
  64.4784367  62.4139590  90.0420798  63.8015547  61.3016188  89.2698047
  55.6332619  70.1707032 102.0605170  54.9396090  69.7560985 101.5475124
  56.3805610  70.2127568 101.4638589  71.7697840  60.9613219  96.9260204
  71.1896509  61.6198023  96.5438256  71.5033772  60.1390563  96.5147622
  70.2201406  60.3618276  99.1281524  70.7201184  60.4734811  98.3195843
  70.8637014  60.0579329  99.7682333  64.2783402  68.2696906 112.0149365
  63.7950483  69.0697266 112.2213254  64.3644341  68.2804851 111.0616809
  57.5469361  70.1025286  99.9371185  57.5240049  70.2012973  98.9853068
  57.8569998  70.9490436 100.2588351  60.2056739  72.1601441 104.0517799
  61.1599993  72.1285383 103.9847731  60.0069263  71.6992064 104.8668025
  60.7956121  70.7302557 106.6188597  61.6149010  71.2246635 106.6423434
  61.0692929  69.8134525 106.5906164  70.5522718  63.1213309  95.9816552
  69.6648573  63.4062960  95.7636747  70.9676707  62.9607072  95.1343829
  73.9037254  63.1459830  99.6970892  74.6797644  63.6356282  99.9695508
  73.1785388  63.5717884 100.1542761  76.3409812  63.8587449 100.7544832
  76.9354303  63.6183185 100.0438140  76.4136396  63.1394580 101.3818368
  58.5606968  77.7021060 101.0687997  58.4261436  76.9421461 100.5025995
  58.1439030  78.4261960 100.6016786  69.6965931  72.8857984  90.0764572
  70.4001781  73.0907986  90.6922228  68.9728580  73.4534746  90.3413656
  70.5263741  68.6367845  96.1966842  70.4698943  69.0936396  95.3574475
  71.0792084  67.8758530  96.0189685  74.3368547  64.4257577  97.0216962
  74.0805481  64.0254212  97.8525170  73.7121415  65.1401371  96.8967101
  78.6480885  67.1653650  99.5288253  78.0880443  67.2346839 100.3019815
  78.0424388  66.9894635  98.8087750  61.7176094  78.5990377 101.2806440
  61.6008478  79.5435810 101.1785130  60.8968540  78.2963939 101.6692239
  71.6052628  73.3240513  92.1263032  72.4398232  72.8921711  91.9440507
  71.4436971  73.1522527  93.0539927  71.2598521  69.8272626  93.4919372
  71.2047324  69.6616898  92.5507816  70.6344576  70.5348659  93.6481561
  56.0491036  65.0640691 107.3180794  56.6949899  64.5539645 107.8068019
  55.8408187  65.8009372 107.8924219  68.5744428  72.1321538 112.8172934
  69.4435587  72.3062190 112.4559569  68.0951179  72.9515955 112.6948664
  64.5694646  59.3280735  93.0704690  64.5573316  60.2722575  93.2272961
  65.4618068  59.1450881  92.7764151  62.7430608  79.2518639 104.4962368
  63.6457855  79.2842249 104.8128863  62.5167978  78.3219090 104.5108704
  64.4984210  78.0049626 101.1572447  63.5479841  78.0051487 101.0436819
  64.8016696  77.2582360 100.6408481  68.3846766  55.9223512  97.3250627
  67.6179161  55.3681999  97.4707309  68.7957471  55.9945381  98.1864778
  60.3888527  62.2108308 111.4155808  61.2519988  61.8545112 111.6259133
  59.8153937  61.8722202 112.1031212  80.2336904  83.8410164 102.2218209
  80.8715314  83.7216911 101.5181549  80.1157746  84.7891008 102.2806161
  77.0426610  83.7937592 102.1579734  76.7045121  83.6778657 101.2700269
  77.9116378  83.3928757 102.1380740  72.9013426  85.6473069  98.1476625
  72.3378291  85.5563005  97.3792913  72.7865821  84.8272973  98.6279117
  77.5246393  84.9472444 108.1165939  77.5135034  84.5525242 107.2446443
  77.6867032  84.2138516 108.7099711  70.4477857  87.1424260 100.9860845
  71.2399149  86.8015085 100.5707145  70.6874508  87.2519235 101.9062999
  78.4812984  89.3144036  93.4591090  77.8300964  89.8998117  93.0725103
  79.2757347  89.8450231  93.5186127  72.4068611  86.4033173  93.8578224
  73.1799487  85.8562160  93.7191100  72.7594010  87.2677423  94.0692685
  74.2453654  87.7309556 107.0645123  73.9543520  88.6355186 106.9491790
  74.8810638  87.7726083 107.7789193  75.1709861  85.1086404 103.6546483
  75.7673433  84.8842427 102.9403446  75.2284832  84.3671150 104.2571931
  74.7434889  82.5625839  91.4896674  74.9960410  82.0407361  90.7280137
  73.8059448  82.3991985  91.5923358  79.7878172  81.5661618  99.2971417
  80.5741261  81.1481041  98.9461834  80.0516876  82.4707710  99.4653066
  79.9588249  87.0034468  93.9960074  79.3234082  87.0769095  94.7080979
  79.6285656  87.5928067  93.3179153  85.1886599  81.5036851 100.2004396
  85.9211771  80.9336068 100.4342225  84.4325955  81.1158451 100.6410901
  74.4631178  84.4653945  93.6921049  74.3467436  83.7898849  94.3602133
  74.5733438  83.9786319  92.8753202  76.8062719  83.9264093  97.3967738
  76.4420926  83.3994714  98.1080660  77.6629835  83.5362562  97.2234224
  82.7112020  75.2158425 104.6599004  82.3795344  76.0853836 104.4360219
  82.1157633  74.8994709 105.3393035  76.4468206  78.9553992  92.3929087
  76.6142608  79.8234229  92.7599558  76.2565375  79.1181274  91.4690376
  79.2043539  87.4170971 104.0594917  78.9044262  88.3196010 103.9510724
  78.8594599  87.1503154 104.9116070  72.6556021  83.8684768 100.0931621
  71.7306517  83.7360982 100.3009313  72.9040434  84.6478987 100.5901564
  82.6040683  79.9353511 101.7392354  81.6957560  79.8668920 101.4451115
  82.5528279  80.4125456 102.5674180  76.4257427  81.4111650  93.3775753
  76.3057052  81.8568700  94.2161234  75.7310015  81.7596967  92.8189292
  70.0164832  83.5118042 100.9275411  70.1457213  83.7652520 101.8414822
  69.3362283  84.1045750 100.6080066  74.1864319  94.1815291  97.0265885
  74.1088349  95.1323117  97.1054365  73.5825962  93.8361164  97.6840811
  76.6781549  81.3543157 109.6827252  75.9014883  81.9137077 109.6730116
  77.3172112  81.8399940 110.2042122  84.4702329  78.1369950 103.5170228
  83.8276709  78.4302483 102.8710023  83.9657258  78.0222870 104.3223425
  82.1242493  81.8833123  94.2056088  83.0360349  82.1160510  94.0303785
  81.6152140  82.4670167  93.6431166  74.9327921  84.1628610 109.2445219
  75.6742605  84.7013654 108.9680042  74.2264906  84.7894899 109.4016770
  80.4083261  86.3057751 107.8417380  80.8166617  85.8640161 107.0972012
  79.6860522  85.7310378 108.0951573  76.7614331  81.2430357 105.2150937
  77.6075526  81.6669771 105.3585586  76.7012968  80.5863982 105.9089500
  80.7312075  86.8658941 101.5969669  80.1020938  87.0304655 100.8945737
  80.3437737  87.2800551 102.3680633  84.6101307  87.8013379  98.9514033
  83.9252345  88.1812281  98.4011066  84.6945156  88.4108706  99.6845980
  79.9113776  78.9034726 106.8732111  79.6674708  79.6576786 106.3366386
  80.1873706  79.2820073 107.7079358  81.8652239  85.4473338 105.5509376
  82.0769134  86.0905098 104.8743757  81.8181987  84.6135655 105.0831306
  79.4678468  78.0591159 102.4545948  78.6062947  78.3572412 102.7462686
  79.4940902  78.2761558 101.5226981  76.2840037  86.6033349  98.8619754
  76.7478383  86.8821052  98.0724377  76.0196835  85.7016794  98.6792845
  73.1764118  86.1504831 101.7999517  73.7465475  86.5792099 101.1617002
  73.7672230  85.8687416 102.4983703  75.2208923  82.7256502  95.6709319
  75.9232966  83.1777545  96.1383246  74.8889552  82.0840321  96.2989212
  73.6689285  81.3168258 110.0460529  73.0387945  81.9984539 110.2795925
  73.5625373  81.2051340 109.1013667  68.9634257  80.9840054 100.9726453
  68.1733311  81.2397583 100.4966563  69.4545504  81.7988392 101.0778493
  82.9798067  88.3245294 103.7231734  83.8015510  87.9225481 103.4414415
  82.9760470  88.2213528 104.6747849  70.9149002  81.3484634  97.9309929
  70.1180166  81.4603328  98.4493425  70.6874595  81.6871286  97.0650820
  76.7454670  87.8729337 105.8792444  76.8099103  88.3349744 106.7150616
  76.0365594  87.2426702 106.0074754  67.2471960  81.2370545 103.4041444
  67.4979998  82.1217555 103.6699020  67.7831508  81.0575146 102.6316535
  91.0704060  84.6684042 100.0716705  90.3167768  84.0991440  99.9160710
  91.2051601  84.6346707 101.0187340  76.4602688  89.5397444  95.7471424
  76.3248363  90.3848980  96.1756272  77.0012500  89.7416722  94.9837358
  72.9470027  75.6189024 112.4085780  72.5536973  75.0655223 113.0833424
  73.7636168  75.9299603 112.7992297  69.9132085  87.0572882  96.3199350
  70.4256606  87.8516133  96.4704914  70.5654798  86.3599173  96.2532951
  71.7226970  90.1738639  98.4022103  71.8993598  91.0956603  98.2143087
  72.5183803  89.8597058  98.8316482  75.8637988  77.0346903 110.0006036
  76.6047702  77.6354057 109.9210499  76.0955911  76.2924541 109.4424079
  71.0079326  82.2203271 108.2784266  70.8932842  81.3188528 108.5791365
  70.1523844  82.4666967 107.9269082  78.0871164  90.1621011 109.8771767
  77.6435018  89.3757390 109.5592671  78.7488378  90.3500161 109.2115657
  72.8458285  91.6916813 104.4032445  73.3965710  91.5633876 103.6309439
  72.0069761  91.9911702 104.0527338  80.1852402  90.4423811 107.9053168
  80.1670878  91.2632692 107.4133437  81.1072322  90.3177886 108.1303309
  76.6425456  87.9567940 108.7476676  77.1753793  87.1956229 108.5175984
  76.1139537  87.6641592 109.4900831  79.8095151  73.0628006 104.2770318
  79.4659421  73.9529648 104.2009428  80.1774114  72.8729664 103.4139903
  67.8781002  85.3861537  97.0958920  68.7156224  85.7958545  96.8792628
  68.0559270  84.4460979  97.0659114  79.7745434  83.0536617  92.7842753
  79.2592057  83.8241222  93.0231140  79.5022742  82.3801754  93.4075814
  77.3592545  77.8986318  97.8427991  76.5034141  77.5093169  97.6633630
  77.7719497  77.9778279  96.9827777  78.8891692  75.4332661 102.2419551
  78.3856487  75.3962797 101.4287356  79.1822299  76.3425404 102.3016208
  75.1334578  75.5171391 101.2485733  75.9987574  75.3214200 100.8891622
  75.2012087  75.2881743 102.1755090  84.7479708  85.8068972  94.7195926
  83.9709151  85.4680132  94.2751089  85.4271189  85.8121595  94.0450892
  79.5631737  80.9263710  94.6102534  79.2581873  81.2409859  95.4612677
  80.5162179  81.0045129  94.6529867  78.0078169  87.0853933  96.2595488
  77.4799531  86.3506692  95.9468726  77.5065672  87.8628609  96.0135456
  82.9871015  85.2802953 101.3762534  82.3294690  85.9702215 101.4642663
  83.7911414  85.6699385 101.7196521  72.7396897  77.7473599  98.6202100
  73.3140649  77.5248781  97.8875293  73.3267879  77.8162294  99.3730701
  81.7976474  83.6347326  99.4266476  82.3108356  84.2677318  99.9288186
  82.4477698  83.0348522  99.0609836  73.0666484  79.7778060  92.6397985
  72.2303796  80.1152747  92.9607260  72.9271253  79.6427040  91.7025122
  75.0419564  74.6214848  97.3477169  74.3883977  74.3063865  96.7233784
  75.0000039  73.9990588  98.0736992  76.1530769  84.9034143  89.2630461
  75.2457831  84.6723397  89.4621610  76.6501801  84.1071762  89.4504443
  79.0598848  93.6131650  92.1827147  78.3860547  93.9163347  92.7912105
  79.4464670  94.4160731  91.8332604  78.2757305  81.1096782 101.6724817
  77.3579866  81.3311729 101.5146505  78.6917448  81.1843092 100.8136524
  79.0592353  82.5088197  96.8027497  79.8064171  83.0209594  96.4934619
  79.3283942  82.1872250  97.6631891  77.3319003  85.0046738  93.7854451
  76.4230222  84.7205771  93.8826921  77.3614086  85.4245817  92.9257758
  82.5638270  88.6153327  97.5545619  82.1100597  87.7744237  97.6110809
  81.9332237  89.2514726  97.8920399  81.5071190  79.5445314  98.7846286
  80.7693946  79.0322700  99.1156529  81.7597963  79.1045695  97.9729563
  81.0071209  90.4529824  98.4895437  81.2994184  91.0134881  97.7707803
  81.5169830  90.7458385  99.2448596  81.6082817  72.3221566  99.3788056
  81.9141694  71.4618929  99.0913971  82.3335422  72.9139186  99.1787049
  67.9007173  82.7252252  97.7669653  67.7031573  82.1321613  97.0420720
  67.3453837  82.4204462  98.4845592  75.8803897  82.6175359  99.8864247
  75.9352507  81.6649195  99.8106723  75.0695099  82.7734798 100.3705545
  77.0295090  86.5455482  91.1242530  76.5914520  85.8291341  90.6648167
  77.7705531  86.7731596  90.5627621  73.8196257  81.2352418  97.6454626
  73.0064122  81.5346589  98.0519818  74.3155251  80.8408107  98.3629108
  75.9704835  91.2310175  99.5788890  75.9281013  91.4571022  98.6497422
  76.8867533  90.9973550  99.7274691  79.4170468  81.6994243 106.4769519
  79.7719856  81.9265716 107.3363985  80.0642600  82.0312620 105.8546775
  85.1468205  84.8212679  97.1818848  85.0086104  85.0114275  96.2540038
  84.7904424  85.5832061  97.6386900  73.3110331  78.8070774 103.2615860
  73.9509711  78.6659533 102.5638824  72.4787862  78.5205287 102.8854462
  85.1737585  86.8889206 102.1930120  85.6074092  86.7964495 103.0413174
  85.8869166  86.8646706 101.5550136  74.0870635  88.1073204  99.3750853
  74.8811234  87.6123524  99.1733428  73.3762328  87.5791067  99.0118558
  78.9065480  90.4891300 103.7263221  78.9602502  91.0582236 104.4940936
  78.0380261  90.6593185 103.3617258  70.3953399  82.2516286  95.4510606
  69.4650987  82.1900741  95.6680568  70.4910871  81.7292239  94.6547247
  70.3138948  78.7771099  98.0388847  70.5745765  79.6916432  97.9298008
  71.1356120  78.3095541  98.1885460  71.7863873  80.1908856 105.2087672
  72.4586927  79.9826218 104.5600321  70.9593660  79.9930942 104.7692904
  86.0353134  86.9312906 104.7263005  86.2289025  87.8358717 104.9722280
  85.9353753  86.4720325 105.5601590  77.6889445  76.8170797 107.2253333
  77.0417360  77.5160747 107.1317809  78.4590461  77.2506941 107.5929581
  81.0968243  87.0819649 110.3003886  80.9453750  86.8530201 109.3833970
  81.0872923  88.0390251 110.3135231  77.8653580  84.6551562 105.2850152
  78.7945640  84.8062721 105.1119120  77.4444610  84.7435583 104.4298799
  76.6641911  88.6802226 103.0548690  76.5252997  88.3121011 103.9274628
  75.8756508  89.1949866 102.8832648  77.2590063  93.7811323  94.3974227
  77.4341819  93.3099366  95.2119849  76.5722851  94.4077089  94.6255487
  78.2147126  88.0583829 100.4437528  77.8796959  88.0184599 101.3395178
  77.7151072  87.3928545  99.9707938  72.1891370  83.4651459 105.9690109
  72.0511168  82.7331698 106.5701648  73.0996294  83.3760359 105.6874297
  81.1506318  85.4039863  90.7174587  80.5335489  84.6786691  90.6207640
  80.6822807  86.1649224  90.3741662  74.8173671  83.1771418 105.4573789
  75.5273290  82.5364610 105.4160407  74.7742979  83.4284313 106.3799969
  82.8060450  90.1138772 108.3780368  82.7472996  89.4297992 107.7110951
  83.2079968  90.8557762 107.9260994  73.5302605  80.1636636 107.2769428
  72.9939962  79.7127375 107.9291024  72.9419314  80.2982545 106.5339892
  71.8251149  96.9300685 101.1714087  72.0647747  97.5619210 101.8493105
  70.9820345  96.5788725 101.4579446  72.9404864  79.6225288  89.8395892
  72.0634330  79.5014088  89.4758138  73.4162617  78.8311366  89.5874780
  82.8077857  88.0778356 106.6094347  81.9204636  87.7404277 106.7320746
  83.3776408  87.3461387 106.8463113  64.4607004  84.4102447  99.9337399
  65.1478044  84.0964177  99.3458414  64.3055133  85.3143812  99.6604650
  69.2641726  79.2992644 104.3622423  69.1799915  78.6918313 103.6272833
  68.4424433  79.7901662 104.3631919  76.3379010  92.7379808 103.5755591
  76.2649182  93.5434779 104.0874895  75.8956404  92.9371774 102.7503612
  76.1268790  91.9751578  97.0858412  75.3436312  92.5173258  97.1796637
  76.8261535  92.4925558  97.4852653  79.4365440  77.7846207  99.7292618
  79.9334140  77.0316170  99.4093688  78.6652422  77.8210524  99.1635827
  87.2895198  83.4886573 101.3710909  87.2785074  84.3711288 101.0004842
  86.4212577  83.1358124 101.1765446  78.7977694  92.6366642 105.7313749
  79.5105666  93.2714107 105.6589651  78.3067723  92.7330508 104.9153751
  80.5195221  86.5417895  97.3031041  79.5851500  86.6619357  97.1335745
  80.6971889  85.6390361  97.0391051  76.0200409  79.9263590  99.4564302
  75.6498196  79.3734631 100.1445208  76.5159501  79.3221724  98.9039302
  83.9067772  82.3835214  97.8381075  84.3728224  83.2163206  97.7641378
  84.3575273  81.9180195  98.5426334  73.8489607  90.3861085 106.5519320
  74.5499067  91.0197568 106.7048714  73.3784722  90.7275817 105.7914959
  81.9744003  88.7279035  94.8367227  82.2503847  88.6135630  95.7461101
  81.1048502  88.3296520  94.7979400  81.8784435  74.7515801 101.8771976
  80.9647515  74.9820028 102.0454183  82.3077536  74.8354245 102.7286009
  81.6490893  82.9405693 104.3771871  80.9962344  83.1881600 103.7224323
  82.0271273  82.1269831 104.0434348  78.6098067  92.9765386  98.4800041
  78.7920462  92.1587042  98.9427793  79.4331053  93.1933078  98.0424931
  78.9440233  91.9033571  95.7415089  79.4727999  91.3926026  95.1285251
  79.2068452  91.5876101  96.6060622  77.6978466  83.6825504 110.8637908
  77.0219103  83.5819633 111.5340283  78.5206100  83.5264718 111.3273905
  69.4457326  89.9197440 103.4850423  70.0310762  89.1741128 103.6178327
  69.2482164  90.2301397 104.3687087  72.2995981  92.9548688  98.5012865
  71.6306356  93.4394815  98.0176905  72.1608850  93.2017908  99.4156244
  64.0374980  82.4903041 102.2054866  64.0759080  81.9566631 102.9991984
  63.5315273  81.9638246 101.5865843  76.4401249  94.9892431 105.0995524
  76.9919557  95.1524053 105.8644609  76.7807443  95.5796869 104.4275548
  71.4165743  77.3367581 105.7017408  71.4807069  78.1982412 105.2894806
  71.3532863  76.7241583 104.9689767  70.8918015  79.4090714 109.3490443
  71.5190054  79.0267791 109.9627967  70.0345934  79.1904916 109.7146135
  67.6683558  81.2167143  95.2808797  67.9636999  80.3077821  95.2275851
  66.7671594  81.1954882  94.9589800  79.5769637  92.9374407 102.0859206
  79.4520776  92.1364147 101.5770151  80.2348728  93.4320600 101.5973176
  71.1977805  79.2923139 101.2636346  70.4764391  79.9059107 101.1243819
  71.9871061  79.8280904 101.1852992  81.6404545  90.7383427 103.7138756
  80.6934881  90.6188778 103.6417083  81.9887318  89.8505925 103.7965017
  74.0004118  76.6277566 107.5376998  74.5238520  76.8739862 108.3003307
  73.7816452  77.4597601 107.1180135  69.3971399  78.8981240  95.4048123
  69.0684106  78.0178619  95.2223228  69.7510770  78.8428909  96.2924512
  78.6450978  90.5336143  99.9143108  78.4975941  89.6052851 100.0950678
  79.4704472  90.5556234  99.4300183  72.5113223  79.1854210  95.7723600
  72.8509295  79.7140132  95.0502209  72.9585343  79.5234616  96.5482167
  82.2485100  91.3564702 101.0007981  83.1731648  91.1507563 100.8632432
  82.0800404  91.1081103 101.9097322  75.2056663  77.5691261 105.2226668
  74.8653484  76.7699074 105.6247348  74.4995670  77.8692972 104.6503501
  75.8573135  74.6540573 103.6753991  76.6799205  74.1801052 103.5532882
  76.1011199  75.4331057 104.1752678  74.4981370  77.6828832  93.9716893
  75.2189732  78.0610085  93.4680610  73.8746674  78.4017709  94.0751871
  78.6412493  78.3873981  94.9075225  78.8576107  79.2698619  94.6064053
  78.1606560  77.9960194  94.1780867  73.3811714  81.3459694 101.4845970
  73.2356295  81.6599997 102.3770251  72.9036918  81.9644594 100.9316869
  75.2408097  78.3362242 101.5326859  75.2269666  77.4403335 101.1959157
  75.9580525  78.3432906 102.1665146  77.0934228  78.7699582 103.5779987
  76.8352005  79.6916653 103.5764317  76.5619268  78.3730017 104.2680451
  82.0380416  91.8750369  96.3570072  82.2117294  91.3096792  95.6043925
  82.5309308  92.6751264  96.1749562  67.8557376  83.8865038 104.4233631
  67.3110844  84.6624846 104.5553905  68.7336726  84.2335843 104.2652753
  74.6444993  77.2176622  96.8014430  74.7660904  76.2893269  97.0005317
  74.3547035  77.2315308  95.8892745  77.5136183  74.9031533  99.9381149
  77.5357880  74.9670866  98.9833129  77.9304242  74.0636041 100.1321656
  87.8919808  84.6386792  97.9760372  88.3350954  83.8894118  97.5779495
  87.0146318  84.6296929  97.5934104  83.0255589  91.1917134  93.4566971
  83.7206493  91.8123826  93.6754285  83.3678739  90.3412485  93.7319348
  68.6423398  83.0134935 107.3163788  67.9005134  83.1617570 107.9028418
  68.3216142  83.2743200 106.4530537  84.9247012  88.6416839  94.9854301
  85.4498336  88.9804112  94.2603621  84.8369365  87.7063855  94.8017436
  76.5867061  92.5550913 107.1144178  76.8954187  92.3100060 107.9866878
  77.3842543  92.7597551 106.6263048  76.6087673  94.7088823  99.3449555
  76.1692663  94.2165201 100.0382411  77.3595790  94.1661790  99.1041630
  69.0880012  90.9000363  99.3474183  69.9138032  90.6004135  98.9672826
  68.7374064  90.1307986  99.7963971  74.0561545  90.2526832 101.4171856
  73.4341554  89.5897537 101.1174084  74.7266412  90.2787964 100.7345504
  67.2888617  88.8186690 100.3063116  66.4520525  88.3908864 100.1247117
  67.2612262  89.0119133 101.2433907  74.1286072  78.7308620 111.0104362
  74.1774228  79.6070743 110.6282132  74.6708587  78.1886013 110.4376005
  84.7338793  86.1242209 107.6038228  84.7836798  85.9592217 108.5453751
  84.6252716  85.2569468 107.2136109  73.6175052  88.8030755  94.8930317
  73.7663172  89.4866219  94.2396989  74.4241495  88.7835845  95.4079772
  82.0242555  82.1073137 108.9197535  82.9252418  81.9679602 108.6281532
  82.0990530  82.2727592 109.8595712  76.3585361  79.4839992 107.7650721
  75.4888670  79.7773558 107.4933309  76.5944841  80.0680437 108.4857984
  86.2356990  88.5439151 107.8480249  85.9441798  88.9069131 108.6843710
  85.6229121  87.8306159 107.6693581  87.4352672  86.1092031 100.3682820
  88.2699564  86.5481835 100.5320380  87.5711801  85.6330684  99.5491065
  84.4844178  83.6671765 106.3160307  84.9598300  83.8599412 105.5079159
  83.5609744  83.7230951 106.0703691  71.3727685  84.8295933  95.8991386
  71.1273727  83.9258263  96.0971596  71.5423599  84.8313083  94.9570864
  79.0624395  75.7019609 105.2816141  79.5806339  76.4380636 104.9562630
  78.7079527  76.0083602 106.1162900  70.6423332  80.5624290  93.3977547
  69.9492577  80.6368645  92.7417583  70.3975084  79.7984634  93.9199064
  79.3136989  72.1219892 100.8017038  79.5938743  71.4543081 101.4277464
  80.0987596  72.3148987 100.2891702  77.1170457  91.2978885  92.3642064
  76.5444424  91.9169073  91.9112536  77.6903251  91.8478247  92.8981986
  83.1845847  80.5437526 104.5488613  84.1363270  80.6435623 104.5700837
  83.0149298  79.7515794 105.0586697  81.2060227  77.6293109 104.7348014
  80.6110159  77.9098121 104.0394502  80.9209923  78.1187010 105.5064755
  80.3367717  91.5816036  93.4950646  81.2698390  91.5161597  93.6983522
  80.2490930  92.4172302  93.0365179  82.9655734  90.8981906  90.4554594
  82.8869365  90.5641770  91.3490352  83.7865401  91.3903674  90.4546066
  85.6633925  83.7643645 103.6630913  85.6310245  82.8259646 103.8490596
  86.2734549  83.8427682 102.9296737  77.5017256  82.6339698  89.7058117
  78.4476361  82.5045906  89.7746535  77.1231501  81.8954360  90.1827545
  85.8128413  80.5554689 103.7089196  85.2967462  79.7713145 103.5219125
  86.6968362  80.2273405 103.8735715  83.4739140  74.2995704  99.6685008
  83.2763961  73.9910792 100.5528340  84.0838846  75.0257343  99.7982938
  91.4810475  84.8259652 102.8036949  92.2113863  84.5644940 103.3644653
  90.8717420  84.0888374 102.8439017  89.5625772  82.9667515 103.4011401
  88.8358935  82.8323480 102.7927892  89.1473059  83.2744343 104.2068119
  77.3855948  86.6857444 111.1658774  78.3058958  86.8636043 111.3598820
  77.3505531  85.7413490 111.0138473  75.6860173  80.5589675  89.6413002
  74.7791628  80.2622787  89.7175715  75.9636154  80.2619493  88.7747288
  66.6038113  81.8796038 100.0912048  66.2840898  81.0261346  99.7986422
  66.0571542  82.0944616 100.8470016  70.3818021  84.5958479 103.8081555
  70.6004031  85.5275587 103.8269589  70.7943795  84.2366453 104.5936359
  77.3022239  75.1026564  95.7957243  76.4922967  74.7573649  96.1712489
  77.9906656  74.7934108  96.3844855  79.2312787  74.1804611  97.4181540
  79.7843826  74.6000065  98.0771563  79.4682873  73.2540359  97.4604496
  75.2545886  80.1691685 113.1984304  75.1542613  81.1186042 113.1296395
  75.0367428  79.8409924 112.3260374  74.4558958  77.4176610  89.7824981
  75.3178122  77.7431508  90.0420798  74.6409302  76.6308106  89.2698047
  66.4726373  85.4998950 102.0605170  65.7789845  85.0852902 101.5475124
  67.2199364  85.5419486 101.4638589  82.6091594  76.2905136  96.9260204
  82.0290263  76.9489940  96.5438256  82.3427527  75.4682481  96.5147622
  81.0595160  75.6910194  99.1281524  81.5594939  75.8026729  98.3195843
  81.7030768  75.3871247  99.7682333  75.1177156  83.5988824 112.0149365
  74.6344238  84.3989184 112.2213254  75.2038095  83.6096768 111.0616809
  68.3863116  85.4317203  99.9371185  68.3633804  85.5304891  98.9853068
  68.6963752  86.2782354 100.2588351  71.0450494  87.4893358 104.0517799
  71.9993747  87.4577301 103.9847731  70.8463017  87.0283982 104.8668025
  71.6349876  86.0594474 106.6188597  72.4542765  86.5538553 106.6423434
  71.9086684  85.1426443 106.5906164  81.3916472  78.4505227  95.9816552
  80.5042327  78.7354877  95.7636747  81.8070461  78.2898990  95.1343829
  84.7431008  78.4751748  99.6970892  85.5191398  78.9648200  99.9695508
  84.0179142  78.9009802 100.1542761  87.1803567  79.1879367 100.7544832
  87.7748058  78.9475103 100.0438140  87.2530151  78.4686497 101.3818368
  69.4000723  93.0312978 101.0687997  69.2655190  92.2713379 100.5025995
  68.9832785  93.7553878 100.6016786  80.5359686  88.2149901  90.0764572
  81.2395536  88.4199904  90.6922228  79.8122334  88.7826663  90.3413656
  81.3657496  83.9659763  96.1966842  81.3092697  84.4228314  95.3574475
  81.9185838  83.2050447  96.0189685  85.1762302  79.7549494  97.0216962
  84.9199236  79.3546130  97.8525170  84.5515170  80.4693288  96.8967101
  89.4874640  82.4945568  99.5288253  88.9274198  82.5638757 100.3019815
  88.8818143  82.3186552  98.8087750  72.5569848  93.9282295 101.2806440
  72.4402233  94.8727727 101.1785130  71.7362295  93.6255856 101.6692239
  82.4446383  88.6532431  92.1263032  83.2791987  88.2213629  91.9440507
  82.2830726  88.4814444  93.0539927  82.0992275  85.1564544  93.4919372
  82.0441079  84.9908815  92.5507816  81.4738330  85.8640577  93.6481561
  66.8884790  80.3932608 107.3180794  67.5343654  79.8831562 107.8068019
  66.6801941  81.1301290 107.8924219  75.4088401  74.6572653  93.0704690
  75.3967070  75.6014493  93.2272961  76.3011822  74.4742798  92.7764151
  73.5824363  94.5810557 104.4962368  74.4851609  94.6134167 104.8128863
  73.3561733  93.6511008 104.5108704  75.3377965  93.3341543 101.1572447
  74.3873596  93.3343405 101.0436819  75.6410451  92.5874278 100.6408481
  79.2240520  71.2515429  97.3250627  78.4572916  70.6973916  97.4707309
  79.6351225  71.3237298  98.1864778  71.2282281  77.5400225 111.4155808
  72.0913743  77.1837030 111.6259133  70.6547692  77.2014120 112.1031212
  83.7407180 100.9764986  98.1476625  83.1772045 100.8854923  97.3792913
  83.6259575 100.1564891  98.6279117  81.2871612 102.4716178 100.9860845
  82.0792904 102.1307002 100.5707145  81.5268262 102.5811153 101.9062999
  89.3206739 104.6435954  93.4591090  88.6694718 105.2290034  93.0725103
  90.1151102 105.1742149  93.5186127  83.2462366 101.7325091  93.8578224
  84.0193242 101.1854078  93.7191100  83.5987765 102.5969340  94.0692685
  85.5828644  97.8917757  91.4896674  85.8354164  97.3699278  90.7280137
  84.6453203  97.7283903  91.5923358  90.6271927  96.8953536  99.2971417
  91.4135016  96.4772959  98.9461834  90.8910631  97.7999628  99.4653066
  90.7982004 102.3326386  93.9960074  90.1627837 102.4061012  94.7080979
  90.4679410 102.9219985  93.3179153  85.3024932  99.7945863  93.6921049
  85.1861191  99.1190766  94.3602133  85.4127192  99.3078237  92.8753202
  87.6456473  99.2556010  97.3967738  87.2814681  98.7286631  98.1080660
  88.5023589  98.8654479  97.2234224  87.2861960  94.2845910  92.3929087
  87.4536363  95.1526146  92.7599558  87.0959129  94.4473192  91.4690376
  83.4949775  99.1976686 100.0931621  82.5700271  99.0652900 100.3009313
  83.7434188  99.9770905 100.5901564  87.2651181  96.7403567  93.3775753
  87.1450806  97.1860618  94.2161234  86.5703770  97.0888885  92.8189292
  80.8558586  98.8409959 100.9275411  80.9850967  99.0944438 101.8414822
  80.1756037  99.4337667 100.6080066  92.9636247  97.2125041  94.2056088
  93.8754103  97.4452427  94.0303785  92.4545894  97.7962085  93.6431166
  90.3072222  93.3883077 102.4545948  89.4456701  93.6864330 102.7462686
  90.3334657  93.6053475 101.5226981  87.1233792 101.9325267  98.8619754
  87.5872137 102.2112970  98.0724377  86.8590590 101.0308712  98.6792845
  86.0602678  98.0548419  95.6709319  86.7626721  98.5069463  96.1383246
  85.7283306  97.4132238  96.2989212  79.8028012  96.3131972 100.9726453
  79.0127066  96.5689501 100.4966563  80.2939259  97.1280310 101.0778493
  81.7542757  96.6776551  97.9309929  80.9573920  96.7895246  98.4493425
  81.5268349  97.0163204  97.0650820  78.0865715  96.5662463 103.4041444
  78.3373753  97.4509473 103.6699020  78.6225263  96.3867064 102.6316535
  87.2996442 104.8689362  95.7471424  87.1642117 105.7140898  96.1756272
  87.8406255 105.0708640  94.9837358  80.7525840 102.3864800  96.3199350
  81.2650360 103.1808050  96.4704914  81.4048552 101.6891091  96.2532951
  82.5620724 105.5030556  98.4022103  82.7387353 106.4248521  98.2143087
  83.3577558 105.1888976  98.8316482  90.6488906  88.3919924 104.2770318
  90.3053175  89.2821566 104.2009428  91.0167868  88.2021582 103.4139903
  78.7174756 100.7153454  97.0958920  79.5549978 101.1250463  96.8792628
  78.8953024  99.7752897  97.0659114  90.6139189  98.3828535  92.7842753
  90.0985812  99.1533140  93.0231140  90.3416497  97.7093671  93.4075814
  88.1986300  93.2278236  97.8427991  87.3427896  92.8385086  97.6633630
  88.6113251  93.3070197  96.9827777  89.7285446  90.7624579 102.2419551
  89.2250242  90.7254714 101.4287356  90.0216053  91.6717322 102.3016208
  85.9728332  90.8463309 101.2485733  86.8381329  90.6506118 100.8891622
  86.0405841  90.6173661 102.1755090  95.5873463 101.1360890  94.7195926
  94.8102905 100.7972049  94.2751089  96.2664944 101.1413513  94.0450892
  90.4025492  96.2555627  94.6102534  90.0975627  96.5701776  95.4612677
  91.3555934  96.3337047  94.6529867  88.8471924 102.4145851  96.2595488
  88.3193285 101.6798610  95.9468726  88.3459426 103.1920527  96.0135456
  83.5790651  93.0765517  98.6202100  84.1534403  92.8540698  97.8875293
  84.1661634  93.1454211  99.3730701  83.9060238  95.1069978  92.6397985
  83.0697551  95.4444664  92.9607260  83.7665008  94.9718958  91.7025122
  85.8813319  89.9506766  97.3477169  85.2277731  89.6355783  96.7233784
  85.8393793  89.3282506  98.0736992  86.9924524 100.2326061  89.2630461
  86.0851585 100.0015314  89.4621610  87.4895556  99.4363680  89.4504443
  89.8992603 108.9423568  92.1827147  89.2254301 109.2455265  92.7912105
  90.2858425 109.7452648  91.8332604  89.1151059  96.4388699 101.6724817
  88.1973621  96.6603646 101.5146505  89.5311203  96.5135010 100.8136524
  89.8986107  97.8380115  96.8027497  90.6457926  98.3501512  96.4934619
  90.1677697  97.5164168  97.6631891  88.1712757 100.3338656  93.7854451
  87.2623976 100.0497688  93.8826921  88.2007841 100.7537734  92.9257758
  92.3464944  94.8737231  98.7846286  91.6087701  94.3614617  99.1156529
  92.5991718  94.4337613  97.9729563  92.4476571  87.6513483  99.3788056
  92.7535448  86.7910847  99.0913971  93.1729176  88.2431103  99.1787049
  78.7400928  98.0544170  97.7669653  78.5425327  97.4613530  97.0420720
  78.1847592  97.7496380  98.4845592  86.7197651  97.9467276  99.8864247
  86.7746261  96.9941113  99.8106723  85.9088853  98.1026715 100.3705545
  87.8688845 101.8747399  91.1242530  87.4308275 101.1583258  90.6648167
  88.6099286 102.1023514  90.5627621  84.6590011  96.5644336  97.6454626
  83.8457877  96.8638507  98.0519818  85.1549005  96.1700025  98.3629108
  95.9861960 100.1504596  97.1818848  95.8479858 100.3406192  96.2540038
  95.6298179 100.9123979  97.6386900  84.1504086  94.1362692 103.2615860
  84.7903465  93.9951451 102.5638824  83.3181616  93.8497205 102.8854462
  84.9264390 103.4365122  99.3750853  85.7204988 102.9415442  99.1733428
  84.2156082 102.9082985  99.0118558  81.2347153  97.5808204  95.4510606
  80.3044741  97.5192659  95.6680568  81.3304625  97.0584156  94.6547247
  81.1532702  94.1063017  98.0388847  81.4139520  95.0208350  97.9298008
  81.9749875  93.6387459  98.1885460  82.6257628  95.5200774 105.2087672
  83.2980681  95.3118136 104.5600321  81.7987414  95.3222860 104.7692904
  88.0983818 109.1103240  94.3974227  88.2735573 108.6391284  95.2119849
  87.4116606 109.7369007  94.6255487  91.9900073 100.7331781  90.7174587
  91.3729243 100.0078609  90.6207640  91.5216561 101.4941141  90.3741662
  83.7798619  94.9517205  89.8395892  82.9028085  94.8306006  89.4758138
  84.2556372  94.1603284  89.5874780  75.3000759  99.7394365  99.9337399
  75.9871798  99.4256095  99.3458414  75.1448887 100.6435730  99.6604650
  80.1035481  94.6284562 104.3622423  80.0193670  94.0210231 103.6272833
  79.2818187  95.1193580 104.3631919  90.2759195  93.1138125  99.7292618
  90.7727894  92.3608087  99.4093688  89.5046176  93.1502442  99.1635827
  91.3588975 101.8709812  97.3031041  90.4245254 101.9911275  97.1335745
  91.5365644 100.9682279  97.0391051  86.8594163  95.2555508  99.4564302
  86.4891951  94.7026548 100.1445208  87.3553256  94.6513642  98.9039302
  94.7461527  97.7127132  97.8381075  95.2121979  98.5455123  97.7641378
  95.1969027  97.2472113  98.5426334  92.8137758 104.0570953  94.8367227
  93.0897602 103.9427547  95.7461101  91.9442257 103.6588438  94.7979400
  92.7178189  90.0807719 101.8771976  91.8041269  90.3111945 102.0454183
  93.1471291  90.1646163 102.7286009  89.7833987 107.2325489  95.7415089
  90.3121754 106.7217943  95.1285251  90.0462207 106.9168019  96.6060622
  74.8768735  97.8194958 102.2054866  74.9152834  97.2858549 102.9991984
  74.3709028  97.2930164 101.5865843  82.2559497  92.6659499 105.7017408
  82.3200824  93.5274330 105.2894806  82.1926617  92.0533501 104.9689767
  78.5077312  96.5459061  95.2808797  78.8030753  95.6369739  95.2275851
  77.6065348  96.5246800  94.9589800  82.0371559  94.6215057 101.2636346
  81.3158145  95.2351025 101.1243819  82.8264815  95.1572822 101.1852992
  80.2365154  94.2273158  95.4048123  79.9077860  93.3470537  95.2223228
  80.5904525  94.1720827  96.2924512  83.3506977  94.5146128  95.7723600
  83.6903050  95.0432049  95.0502209  83.7979098  94.8526534  96.5482167
  86.0450418  92.8983179 105.2226668  85.7047238  92.0990992 105.6247348
  85.3389424  93.1984890 104.6503501  86.6966890  89.9832491 103.6753991
  87.5192959  89.5092969 103.5532882  86.9404953  90.7622975 104.1752678
  85.3375124  93.0120750  93.9716893  86.0583487  93.3902002  93.4680610
  84.7140428  93.7309626  94.0751871  89.4806247  93.7165899  94.9075225
  89.6969862  94.5990536  94.6064053  89.0000314  93.3252112  94.1780867
  84.2205468  96.6751612 101.4845970  84.0750049  96.9891915 102.3770251
  83.7430672  97.2936512 100.9316869  86.0801851  93.6654160 101.5326859
  86.0663420  92.7695253 101.1959157  86.7974279  93.6724823 102.1665146
  87.9327982  94.0991500 103.5779987  87.6745760  95.0208571 103.5764317
  87.4013022  93.7021934 104.2680451  78.6951131  99.2156956 104.4233631
  78.1504599  99.9916764 104.5553905  79.5730481  99.5627761 104.2652753
  85.4838747  92.5468540  96.8014430  85.6054659  91.6185186  97.0005317
  85.1940790  92.5607226  95.8892745  88.3529938  90.2323450  99.9381149
  88.3751635  90.2962784  98.9833129  88.7697997  89.3927959 100.1321656
  93.8649343 106.5209051  93.4566971  94.5600248 107.1415744  93.6754285
  94.2072493 105.6704403  93.7319348  95.7640766 103.9708757  94.9854301
  96.2892091 104.3096030  94.2603621  95.6763119 103.0355772  94.8017436
  79.9273766 106.2292281  99.3474183  80.7531786 105.9296053  98.9672826
  79.5767818 105.4599904  99.7963971  78.1282371 104.1478608 100.3063116
  77.2914280 103.7200782 100.1247117  78.1006017 104.3411051 101.2433907
  84.4568806 104.1322673  94.8930317  84.6056927 104.8158137  94.2396989
  85.2635250 104.1127763  95.4079772  82.2121439 100.1587850  95.8991386
  81.9667481  99.2550180  96.0971596  82.3817354 100.1605001  94.9570864
  81.4817087  95.8916208  93.3977547  80.7886332  95.9660563  92.7417583
  81.2368839  95.1276552  93.9199064  90.1530743  87.4511809 100.8017038
  90.4332497  86.7834998 101.4277464  90.9381350  87.6440905 100.2891702
  87.9564212 106.6270803  92.3642064  87.3838179 107.2460990  91.9112536
  88.5297005 107.1770165  92.8981986  91.1761472 106.9107953  93.4950646
  92.1092145 106.8453515  93.6983522  91.0884684 107.7464220  93.0365179
  93.8049488 106.2273824  90.4554594  93.7263120 105.8933687  91.3490352
  94.6259155 106.7195592  90.4546066  88.3411010  97.9631616  89.7058117
  89.2870115  97.8337824  89.7746535  87.9625255  97.2246278  90.1827545
  94.3132895  89.6287622  99.6685008  94.1157716  89.3202710 100.5528340
  94.9232600  90.3549261  99.7982938  86.5253927  95.8881592  89.6413002
  85.6185383  95.5914705  89.7175715  86.8029908  95.5911410  88.7747288
  77.4431868  97.2087956 100.0912048  77.1234652  96.3553264  99.7986422
  76.8965296  97.4236534 100.8470016  88.1415993  90.4318482  95.7957243
  87.3316721  90.0865567  96.1712489  88.8300410  90.1226026  96.3844855
  90.0706541  89.5096529  97.4181540  90.6237580  89.9291982  98.0771563
  90.3076628  88.5832277  97.4604496  85.2952712  92.7468528  89.7824981
  86.1571876  93.0723426  90.0420798  85.4803056  91.9600023  89.2698047
  77.3120128 100.8290867 102.0605170  76.6183599 100.4144820 101.5475124
  78.0593119 100.8711404 101.4638589  93.4485349  91.6197054  96.9260204
  92.8684018  92.2781858  96.5438256  93.1821281  90.7974399  96.5147622
  91.8988915  91.0202112  99.1281524  92.3988693  91.1318646  98.3195843
  92.5424523  90.7163165  99.7682333  79.2256870 100.7609121  99.9371185
  79.2027558 100.8596808  98.9853068  79.5357507 101.6074272 100.2588351
  92.2310227  93.7797144  95.9816552  91.3436082  94.0646795  95.7636747
  92.6464216  93.6190908  95.1343829  95.5824763  93.8043665  99.6970892
  96.3585153  94.2940118  99.9695508  94.8572897  94.2301720 100.1542761
  91.3753440 103.5441819  90.0764572  92.0789290 103.7491822  90.6922228
  90.6516089 104.1118581  90.3413656  92.2051250  99.2951680  96.1966842
  92.1486452  99.7520232  95.3574475  92.7579593  98.5342365  96.0189685
  96.0156056  95.0841412  97.0216962  95.7592990  94.6838048  97.8525170
  95.3908924  95.7985206  96.8967101  93.2840137 103.9824348  92.1263032
  94.1185741 103.5505547  91.9440507  93.1224480 103.8106362  93.0539927
  92.9386030 100.4856462  93.4919372  92.8834833 100.3200733  92.5507816
  92.3132085 101.1932494  93.6481561  77.7278545  95.7224526 107.3180794
  78.3737408  95.2123480 107.8068019  77.5195696  96.4593208 107.8924219
  86.2482155  89.9864571  93.0704690  86.2360825  90.9306410  93.2272961
  87.1405577  89.8034716  92.7764151  90.0634275  86.5807347  97.3250627
  89.2966670  86.0265834  97.4707309  90.4744980  86.6529216  98.1864778
  94.7453993 110.4361896  92.6397985  93.9091305 110.7736582  92.9607260
  94.6058762 110.3010875  91.7025122  94.6192373 110.2809123  89.8395892
  93.7421839 110.1597924  89.4758138  95.0950126 109.4895201  89.5874780
  92.3210841 111.2208126  93.3977547  91.6280086 111.2952481  92.7417583
  92.0762593 110.4568469  93.9199064  97.3647682 111.2173510  89.6413002
  96.4579137 110.9206623  89.7175715  97.6423663 110.9203328  88.7747288
  96.1346467 108.0760445  89.7824981  96.9965631 108.4015344  90.0420798
  96.3196811 107.2891941  89.2698047  97.0875910 105.3156488  93.0704690
  97.0754579 106.2598328  93.2272961  97.9799331 105.1326634  92.7764151
  36.8761887  -0.4695384  88.9463516  37.5140297  -0.5888637  88.2426856
  36.7582730   0.4785460  89.0051468  29.5438409   1.3367520  84.8721931
  28.9803274   1.2457457  84.1038219  29.4290804   0.5167425  85.3524424
  35.1237968   5.0038488  80.1836396  34.4725947   5.5892569  79.7970410
  35.9182330   5.5344683  80.2431434  29.0493595   2.0927625  80.5823531
  29.8224471   1.5456612  80.4436406  29.4018994   2.9571875  80.7937992
  31.3859873  -1.7479709  78.2141981  31.6385393  -2.2698187  77.4525444
  30.4484432  -1.9113563  78.3168664  36.4303155  -2.7443930  86.0216724
  37.2166245  -3.1624507  85.6707141  36.6941860  -1.8397838  86.1898372
  36.6013233   2.6928920  80.7205381  35.9659066   2.7663547  81.4326285
  36.2710639   3.2822519  80.0424460  41.8311582  -2.8068697  86.9249702
  42.5636754  -3.3769480  87.1587532  41.0750938  -3.1947097  87.3656208
  31.1056161   0.1548397  80.4166356  30.9892419  -0.5206699  81.0847440
  31.2158421  -0.3319229  79.5998509  33.4487702  -0.3841456  84.1213045
  33.0845909  -0.9110835  84.8325966  34.3054818  -0.7742987  83.9479530
  33.0682410  -2.8993898  80.1021060  32.9482035  -2.4536848  80.9406540
  32.3734998  -2.5508581  79.5434598  30.8289302   9.8709743  83.7511191
  30.7513332  10.8217568  83.8299672  30.2250946   9.5255616  84.4086118
  38.7667476  -2.4272425  80.9301394  39.6785332  -2.1945038  80.7549092
  38.2577123  -1.8435381  80.3676473  37.3737059   2.5553393  88.3214976
  36.7445921   2.7199107  87.6191043  36.9862721   2.9695003  89.0925940
  41.2526290   3.4907831  85.6759339  40.5677329   3.8706732  85.1256373
  41.3370140   4.1003158  86.4091287  32.9265020   2.2927801  85.5865061
  33.3903366   2.5715504  84.7969683  32.6621818   1.3911246  85.4038151
  31.8633906  -1.5849046  82.3954626  32.5657950  -1.1328003  82.8628552
  31.5314535  -2.2265227  83.0234519  39.6223050   4.0139746  90.4477040
  40.4440494   3.6119933  90.1659722  39.6185453   3.9107980  91.3993156
  47.7129043   0.3578494  86.7962012  46.9592751  -0.2114108  86.6406016
  47.8476584   0.3241159  87.7432646  33.1027671   5.2291896  82.4716731
  32.9673346   6.0743432  82.9001579  33.6437484   5.4311174  81.7082665
  26.5557068   2.7467334  83.0444656  27.0681589   3.5410585  83.1950221
  27.2079781   2.0493625  82.9778258  28.3651953   5.8633091  85.1267409
  28.5418581   6.7851055  84.9388393  29.1608787   5.5491510  85.5561789
  29.4883269   7.3811264  91.1277752  30.0390694   7.2528328  90.3554746
  28.6494745   7.6806153  90.7772644  36.4170417  -1.2568931  79.5088060
  35.9017041  -0.4864326  79.7476447  36.1447726  -1.9303795  80.1321121
  41.3904691   1.4963424  81.4441233  40.6134134   1.1574583  80.9996395
  42.0696172   1.5016047  80.7696198  36.2056721  -3.3841839  81.3347841
  35.9006856  -3.0695689  82.1857984  37.1587163  -3.3060419  81.3775174
  34.6503152   2.7748385  82.9840795  34.1224514   2.0401144  82.6714032
  34.1490655   3.5523061  82.7380763  39.6295998   0.9697405  88.1007841
  38.9719673   1.6596667  88.1887970  40.4336398   1.3593837  88.4441827
  38.4401457  -0.6758222  86.1511783  38.9533339  -0.0428230  86.6533493
  39.0902681  -1.2757027  85.7855143  32.7955753   0.5928595  75.9875768
  31.8882814   0.3617848  76.1866917  33.2926785  -0.2033786  76.1749749
  35.7023831   9.3026102  78.9072454  35.0285530   9.6057799  79.5157412
  36.0889653  10.1055183  78.5577911  35.7017336  -1.8017351  83.5272804
  36.4489155  -1.2895954  83.2179926  35.9708925  -2.1233298  84.3877197
  33.9743986   0.6941190  80.5099758  33.0655205   0.4100223  80.6072228
  34.0039070   1.1140268  79.6503065  39.2063253   4.3047779  84.2790925
  38.7525581   3.4638689  84.3356116  38.5757220   4.9409178  84.6165706
  38.1496173  -4.7660235  85.5091593  37.4118930  -5.2782848  85.8401836
  38.4022946  -5.2059853  84.6974870  37.6496193   6.1424276  85.2140744
  37.9419167   6.7029333  84.4953109  38.1594813   6.4352837  85.9693903
  32.5228880  -1.6930190  86.6109553  32.5777490  -2.6456353  86.5352030
  31.7120082  -1.5370750  87.0950852  33.6720074   2.2349934  77.8487837
  33.2339504   1.5185792  77.3893474  34.4130515   2.4626048  77.2872928
  32.6129818   6.9204627  86.3034197  32.5705997   7.1465473  85.3742729
  33.5292517   6.6868002  86.4519998  41.7893189   0.5107131  83.9064155
  41.6511087   0.7008727  82.9785344  41.4329407   1.2726513  84.3632206
  41.8162568   2.5783658  88.9175427  42.2499075   2.4858947  89.7658481
  42.5294149   2.5541158  88.2795443  30.7295619   3.7967656  86.0996160
  31.5236217   3.3017976  85.8978735  30.0187311   3.2685519  85.7363865
  35.5490463   6.1785752  90.4508527  35.6027485   6.7476688  91.2186243
  34.6805244   6.3487637  90.0862564  42.6778118   2.6207358  91.4508312
  42.8714008   3.5253169  91.6967587  42.5778736   2.1614777  92.2846897
  33.3066895   4.3696678  89.7793997  33.1677980   4.0015463  90.6519935
  32.5181491   4.8844318  89.6077954  33.9015047   9.4705775  81.1219533
  34.0766802   8.9993818  81.9365156  33.2147835  10.0971541  81.3500794
  34.8572110   3.7478281  87.1682834  34.5221942   3.7079051  88.0640484
  34.3576055   3.0822997  86.6953245  37.7931301   1.0934315  77.4419894
  37.1760472   0.3681143  77.3452947  37.3247790   1.8543675  77.0986968
  28.4676132  12.6195137  87.8959393  28.7072730  13.2513662  88.5738412
  27.6245328  12.2683177  88.1824753  32.9803994   8.4274260  90.3000897
  32.9074165   9.2329231  90.8120202  32.5381387   8.6266226  89.4748919
  32.7693773   7.6646030  83.8103719  31.9861295   8.2067710  83.9041943
  33.4686519   8.1820009  84.2097960  43.9320181  -0.8218975  88.0956216
  43.9210057   0.0605740  87.7250149  43.0637560  -1.1747424  87.9010753
  35.4402677   8.3261094  92.4559056  36.1530649   8.9608559  92.3834957
  34.9492706   8.4224960  91.6399058  37.1620204   2.2312347  84.0276348
  36.2276483   2.3513809  83.8581052  37.3396873   1.3284813  83.7636357
  40.5492756  -1.9270334  84.5626382  41.0153208  -1.0942343  84.4886684
  41.0000256  -2.3925353  85.2671640  38.6168987   4.4173487  81.5612534
  38.8928831   4.3030082  82.4706408  37.7473485   4.0190972  81.5224707
  35.2523051   8.6659838  85.2045347  35.4345445   7.8481494  85.6673100
  36.0756037   8.8827530  84.7670237  35.5865216   7.5928023  82.4660396
  36.1152983   7.0820478  81.8530558  35.8493436   7.2770553  83.3305929
  28.9420964   8.6443140  85.2258172  28.2731339   9.1289267  84.7422212
  28.8033834   8.8912360  86.1401550  33.0826233  10.6786883  91.8240830
  33.6344541  10.8418505  92.5889915  33.4232426  11.2691321  91.1520855
  36.2194620   8.6268859  88.8104512  36.0945759   7.8258599  88.3015458
  36.8773711   9.1215052  88.3218482  38.2829528   6.4277879  90.4384062
  37.3359864   6.3083230  90.3662389  38.6312301   5.5400377  90.5210324
  35.2875962   6.2230595  86.6388415  35.1400924   5.2947303  86.8195985
  36.1129455   6.2450686  86.1545490  38.8910083   7.0459154  87.7253287
  39.8156631   6.8402015  87.5877739  38.7225387   6.7975555  88.6342629
  38.6805400   7.5644821  83.0815379  38.8542277   6.9991244  82.3289231
  39.1734291   8.3645716  82.8994869  44.5344791   0.3281244  84.7005679
  44.9775937  -0.4211431  84.3024802  43.6571301   0.3191381  84.3179411
  39.6680572   6.8811586  80.1812277  40.3631477   7.5018278  80.3999592
  40.0103722   6.0306937  80.4564655  41.5671995   4.3311291  81.7099608
  42.0923319   4.6698564  80.9848928  41.4794348   3.3958307  81.5262743
  33.2512656  10.3983274  86.0694861  32.8117646   9.9059653  86.7627718
  34.0020773   9.8556242  85.8286936  25.7304995   6.5894815  86.0719489
  26.5563015   6.2898587  85.6918133  25.3799047   5.8202438  86.5209278
  30.6986528   5.9421284  88.1417163  30.0766537   5.2791989  87.8419391
  31.3691395   5.9682415  87.4590811  30.2600035   4.4925207  81.6175623
  30.4088155   5.1760671  80.9642296  31.0666479   4.4730297  82.1325079
  44.0777656   1.7986483  87.0928126  44.9124547   2.2376287  87.2565687
  44.2136784   1.3225136  86.2736372  28.0152668   0.5190385  82.6236692
  27.7698710  -0.3847285  82.8216902  28.1848583   0.5207535  81.6816170
  33.7595441   6.9873337  79.0887371  33.1869408   7.6063524  78.6357843
  34.3328234   7.5372699  79.6227293  36.9792700   7.2710487  80.2195953
  37.9123374   7.2056049  80.4228829  36.8915913   8.1066754  79.7610486
  39.6080717   6.5876358  77.1799901  39.5294349   6.2536221  78.0735659
  40.4290384   7.0798126  77.1791373  42.3058908  -0.5461903  90.3876219
  42.2735228  -1.4845902  90.5735903  42.9159532  -0.4677866  89.6542044
  34.1442239  -1.6765850  76.4303423  35.0901344  -1.8059642  76.4991841
  33.7656484  -2.4151188  76.9072851  48.1235458   0.5154104  89.5282256
  48.8538847   0.2539392  90.0889959  47.5142404  -0.2217174  89.5684324
  46.2050755  -1.3438033  90.1256707  45.4783919  -1.4782068  89.5173199
  45.7898042  -1.0361205  90.9313425  39.2516577  -8.0200412  83.6505511
  38.6715246  -7.3615608  83.2683563  38.9852510  -8.8423067  83.2392928
  38.0341455  -5.8600321  82.7061859  37.1467310  -5.5750671  82.4882054
  38.4495444  -6.0206558  81.8589136  41.3855992  -5.8353800  86.4216198
  42.1616382  -5.3457348  86.6940815  40.6604126  -5.4095746  86.8788068
  43.8228550  -5.1226181  87.4790139  44.4173041  -5.3630445  86.7683447
  43.8955134  -5.8419051  88.1063675  26.0425706   8.7207430  87.7933304
  25.9080174   7.9607831  87.2271302  25.6257768   9.4448330  87.3262093
  37.1784669   3.9044353  76.8009879  37.8820519   4.1094356  77.4167535
  36.4547318   4.4721115  77.0658962  38.0082479  -0.3445785  82.9212149
  37.9517681   0.1122766  82.0819782  38.5610822  -1.1055101  82.7434992
  41.8187285  -4.5556054  83.7462269  41.5624219  -4.9559418  84.5770476
  41.1940153  -3.8412260  83.6212408  46.1299623  -1.8159980  86.2533560
  45.5699181  -1.7466791  87.0265122  45.5243126  -1.9918996  85.5333056
  29.1994832   9.6176747  88.0051746  29.0827216  10.5622179  87.9030437
  28.3787278   9.3150308  88.3937546  39.0871366   4.3426882  78.8508339
  39.9216970   3.9108081  78.6685814  38.9255709   4.1708896  79.7785233
  38.7417258   0.8458996  80.2164678  38.6866062   0.6803267  79.2753122
  38.1163314   1.5535029  80.3726868  30.2249346  10.2705009  91.2207675
  31.1276593  10.3028619  91.5374170  29.9986716   9.3405460  91.2354011
  31.9802948   9.0235995  87.8817753  31.0298579   9.0237857  87.7682126
  32.2835434   8.2768730  87.3653788  47.7155641  14.8596534  88.9463516
  48.3534051  14.7403281  88.2426856  47.5976484  15.8077378  89.0051468
  44.5245348  14.8123962  88.8825040  44.1863859  14.6965026  87.9945575
  45.3935116  14.4115127  88.8626047  40.3832163  16.6659438  84.8721931
  39.8197028  16.5749375  84.1038219  40.2684558  15.8459343  85.3524424
  45.0065131  15.9658813  94.8411246  44.9953771  15.5711612  93.9691750
  45.1685770  15.2324886  95.4345017  37.9296595  18.1610630  87.7106152
  38.7217887  17.8201454  87.2952451  38.1693245  18.2705605  88.6308305
  45.9631722  20.3330406  80.1836396  45.3119702  20.9184486  79.7970410
  46.7576085  20.8636601  80.2431434  39.8887349  17.4219543  80.5823531
  40.6618225  16.8748530  80.4436406  40.2412748  18.2863792  80.7937992
  41.7272392  18.7495925  93.7890430  41.4362258  19.6541556  93.6737096
  42.3629376  18.7912453  94.5034500  42.6528599  16.1272774  90.3791790
  43.2492171  15.9028796  89.6648753  42.7103570  15.3857519  90.9817237
  42.2253627  13.5812209  78.2141981  42.4779148  13.0593730  77.4525444
  41.2878186  13.4178354  78.3168664  47.2696910  12.5847987  86.0216724
  48.0559999  12.1667411  85.6707141  47.5335614  13.4894080  86.1898372
  47.4406987  18.0220838  80.7205381  46.8052820  18.0955464  81.4326285
  47.1104394  18.6114437  80.0424460  52.6705337  12.5223221  86.9249702
  53.4030509  11.9522437  87.1587532  51.9144693  12.1344821  87.3656208
  41.9449916  15.4840315  80.4166356  41.8286174  14.8085218  81.0847440
  42.0552176  14.9972689  79.5998509  44.2881457  14.9450462  84.1213045
  43.9239664  14.4181083  84.8325966  45.1448573  14.5548931  83.9479530
  50.1930757   6.2344795  91.3844311  49.8614082   7.1040206  91.1605526
  49.5976371   5.9181079  92.0638341  43.9286944   9.9740362  79.1174393
  44.0961346  10.8420598  79.4844864  43.7384113  10.1367643  78.1935683
  46.6862277  18.4357341  90.7840224  46.3863000  19.3382380  90.6756031
  46.3413336  18.1689524  91.6361377  40.1374758  14.8871138  86.8176928
  39.2125255  14.7547352  87.0254620  40.3859172  15.6665357  87.3146870
  50.0859421  10.9539881  88.4637661  49.1776298  10.8855289  88.1696422
  50.0347016  11.4311826  89.2919486  43.9076165  12.4298019  80.1021060
  43.7875790  12.8755070  80.9406540  43.2128753  12.7783337  79.5434598
  37.4983569  14.5304411  87.6520717  37.6275951  14.7838890  88.5660129
  36.8181021  15.1232119  87.3325372  41.6683057  25.2001661  83.7511191
  41.5907086  26.1509486  83.8299672  41.0644700  24.8547534  84.4086118
  44.1600286  12.3729526  96.4072558  43.3833620  12.9323447  96.3975423
  44.7990849  12.8586309  96.9287428  51.9521067   9.1556319  90.2415535
  51.3095447   9.4488852  89.5955329  51.4475996   9.0409240  91.0468732
  49.6061231  12.9019492  80.9301394  50.5179087  13.1346879  80.7549092
  49.0970878  13.4856537  80.3676473  42.4146659  15.1814980  95.9690525
  43.1561343  15.7200024  95.6925349  41.7083644  15.8081269  96.1262077
  47.8901998  17.3244120  94.5662687  48.2985354  16.8826531  93.8217319
  47.1679260  16.7496748  94.8196880  44.2433068  12.2616727  91.9396244
  45.0894264  12.6856141  92.0830893  44.1831706  11.6050351  92.6334807
  48.2130813  17.8845311  88.3214976  47.5839675  18.0491025  87.6191043
  47.8256475  18.2986920  89.0925940  52.0920045  18.8199749  85.6759339
  51.4071083  19.1998650  85.1256373  52.1763894  19.4295075  86.4091287
  47.3932514   9.9221095  93.5977417  47.1493446  10.6763156  93.0611693
  47.6692444  10.3006443  94.4324664  49.3470977  16.4659708  92.2754683
  49.5587872  17.1091468  91.5989064  49.3000725  15.6322024  91.8076613
  46.9497205   9.0777528  89.1791255  46.0881684   9.3758782  89.4707993
  46.9759640   9.2947927  88.2472288  43.7658775  17.6219719  85.5865061
  44.2297120  17.9007422  84.7969683  43.5015573  16.7203164  85.4038151
  40.6582856  17.1691201  88.5244824  41.2284213  17.5978469  87.8862308
  41.2490968  16.8873785  89.2229010  42.7027661  13.7442871  82.3954626
  43.4051704  14.1963915  82.8628552  42.3708289  13.1026690  83.0234519
  41.1508022  12.3354628  96.7705835  40.5206683  13.0170909  97.0041232
  41.0444110  12.2237710  95.8258973  36.4452995  12.0026424  87.6971759
  35.6552049  12.2583953  87.2211870  36.9364242  12.8174762  87.8023800
  50.4616804  19.3431663  90.4477040  51.2834248  18.9411850  90.1659722
  50.4579207  19.2399897  91.3993156  38.3967740  12.3671003  84.6555236
  37.5998904  12.4789698  85.1738732  38.1693332  12.7057656  83.7896127
  44.2273408  18.8915707  92.6037751  44.2917840  19.3536114  93.4395923
  43.5184332  18.2613071  92.7320061  34.7290698  12.2556914  90.1286750
  34.9798736  13.1403924  90.3944326  35.2650246  12.0761516  89.3561842
  58.5522798  15.6870412  86.7962012  57.7986506  15.1177810  86.6406016
  58.6870339  15.6533076  87.7432646  43.9421426  20.5583814  82.4716731
  43.8067100  21.4035350  82.9001579  44.4831238  20.7603092  81.7082665
  37.3950823  18.0759252  83.0444656  37.9075344  18.8702502  83.1950221
  38.0473536  17.3785542  82.9778258  39.2045708  21.1925008  85.1267409
  39.3812336  22.1142973  84.9388393  40.0002541  20.8783428  85.5561789
  43.3456726   8.0533273  96.7251343  44.0866440   8.6540426  96.6455805
  43.5774649   7.3110911  96.1669385  38.4898064  13.2389640  95.0029573
  38.3751579  12.3374897  95.3036671  37.6342582  13.4853337  94.6514389
  45.5689902  21.1807381  96.6017073  45.1253756  20.3943759  96.2837978
  46.2307116  21.3686531  95.9360964  40.3277023  22.7103182  91.1277752
  40.8784448  22.5820245  90.3554746  39.4888499  23.0098071  90.7772644
  47.6671140  21.4610180  94.6298474  47.6489615  22.2819061  94.1378744
  48.5891060  21.3364256  94.8548616  44.1244194  18.9754310  95.4721983
  44.6572531  18.2142598  95.2421291  43.5958275  18.6827962  96.2146137
  47.2913889   4.0814376  91.0015625  46.9478159   4.9716018  90.9254735
  47.6592852   3.8916034  90.1385210  35.3599740  16.4047906  83.8204227
  36.1974962  16.8144915  83.6037934  35.5378007  15.4647349  83.7904421
  47.2564172  14.0722987  79.5088060  46.7410795  14.8427592  79.7476447
  46.9841480  13.3988123  80.1321121  44.8411283   8.9172688  84.5673298
  43.9852879   8.5279538  84.3878937  45.2538235   8.9964649  83.7073084
  46.3710430   6.4519031  88.9664858  45.8675225   6.4149166  88.1532663
  46.6641036   7.3611774  89.0261514  42.6153315   6.5357761  87.9731040
  43.4806312   6.3400569  87.6136929  42.6830824   6.3068113  88.9000396
  52.2298446  16.8255342  81.4441233  51.4527889  16.4866501  80.9996395
  52.9089927  16.8307965  80.7696198  47.0450475  11.9450079  81.3347841
  46.7400611  12.2596228  82.1857984  47.9980917  12.0231499  81.3775174
  45.4896907  18.1040302  82.9840795  44.9618268  17.3693062  82.6714032
  44.9884410  18.8814979  82.7380763  50.4689753  16.2989323  88.1007841
  49.8113427  16.9888584  88.1887970  51.2730152  16.6885755  88.4441827
  40.2215634   8.7659969  85.3447406  40.7959386   8.5435150  84.6120599
  40.8086617   8.8348663  86.0976008  49.2795212  14.6533696  86.1511783
  49.7927093  15.2863687  86.6533493  49.9296436  14.0534891  85.7855143
  40.5485222  10.7964430  79.3643292  39.7122534  11.1339116  79.6852566
  40.4089991  10.6613410  78.4270429  42.5238302   5.6401218  84.0722476
  41.8702715   5.3250235  83.4479091  42.4818776   5.0176958  84.7982299
  43.6349507  15.9220513  75.9875768  42.7276569  15.6909766  76.1866917
  44.1320539  15.1258132  76.1749749  46.5417586  24.6318020  78.9072454
  45.8679285  24.9349717  79.5157412  46.9283408  25.4347100  78.5577911
  45.7576043  12.1283151  88.3970123  44.8398604  12.3498098  88.2391811
  46.1736186  12.2029462  87.5381831  46.5411090  13.5274567  83.5272804
  47.2882909  14.0395964  83.2179926  46.8102680  13.2058620  84.3877197
  44.8137740  16.0233108  80.5099758  43.9048960  15.7392140  80.6072228
  44.8432824  16.4432186  79.6503065  50.0457008  19.6339697  84.2790925
  49.5919335  18.7930607  84.3356116  49.4150975  20.2701095  84.6165706
  48.9889927  10.5631683  85.5091593  48.2512684  10.0509069  85.8401836
  49.2416701  10.1232065  84.6974870  48.4889947  21.4716194  85.2140744
  48.7812922  22.0321251  84.4953109  48.9988568  21.7644755  85.9693903
  49.0901555   3.3407935  86.1033362  49.3960432   2.4805298  85.8159277
  49.8154160   3.9325555  85.9032356  35.3825911  13.7438622  84.4914960
  35.1850311  13.1507982  83.7666027  34.8272575  13.4390832  85.2090899
  43.3622635  13.6361728  86.6109553  43.4171244  12.6835565  86.5352030
  42.5513837  13.7921167  87.0950852  44.5113828  17.5641851  77.8487837
  44.0733258  16.8477710  77.3893474  45.2524269  17.7917966  77.2872928
  41.3014994  12.2538788  84.3699932  40.4882860  12.5532958  84.7765124
  41.7973989  11.8594477  85.0874414  43.4523572  22.2496545  86.3034197
  43.4099751  22.4757391  85.3742729  44.3686271  22.0159919  86.4519998
  46.8989206  12.7180612  93.2014826  47.2538594  12.9452085  94.0609292
  47.5461337  13.0498989  92.5792081  52.6286943  15.8399048  83.9064155
  52.4904842  16.0300644  82.9785344  52.2723162  16.6018431  84.3632206
  40.7929069   9.8257143  89.9861167  41.4328449   9.6845903  89.2884130
  39.9606600   9.5391657  89.6099769  52.6556323  17.9075575  88.9175427
  53.0892829  17.8150864  89.7658481  53.3687903  17.8833076  88.2795443
  41.5689373  19.1259574  86.0996160  42.3629972  18.6309894  85.8978735
  40.8581065  18.5977437  85.7363865  46.3884218  21.5077669  90.4508527
  46.4421240  22.0768606  91.2186243  45.5198999  21.6779554  90.0862564
  37.8772137  13.2702656  82.1755912  36.9469725  13.2087111  82.3925874
  37.9729609  12.7478608  81.3792553  37.7957686   9.7957468  84.7634154
  38.0564503  10.7102802  84.6543314  38.6174858   9.3281911  84.9130767
  39.2682611  11.2095226  91.9332978  39.9405664  11.0012588  91.2845627
  38.4412397  11.0117312  91.4938211  53.5171872  17.9499276  91.4508312
  53.7107762  18.8545086  91.6967587  53.4172490  17.4906695  92.2846897
  45.1708183   7.8357166  93.9498639  44.5236098   8.5347116  93.8563116
  45.9409198   8.2693310  94.3174888  48.5786981  18.1006019  97.0249193
  48.4272487  17.8716570  96.1079276  48.5691660  19.0576620  97.0380538
  45.3472317  15.6737931  92.0095459  46.2764377  15.8249091  91.8364426
  44.9263347  15.7621952  91.1544106  44.1460649  19.6988596  89.7793997
  44.0071735  19.3307380  90.6519935  43.3575245  20.2136235  89.6077954
  44.7408801  24.7997692  81.1219533  44.9160557  24.3285735  81.9365156
  44.0541589  25.4263458  81.3500794  45.6965864  19.0770199  87.1682834
  45.3615697  19.0370968  88.0640484  45.1969810  18.4114914  86.6953245
  39.6710108  14.4837829  92.6935416  39.5329906  13.7518067  93.2946955
  40.5815032  14.3946729  92.4119603  48.6325056  16.4226233  77.4419894
  48.0154227  15.6973061  77.3452947  48.1641544  17.1835593  77.0986968
  42.2992409  14.1957788  92.1819095  43.0092027  13.5550980  92.1405714
  42.2561717  14.4470683  93.1045276  50.2879188  21.1325141  95.1025674
  50.2291734  20.4484361  94.4356257  50.6898706  21.8744131  94.6506300
  41.0121343  11.1823006  94.0014735  40.4758700  10.7313744  94.6536331
  40.4238051  11.3168915  93.2585199  39.3069886  27.9487055  87.8959393
  39.5466485  28.5805579  88.5738412  38.4639083  27.5975095  88.1824753
  40.4223602  10.6411657  76.5641198  39.5453068  10.5200458  76.2003445
  40.8981355   9.8497735  76.3120087  50.2896595  19.0964725  93.3339654
  49.4023374  18.7590647  93.4566053  50.8595146  18.3647756  93.5708420
  31.9425742  15.4288817  86.6582706  32.6296782  15.1150547  86.0703721
  31.7873871  16.3330182  86.3849957  36.7460464  10.3179013  91.0867729
  36.6618653   9.7104683  90.3518139  35.9243170  10.8088032  91.0877226
  43.8197748  23.7566177  90.3000897  43.7467920  24.5621149  90.8120202
  43.3775141  23.9558143  89.4748919  43.6087528  22.9937948  83.8103719
  42.8255050  23.5359628  83.9041943  44.3080273  23.5111927  84.2097960
  46.9184178   8.8032577  86.4537924  47.4152877   8.0502539  86.1338995
  46.1471159   8.8396894  85.8881134  54.7713935  14.5072943  88.0956216
  54.7603812  15.3897658  87.7250149  53.9031315  14.1544493  87.9010753
  46.2796432  23.6553012  92.4559056  46.9924404  24.2900476  92.3834957
  45.7886460  23.7516878  91.6399058  48.0013959  17.5604264  84.0276348
  47.0670237  17.6805727  83.8581052  48.1790627  16.6576731  83.7636357
  43.5019147  10.9449960  86.1809609  43.1316934  10.3921000  86.8690514
  43.9978239  10.3408093  85.6284609  51.3886510  13.4021583  84.5626382
  51.8546962  14.2349575  84.4886684  51.8394010  12.9366565  85.2671640
  41.3308345  21.4047455  93.2764627  42.0317805  22.0383938  93.4294021
  40.8603460  21.7462187  92.5160266  49.4562741  19.7465405  81.5612534
  49.7322585  19.6321999  82.4706408  48.5867240  19.3482890  81.5224707
  49.3603173   5.7702170  88.6017283  48.4466253   6.0006397  88.7699490
  49.7896274   5.8540615  89.4531316  49.1309631  13.9592062  91.1017177
  48.4781081  14.2067970  90.4469630  49.5090011  13.1456201  90.7679654
  46.0916805  23.9951756  85.2045347  46.2739200  23.1773412  85.6673100
  46.9149791  24.2119448  84.7670237  46.4258971  22.9219941  82.4660396
  46.9546737  22.4112395  81.8530558  46.6887190  22.6062471  83.3305929
  45.1797204  14.7011873  97.5883214  44.5037841  14.6006003  98.2585589
  46.0024838  14.5451087  98.0519211  36.9276063  20.9383810  90.2095729
  37.5129500  20.1927498  90.3423634  36.7300902  21.2487767  91.0932393
  39.7814719  23.9735057  85.2258172  39.1125094  24.4581185  84.7422212
  39.6427588  24.2204278  86.1401550  31.5193718  13.5089410  88.9300173
  31.5577818  12.9753001  89.7237291  31.0134011  12.9824616  88.3111150
  43.9219987  26.0078801  91.8240830  44.4738295  26.1710422  92.5889915
  44.2626181  26.5983239  91.1520855  38.8984480   8.3553951  92.4262715
  38.9625807   9.2168782  92.0140113  38.8351601   7.7427952  91.6935073
  48.7730861  20.8340058  97.6789485  49.3170765  21.4470017  97.1844439
  48.1917706  21.3919637  98.1956498  35.1502296  12.2353512  82.0054104
  35.4455737  11.3264191  81.9521158  34.2490331  12.2141252  81.6835106
  47.0588374  23.9560776  88.8104512  46.9339514  23.1550516  88.3015458
  47.7167466  24.4506970  88.3218482  38.6796543  10.3109509  87.9881653
  37.9583128  10.9245477  87.8489126  39.4689798  10.8467274  87.9098299
  49.1223283  21.7569797  90.4384062  48.1753618  21.6375148  90.3662389
  49.4706056  20.8692295  90.5210324  41.4822856   7.6463935  94.2622304
  42.0057258   7.8926232  95.0248614  41.2635189   8.4783970  93.8425442
  36.8790137   9.9167610  82.1293429  36.5502843   9.0364989  81.9468535
  37.2329508   9.8615279  83.0169818  46.1269716  21.5522513  86.6388415
  45.9794679  20.6239220  86.8195985  46.9523210  21.5742603  86.1545490
  39.9931960  10.2040580  82.4968907  40.3328033  10.7326501  81.7747515
  40.4404081  10.5420986  83.2727473  49.7303838  22.3751071  87.7253287
  50.6550385  22.1693933  87.5877739  49.5619141  22.1267473  88.6342629
  42.6875401   8.5877631  91.9471975  42.3472222   7.7885444  92.3492655
  41.9814407   8.8879341  91.3748808  43.3391873   5.6726943  90.3999298
  44.1617942   5.1987421  90.2778188  43.5829937   6.4517427  90.8997984
  41.9800108   8.7015201  80.6962200  42.7008470   9.0796454  80.1925916
  41.3565412   9.4204078  80.7997178  46.1231230   9.4060350  81.6320532
  46.3394845  10.2884988  81.3309360  45.6425298   9.0146564  80.9026174
  40.8630452  12.3646064  88.2091277  40.7175033  12.6786367  89.1015558
  40.3855655  12.9830964  87.6562175  42.7226835   9.3548612  88.2572166
  42.7088403   8.4589705  87.9204464  43.4399263   9.3619275  88.8910452
  44.5752965   9.7885952  90.3025294  44.3170743  10.7103022  90.3009624
  44.0438006   9.3916386  90.9925758  49.5199154  22.8936739  83.0815379
  49.6936032  22.3283161  82.3289231  50.0128045  23.6937634  82.8994869
  35.3376114  14.9051408  91.1478938  34.7929582  15.6811216  91.2799212
  36.2155464  15.2522213  90.9898059  42.1263731   8.2362992  83.5259736
  42.2479642   7.3079638  83.7250624  41.8365773   8.2501678  82.6138052
  44.9954921   5.9217902  86.6626456  45.0176618   5.9857235  85.7078436
  45.4122980   5.0822411  86.8566962  55.3738545  15.6573162  84.7005679
  55.8169691  14.9080487  84.3024802  54.4965056  15.6483298  84.3179411
  50.5074327  22.2103503  80.1812277  51.2025231  22.8310196  80.3999592
  50.8497477  21.3598855  80.4564655  36.1242136  14.0321304  94.0409095
  35.3823872  14.1803940  94.6273725  35.8034880  14.2929570  93.1775844
  52.4065750  19.6603209  81.7099608  52.9317074  19.9990482  80.9848928
  52.3188102  18.7250224  81.5262743  44.0685798  23.5737283  93.8389485
  44.3772925  23.3286429  94.7112184  44.8661280  23.7783921  93.3508355
  44.0906411  25.7275192  86.0694861  43.6511401  25.2351571  86.7627718
  44.8414527  25.1848160  85.8286936  36.5698749  21.9186733  86.0719489
  37.3956769  21.6190505  85.6918133  36.2192801  21.1494355  86.5209278
  41.5380283  21.2713201  88.1417163  40.9160292  20.6083906  87.8419391
  42.2085150  21.2974333  87.4590811  34.7707355  19.8373059  87.0308423
  33.9339263  19.4095234  86.8492424  34.7431000  20.0305503  87.9679214
  52.0959656  20.2936113  97.0150806  51.3055200  20.2760251  96.4755305
  51.8593010  20.8324406  97.7699843  52.2157531  17.1428579  94.3283534
  52.2655536  16.9778586  95.2699057  52.1071454  16.2755838  93.9381415
  41.0993790  19.8217125  81.6175623  41.2481910  20.5052589  80.9642296
  41.9060233  19.8022215  82.1325079  49.5061293  13.1259507  95.6442841
  50.4071156  12.9865972  95.3526839  49.5809268  13.2913962  96.5841019
  43.8404099  10.5026362  94.4896027  42.9707408  10.7959928  94.2178616
  44.0763579  11.0866807  95.2103291  53.7175728  19.5625520  94.5725556
  53.4260536  19.9255501  95.4089017  53.1047859  18.8492529  94.3938888
  54.9171410  17.1278400  87.0928126  55.7518301  17.5668204  87.2565687
  55.0530539  16.6517053  86.2736372  51.9662916  14.6858135  93.0405614
  52.4417038  14.8785781  92.2324465  51.0428481  14.7417321  92.7948998
  38.8546423  15.8482302  82.6236692  38.6092464  14.9444632  82.8216902
  39.0242337  15.8499453  81.6816170  46.5443132   6.7205979  92.0061448
  47.0625076   7.4567006  91.6807936  46.1898265   7.0269972  92.8408207
  38.1242070  11.5810660  80.1222854  37.4311315  11.6555015  79.4662890
  37.8793822  10.8171003  80.6444371  46.7955727   3.1406261  87.5262344
  47.0757480   2.4729450  88.1522771  47.5806334   3.3335357  87.0137008
  44.5989195  22.3165255  79.0887371  44.0263162  22.9355442  78.6357843
  45.1721989  22.8664617  79.6227293  50.6664585  11.5623895  91.2733920
  51.6182008  11.6621993  91.2946144  50.4968035  10.7702164  91.7832004
  48.6878964   8.6479478  91.4593321  48.0928897   8.9284491  90.7639809
  48.4028661   9.1373379  92.2310062  47.8186455  22.6002405  80.2195953
  48.7517128  22.5347967  80.4228829  47.7309668  23.4358672  79.7610486
  50.4474472  21.9168276  77.1799901  50.3688103  21.5828139  78.0735659
  51.2684138  22.4090043  77.1791373  53.1452663  14.7830015  90.3876219
  53.1128983  13.8446016  90.5735903  53.7553286  14.8614052  89.6542044
  44.9835994  13.6526068  76.4303423  45.9295098  13.5232276  76.4991841
  44.6050239  12.9140730  76.9072851  53.2947151  11.5741058  90.4334502
  52.7786200  10.7899515  90.2464431  54.1787100  11.2459775  90.5981022
  50.9557878   5.3182074  86.3930315  50.7582699   5.0097162  87.2773647
  51.5657584   6.0443713  86.5228245  58.9629213  15.8446022  89.5282256
  59.6932601  15.5831310  90.0889959  58.3536158  15.1074744  89.5684324
  57.0444510  13.9853884  90.1256707  56.3177673  13.8509849  89.5173199
  56.6291797  14.2930713  90.9313425  44.8674686  17.7043814  97.8904080
  45.7877696  17.8822413  98.0844127  44.8324269  16.7599859  97.7383780
  43.1678911  11.5776044  76.3658309  42.2610366  11.2809157  76.4421022
  43.4454892  11.2805862  75.4992595  34.0856851  12.8982408  86.8157355
  33.7659635  12.0447716  86.5231729  33.5390279  13.1130986  87.5715322
  37.8636759  15.6144849  90.5326861  38.0822768  16.5461956  90.5514895
  38.2762532  15.2552823  91.3181665  44.7840976   6.1212934  82.5202550
  43.9741705   5.7760019  82.8957796  45.4725393   5.8120478  83.1090161
  46.7131525   5.1990981  84.1426846  47.2662563   5.6186434  84.8016870
  46.9501611   4.2726729  84.1849802  41.9377695   8.4362979  76.5070288
  42.7996859   8.7617878  76.7666105  42.1228040   7.6494475  75.9943353
  33.9545111  16.5185319  88.7850476  33.2608583  16.1039272  88.2720431
  34.7018102  16.5605856  88.1883895  50.0910332   7.3091506  83.6505511
  49.5109001   7.9676310  83.2683563  49.8246265   6.4868850  83.2392928
  48.5413898   6.7096564  85.8526831  49.0413677   6.8213098  85.0441150
  49.1849506   6.4057616  86.4927639  42.5995894  14.6175193  98.7394672
  42.1162976  15.4175553  98.9458561  42.6856833  14.6283138  97.7862116
  35.8681854  16.4503573  86.6616491  35.8452542  16.5491260  85.7098374
  36.1782490  17.2968724  86.9833657  38.5269232  18.5079728  90.7763106
  39.4812485  18.4763670  90.7093037  38.3281755  18.0470352  91.5913332
  39.1168614  17.0780844  93.3433903  39.9361503  17.5724923  93.3668741
  39.3905421  16.1612812  93.3151471  48.8735210   9.4691596  82.7061859
  47.9861065   9.7541247  82.4882054  49.2889199   9.3085360  81.8589136
  52.2249746   9.4938117  86.4216198  53.0010136   9.9834570  86.6940815
  51.4997880   9.9196171  86.8788068  54.6622305  10.2065736  87.4790139
  55.2566795   9.9661472  86.7683447  54.7348888   9.4872867  88.1063675
  36.8819460  24.0499347  87.7933304  36.7473928  23.2899748  87.2271302
  36.4651523  24.7740247  87.3262093  48.0178423  19.2336271  76.8009879
  48.7214273  19.4386273  77.4167535  47.2941072  19.8013033  77.0658962
  48.8476234  14.9846132  82.9212149  48.7911435  15.4414684  82.0819782
  49.4004576  14.2236817  82.7434992  52.6581040  10.7735864  83.7462269
  52.4017974  10.3732500  84.5770476  52.0333908  11.4879658  83.6212408
  56.9693377  13.5131937  86.2533560  56.4092935  13.5825127  87.0265122
  56.3636881  13.3372922  85.5333056  40.0388586  24.9468664  88.0051746
  39.9220970  25.8914097  87.9030437  39.2181032  24.6442226  88.3937546
  49.9265121  19.6718800  78.8508339  50.7610725  19.2399999  78.6685814
  49.7649464  19.5000814  79.7785233  49.5811013  16.1750913  80.2164678
  49.5259817  16.0095185  79.2753122  48.9557068  16.8826946  80.3726868
  34.3703528  11.4118978  94.0426101  35.0162392  10.9017932  94.5313326
  34.1620679  12.1487659  94.6169526  46.8956920  18.4799825  99.5418241
  47.7648080  18.6540478  99.1804876  46.4163672  19.2994242  99.4193970
  42.8907138   5.6759022  79.7949997  42.8785808   6.6200862  79.9518268
  43.7830560   5.4929168  79.5009458  41.0643100  25.5996926  91.2207675
  41.9670347  25.6320537  91.5374170  40.8380470  24.6697377  91.2354011
  42.8196702  24.3527913  87.8817753  41.8692333  24.3529774  87.7682126
  43.1229188  23.6060647  87.3653788  46.7059258   2.2701799  84.0495934
  45.9391654   1.7160286  84.1952616  47.1169963   2.3423668  84.9110085
  58.5549396  30.1888451  88.9463516  59.1927806  30.0695199  88.2426856
  58.4370239  31.1369295  89.0051468  55.3639102  30.1415879  88.8825040
  55.0257614  30.0256944  87.9945575  56.2328870  29.7407044  88.8626047
  51.2225918  31.9951356  84.8721931  50.6590783  31.9041293  84.1038219
  51.1078313  31.1751260  85.3524424  55.8458885  31.2950731  94.8411246
  55.8347526  30.9003529  93.9691750  56.0079525  30.5616804  95.4345017
  48.7690350  33.4902547  87.7106152  49.5611642  33.1493372  87.2952451
  49.0087000  33.5997522  88.6308305  56.8025477  35.6622323  80.1836396
  56.1513456  36.2476404  79.7970410  57.5969839  36.1928518  80.2431434
  50.7281104  32.7511461  80.5823531  51.5011980  32.2040448  80.4436406
  51.0806503  33.6155710  80.7937992  52.5666146  34.0787843  93.7890430
  52.2756012  34.9833474  93.6737096  53.2023131  34.1204370  94.5034500
  53.4922353  31.4564691  90.3791790  54.0885925  31.2320714  89.6648753
  53.5497325  30.7149437  90.9817237  53.0647382  28.9104127  78.2141981
  53.3172902  28.3885648  77.4525444  52.1271941  28.7470272  78.3168664
  58.1090664  27.9139905  86.0216724  58.8953754  27.4959328  85.6707141
  58.3729369  28.8185997  86.1898372  58.2800742  33.3512755  80.7205381
  57.6446575  33.4247382  81.4326285  57.9498148  33.9406354  80.0424460
  63.5099091  27.8515138  86.9249702  64.2424263  27.2814355  87.1587532
  62.7538447  27.4636739  87.3656208  52.7843670  30.8132233  80.4166356
  52.6679928  30.1377136  81.0847440  52.8945930  30.3264607  79.5998509
  55.1275211  30.2742380  84.1213045  54.7633418  29.7473001  84.8325966
  55.9842327  29.8840849  83.9479530  61.0324512  21.5636712  91.3844311
  60.7007837  22.4332123  91.1605526  60.4370125  21.2472996  92.0638341
  54.7680698  25.3032279  79.1174393  54.9355100  26.1712516  79.4844864
  54.5777867  25.4659561  78.1935683  57.5256031  33.7649258  90.7840224
  57.2256754  34.6674297  90.6756031  57.1807091  33.4981442  91.6361377
  50.9768513  30.2163055  86.8176928  50.0519009  30.0839269  87.0254620
  51.2252926  30.9957274  87.3146870  60.9253175  26.2831799  88.4637661
  60.0170052  26.2147207  88.1696422  60.8740771  26.7603743  89.2919486
  54.7469919  27.7589937  80.1021060  54.6269544  28.2046988  80.9406540
  54.0522507  28.1075255  79.5434598  48.3377324  29.8596329  87.6520717
  48.4669705  30.1130808  88.5660129  47.6574775  30.4524037  87.3325372
  52.5076811  40.5293579  83.7511191  52.4300841  41.4801404  83.8299672
  51.9038455  40.1839451  84.4086118  54.9994041  27.7021444  96.4072558
  54.2227375  28.2615364  96.3975423  55.6384604  28.1878227  96.9287428
  62.7914822  24.4848237  90.2415535  62.1489202  24.7780770  89.5955329
  62.2869750  24.3701157  91.0468732  60.4454985  28.2311410  80.9301394
  61.3572841  28.4638797  80.7549092  59.9364632  28.8148454  80.3676473
  53.2540413  30.5106898  95.9690525  53.9955098  31.0491941  95.6925349
  52.5477399  31.1373186  96.1262077  58.7295753  32.6536038  94.5662687
  59.1379109  32.2118448  93.8217319  58.0073014  32.0788665  94.8196880
  55.0826823  27.5908645  91.9396244  55.9288018  28.0148058  92.0830893
  55.0225461  26.9342269  92.6334807  59.0524567  33.2137229  88.3214976
  58.4233430  33.3782943  87.6191043  58.6650230  33.6278838  89.0925940
  62.9313799  34.1491666  85.6759339  62.2464838  34.5290568  85.1256373
  63.0157649  34.7586993  86.4091287  58.2326268  25.2513013  93.5977417
  57.9887200  26.0055074  93.0611693  58.5086199  25.6298361  94.4324664
  60.1864731  31.7951625  92.2754683  60.3981626  32.4383385  91.5989064
  60.1394479  30.9613942  91.8076613  57.7890960  24.4069446  89.1791255
  56.9275439  24.7050700  89.4707993  57.8153395  24.6239845  88.2472288
  54.6052529  32.9511637  85.5865061  55.0690875  33.2299340  84.7969683
  54.3409327  32.0495081  85.4038151  51.4976610  32.4983118  88.5244824
  52.0677967  32.9270387  87.8862308  52.0884722  32.2165703  89.2229010
  53.5421415  29.0734789  82.3954626  54.2445459  29.5255833  82.8628552
  53.2102044  28.4318608  83.0234519  51.9901777  27.6646546  96.7705835
  51.3600438  28.3462827  97.0041232  51.8837865  27.5529627  95.8258973
  47.2846749  27.3318342  87.6971759  46.4945803  27.5875870  87.2211870
  47.7757997  28.1466680  87.8023800  61.3010559  34.6723581  90.4477040
  62.1228003  34.2703768  90.1659722  61.2972962  34.5691815  91.3993156
  49.2361495  27.6962921  84.6555236  48.4392658  27.8081615  85.1738732
  49.0087087  28.0349573  83.7896127  55.0667162  34.2207624  92.6037751
  55.1311595  34.6828031  93.4395923  54.3578086  33.5904989  92.7320061
  45.5684452  27.5848832  90.1286750  45.8192491  28.4695842  90.3944326
  46.1044001  27.4053434  89.3561842  69.3916552  31.0162329  86.7962012
  68.6380260  30.4469727  86.6406016  69.5264093  30.9824994  87.7432646
  54.7815180  35.8875732  82.4716731  54.6460855  36.7327267  82.9001579
  55.3224993  36.0895009  81.7082665  51.2682520  21.9667312  99.1331086
  50.8749465  21.4133510  99.8078731  52.0848660  22.2777890  99.5237604
  48.2344577  33.4051170  83.0444656  48.7469098  34.1994420  83.1950221
  48.8867290  32.7077460  82.9778258  50.0439462  36.5216926  85.1267409
  50.2206090  37.4434891  84.9388393  50.8396296  36.2075345  85.5561789
  54.1850481  23.3825191  96.7251343  54.9260194  23.9832344  96.6455805
  54.4168403  22.6402828  96.1669385  49.3291819  28.5681558  95.0029573
  49.2145334  27.6666815  95.3036671  48.4736336  28.8145255  94.6514389
  56.4083656  36.5099298  96.6017073  55.9647511  35.7235677  96.2837978
  57.0700870  36.6978449  95.9360964  51.1670778  38.0395100  91.1277752
  51.7178203  37.9112163  90.3554746  50.3282253  38.3389989  90.7772644
  58.5064894  36.7902098  94.6298474  58.4883370  37.6110979  94.1378744
  59.4284815  36.6656173  94.8548616  54.9637949  34.3046228  95.4721983
  55.4966285  33.5434516  95.2421291  54.4352030  34.0119879  96.2146137
  58.1307644  19.4106294  91.0015625  57.7871913  20.3007935  90.9254735
  58.4986606  19.2207951  90.1385210  46.1993494  31.7339824  83.8204227
  47.0368716  32.1436832  83.6037934  46.3771762  30.7939266  83.7904421
  58.0957926  29.4014905  79.5088060  57.5804550  30.1719509  79.7476447
  57.8235235  28.7280041  80.1321121  55.6805037  24.2464605  84.5673298
  54.8246634  23.8571456  84.3878937  56.0931989  24.3256566  83.7073084
  57.2104184  21.7810949  88.9664858  56.7068980  21.7441084  88.1532663
  57.5034791  22.6903691  89.0261514  53.4547070  21.8649678  87.9731040
  54.3200067  21.6692487  87.6136929  53.5224579  21.6360030  88.9000396
  63.0692200  32.1547259  81.4441233  62.2921643  31.8158419  80.9996395
  63.7483681  32.1599882  80.7696198  57.8844229  27.2741997  81.3347841
  57.5794365  27.5888146  82.1857984  58.8374672  27.3523417  81.3775174
  56.3290661  33.4332220  82.9840795  55.8012023  32.6984980  82.6714032
  55.8278164  34.2106896  82.7380763  61.3083507  31.6281241  88.1007841
  60.6507182  32.3180502  88.1887970  62.1123907  32.0177673  88.4441827
  51.0609389  24.0951886  85.3447406  51.6353141  23.8727068  84.6120599
  51.6480371  24.1640581  86.0976008  60.1188966  29.9825613  86.1511783
  60.6320848  30.6155605  86.6533493  60.7690190  29.3826809  85.7855143
  51.3878976  26.1256347  79.3643292  50.5516288  26.4631034  79.6852566
  51.2483746  25.9905327  78.4270429  53.3632057  20.9693135  84.0722476
  52.7096469  20.6542152  83.4479091  53.3212531  20.3468876  84.7982299
  54.4743262  31.2512430  75.9875768  53.5670323  31.0201684  76.1866917
  54.9714294  30.4550050  76.1749749  57.3811340  39.9609938  78.9072454
  56.7073039  40.2641634  79.5157412  57.7677162  40.7639018  78.5577911
  56.5969797  27.4575069  88.3970123  55.6792358  27.6790016  88.2391811
  57.0129941  27.5321379  87.5381831  57.3804845  28.8566484  83.5272804
  58.1276664  29.3687882  83.2179926  57.6496434  28.5350537  84.3877197
  55.6531495  31.3525025  80.5099758  54.7442714  31.0684058  80.6072228
  55.6826579  31.7724104  79.6503065  60.8850762  34.9631615  84.2790925
  60.4313089  34.1222525  84.3356116  60.2544729  35.5993013  84.6165706
  59.8283682  25.8923601  85.5091593  59.0906439  25.3800987  85.8401836
  60.0810455  25.4523982  84.6974870  59.3283702  36.8008111  85.2140744
  59.6206676  37.3613169  84.4953109  59.8382322  37.0936672  85.9693903
  59.9295309  18.6699853  86.1033362  60.2354186  17.8097216  85.8159277
  60.6547914  19.2617473  85.9032356  46.2219665  29.0730539  84.4914960
  46.0244065  28.4799900  83.7666027  45.6666329  28.7682750  85.2090899
  54.2016389  28.9653646  86.6109553  54.2564999  28.0127482  86.5352030
  53.3907591  29.1213085  87.0950852  55.3507583  32.8933769  77.8487837
  54.9127013  32.1769628  77.3893474  56.0918024  33.1209884  77.2872928
  52.1408749  27.5830706  84.3699932  51.3276614  27.8824876  84.7765124
  52.6367743  27.1886394  85.0874414  54.2917327  37.5788462  86.3034197
  54.2493506  37.8049309  85.3742729  55.2080026  37.3451837  86.4519998
  57.7382961  28.0472530  93.2014826  58.0932348  28.2744003  94.0609292
  58.3855092  28.3790907  92.5792081  63.4680698  31.1690966  83.9064155
  63.3298596  31.3592562  82.9785344  63.1116916  31.9310349  84.3632206
  51.6322824  25.1549061  89.9861167  52.2722203  25.0137820  89.2884130
  50.8000354  24.8683574  89.6099769  63.4950077  33.2367493  88.9175427
  63.9286584  33.1442782  89.7658481  64.2081658  33.2124993  88.2795443
  52.4083128  34.4551491  86.0996160  53.2023726  33.9601812  85.8978735
  51.6974820  33.9269355  85.7363865  57.2277972  36.8369587  90.4508527
  57.2814994  37.4060523  91.2186243  56.3592753  37.0071472  90.0862564
  48.7165891  28.5994573  82.1755912  47.7863479  28.5379029  82.3925874
  48.8123363  28.0770526  81.3792553  48.6351440  25.1249386  84.7634154
  48.8958257  26.0394719  84.6543314  49.4568612  24.6573829  84.9130767
  50.1076365  26.5387143  91.9332978  50.7799419  26.3304505  91.2845627
  49.2806152  26.3409229  91.4938211  64.3565627  33.2791194  91.4508312
  64.5501517  34.1837004  91.6967587  64.2566245  32.8198613  92.2846897
  56.0101937  23.1649084  93.9498639  55.3629852  23.8639034  93.8563116
  56.7802953  23.5985228  94.3174888  59.4180735  33.4297936  97.0249193
  59.2666242  33.2008488  96.1079276  59.4085415  34.3868538  97.0380538
  56.1866072  31.0029849  92.0095459  57.1158132  31.1541009  91.8364426
  55.7657102  31.0913870  91.1544106  54.9854404  35.0280513  89.7793997
  54.8465489  34.6599298  90.6519935  54.1969000  35.5428153  89.6077954
  55.5802556  40.1289610  81.1219533  55.7554311  39.6577653  81.9365156
  54.8935344  40.7555376  81.3500794  56.5359619  34.4062116  87.1682834
  56.2009451  34.3662886  88.0640484  56.0363564  33.7406832  86.6953245
  50.5103863  29.8129746  92.6935416  50.3723661  29.0809985  93.2946955
  51.4208786  29.7238646  92.4119603  59.4718810  31.7518151  77.4419894
  58.8547981  31.0264979  77.3452947  59.0035299  32.5127511  77.0986968
  53.1386163  29.5249706  92.1819095  53.8485782  28.8842898  92.1405714
  53.0955472  29.7762600  93.1045276  61.1272942  36.4617059  95.1025674
  61.0685488  35.7776279  94.4356257  61.5292460  37.2036049  94.6506300
  51.8515097  26.5114923  94.0014735  51.3152454  26.0605662  94.6536331
  51.2631806  26.6460832  93.2585199  50.1463641  43.2778973  87.8959393
  50.3860239  43.9097497  88.5738412  49.3032837  42.9267013  88.1824753
  51.2617356  25.9703575  76.5641198  50.3846823  25.8492376  76.2003445
  51.7375109  25.1789653  76.3120087  61.1290349  34.4256643  93.3339654
  60.2417128  34.0882565  93.4566053  61.6988900  33.6939674  93.5708420
  42.7819496  30.7580735  86.6582706  43.4690536  30.4442465  86.0703721
  42.6267625  31.6622099  86.3849957  47.5854219  25.6470931  91.0867729
  47.5012407  25.0396601  90.3518139  46.7636925  26.1379949  91.0877226
  54.6591503  39.0858095  90.3000897  54.5861674  39.8913067  90.8120202
  54.2168896  39.2850061  89.4748919  54.4481282  38.3229865  83.8103719
  53.6648804  38.8651545  83.9041943  55.1474028  38.8403845  84.2097960
  57.7577932  24.1324495  86.4537924  58.2546632  23.3794457  86.1338995
  56.9864914  24.1688811  85.8881134  65.6107690  29.8364860  88.0956216
  65.5997566  30.7189576  87.7250149  64.7425069  29.4836411  87.9010753
  57.1190186  38.9844929  92.4559056  57.8318158  39.6192394  92.3834957
  56.6280215  39.0808795  91.6399058  58.8407713  32.8896182  84.0276348
  57.9063992  33.0097644  83.8581052  59.0184382  31.9868649  83.7636357
  54.3412901  26.2741878  86.1809609  53.9710689  25.7212918  86.8690514
  54.8371994  25.6700011  85.6284609  62.2280264  28.7313501  84.5626382
  62.6940717  29.5641493  84.4886684  62.6787765  28.2658483  85.2671640
  52.1702100  36.7339373  93.2764627  52.8711559  37.3675856  93.4294021
  51.6997215  37.0754104  92.5160266  60.2956496  35.0757322  81.5612534
  60.5716339  34.9613917  82.4706408  59.4260994  34.6774807  81.5224707
  60.1996927  21.0994088  88.6017283  59.2860007  21.3298315  88.7699490
  60.6290029  21.1832532  89.4531316  59.9703386  29.2883980  91.1017177
  59.3174836  29.5359888  90.4469630  60.3483766  28.4748118  90.7679654
  56.9310560  39.3243673  85.2045347  57.1132954  38.5065329  85.6673100
  57.7543546  39.5411366  84.7670237  57.2652725  38.2511858  82.4660396
  57.7940492  37.7404313  81.8530558  57.5280945  37.9354389  83.3305929
  56.0190959  30.0303791  97.5883214  55.3431596  29.9297920  98.2585589
  56.8418593  29.8743005  98.0519211  47.7669818  36.2675728  90.2095729
  48.3523255  35.5219416  90.3423634  47.5694656  36.5779684  91.0932393
  50.6208473  39.3026975  85.2258172  49.9518848  39.7873103  84.7422212
  50.4821343  39.5496196  86.1401550  42.3587473  28.8381328  88.9300173
  42.3971572  28.3044919  89.7237291  41.8527765  28.3116533  88.3111150
  54.7613742  41.3370719  91.8240830  55.3132050  41.5002340  92.5889915
  55.1019935  41.9275156  91.1520855  49.7378235  23.6845868  92.4262715
  49.8019561  24.5460699  92.0140113  49.6745355  23.0719870  91.6935073
  49.2130507  25.7569001  96.0735749  49.8402546  25.3746078  96.6873274
  48.3558426  25.5383203  96.4391442  59.6124616  36.1631976  97.6789485
  60.1564520  36.7761934  97.1844439  59.0311461  36.7211555  98.1956498
  45.9896050  27.5645430  82.0054104  46.2849491  26.6556108  81.9521158
  45.0884086  27.5433170  81.6835106  57.8982129  39.2852694  88.8104512
  57.7733268  38.4842434  88.3015458  58.5561220  39.7798888  88.3218482
  49.5190297  25.6401427  87.9881653  48.7976883  26.2537394  87.8489126
  50.3083553  26.1759191  87.9098299  59.9617037  37.0861714  90.4384062
  59.0147373  36.9667065  90.3662389  60.3099810  36.1984212  90.5210324
  52.3216611  22.9755853  94.2622304  52.8451012  23.2218150  95.0248614
  52.1028944  23.8075888  93.8425442  47.7183892  25.2459528  82.1293429
  47.3896598  24.3656907  81.9468535  48.0723262  25.1907196  83.0169818
  56.9663471  36.8814430  86.6388415  56.8188433  35.9531138  86.8195985
  57.7916964  36.9034521  86.1545490  50.8325715  25.5332498  82.4968907
  51.1721787  26.0618419  81.7747515  51.2797835  25.8712904  83.2727473
  60.5697592  37.7042989  87.7253287  61.4944140  37.4985851  87.5877739
  60.4012896  37.4559390  88.6342629  53.5269156  23.9169548  91.9471975
  53.1865976  23.1177361  92.3492655  52.8208162  24.2171259  91.3748808
  54.1785628  21.0018861  90.3999298  55.0011697  20.5279339  90.2778188
  54.4223691  21.7809344  90.8997984  52.8193862  24.0307119  80.6962200
  53.5402225  24.4088372  80.1925916  52.1959166  24.7495996  80.7997178
  56.9624985  24.7352268  81.6320532  57.1788599  25.6176906  81.3309360
  56.4819052  24.3438481  80.9026174  51.7024206  27.6937981  88.2091277
  51.5568787  28.0078284  89.1015558  51.2249410  28.3122882  87.6562175
  53.5620589  24.6840529  88.2572166  53.5482158  23.7881623  87.9204464
  54.2793017  24.6911193  88.8910452  55.4146720  25.1177870  90.3025294
  55.1564498  26.0394940  90.3009624  54.8831760  24.7208304  90.9925758
  60.3592909  38.2228657  83.0815379  60.5329786  37.6575079  82.3289231
  60.8521800  39.0229552  82.8994869  46.1769868  30.2343326  91.1478938
  45.6323337  31.0103134  91.2799212  47.0549218  30.5814130  90.9898059
  52.9657485  23.5654910  83.5259736  53.0873396  22.6371556  83.7250624
  52.6759527  23.5793596  82.6138052  55.8348675  21.2509820  86.6626456
  55.8570372  21.3149153  85.7078436  56.2516734  20.4114329  86.8566962
  66.2132300  30.9865080  84.7005679  66.6563446  30.2372405  84.3024802
  65.3358810  30.9775216  84.3179411  61.3468081  37.5395421  80.1812277
  62.0418986  38.1602114  80.3999592  61.6891231  36.6890772  80.4564655
  46.9635890  29.3613222  94.0409095  46.2217626  29.5095857  94.6273725
  46.6428635  29.6221488  93.1775844  63.2459504  34.9895127  81.7099608
  63.7710828  35.3282399  80.9848928  63.1581857  34.0542142  81.5262743
  54.9079553  38.9029200  93.8389485  55.2166679  38.6578347  94.7112184
  55.7055035  39.1075839  93.3508355  54.9300165  41.0567110  86.0694861
  54.4905155  40.5643489  86.7627718  55.6808282  40.5140078  85.8286936
  47.4092504  37.2478651  86.0719489  48.2350524  36.9482423  85.6918133
  47.0586556  36.4786273  86.5209278  52.3774037  36.6005119  88.1417163
  51.7554046  35.9375824  87.8419391  53.0478904  36.6266251  87.4590811
  45.6101109  35.1664977  87.0308423  44.7733017  34.7387152  86.8492424
  45.5824754  35.3597421  87.9679214  52.4498565  25.0786907  97.7349669
  52.4986720  25.9549030  97.3527438  52.9921079  24.5364300  97.1621312
  62.9353410  35.6228030  97.0150806  62.1448954  35.6052169  96.4755305
  62.6986765  36.1616324  97.7699843  63.0551285  32.4720497  94.3283534
  63.1049290  32.3070504  95.2699057  62.9465209  31.6047756  93.9381415
  51.9387544  35.1509042  81.6175623  52.0875664  35.8344507  80.9642296
  52.7453988  35.1314132  82.1325079  60.3455048  28.4551425  95.6442841
  61.2464911  28.3157889  95.3526839  60.4203022  28.6205879  96.5841019
  54.6797853  25.8318279  94.4896027  53.8101162  26.1251845  94.2178616
  54.9157333  26.4158724  95.2103291  64.5569482  34.8917438  94.5725556
  64.2654291  35.2547419  95.4089017  63.9441613  34.1784446  94.3938888
  65.7565165  32.4570318  87.0928126  66.5912056  32.8960122  87.2565687
  65.8924293  31.9808971  86.2736372  62.8056670  30.0150053  93.0405614
  63.2810792  30.2077699  92.2324465  61.8822236  30.0709239  92.7948998
  49.6940177  31.1774220  82.6236692  49.4486219  30.2736550  82.8216902
  49.8636092  31.1791370  81.6816170  57.3836887  22.0497896  92.0061448
  57.9018831  22.7858923  91.6807936  57.0292020  22.3561890  92.8408207
  48.9635825  26.9102577  80.1222854  48.2705070  26.9846932  79.4662890
  48.7187576  26.1462921  80.6444371  57.6349481  18.4698179  87.5262344
  57.9151235  17.8021368  88.1522771  58.4200088  18.6627274  87.0137008
  55.4382950  37.6457173  79.0887371  54.8656917  38.2647360  78.6357843
  56.0115743  38.1956534  79.6227293  61.5058339  26.8915813  91.2733920
  62.4575762  26.9913910  91.2946144  61.3361790  26.0994081  91.7832004
  59.5272719  23.9771396  91.4593321  58.9322651  24.2576409  90.7639809
  59.2422416  24.4665297  92.2310062  58.6580209  37.9294323  80.2195953
  59.5910883  37.8639885  80.4228829  58.5703422  38.7650590  79.7610486
  61.2868226  37.2460193  77.1799901  61.2081858  36.9120057  78.0735659
  62.1077893  37.7381961  77.1791373  63.9846417  30.1121933  90.3876219
  63.9522737  29.1737933  90.5735903  64.5947041  30.1905969  89.6542044
  55.8229748  28.9817985  76.4303423  56.7688853  28.8524194  76.4991841
  55.4443993  28.2432647  76.9072851  64.1340906  26.9032976  90.4334502
  63.6179954  26.1191433  90.2464431  65.0180854  26.5751693  90.5981022
  61.7951633  20.6473992  86.3930315  61.5976454  20.3389080  87.2773647
  62.4051338  21.3735630  86.5228245  69.8022967  31.1737939  89.5282256
  70.5326356  30.9123227  90.0889959  69.1929913  30.4366661  89.5684324
  67.8838264  29.3145802  90.1256707  67.1571428  29.1801767  89.5173199
  67.4685551  29.6222631  90.9313425  55.7068441  33.0335732  97.8904080
  56.6271450  33.2114331  98.0844127  55.6718024  32.0891777  97.7383780
  54.0072665  26.9067962  76.3658309  53.1004121  26.6101075  76.4421022
  54.2848646  26.6097780  75.4992595  44.9250606  28.2274325  86.8157355
  44.6053390  27.3739633  86.5231729  44.3784034  28.4422903  87.5715322
  48.7030513  30.9436766  90.5326861  48.9216523  31.8753874  90.5514895
  49.1156287  30.5844741  91.3181665  55.6234731  21.4504852  82.5202550
  54.8135459  21.1051937  82.8957796  56.3119148  21.1412395  83.1090161
  57.5525279  20.5282898  84.1426846  58.1056318  20.9478352  84.8016870
  57.7895366  19.6018646  84.1849802  53.5758378  26.5169972  99.9229610
  53.4755105  27.4664329  99.8541701  53.3579921  26.1888211  99.0505680
  52.7771450  23.7654897  76.5070288  53.6390614  24.0909795  76.7666105
  52.9621794  22.9786393  75.9943353  44.7938866  31.8477237  88.7850476
  44.1002337  31.4331190  88.2720431  45.5411857  31.8897773  88.1883895
  60.9304086  22.6383424  83.6505511  60.3502755  23.2968228  83.2683563
  60.6640019  21.8160768  83.2392928  59.3807653  22.0388481  85.8526831
  59.8807431  22.1505016  85.0441150  60.0243261  21.7349534  86.4927639
  53.4389649  29.9467111  98.7394672  52.9556730  30.7467471  98.9458561
  53.5250588  29.9575056  97.7862116  46.7075608  31.7795491  86.6616491
  46.6846296  31.8783178  85.7098374  47.0176245  32.6260641  86.9833657
  49.3662986  33.8371646  90.7763106  50.3206240  33.8055588  90.7093037
  49.1675510  33.3762269  91.5913332  49.9562368  32.4072762  93.3433903
  50.7755257  32.9016840  93.3668741  50.2299176  31.4904730  93.3151471
  59.7128964  24.7983514  82.7061859  58.8254819  25.0833165  82.4882054
  60.1282953  24.6377277  81.8589136  63.0643500  24.8230035  86.4216198
  63.8403891  25.3126487  86.6940815  62.3391635  25.2488089  86.8788068
  65.5016059  25.5357654  87.4790139  66.0960550  25.2953390  86.7683447
  65.5742643  24.8164785  88.1063675  47.7213215  39.3791265  87.7933304
  47.5867683  38.6191666  87.2271302  47.3045277  40.1032165  87.3262093
  58.8572178  34.5628189  76.8009879  59.5608028  34.7678191  77.4167535
  58.1334827  35.1304950  77.0658962  59.6869988  30.3138050  82.9212149
  59.6305190  30.7706601  82.0819782  60.2398331  29.5528734  82.7434992
  63.4974794  26.1027782  83.7462269  63.2411728  25.7024417  84.5770476
  62.8727662  26.8171576  83.6212408  67.8087132  28.8423855  86.2533560
  67.2486690  28.9117044  87.0265122  67.2030635  28.6664840  85.5333056
  50.8782341  40.2760582  88.0051746  50.7614725  41.2206015  87.9030437
  50.0574787  39.9734144  88.3937546  60.7658875  35.0010718  78.8508339
  61.6004479  34.5691916  78.6685814  60.6043218  34.8292731  79.7785233
  60.4204767  31.5042831  80.2164678  60.3653571  31.3387103  79.2753122
  59.7950823  32.2118864  80.3726868  45.2097282  26.7410895  94.0426101
  45.8556146  26.2309849  94.5313326  45.0014434  27.4779577  94.6169526
  57.7350675  33.8091743  99.5418241  58.6041834  33.9832395  99.1804876
  57.2557426  34.6286160  99.4193970  53.7300893  21.0050940  79.7949997
  53.7179563  21.9492780  79.9518268  54.6224315  20.8221086  79.5009458
  51.9036855  40.9288844  91.2207675  52.8064102  40.9612454  91.5374170
  51.6774225  39.9989295  91.2354011  53.6590457  39.6819831  87.8817753
  52.7086088  39.6821692  87.7682126  53.9622943  38.9352565  87.3653788
  57.5453012  17.5993717  84.0495934  56.7785408  17.0452203  84.1952616
  57.9563717  17.6715586  84.9110085  49.5494773  23.8878513  98.1401115
  50.4126235  23.5315317  98.3504439  48.9760184  23.5492407  98.8276519
  69.3943150  45.5180369  88.9463516  70.0321560  45.3987116  88.2426856
  69.2763993  46.4661213  89.0051468  62.0619672  47.3243273  84.8721931
  61.4984537  47.2333210  84.1038219  61.9472067  46.5043178  85.3524424
  66.6852640  46.6242649  94.8411246  66.6741280  46.2295447  93.9691750
  66.8473279  45.8908721  95.4345017  59.6084104  48.8194465  87.7106152
  60.4005396  48.4785290  87.2952451  59.8480754  48.9289440  88.6308305
  67.6419231  50.9914241  80.1836396  66.9907211  51.5768322  79.7970410
  68.4363594  51.5220436  80.2431434  61.5674858  48.0803378  80.5823531
  62.3405734  47.5332365  80.4436406  61.9200257  48.9447628  80.7937992
  64.3316108  46.7856609  90.3791790  64.9279680  46.5612631  89.6648753
  64.3891079  46.0441355  90.9817237  63.9041136  44.2396044  78.2141981
  64.1566657  43.7177566  77.4525444  62.9665695  44.0762190  78.3168664
  69.1194496  48.6804673  80.7205381  68.4840329  48.7539300  81.4326285
  68.7891903  49.2698272  80.0424460  74.3492846  43.1807056  86.9249702
  75.0818018  42.6106273  87.1587532  73.5932202  42.7928656  87.3656208
  63.6237425  46.1424150  80.4166356  63.5073683  45.4669054  81.0847440
  63.7339685  45.6556524  79.5998509  65.9668966  45.6034297  84.1213045
  65.6027173  45.0764918  84.8325966  66.8236082  45.2132767  83.9479530
  71.8718266  36.8928630  91.3844311  71.5401591  37.7624041  91.1605526
  71.2763880  36.5764914  92.0638341  65.6074453  40.6324197  79.1174393
  65.7748855  41.5004434  79.4844864  65.4171622  40.7951479  78.1935683
  61.8162267  45.5454973  86.8176928  60.8912764  45.4131187  87.0254620
  62.0646681  46.3249192  87.3146870  71.7646930  41.6123716  88.4637661
  70.8563807  41.5439125  88.1696422  71.7134525  42.0895661  89.2919486
  65.5863674  43.0881855  80.1021060  65.4663299  43.5338905  80.9406540
  64.8916262  43.4367172  79.5434598  59.1771078  45.1888246  87.6520717
  59.3063460  45.4422725  88.5660129  58.4968530  45.7815954  87.3325372
  63.3470566  55.8585496  83.7511191  63.2694595  56.8093321  83.8299672
  62.7432209  55.5131369  84.4086118  65.8387795  43.0313362  96.4072558
  65.0621129  43.5907282  96.3975423  66.4778358  43.5170145  96.9287428
  73.6308576  39.8140155  90.2415535  72.9882956  40.1072688  89.5955329
  73.1263505  39.6993075  91.0468732  64.0934168  45.8398815  95.9690525
  64.8348852  46.3783859  95.6925349  63.3871153  46.4665104  96.1262077
  65.9220577  42.9200562  91.9396244  66.7681773  43.3439976  92.0830893
  65.8619215  42.2634187  92.6334807  69.8918322  48.5429146  88.3214976
  69.2627184  48.7074860  87.6191043  69.5043984  48.9570756  89.0925940
  73.7707554  49.4783584  85.6759339  73.0858592  49.8582485  85.1256373
  73.8551403  50.0878911  86.4091287  69.0720023  40.5804931  93.5977417
  68.8280955  41.3346991  93.0611693  69.3479953  40.9590278  94.4324664
  71.0258485  47.1243543  92.2754683  71.2375381  47.7675303  91.5989064
  70.9788234  46.2905860  91.8076613  68.6284714  39.7361364  89.1791255
  67.7669193  40.0342617  89.4707993  68.6547149  39.9531763  88.2472288
  65.4446284  48.2803554  85.5865061  65.9084629  48.5591257  84.7969683
  65.1803082  47.3786999  85.4038151  62.3370365  47.8275036  88.5244824
  62.9071722  48.2562304  87.8862308  62.9278477  47.5457621  89.2229010
  64.3815170  44.4026707  82.3954626  65.0839213  44.8547750  82.8628552
  64.0495798  43.7610526  83.0234519  62.8295531  42.9938463  96.7705835
  62.1994192  43.6754744  97.0041232  62.7231619  42.8821545  95.8258973
  58.1240504  42.6610259  87.6971759  57.3339558  42.9167788  87.2211870
  58.6151751  43.4758597  87.8023800  72.1404313  50.0015499  90.4477040
  72.9621757  49.5995686  90.1659722  72.1366716  49.8983733  91.3993156
  60.0755249  43.0254839  84.6555236  59.2786413  43.1373533  85.1738732
  59.8480841  43.3641491  83.7896127  56.4078207  42.9140750  90.1286750
  56.6586245  43.7987760  90.3944326  56.9437755  42.7345351  89.3561842
  80.2310306  46.3454247  86.7962012  79.4774015  45.7761645  86.6406016
  80.3657848  46.3116912  87.7432646  65.6208935  51.2167649  82.4716731
  65.4854609  52.0619185  82.9001579  66.1618747  51.4186927  81.7082665
  62.1076274  37.2959229  99.1331086  61.7143220  36.7425428  99.8078731
  62.9242414  37.6069808  99.5237604  59.0738332  48.7343087  83.0444656
  59.5862852  49.5286338  83.1950221  59.7261045  48.0369378  82.9778258
  60.8833217  51.8508844  85.1267409  61.0599845  52.7726808  84.9388393
  61.6790050  51.5367263  85.5561789  65.0244235  38.7117108  96.7251343
  65.7653949  39.3124261  96.6455805  65.2562158  37.9694746  96.1669385
  62.0064532  53.3687017  91.1277752  62.5571957  53.2404081  90.3554746
  61.1676008  53.6681906  90.7772644  69.3458649  52.1194016  94.6298474
  69.3277124  52.9402897  94.1378744  70.2678569  51.9948091  94.8548616
  65.8031703  49.6338145  95.4721983  66.3360040  48.8726433  95.2421291
  65.2745784  49.3411797  96.2146137  68.9701398  34.7398211  91.0015625
  68.6265667  35.6299853  90.9254735  69.3380361  34.5499869  90.1385210
  57.0387249  47.0631742  83.8204227  57.8762471  47.4728750  83.6037934
  57.2165516  46.1231184  83.7904421  68.9351681  44.7306822  79.5088060
  68.4198304  45.5011427  79.7476447  68.6628989  44.0571959  80.1321121
  66.5198792  39.5756523  84.5673298  65.6640388  39.1863374  84.3878937
  66.9325744  39.6548484  83.7073084  68.0497938  37.1102866  88.9664858
  67.5462734  37.0733002  88.1532663  68.3428545  38.0195609  89.0261514
  64.2940824  37.1941596  87.9731040  65.1593821  36.9984405  87.6136929
  64.3618333  36.9651948  88.9000396  73.9085955  47.4839177  81.4441233
  73.1315398  47.1450336  80.9996395  74.5877436  47.4891800  80.7696198
  67.1684416  48.7624138  82.9840795  66.6405777  48.0276897  82.6714032
  66.6671919  49.5398814  82.7380763  72.1477262  46.9573158  88.1007841
  71.4900936  47.6472420  88.1887970  72.9517661  47.3469590  88.4441827
  61.9003143  39.4243804  85.3447406  62.4746895  39.2018986  84.6120599
  62.4874126  39.4932499  86.0976008  70.9582721  45.3117531  86.1511783
  71.4714602  45.9447523  86.6533493  71.6083945  44.7118726  85.7855143
  62.2272731  41.4548265  79.3643292  61.3910043  41.7922952  79.6852566
  62.0877500  41.3197245  78.4270429  64.2025811  36.2985053  84.0722476
  63.5490223  35.9834070  83.4479091  64.1606285  35.6760793  84.7982299
  65.3137016  46.5804348  75.9875768  64.4064078  46.3493601  76.1866917
  65.8108048  45.7841967  76.1749749  68.2205095  55.2901855  78.9072454
  67.5466794  55.5933552  79.5157412  68.6070917  56.0930936  78.5577911
  68.2198599  44.1858402  83.5272804  68.9670418  44.6979799  83.2179926
  68.4890189  43.8642455  84.3877197  66.4925249  46.6816943  80.5099758
  65.5836469  46.3975976  80.6072228  66.5220333  47.1016021  79.6503065
  71.7244517  50.2923532  84.2790925  71.2706844  49.4514442  84.3356116
  71.0938484  50.9284931  84.6165706  70.1677456  52.1300029  85.2140744
  70.4600430  52.6905086  84.4953109  70.6776077  52.4228590  85.9693903
  70.7689064  33.9991770  86.1033362  71.0747941  33.1389134  85.8159277
  71.4941669  34.5909391  85.9032356  57.0613420  44.4022457  84.4914960
  56.8637820  43.8091818  83.7666027  56.5060084  44.0974667  85.2090899
  65.0410143  44.2945563  86.6109553  65.0958753  43.3419400  86.5352030
  64.2301346  44.4505003  87.0950852  66.1901337  48.2225687  77.8487837
  65.7520767  47.5061545  77.3893474  66.9311778  48.4501801  77.2872928
  62.9802503  42.9122623  84.3699932  62.1670369  43.2116794  84.7765124
  63.4761498  42.5178312  85.0874414  65.1311081  52.9080380  86.3034197
  65.0887260  53.1341226  85.3742729  66.0473780  52.6743755  86.4519998
  68.5776715  43.3764448  93.2014826  68.9326103  43.6035921  94.0609292
  69.2248846  43.7082824  92.5792081  74.3074452  46.4982884  83.9064155
  74.1692351  46.6884480  82.9785344  73.9510671  47.2602266  84.3632206
  74.3343832  48.5659411  88.9175427  74.7680338  48.4734700  89.7658481
  75.0475412  48.5416911  88.2795443  63.2476882  49.7843409  86.0996160
  64.0417481  49.2893729  85.8978735  62.5368574  49.2561272  85.7363865
  68.0671727  52.1661505  90.4508527  68.1208749  52.7352441  91.2186243
  67.1986508  52.3363390  90.0862564  59.5559646  43.9286491  82.1755912
  58.6257234  43.8670946  82.3925874  59.6517118  43.4062444  81.3792553
  59.4745195  40.4541304  84.7634154  59.7352012  41.3686637  84.6543314
  60.2962367  39.9865746  84.9130767  60.9470120  41.8679061  91.9332978
  61.6193173  41.6596423  91.2845627  60.1199906  41.6701147  91.4938211
  75.1959381  48.6083111  91.4508312  75.3895271  49.5128922  91.6967587
  75.0959999  48.1490530  92.2846897  66.8495692  38.4941002  93.9498639
  66.2023607  39.1930951  93.8563116  67.6196707  38.9277146  94.3174888
  70.2574490  48.7589854  97.0249193  70.1059996  48.5300406  96.1079276
  70.2479169  49.7160455  97.0380538  67.0259826  46.3321767  92.0095459
  67.9551886  46.4832926  91.8364426  66.6050856  46.4205788  91.1544106
  65.8248158  50.3572431  89.7793997  65.6859244  49.9891216  90.6519935
  65.0362754  50.8720071  89.6077954  66.4196310  55.4581528  81.1219533
  66.5948066  54.9869571  81.9365156  65.7329098  56.0847294  81.3500794
  67.3753373  49.7354034  87.1682834  67.0403206  49.6954804  88.0640484
  66.8757319  49.0698750  86.6953245  61.3497617  45.1421664  92.6935416
  61.2117415  44.4101903  93.2946955  62.2602541  45.0530564  92.4119603
  70.3112565  47.0810068  77.4419894  69.6941736  46.3556896  77.3452947
  69.8429053  47.8419428  77.0986968  62.6908852  41.8406841  94.0014735
  62.1546209  41.3897580  94.6536331  62.1025560  41.9752750  93.2585199
  60.9857395  58.6070890  87.8959393  61.2253994  59.2389415  88.5738412
  60.1426592  58.2558930  88.1824753  62.1011111  41.2995493  76.5641198
  61.2240577  41.1784293  76.2003445  62.5768864  40.5081571  76.3120087
  71.9684104  49.7548560  93.3339654  71.0810883  49.4174482  93.4566053
  72.5382655  49.0231592  93.5708420  53.6213251  46.0872652  86.6582706
  54.3084291  45.7734382  86.0703721  53.4661380  46.9914017  86.3849957
  65.4985257  54.4150013  90.3000897  65.4255429  55.2204984  90.8120202
  65.0562650  54.6141979  89.4748919  65.2875037  53.6521783  83.8103719
  64.5042559  54.1943463  83.9041943  65.9867782  54.1695763  84.2097960
  68.5971687  39.4616412  86.4537924  69.0940386  38.7086375  86.1338995
  67.8258668  39.4980729  85.8881134  76.4501444  45.1656778  88.0956216
  76.4391321  46.0481493  87.7250149  75.5818824  44.8128329  87.9010753
  67.9583941  54.3136847  92.4559056  68.6711913  54.9484312  92.3834957
  67.4673969  54.4100713  91.6399058  69.6801468  48.2188100  84.0276348
  68.7457746  48.3389562  83.8581052  69.8578136  47.3160566  83.7636357
  65.1806656  41.6033795  86.1809609  64.8104443  41.0504836  86.8690514
  65.6765748  40.9991929  85.6284609  63.0095854  52.0631290  93.2764627
  63.7105314  52.6967773  93.4294021  62.5390969  52.4046022  92.5160266
  71.1350250  50.4049240  81.5612534  71.4110094  50.2905835  82.4706408
  70.2654749  50.0066725  81.5224707  71.0390682  36.4286006  88.6017283
  70.1253762  36.6590233  88.7699490  71.4683783  36.5124450  89.4531316
  67.7704314  54.6535591  85.2045347  67.9526709  53.8357247  85.6673100
  68.5937300  54.8703283  84.7670237  68.1046480  53.5803776  82.4660396
  68.6334246  53.0696231  81.8530558  68.3674699  53.2646306  83.3305929
  66.8584713  45.3595709  97.5883214  66.1825350  45.2589838  98.2585589
  67.6812347  45.2034923  98.0519211  58.6063572  51.5967645  90.2095729
  59.1917009  50.8511333  90.3423634  58.4088411  51.9071602  91.0932393
  61.4602228  54.6318893  85.2258172  60.7912603  55.1165020  84.7422212
  61.3215097  54.8788113  86.1401550  53.1981227  44.1673246  88.9300173
  53.2365327  43.6336836  89.7237291  52.6921520  43.6408451  88.3111150
  65.6007496  56.6662636  91.8240830  66.1525804  56.8294258  92.5889915
  65.9413690  57.2567074  91.1520855  60.5771989  39.0137786  92.4262715
  60.6413316  39.8752617  92.0140113  60.5139110  38.4011788  91.6935073
  60.0524262  41.0860919  96.0735749  60.6796301  40.7037996  96.6873274
  59.1952181  40.8675121  96.4391442  70.4518370  51.4923894  97.6789485
  70.9958274  52.1053852  97.1844439  69.8705215  52.0503472  98.1956498
  56.8289805  42.8937348  82.0054104  57.1243246  41.9848026  81.9521158
  55.9277840  42.8725087  81.6835106  68.7375883  54.6144612  88.8104512
  68.6127023  53.8134352  88.3015458  69.3954975  55.1090805  88.3218482
  60.3584052  40.9693344  87.9881653  59.6370637  41.5829312  87.8489126
  61.1477307  41.5051109  87.9098299  70.8010792  52.4153632  90.4384062
  69.8541127  52.2958983  90.3662389  71.1493565  51.5276130  90.5210324
  63.1610365  38.3047771  94.2622304  63.6844767  38.5510067  95.0248614
  62.9422698  39.1367806  93.8425442  58.5577646  40.5751445  82.1293429
  58.2290352  39.6948824  81.9468535  58.9117017  40.5199114  83.0169818
  67.8057225  52.2106348  86.6388415  67.6582188  51.2823056  86.8195985
  68.6310719  52.2326439  86.1545490  61.6719469  40.8624415  82.4968907
  62.0115542  41.3910336  81.7747515  62.1191590  41.2004821  83.2727473
  71.4091347  53.0334907  87.7253287  72.3337894  52.8277768  87.5877739
  71.2406650  52.7851308  88.6342629  64.3662910  39.2461466  91.9471975
  64.0259731  38.4469279  92.3492655  63.6601916  39.5463177  91.3748808
  65.0179382  36.3310778  90.3999298  65.8405451  35.8571257  90.2778188
  65.2617446  37.1101262  90.8997984  63.6587617  39.3599037  80.6962200
  64.3795979  39.7380290  80.1925916  63.0352921  40.0787914  80.7997178
  67.8018739  40.0644186  81.6320532  68.0182354  40.9468824  81.3309360
  67.3212807  39.6730399  80.9026174  62.5417961  43.0229899  88.2091277
  62.3962541  43.3370202  89.1015558  62.0643164  43.6414799  87.6562175
  64.4014344  40.0132447  88.2572166  64.3875912  39.1173540  87.9204464
  65.1186772  40.0203111  88.8910452  66.2540474  40.4469787  90.3025294
  65.9958252  41.3686858  90.3009624  65.7225515  40.0500222  90.9925758
  57.0163623  45.5635243  91.1478938  56.4717091  46.3395051  91.2799212
  57.8942973  45.9106048  90.9898059  63.8051240  38.8946827  83.5259736
  63.9267151  37.9663473  83.7250624  63.5153282  38.9085513  82.6138052
  66.6742430  36.5801738  86.6626456  66.6964127  36.6441071  85.7078436
  67.0910489  35.7406246  86.8566962  77.0526054  46.3156997  84.7005679
  77.4957200  45.5664322  84.3024802  76.1752565  46.3067134  84.3179411
  72.1861836  52.8687339  80.1812277  72.8812740  53.4894031  80.3999592
  72.5284986  52.0182690  80.4564655  57.8029645  44.6905140  94.0409095
  57.0611381  44.8387775  94.6273725  57.4822389  44.9513405  93.1775844
  74.0853259  50.3187044  81.7099608  74.6104583  50.6574317  80.9848928
  73.9975611  49.3834060  81.5262743  65.7473307  54.2321118  93.8389485
  66.0560434  53.9870265  94.7112184  66.5448789  54.4367756  93.3508355
  65.7693919  56.3859028  86.0694861  65.3298910  55.8935406  86.7627718
  66.5202036  55.8431995  85.8286936  58.2486258  52.5770568  86.0719489
  59.0744278  52.2774340  85.6918133  57.8980310  51.8078191  86.5209278
  63.2167792  51.9297037  88.1417163  62.5947801  51.2667742  87.8419391
  63.8872659  51.9558168  87.4590811  56.4494864  50.4956895  87.0308423
  55.6126772  50.0679069  86.8492424  56.4218509  50.6889338  87.9679214
  63.2892319  40.4078825  97.7349669  63.3380475  41.2840947  97.3527438
  63.8314833  39.8656218  97.1621312  73.8945040  47.8012414  94.3283534
  73.9443045  47.6362422  95.2699057  73.7858963  46.9339673  93.9381415
  62.7781299  50.4800960  81.6175623  62.9269419  51.1636424  80.9642296
  63.5847742  50.4606050  82.1325079  71.1848802  43.7843342  95.6442841
  72.0858665  43.6449807  95.3526839  71.2596777  43.9497797  96.5841019
  65.5191608  41.1610197  94.4896027  64.6494917  41.4543763  94.2178616
  65.7551088  41.7450642  95.2103291  75.3963237  50.2209356  94.5725556
  75.1048045  50.5839336  95.4089017  74.7835368  49.5076364  94.3938888
  76.5958919  47.7862236  87.0928126  77.4305810  48.2252040  87.2565687
  76.7318048  47.3100889  86.2736372  73.6450425  45.3441970  93.0405614
  74.1204547  45.5369617  92.2324465  72.7215990  45.4001156  92.7948998
  60.5333932  46.5066138  82.6236692  60.2879973  45.6028468  82.8216902
  60.7029846  46.5083288  81.6816170  68.2230641  37.3789814  92.0061448
  68.7412585  38.1150841  91.6807936  67.8685774  37.6853807  92.8408207
  59.8029579  42.2394495  80.1222854  59.1098824  42.3138850  79.4662890
  59.5581331  41.4754839  80.6444371  68.4743236  33.7990096  87.5262344
  68.7544989  33.1313286  88.1522771  69.2593843  33.9919192  87.0137008
  66.2776704  52.9749090  79.0887371  65.7050671  53.5939278  78.6357843
  66.8509498  53.5248452  79.6227293  72.3452094  42.2207730  91.2733920
  73.2969517  42.3205828  91.2946144  72.1755544  41.4285999  91.7832004
  70.3666473  39.3063314  91.4593321  69.7716406  39.5868326  90.7639809
  70.0816170  39.7957215  92.2310062  69.4973964  53.2586241  80.2195953
  70.4304637  53.1931802  80.4228829  69.4097177  54.0942507  79.7610486
  72.1261981  52.5752111  77.1799901  72.0475612  52.2411974  78.0735659
  72.9471647  53.0673879  77.1791373  74.8240172  45.4413850  90.3876219
  74.7916492  44.5029851  90.5735903  75.4340795  45.5197887  89.6542044
  66.6623503  44.3109903  76.4303423  67.6082607  44.1816111  76.4991841
  66.2837748  43.5724565  76.9072851  72.6345387  35.9765909  86.3930315
  72.4370208  35.6680997  87.2773647  73.2445093  36.7027548  86.5228245
  80.6416722  46.5029857  89.5282256  81.3720110  46.2415145  90.0889959
  80.0323667  45.7658579  89.5684324  78.7232019  44.6437720  90.1256707
  77.9965182  44.5093685  89.5173199  78.3079306  44.9514548  90.9313425
  64.8466420  42.2359880  76.3658309  63.9397875  41.9392992  76.4421022
  65.1242401  41.9389698  75.4992595  55.7644360  43.5566243  86.8157355
  55.4447144  42.7031551  86.5231729  55.2177788  43.7714821  87.5715322
  59.5424268  46.2728684  90.5326861  59.7610277  47.2045792  90.5514895
  59.9550041  45.9136658  91.3181665  66.4628485  36.7796769  82.5202550
  65.6529214  36.4343854  82.8957796  67.1512902  36.4704313  83.1090161
  68.3919034  35.8574816  84.1426846  68.9450072  36.2770269  84.8016870
  68.6289120  34.9310564  84.1849802  64.4152133  41.8461890  99.9229610
  64.3148860  42.7956247  99.8541701  64.1973675  41.5180129  99.0505680
  63.6165204  39.0946815  76.5070288  64.4784368  39.4201713  76.7666105
  63.8015549  38.3078311  75.9943353  55.6332620  47.1769154  88.7850476
  54.9396092  46.7623107  88.2720431  56.3805611  47.2189691  88.1883895
  71.7697841  37.9675341  83.6505511  71.1896510  38.6260145  83.2683563
  71.5033774  37.1452686  83.2392928  70.2201407  37.3680399  85.8526831
  70.7201186  37.4796933  85.0441150  70.8637015  37.0641452  86.4927639
  64.2783403  45.2759029  98.7394672  63.7950485  46.0759389  98.9458561
  64.3644342  45.2866973  97.7862116  57.5469363  47.1087408  86.6616491
  57.5240051  47.2075095  85.7098374  57.8569999  47.9552559  86.9833657
  60.2056741  49.1663563  90.7763106  61.1599994  49.1347506  90.7093037
  60.0069264  48.7054187  91.5913332  60.7956123  47.7364679  93.3433903
  61.6149012  48.2308758  93.3668741  61.0692930  46.8196647  93.3151471
  73.9037255  40.1521953  86.4216198  74.6797645  40.6418405  86.6940815
  73.1785389  40.5780007  86.8788068  76.3409814  40.8649572  87.4790139
  76.9354304  40.6245308  86.7683447  76.4136397  40.1456702  88.1063675
  58.5606969  54.7083183  87.7933304  58.4261437  53.9483584  87.2271302
  58.1439032  55.4324083  87.3262093  69.6965932  49.8920106  76.8009879
  70.4001782  50.0970109  77.4167535  68.9728581  50.4596868  77.0658962
  70.5263743  45.6429968  82.9212149  70.4698944  46.0998519  82.0819782
  71.0792085  44.8820652  82.7434992  74.3368549  41.4319699  83.7462269
  74.0805483  41.0316335  84.5770476  73.7121417  42.1463493  83.6212408
  78.6480886  44.1715773  86.2533560  78.0880444  44.2408962  87.0265122
  78.0424390  43.9956757  85.5333056  61.7176095  55.6052500  88.0051746
  61.6008479  56.5497932  87.9030437  60.8968541  55.3026061  88.3937546
  71.6052630  50.3302635  78.8508339  72.4398234  49.8983834  78.6685814
  71.4436973  50.1584649  79.7785233  71.2598522  46.8334749  80.2164678
  71.2047326  46.6679020  79.2753122  70.6344577  47.5410782  80.3726868
  56.0491037  42.0702813  94.0426101  56.6949900  41.5601767  94.5313326
  55.8408188  42.8071495  94.6169526  68.5744429  49.1383661  99.5418241
  69.4435589  49.3124313  99.1804876  68.0951181  49.9578077  99.4193970
  64.5694647  36.3342858  79.7949997  64.5573317  37.2784698  79.9518268
  65.4618069  36.1513003  79.5009458  62.7430609  56.2580762  91.2207675
  63.6457856  56.2904372  91.5374170  62.5167979  55.3281213  91.2354011
  64.4984211  55.0111748  87.8817753  63.5479842  55.0113610  87.7682126
  64.8016697  54.2644483  87.3653788  68.3846767  32.9285634  84.0495934
  67.6179163  32.3744121  84.1952616  68.7957472  33.0007503  84.9110085
  60.3888528  39.2170430  98.1401115  61.2519989  38.8607235  98.3504439
  59.8153939  38.8784325  98.8276519  80.2336905  60.8472287  88.9463516
  80.8715315  60.7279034  88.2426856  80.1157748  61.7953131  89.0051468
  77.0426611  60.7999715  88.8825040  76.7045123  60.6840779  87.9945575
  77.9116379  60.3990880  88.8626047  72.9013427  62.6535191  84.8721931
  72.3378292  62.5625128  84.1038219  72.7865822  61.8335096  85.3524424
  77.5246394  61.9534566  94.8411246  77.5135035  61.5587365  93.9691750
  77.6867034  61.2200639  95.4345017  70.4477859  64.1486383  87.7106152
  71.2399151  63.8077207  87.2952451  70.6874509  64.2581358  88.6308305
  74.2453655  64.7371678  93.7890430  73.9543521  65.6417309  93.6737096
  74.8810640  64.7788206  94.5034500  75.1709862  62.1148527  90.3791790
  75.7673434  61.8904549  89.6648753  75.2284834  61.3733272  90.9817237
  79.7878173  58.5723740  86.0216724  80.5741263  58.1543164  85.6707141
  80.0516878  59.4769833  86.1898372  79.9588251  64.0096591  80.7205381
  79.3234084  64.0831217  81.4326285  79.6285657  64.5990190  80.0424460
  85.1886600  58.5098974  86.9249702  85.9211772  57.9398190  87.1587532
  84.4325956  58.1220574  87.3656208  76.8062720  60.9326215  84.1213045
  76.4420927  60.4056836  84.8325966  77.6629836  60.5424684  83.9479530
  82.7112021  52.2220548  91.3844311  82.3795346  53.0915959  91.1605526
  82.1157634  51.9056832  92.0638341  76.4468207  55.9616115  79.1174393
  76.6142609  56.8296351  79.4844864  76.2565376  56.1243397  78.1935683
  79.2043540  64.4233094  90.7840224  78.9044263  65.3258133  90.6756031
  78.8594600  64.1565277  91.6361377  72.6556022  60.8746891  86.8176928
  71.7306518  60.7423105  87.0254620  72.9040435  61.6541110  87.3146870
  82.6040684  56.9415634  88.4637661  81.6957561  56.8731042  88.1696422
  82.5528280  57.4187579  89.2919486  70.0164833  60.5180164  87.6520717
  70.1457214  60.7714643  88.5660129  69.3362284  61.1107872  87.3325372
  74.1864320  71.1877414  83.7511191  74.1088350  72.1385239  83.8299672
  73.5825964  70.8423287  84.4086118  76.6781550  58.3605280  96.4072558
  75.9014884  58.9199200  96.3975423  77.3172113  58.8462062  96.9287428
  84.4702330  55.1432072  90.2415535  83.8276711  55.4364605  89.5955329
  83.9657259  55.0284993  91.0468732  82.1242494  58.8895246  80.9301394
  83.0360350  59.1222632  80.7549092  81.6152141  59.4732290  80.3676473
  74.9327922  61.1690733  95.9690525  75.6742607  61.7075777  95.6925349
  74.2264908  61.7957022  96.1262077  80.4083262  63.3119873  94.5662687
  80.8166618  62.8702284  93.8217319  79.6860523  62.7372501  94.8196880
  76.7614332  58.2492480  91.9396244  77.6075527  58.6731894  92.0830893
  76.7012970  57.5926104  92.6334807  80.7312076  63.8721064  88.3214976
  80.1020939  64.0366778  87.6191043  80.3437739  64.2862674  89.0925940
  84.6101308  64.8075502  85.6759339  83.9252347  65.1874403  85.1256373
  84.6945158  65.4170828  86.4091287  79.9113777  55.9096848  93.5977417
  79.6674709  56.6638909  93.0611693  80.1873708  56.2882196  94.4324664
  81.8652240  62.4535461  92.2754683  82.0769135  63.0967221  91.5989064
  81.8181988  61.6197777  91.8076613  79.4678469  55.0653281  89.1791255
  78.6062948  55.3634535  89.4707993  79.4940904  55.2823680  88.2472288
  76.2840038  63.6095472  85.5865061  76.7478384  63.8883175  84.7969683
  76.0196836  62.7078917  85.4038151  73.1764119  63.1566954  88.5244824
  73.7465476  63.5854222  87.8862308  73.7672231  62.8749538  89.2229010
  75.2208924  59.7318624  82.3954626  75.9232968  60.1839668  82.8628552
  74.8889553  59.0902443  83.0234519  73.6689286  58.3230381  96.7705835
  73.0387947  59.0046662  97.0041232  73.5625374  58.2113463  95.8258973
  68.9634258  57.9902177  87.6971759  68.1733312  58.2459706  87.2211870
  69.4545506  58.8050515  87.8023800  82.9798068  65.3307416  90.4477040
  83.8015512  64.9287604  90.1659722  82.9760471  65.2275650  91.3993156
  76.7454671  64.8791460  92.6037751  76.8099104  65.3411867  93.4395923
  76.0365595  64.2488824  92.7320061  67.2471961  58.2432668  90.1286750
  67.4980000  59.1279677  90.3944326  67.7831510  58.0637269  89.3561842
  91.0704061  61.6746165  86.7962012  90.3167769  61.1053563  86.6406016
  91.2051602  61.6408829  87.7432646  72.9470029  52.6251147  99.1331086
  72.5536974  52.0717345  99.8078731  73.7636169  52.9361725  99.5237604
  71.7226971  67.1800761  85.1267409  71.8993599  68.1018726  84.9388393
  72.5183805  66.8659181  85.5561789  75.8637990  54.0409026  96.7251343
  76.6047703  54.6416179  96.6455805  76.0955912  53.2986664  96.1669385
  71.0079328  59.2265393  95.0029573  70.8932843  58.3250650  95.3036671
  70.1523845  59.4729090  94.6514389  78.0871165  67.1683134  96.6017073
  77.6435020  66.3819512  96.2837978  78.7488379  67.3562284  95.9360964
  72.8458287  68.6978935  91.1277752  73.3965712  68.5695998  90.3554746
  72.0069762  68.9973824  90.7772644  80.1852403  67.4485933  94.6298474
  80.1670879  68.2694815  94.1378744  81.1072324  67.3240009  94.8548616
  76.6425458  64.9630063  95.4721983  77.1753794  64.2018351  95.2421291
  76.1139539  64.6703715  96.2146137  79.8095153  50.0690129  91.0015625
  79.4659422  50.9591771  90.9254735  80.1774115  49.8791787  90.1385210
  67.8781003  62.3923659  83.8204227  68.7156225  62.8020668  83.6037934
  68.0559271  61.4523102  83.7904421  79.7745435  60.0598740  79.5088060
  79.2592059  60.8303345  79.7476447  79.5022744  59.3863876  80.1321121
  77.3592546  54.9048441  84.5673298  76.5034143  54.5155291  84.3878937
  77.7719498  54.9840402  83.7073084  78.8891693  52.4394784  88.9664858
  78.3856489  52.4024919  88.1532663  79.1822300  53.3487527  89.0261514
  75.1334579  52.5233514  87.9731040  75.9987576  52.3276322  87.6136929
  75.2012088  52.2943866  88.9000396  84.7479709  62.8131095  81.4441233
  83.9709152  62.4742254  80.9996395  85.4271190  62.8183718  80.7696198
  79.5631738  57.9325832  81.3347841  79.2581874  58.2471981  82.1857984
  80.5162181  58.0107252  81.3775174  78.0078170  64.0916055  82.9840795
  77.4799532  63.3568815  82.6714032  77.5065673  64.8690732  82.7380763
  82.9871016  62.2865076  88.1007841  82.3294691  62.9764337  88.1887970
  83.7911416  62.6761508  88.4441827  81.7976475  60.6409449  86.1511783
  82.3108357  61.2739440  86.6533493  82.4477699  60.0410644  85.7855143
  75.0419566  51.6276971  84.0722476  74.3883978  51.3125988  83.4479091
  75.0000040  51.0052711  84.7982299  79.0598849  70.6193773  78.9072454
  78.3860548  70.9225470  79.5157412  79.4464671  71.4222853  78.5577911
  78.2757306  58.1158904  88.3970123  77.3579867  58.3373851  88.2391811
  78.6917450  58.1905215  87.5381831  79.0592354  59.5150320  83.5272804
  79.8064173  60.0271717  83.2179926  79.3283943  59.1934373  84.3877197
  77.3319004  62.0108861  80.5099758  76.4230223  61.7267893  80.6072228
  77.3614088  62.4307939  79.6503065  82.5638271  65.6215450  84.2790925
  82.1100598  64.7806360  84.3356116  81.9332238  66.2576848  84.6165706
  81.5071191  56.5507436  85.5091593  80.7693948  56.0384822  85.8401836
  81.7597964  56.1107818  84.6974870  81.0071211  67.4591947  85.2140744
  81.2994185  68.0197004  84.4953109  81.5169831  67.7520508  85.9693903
  81.6082818  49.3283688  86.1033362  81.9141695  48.4681052  85.8159277
  82.3335423  49.9201308  85.9032356  67.9007174  59.7314375  84.4914960
  67.7031574  59.1383735  83.7666027  67.3453838  59.4266585  85.2090899
  75.8803898  59.6237481  86.6109553  75.9352508  58.6711318  86.5352030
  75.0695100  59.7796920  87.0950852  75.9704836  68.2372298  86.3034197
  75.9281015  68.4633144  85.3742729  76.8867535  68.0035672  86.4519998
  79.4170470  58.7056365  93.2014826  79.7719857  58.9327839  94.0609292
  80.0642601  59.0374742  92.5792081  85.1468207  61.8274801  83.9064155
  85.0086105  62.0176397  82.9785344  84.7904425  62.5894184  84.3632206
  73.3110333  55.8132896  89.9861167  73.9509712  55.6721656  89.2884130
  72.4787863  55.5267410  89.6099769  85.1737586  63.8951328  88.9175427
  85.6074093  63.8026617  89.7658481  85.8869167  63.8708829  88.2795443
  74.0870637  65.1135327  86.0996160  74.8811235  64.6185647  85.8978735
  73.3762329  64.5853190  85.7363865  78.9065481  67.4953422  90.4508527
  78.9602503  68.0644359  91.2186243  78.0380262  67.6655307  90.0862564
  71.7863874  57.1970979  91.9332978  72.4586928  56.9888341  91.2845627
  70.9593661  56.9993065  91.4938211  86.0353136  63.9375029  91.4508312
  86.2289026  64.8420839  91.6967587  85.9353754  63.4782448  92.2846897
  77.6889446  53.8232920  93.9498639  77.0417361  54.5222869  93.8563116
  78.4590462  54.2569063  94.3174888  81.0968244  64.0881772  97.0249193
  80.9453751  63.8592323  96.1079276  81.0872924  65.0452373  97.0380538
  77.8653581  61.6613684  92.0095459  78.7945641  61.8124844  91.8364426
  77.4444611  61.7497705  91.1544106  76.6641913  65.6864349  89.7793997
  76.5252998  65.3183133  90.6519935  75.8756509  66.2011988  89.6077954
  77.2590065  70.7873445  81.1219533  77.4341820  70.3161489  81.9365156
  76.5722853  71.4139212  81.3500794  78.2147128  65.0645952  87.1682834
  77.8796960  65.0246722  88.0640484  77.7151073  64.3990667  86.6953245
  72.1891372  60.4713582  92.6935416  72.0511170  59.7393820  93.2946955
  73.0996295  60.3822482  92.4119603  81.1506319  62.4101986  77.4419894
  80.5335490  61.6848814  77.3452947  80.6822808  63.1711346  77.0986968
  74.8173672  60.1833541  92.1819095  75.5273291  59.5426733  92.1405714
  74.7742980  60.4346436  93.1045276  82.8060451  67.1200894  95.1025674
  82.7472997  66.4360114  94.4356257  83.2079969  67.8619884  94.6506300
  73.5302606  57.1698759  94.0014735  72.9939963  56.7189497  94.6536331
  72.9419315  57.3044668  93.2585199  82.8077858  65.0840478  93.3339654
  81.9204637  64.7466400  93.4566053  83.3776409  64.3523509  93.5708420
  64.4607005  61.4164570  86.6582706  65.1478045  61.1026300  86.0703721
  64.3055134  62.3205935  86.3849957  69.2641728  56.3054766  91.0867729
  69.1799916  55.6980436  90.3518139  68.4424434  56.7963785  91.0877226
  76.3379012  69.7441931  90.3000897  76.2649183  70.5496902  90.8120202
  75.8956405  69.9433896  89.4748919  79.4365441  54.7908330  86.4537924
  79.9334141  54.0378292  86.1338995  78.6652423  54.8272647  85.8881134
  87.2895199  60.4948696  88.0956216  87.2785075  61.3773411  87.7250149
  86.4212578  60.1420246  87.9010753  78.7977695  69.6428765  92.4559056
  79.5105667  70.2776229  92.3834957  78.3067724  69.7392631  91.6399058
  80.5195222  63.5480017  84.0276348  79.5851501  63.6681480  83.8581052
  80.6971891  62.6452484  83.7636357  76.0200410  56.9325713  86.1809609
  75.6498198  56.3796753  86.8690514  76.5159503  56.3283846  85.6284609
  83.9067773  59.3897337  84.5626382  84.3728226  60.2225328  84.4886684
  84.3575274  58.9242318  85.2671640  73.8489609  67.3923208  93.2764627
  74.5499068  68.0259691  93.4294021  73.3784724  67.7337940  92.5160266
  81.9744005  65.7341158  81.5612534  82.2503848  65.6197752  82.4706408
  81.1048503  65.3358643  81.5224707  81.8784436  51.7577923  88.6017283
  80.9647516  51.9882150  88.7699490  82.3077538  51.8416368  89.4531316
  81.6490895  59.9467815  91.1017177  80.9962345  60.1943723  90.4469630
  82.0271275  59.1331954  90.7679654  78.6098069  69.9827509  85.2045347
  78.7920463  69.1649165  85.6673100  79.4331055  70.1995201  84.7670237
  78.9440234  68.9095694  82.4660396  79.4728001  68.3988148  81.8530558
  79.2068454  68.5938224  83.3305929  77.6978468  60.6887627  97.5883214
  77.0219105  60.5881756  98.2585589  78.5206102  60.5326840  98.0519211
  69.4457327  66.9259563  90.2095729  70.0310764  66.1803251  90.3423634
  69.2482165  67.2363520  91.0932393  72.2995982  69.9610810  85.2258172
  71.6306357  70.4456938  84.7422212  72.1608852  70.2080031  86.1401550
  64.0374982  59.4965163  88.9300173  64.0759081  58.9628754  89.7237291
  63.5315274  58.9700369  88.3111150  76.4401251  71.9954554  91.8240830
  76.9919559  72.1586175  92.5889915  76.7807444  72.5858992  91.1520855
  71.4165744  54.3429704  92.4262715  71.4807070  55.2044535  92.0140113
  71.3532864  53.7303705  91.6935073  70.8918016  56.4152836  96.0735749
  71.5190055  56.0329914  96.6873274  70.0345935  56.1967038  96.4391442
  81.2912125  66.8215811  97.6789485  81.8352029  67.4345770  97.1844439
  80.7098970  67.3795390  98.1956498  79.5769638  69.9436529  88.8104512
  79.4520777  69.1426269  88.3015458  80.2348729  70.4382723  88.3218482
  71.1977806  56.2985262  87.9881653  70.4764392  56.9121230  87.8489126
  71.9871062  56.8343027  87.9098299  81.6404546  67.7445550  90.4384062
  80.6934882  67.6250901  90.3662389  81.9887319  66.8568048  90.5210324
  74.0004120  53.6339688  94.2622304  74.5238521  53.8801985  95.0248614
  73.7816453  54.4659723  93.8425442  78.6450980  67.5398266  86.6388415
  78.4975942  66.6114973  86.8195985  79.4704473  67.5618357  86.1545490
  82.2485101  68.3626825  87.7253287  83.1731649  68.1569686  87.5877739
  82.0800405  68.1143226  88.6342629  75.2056665  54.5753384  91.9471975
  74.8653485  53.7761197  92.3492655  74.4995671  54.8755094  91.3748808
  75.8573136  51.6602696  90.3999298  76.6799206  51.1863174  90.2778188
  76.1011200  52.4393180  90.8997984  78.6412494  55.3936103  81.6320532
  78.8576108  56.2760741  81.3309360  78.1606561  55.0022317  80.9026174
  73.3811715  58.3521817  88.2091277  73.2356296  58.6662120  89.1015558
  72.9036919  58.9706717  87.6562175  75.2408098  55.3424365  88.2572166
  75.2269667  54.4465458  87.9204464  75.9580526  55.3495028  88.8910452
  77.0934229  55.7761705  90.3025294  76.8352007  56.6978776  90.3009624
  76.5619269  55.3792139  90.9925758  82.0380418  68.8812492  83.0815379
  82.2117295  68.3158914  82.3289231  82.5309309  69.6813387  82.8994869
  67.8557377  60.8927161  91.1478938  67.3110845  61.6686969  91.2799212
  68.7336727  61.2397966  90.9898059  74.6444994  54.2238745  83.5259736
  74.7660905  53.2955391  83.7250624  74.3547036  54.2377431  82.6138052
  77.5136184  51.9093655  86.6626456  77.5357881  51.9732988  85.7078436
  77.9304243  51.0698164  86.8566962  87.8919809  61.6448915  84.7005679
  88.3350955  60.8956240  84.3024802  87.0146319  61.6359051  84.3179411
  83.0255590  68.1979256  80.1812277  83.7206495  68.8185949  80.3999592
  83.3678740  67.3474608  80.4564655  68.6423399  60.0197057  94.0409095
  67.9005135  60.1679693  94.6273725  68.3216144  60.2805323  93.1775844
  84.9247013  65.6478962  81.7099608  85.4498337  65.9866235  80.9848928
  84.8369366  64.7125977  81.5262743  76.5867062  69.5613036  93.8389485
  76.8954188  69.3162182  94.7112184  77.3842544  69.7659674  93.3508355
  76.6087674  71.7150945  86.0694861  76.1692664  71.2227324  86.7627718
  77.3595791  71.1723913  85.8286936  69.0880013  67.9062486  86.0719489
  69.9138033  67.6066258  85.6918133  68.7374065  67.1370108  86.5209278
  74.0561546  67.2588954  88.1417163  73.4341555  66.5959659  87.8419391
  74.7266413  67.2850086  87.4590811  67.2888618  65.8248813  87.0308423
  66.4520526  65.3970987  86.8492424  67.2612263  66.0181256  87.9679214
  74.1286074  55.7370742  97.7349669  74.1774229  56.6132865  97.3527438
  74.6708588  55.1948135  97.1621312  84.6140919  66.2811866  97.0150806
  83.8236463  66.2636004  96.4755305  84.3774274  66.8200159  97.7699843
  84.7338794  63.1304332  94.3283534  84.7836799  62.9654339  95.2699057
  84.6252718  62.2631591  93.9381415  82.0242557  59.1135260  95.6442841
  82.9252419  58.9741725  95.3526839  82.0990531  59.2789715  96.5841019
  76.3585362  56.4902115  94.4896027  75.4888671  56.7835681  94.2178616
  76.5944842  57.0742560  95.2103291  86.2356991  65.5501273  94.5725556
  85.9441799  65.9131254  95.4089017  85.6229122  64.8368282  94.3938888
  87.4352673  63.1154153  87.0928126  88.2699565  63.5543957  87.2565687
  87.5711802  62.6392806  86.2736372  84.4844179  60.6733888  93.0405614
  84.9598301  60.8661534  92.2324465  83.5609745  60.7293074  92.7948998
  79.0624396  52.7081732  92.0061448  79.5806340  53.4442759  91.6807936
  78.7079529  53.0145725  92.8408207  79.3136990  49.1282014  87.5262344
  79.5938744  48.4605203  88.1522771  80.0987597  49.3211110  87.0137008
  83.1845848  57.5499648  91.2733920  84.1363271  57.6497746  91.2946144
  83.0149299  56.7577917  91.7832004  81.2060228  54.6355231  91.4593321
  80.6110160  54.9160244  90.7639809  80.9209925  55.1249132  92.2310062
  80.3367718  68.5878158  80.2195953  81.2698391  68.5223720  80.4228829
  80.2490931  69.4234425  79.7610486  82.9655735  67.9044029  77.1799901
  82.8869367  67.5703892  78.0735659  83.7865402  68.3965796  77.1791373
  85.6633926  60.7705768  90.3876219  85.6310246  59.8321769  90.5735903
  86.2734550  60.8489805  89.6542044  77.5017257  59.6401821  76.4303423
  78.4476362  59.5108029  76.4991841  77.1231502  58.9016483  76.9072851
  85.8128415  57.5616811  90.4334502  85.2967463  56.7775268  90.2464431
  86.6968363  57.2335528  90.5981022  83.4739142  51.3057827  86.3930315
  83.2763963  50.9972915  87.2773647  84.0838847  52.0319466  86.5228245
  91.4810476  61.8321775  89.5282256  92.2113865  61.5707063  90.0889959
  90.8717422  61.0950497  89.5684324  89.5625773  59.9729637  90.1256707
  88.8358937  59.8385602  89.5173199  89.1473060  60.2806466  90.9313425
  77.3855950  63.6919567  97.8904080  78.3058959  63.8698166  98.0844127
  77.3505533  62.7475612  97.7383780  66.6038115  58.8858161  86.8157355
  66.2840899  58.0323469  86.5231729  66.0571543  59.1006739  87.5715322
  70.3818022  61.6020602  90.5326861  70.6004032  62.5337709  90.5514895
  70.7943796  61.2428576  91.3181665  77.3022240  52.1088687  82.5202550
  76.4922968  51.7635772  82.8957796  77.9906657  51.7996231  83.1090161
  79.2312788  51.1866734  84.1426846  79.7843827  51.6062187  84.8016870
  79.4682875  50.2602482  84.1849802  75.2545887  57.1753807  99.9229610
  75.1542614  58.1248164  99.8541701  75.0367430  56.8472046  99.0505680
  74.4558959  54.4238732  76.5070288  75.3178123  54.7493631  76.7666105
  74.6409303  53.6370228  75.9943353  66.4726375  62.5061072  88.7850476
  65.7789846  62.0915025  88.2720431  67.2199366  62.5481609  88.1883895
  82.6091595  53.2967259  83.6505511  82.0290264  53.9552063  83.2683563
  82.3427528  52.4744603  83.2392928  81.0595162  52.6972317  85.8526831
  81.5594940  52.8088851  85.0441150  81.7030770  52.3933369  86.4927639
  75.1177158  60.6050946  98.7394672  74.6344239  61.4051306  98.9458561
  75.2038097  60.6158891  97.7862116  68.3863117  62.4379326  86.6616491
  68.3633805  62.5367013  85.7098374  68.6963754  63.2844477  86.9833657
  71.0450495  64.4955481  90.7763106  71.9993749  64.4639423  90.7093037
  70.8463019  64.0346105  91.5913332  71.6349877  63.0656597  93.3433903
  72.4542766  63.5600676  93.3668741  71.9086685  62.1488565  93.3151471
  81.3916473  55.4567349  82.7061859  80.5042328  55.7417000  82.4882054
  81.8070462  55.2961113  81.8589136  84.7431009  55.4813870  86.4216198
  85.5191400  55.9710323  86.6940815  84.0179144  55.9071924  86.8788068
  87.1803568  56.1941489  87.4790139  87.7748059  55.9537225  86.7683447
  87.2530152  55.4748620  88.1063675  69.4000724  70.0375100  87.7933304
  69.2655192  69.2775501  87.2271302  68.9832786  70.7616000  87.3262093
  80.5359687  65.2212024  76.8009879  81.2395537  65.4262026  77.4167535
  79.8122336  65.7888786  77.0658962  81.3657497  60.9721885  82.9212149
  81.3092698  61.4290437  82.0819782  81.9185840  60.2112570  82.7434992
  85.1762303  56.7611617  83.7462269  84.9199237  56.3608253  84.5770476
  84.5515171  57.4755411  83.6212408  89.4874641  59.5007690  86.2533560
  88.9274199  59.5700880  87.0265122  88.8818144  59.3248675  85.5333056
  72.5569850  70.9344417  88.0051746  72.4402234  71.8789850  87.9030437
  71.7362296  70.6317979  88.3937546  82.4446384  65.6594553  78.8508339
  83.2791988  65.2275752  78.6685814  82.2830727  65.4876567  79.7785233
  82.0992276  62.1626666  80.2164678  82.0441080  61.9970938  79.2753122
  81.4738332  62.8702699  80.3726868  66.8884791  57.3994731  94.0426101
  67.5343655  56.8893685  94.5313326  66.6801942  58.1363412  94.6169526
  79.4138184  64.4675578  99.5418241  80.2829343  64.6416231  99.1804876
  78.9344935  65.2869995  99.4193970  75.4088402  51.6634775  79.7949997
  75.3967072  52.6076615  79.9518268  76.3011824  51.4804921  79.5009458
  73.5824364  71.5872679  91.2207675  74.4851610  71.6196290  91.5374170
  73.3561734  70.6573130  91.2354011  75.3377966  70.3403666  87.8817753
  74.3873597  70.3405527  87.7682126  75.6410452  69.5936400  87.3653788
  79.2240521  48.2577552  84.0495934  78.4572917  47.7036039  84.1952616
  79.6351226  48.3299421  84.9110085  71.2282282  54.5462348  98.1401115
  72.0913744  54.1899153  98.3504439  70.6547693  54.2076243  98.8276519
  91.0730659  76.1764204  88.9463516  91.7109069  76.0570952  88.2426856
  90.9551502  77.1245048  89.0051468  87.8820366  76.1291632  88.8825040
  87.5438877  76.0132697  87.9945575  88.7510134  75.7282797  88.8626047
  83.7407181  77.9827109  84.8721931  83.1772046  77.8917046  84.1038219
  83.6259576  77.1627013  85.3524424  88.3640149  77.2826484  94.8411246
  88.3528789  76.8879282  93.9691750  88.5260788  76.5492557  95.4345017
  81.2871613  79.4778300  87.7106152  82.0792905  79.1369125  87.2952451
  81.5268263  79.5873275  88.6308305  89.3206740  81.6498076  80.1836396
  88.6694720  82.2352157  79.7970410  90.1151103  82.1804271  80.2431434
  83.2462367  78.7387214  80.5823531  84.0193243  78.1916201  80.4436406
  83.5987766  79.6031463  80.7937992  85.0847410  80.0663596  93.7890430
  84.7937276  80.9709227  93.6737096  85.7204394  80.1080124  94.5034500
  86.0103617  77.4440444  90.3791790  86.6067189  77.2196467  89.6648753
  86.0678588  76.7025190  90.9817237  85.5828645  74.8979880  78.2141981
  85.8354166  74.3761401  77.4525444  84.6453204  74.7346025  78.3168664
  90.6271928  73.9015658  86.0216724  91.4135017  73.4835081  85.6707141
  90.8910632  74.8061750  86.1898372  90.7982005  79.3388508  80.7205381
  90.1627838  79.4123135  81.4326285  90.4679412  79.9282107  80.0424460
  96.0280355  73.8390891  86.9249702  96.7605527  73.2690108  87.1587532
  95.2719711  73.4512492  87.3656208  85.3024934  76.8007986  80.4166356
  85.1861192  76.1252889  81.0847440  85.4127194  76.3140360  79.5998509
  87.6456475  76.2618133  84.1213045  87.2814682  75.7348754  84.8325966
  88.5023591  75.8716602  83.9479530  93.5505775  67.5512465  91.3844311
  93.2189100  68.4207876  91.1605526  92.9551389  67.2348749  92.0638341
  87.2861962  71.2908032  79.1174393  87.4536364  72.1588269  79.4844864
  87.0959131  71.4535314  78.1935683  90.0437295  79.7525011  90.7840224
  89.7438018  80.6550050  90.6756031  89.6988354  79.4857195  91.6361377
  83.4949776  76.2038808  86.8176928  82.5700273  76.0715022  87.0254620
  83.7434189  76.9833027  87.3146870  93.4434439  72.2707552  88.4637661
  92.5351316  72.2022960  88.1696422  93.3922034  72.7479497  89.2919486
  87.2651182  73.7465690  80.1021060  87.1450808  74.1922741  80.9406540
  86.5703771  74.0951008  79.5434598  80.8558587  75.8472082  87.6520717
  80.9850968  76.1006561  88.5660129  80.1756039  76.4399790  87.3325372
  85.0258075  86.5169332  83.7511191  84.9482104  87.4677157  83.8299672
  84.4219718  86.1715204  84.4086118  87.5175304  73.6897197  96.4072558
  86.7408638  74.2491117  96.3975423  88.1565867  74.1753980  96.9287428
  95.3096085  70.4723990  90.2415535  94.6670465  70.7656523  89.5955329
  94.8051014  70.3576910  91.0468732  92.9636249  74.2187163  80.9301394
  93.8754105  74.4514550  80.7549092  92.4545896  74.8024207  80.3676473
  85.7721677  76.4982651  95.9690525  86.5136361  77.0367695  95.6925349
  85.0658662  77.1248939  96.1262077  91.2477016  78.6411791  94.5662687
  91.6560372  78.1994202  93.8217319  90.5254278  78.0664419  94.8196880
  87.6008086  73.5784398  91.9396244  88.4469282  74.0023811  92.0830893
  87.5406724  72.9218022  92.6334807  91.5705831  79.2012982  88.3214976
  90.9414693  79.3658696  87.6191043  91.1831493  79.6154591  89.0925940
  95.4495063  80.1367419  85.6759339  94.7646101  80.5166321  85.1256373
  95.5338912  80.7462746  86.4091287  90.7507532  71.2388766  93.5977417
  90.5068464  71.9930827  93.0611693  91.0267462  71.6174114  94.4324664
  92.7045994  77.7827379  92.2754683  92.9162890  78.4259138  91.5989064
  92.6575743  76.9489695  91.8076613  90.3072223  70.3945199  89.1791255
  89.4456702  70.6926453  89.4707993  90.3334658  70.6115598  88.2472288
  87.1233793  78.9387390  85.5865061  87.5872138  79.2175093  84.7969683
  86.8590591  78.0370834  85.4038151  84.0157874  78.4858871  88.5244824
  84.5859231  78.9146140  87.8862308  84.6065986  78.2041456  89.2229010
  86.0602679  75.0610542  82.3954626  86.7626722  75.5131586  82.8628552
  85.7283307  74.4194361  83.0234519  84.5083040  73.6522299  96.7705835
  83.8781701  74.3338580  97.0041232  84.4019128  73.5405380  95.8258973
  79.8028013  73.3194095  87.6971759  79.0127067  73.5751623  87.2211870
  80.2939260  74.1342433  87.8023800  93.8191822  80.6599334  90.4477040
  94.6409266  80.2579521  90.1659722  93.8154225  80.5567568  91.3993156
  81.7542758  73.6838674  84.6555236  80.9573922  73.7957368  85.1738732
  81.5268350  74.0225326  83.7896127  87.5848426  80.2083377  92.6037751
  87.6492858  80.6703784  93.4395923  86.8759350  79.5780742  92.7320061
  78.0865716  73.5724585  90.1286750  78.3373754  74.4571595  90.3944326
  78.6225264  73.3929187  89.3561842 101.9097815  77.0038082  86.7962012
 101.1561524  76.4345480  86.6406016 102.0445357  76.9700747  87.7432646
  87.2996444  81.8751485  82.4716731  87.1642118  82.7203020  82.9001579
  87.8406256  82.0770762  81.7082665  83.7863783  67.9543065  99.1331086
  83.3930729  67.4009263  99.8078731  84.6029923  68.2653643  99.5237604
  80.7525841  79.3926923  83.0444656  81.2650361  80.1870173  83.1950221
  81.4048554  78.6953213  82.9778258  82.5620726  82.5092679  85.1267409
  82.7387354  83.4310644  84.9388393  83.3577559  82.1951098  85.5561789
  86.7031744  69.3700944  96.7251343  87.4441458  69.9708097  96.6455805
  86.9349667  68.6278581  96.1669385  81.8473082  74.5557311  95.0029573
  81.7326597  73.6542568  95.3036671  80.9917600  74.8021008  94.6514389
  88.9264920  82.4975051  96.6017073  88.4828774  81.7111430  96.2837978
  89.5882133  82.6854202  95.9360964  83.6852041  84.0270853  91.1277752
  84.2359466  83.8987916  90.3554746  82.8463517  84.3265742  90.7772644
  91.0246158  82.7777851  94.6298474  91.0064633  83.5986732  94.1378744
  91.9466078  82.6531926  94.8548616  87.4819212  80.2921981  95.4721983
  88.0147549  79.5310269  95.2421291  86.9533293  79.9995632  96.2146137
  90.6488907  65.3982047  91.0015625  90.3053176  66.2883688  90.9254735
  91.0167870  65.2083704  90.1385210  78.7174758  77.7215577  83.8204227
  79.5549980  78.1312585  83.6037934  78.8953025  76.7815019  83.7904421
  90.6139190  75.3890658  79.5088060  90.0985813  76.1595262  79.7476447
  90.3416498  74.7155794  80.1321121  88.1986301  70.2340358  84.5673298
  87.3427897  69.8447209  84.3878937  88.6113253  70.3132319  83.7073084
  89.7285447  67.7686702  88.9664858  89.2250243  67.7316837  88.1532663
  90.0216054  68.6779444  89.0261514  85.9728333  67.8525431  87.9731040
  86.8381330  67.6568240  87.6136929  86.0405842  67.6235783  88.9000396
  95.5873464  78.1423012  81.4441233  94.8102907  77.8034172  80.9996395
  96.2664945  78.1475636  80.7696198  90.4025493  73.2617750  81.3347841
  90.0975629  73.5763899  82.1857984  91.3555935  73.3399170  81.3775174
  88.8471925  79.4207973  82.9840795  88.3193286  78.6860733  82.6714032
  88.3459428  80.1982649  82.7380763  93.8264771  77.6156994  88.1007841
  93.1688445  78.3056255  88.1887970  94.6305170  78.0053426  88.4441827
  83.5790652  70.0827639  85.3447406  84.1534404  69.8602821  84.6120599
  84.1661635  70.1516334  86.0976008  92.6370230  75.9701366  86.1511783
  93.1502111  76.6031358  86.6533493  93.2871454  75.3702562  85.7855143
  83.9060240  72.1132100  79.3643292  83.0697552  72.4506787  79.6852566
  83.7665009  71.9781080  78.4270429  85.8813320  66.9568888  84.0722476
  85.2277732  66.6417905  83.4479091  85.8393794  66.3344629  84.7982299
  86.9924525  77.2388183  75.9875768  86.0851587  77.0077437  76.1866917
  87.4895557  76.4425803  76.1749749  89.8992604  85.9485691  78.9072454
  89.2254303  86.2517387  79.5157412  90.2858426  86.7514771  78.5577911
  89.1151060  73.4450822  88.3970123  88.1973622  73.6665769  88.2391811
  89.5311204  73.5197132  87.5381831  89.8986108  74.8442238  83.5272804
  90.6457927  75.3563635  83.2179926  90.1677698  74.5226290  84.3877197
  88.1712758  77.3400778  80.5099758  87.2623978  77.0559811  80.6072228
  88.2007842  77.7599857  79.6503065  93.4032026  80.9507368  84.2790925
  92.9494353  80.1098278  84.3356116  92.7725993  81.5868766  84.6165706
  92.3464945  71.8799354  85.5091593  91.6087702  71.3676740  85.8401836
  92.5991719  71.4399735  84.6974870  91.8464965  82.7883864  85.2140744
  92.1387939  83.3488922  84.4953109  92.3563586  83.0812425  85.9693903
  92.4476573  64.6575606  86.1033362  92.7535450  63.7972969  85.8159277
  93.1729178  65.2493226  85.9032356  78.7400929  75.0606292  84.4914960
  78.5425329  74.4675653  83.7666027  78.1847593  74.7558503  85.2090899
  86.7197652  74.9529399  86.6109553  86.7746262  74.0003235  86.5352030
  85.9088855  75.1088838  87.0950852  87.8688846  78.8809522  77.8487837
  87.4308276  78.1645381  77.3893474  88.6099287  79.1085637  77.2872928
  84.6590012  73.5706459  84.3699932  83.8457878  73.8700629  84.7765124
  85.1549007  73.1762147  85.0874414  86.8098590  83.5664216  86.3034197
  86.7674769  83.7925062  85.3742729  87.7261289  83.3327590  86.4519998
  90.2564224  74.0348283  93.2014826  90.6113612  74.2619756  94.0609292
  90.9036355  74.3666660  92.5792081  95.9861961  77.1566719  83.9064155
  95.8479860  77.3468315  82.9785344  95.6298180  77.9186102  84.3632206
  84.1504087  71.1424814  89.9861167  84.7903466  71.0013573  89.2884130
  83.3181618  70.8559327  89.6099769  96.0131341  79.2243246  88.9175427
  96.4467847  79.1318535  89.7658481  96.7262921  79.2000746  88.2795443
  84.9264391  80.4427245  86.0996160  85.7204990  79.9477565  85.8978735
  84.2156083  79.9145108  85.7363865  89.7459236  82.8245340  90.4508527
  89.7996258  83.3936276  91.2186243  88.8774017  82.9947225  90.0862564
  81.2347155  74.5870326  82.1755912  80.3044743  74.5254782  82.3925874
  81.3304627  74.0646279  81.3792553  81.1532704  71.1125139  84.7634154
  81.4139521  72.0270472  84.6543314  81.9749876  70.6449582  84.9130767
  82.6257629  72.5262896  91.9332978  83.2980682  72.3180258  91.2845627
  81.7987415  72.3284982  91.4938211  96.8746890  79.2666947  91.4508312
  97.0682780  80.1712757  91.6967587  96.7747508  78.8074366  92.2846897
  88.5283201  69.1524837  93.9498639  87.8811116  69.8514787  93.8563116
  89.2984216  69.5860981  94.3174888  91.9361999  79.4173689  97.0249193
  91.7847505  79.1884241  96.1079276  91.9266678  80.3744291  97.0380538
  88.7047335  76.9905602  92.0095459  89.6339395  77.1416762  91.8364426
  88.2838365  77.0789623  91.1544106  87.5035667  81.0156267  89.7793997
  87.3646753  80.6475051  90.6519935  86.7150263  81.5303906  89.6077954
  88.0983819  86.1165363  81.1219533  88.2735575  85.6453406  81.9365156
  87.4116607  86.7431129  81.3500794  89.0540882  80.3937869  87.1682834
  88.7190715  80.3538639  88.0640484  88.5544828  79.7282585  86.6953245
  83.0285126  75.8005499  92.6935416  82.8904924  75.0685738  93.2946955
  83.9390050  75.7114399  92.4119603  91.9900074  77.7393904  77.4419894
  91.3729244  77.0140732  77.3452947  91.5216562  78.5003264  77.0986968
  85.6567427  75.5125459  92.1819095  86.3667045  74.8718651  92.1405714
  85.6136735  75.7638353  93.1045276  93.6454206  82.4492812  95.1025674
  93.5866752  81.7652032  94.4356257  94.0473724  83.1911802  94.6506300
  84.3696361  72.4990676  94.0014735  83.8333718  72.0481415  94.6536331
  83.7813069  72.6336585  93.2585199  82.6644904  89.2654726  87.8959393
  82.9041503  89.8973250  88.5738412  81.8214101  88.9142766  88.1824753
  83.7798620  71.9579328  76.5641198  82.9028086  71.8368129  76.2003445
  84.2556373  71.1665406  76.3120087  93.6471613  80.4132396  93.3339654
  92.7598392  80.0758318  93.4566053  94.2170164  79.6815427  93.5708420
  75.3000760  76.7456488  86.6582706  75.9871800  76.4318218  86.0703721
  75.1448889  77.6497852  86.3849957  80.1035482  71.6346684  91.0867729
  80.0193671  71.0272354  90.3518139  79.2818188  72.1255702  91.0877226
  87.1772766  85.0733848  90.3000897  87.1042938  85.8788820  90.8120202
  86.7350159  85.2725814  89.4748919  86.9662546  84.3105618  83.8103719
  86.1830068  84.8527298  83.9041943  87.6655291  84.8279598  84.2097960
  90.2759196  70.1200248  86.4537924  90.7727895  69.3670210  86.1338995
  89.5046177  70.1564564  85.8881134  98.1288953  75.8240613  88.0956216
  98.1178830  76.7065329  87.7250149  97.2606333  75.4712164  87.9010753
  89.6371450  84.9720682  92.4559056  90.3499422  85.6068147  92.3834957
  89.1461478  85.0684548  91.6399058  91.3588977  78.8771935  84.0276348
  90.4245255  78.9973397  83.8581052  91.5365645  77.9744402  83.7636357
  86.8594165  72.2617631  86.1809609  86.4891952  71.7088671  86.8690514
  87.3553257  71.6575764  85.6284609  94.7461528  74.7189254  84.5626382
  95.2121980  75.5517246  84.4886684  95.1969028  74.2534236  85.2671640
  84.6883363  82.7215126  93.2764627  85.3892823  83.3551609  93.4294021
  84.2178478  83.0629857  92.5160266  92.8137759  81.0633075  81.5612534
  93.0897603  80.9489670  82.4706408  91.9442258  80.6650560  81.5224707
  92.7178191  67.0869841  88.6017283  91.8041270  67.3174068  88.7699490
  93.1471292  67.1708285  89.4531316  92.4884649  75.2759733  91.1017177
  91.8356099  75.5235641  90.4469630  92.8665029  74.4623871  90.7679654
  89.4491823  85.3119426  85.2045347  89.6314218  84.4941082  85.6673100
  90.2724809  85.5287119  84.7670237  89.7833989  84.2387611  82.4660396
  90.3121755  83.7280066  81.8530558  90.0462208  83.9230142  83.3305929
  88.5372222  76.0179544  97.5883214  87.8612859  75.9173674  98.2585589
  89.3599856  75.8618758  98.0519211  80.2851081  82.2551481  90.2095729
  80.8704518  81.5095169  90.3423634  80.0875920  82.5655437  91.0932393
  83.1389737  85.2902728  85.2258172  82.4700112  85.7748856  84.7422212
  83.0002606  85.5371949  86.1401550  74.8768736  74.8257081  88.9300173
  74.9152836  74.2920672  89.7237291  74.3709029  74.2992286  88.3111150
  87.2795005  87.3246472  91.8240830  87.8313313  87.4878093  92.5889915
  87.6201199  87.9150909  91.1520855  82.2559498  69.6721621  92.4262715
  82.3200825  70.5336452  92.0140113  82.1926619  69.0595623  91.6935073
  81.7311771  71.7444754  96.0735749  82.3583810  71.3621831  96.6873274
  80.8739690  71.5258956  96.4391442  92.1305879  82.1507729  97.6789485
  92.6745783  82.7637687  97.1844439  91.5492724  82.7087308  98.1956498
  78.5077314  73.5521183  82.0054104  78.8030755  72.6431862  81.9521158
  77.6065349  73.5308923  81.6835106  90.4163392  85.2728447  88.8104512
  90.2914532  84.4718187  88.3015458  91.0742483  85.7674641  88.3218482
  82.0371561  71.6277180  87.9881653  81.3158146  72.2413147  87.8489126
  82.8264816  72.1634944  87.9098299  92.4798301  83.0737467  90.4384062
  91.5328636  82.9542818  90.3662389  92.8281074  82.1859965  90.5210324
  84.8397874  68.9631606  94.2622304  85.3632276  69.2093903  95.0248614
  84.6210207  69.7951641  93.8425442  80.2365155  71.2335281  82.1293429
  79.9077861  70.3532660  81.9468535  80.5904526  71.1782949  83.0169818
  89.4844734  82.8690183  86.6388415  89.3369696  81.9406891  86.8195985
  90.3098228  82.8910274  86.1545490  83.3506978  71.5208251  82.4968907
  83.6903051  72.0494172  81.7747515  83.7979099  71.8588657  83.2727473
  93.0878856  83.6918742  87.7253287  94.0125403  83.4861604  87.5877739
  92.9194159  83.4435143  88.6342629  86.0450419  69.9045301  91.9471975
  85.7047240  69.1053114  92.3492655  85.3389425  70.2047012  91.3748808
  86.6966891  66.9894614  90.3999298  87.5192960  66.5155092  90.2778188
  86.9404955  67.7685097  90.8997984  85.3375125  70.0182872  80.6962200
  86.0583488  70.3964125  80.1925916  84.7140430  70.7371749  80.7997178
  89.4806248  70.7228021  81.6320532  89.6969863  71.6052659  81.3309360
  89.0000316  70.3314235  80.9026174  84.2205470  73.6813734  88.2091277
  84.0750050  73.9954037  89.1015558  83.7430673  74.2998635  87.6562175
  86.0801853  70.6716282  88.2572166  86.0663421  69.7757376  87.9204464
  86.7974281  70.6786946  88.8910452  87.9327983  71.1053623  90.3025294
  87.6745761  72.0270693  90.3009624  87.4013024  70.7084057  90.9925758
  92.8774172  84.2104410  83.0815379  93.0511050  83.6450832  82.3289231
  93.3703063  85.0105305  82.8994869  78.6951132  76.2219079  91.1478938
  78.1504600  76.9978887  91.2799212  79.5730482  76.5689883  90.9898059
  85.4838749  69.5530663  83.5259736  85.6054660  68.6247309  83.7250624
  85.1940791  69.5669349  82.6138052  88.3529939  67.2385573  86.6626456
  88.3751636  67.3024906  85.7078436  88.7697998  66.3990082  86.8566962
  98.7313563  76.9740833  84.7005679  99.1744709  76.2248158  84.3024802
  97.8540074  76.9650969  84.3179411  93.8649345  83.5271174  80.1812277
  94.5600249  84.1477867  80.3999592  94.2072495  82.6766525  80.4564655
  79.4817154  75.3488975  94.0409095  78.7398890  75.4971610  94.6273725
  79.1609898  75.6097241  93.1775844  95.7640768  80.9770880  81.7099608
  96.2892092  81.3158152  80.9848928  95.6763120  80.0417895  81.5262743
  87.4260816  84.8904953  93.8389485  87.7347943  84.6454100  94.7112184
  88.2236298  85.0951592  93.3508355  87.4481428  87.0442863  86.0694861
  87.0086419  86.5519242  86.7627718  88.1989545  86.5015831  85.8286936
  79.9273767  83.2354404  86.0719489  80.7531787  82.9358176  85.6918133
  79.5767819  82.4662026  86.5209278  84.8955301  82.5880872  88.1417163
  84.2735310  81.9251577  87.8419391  85.5660168  82.6142004  87.4590811
  78.1282372  81.1540730  87.0308423  77.2914281  80.7262905  86.8492424
  78.1006018  81.3473174  87.9679214  84.9679828  71.0662660  97.7349669
  85.0167984  71.9424783  97.3527438  85.5102342  70.5240053  97.1621312
  95.4534674  81.6103783  97.0150806  94.6630217  81.5927922  96.4755305
  95.2168028  82.1492077  97.7699843  95.5732549  78.4596250  94.3283534
  95.6230554  78.2946257  95.2699057  95.4646472  77.5923509  93.9381415
  84.4568808  81.1384795  81.6175623  84.6056928  81.8220260  80.9642296
  85.2635251  81.1189885  82.1325079  92.8636311  74.4427178  95.6442841
  93.7646174  74.3033642  95.3526839  92.9384286  74.6081632  96.5841019
  87.1979117  71.8194032  94.4896027  86.3282426  72.1127598  94.2178616
  87.4338597  72.4034477  95.2103291  97.0750746  80.8793191  94.5725556
  96.7835554  81.2423172  95.4089017  96.4622877  80.1660199  94.3938888
  98.2746428  78.4446071  87.0928126  99.1093319  78.8835875  87.2565687
  98.4105557  77.9684724  86.2736372  95.3237934  76.0025806  93.0405614
  95.7992055  76.1953452  92.2324465  94.4003499  76.0584992  92.7948998
  82.2121441  77.1649973  82.6236692  81.9667482  76.2612303  82.8216902
  82.3817355  77.1667123  81.6816170  89.9018150  68.0373649  92.0061448
  90.4200094  68.7734676  91.6807936  89.5473283  68.3437643  92.8408207
  81.4817088  72.8978331  80.1222854  80.7886333  72.9722685  79.4662890
  81.2368840  72.1338674  80.6444371  90.1530745  64.4573932  87.5262344
  90.4332498  63.7897121  88.1522771  90.9381351  64.6503027  87.0137008
  87.9564213  83.6332926  79.0887371  87.3838180  84.2523113  78.6357843
  88.5297007  84.1832287  79.6227293  94.0239603  72.8791566  91.2733920
  94.9757026  72.9789664  91.2946144  93.8543053  72.0869834  91.7832004
  92.0453982  69.9647149  91.4593321  91.4503914  70.2452162  90.7639809
  91.7603679  70.4541050  92.2310062  91.1761473  83.9170076  80.2195953
  92.1092146  83.8515638  80.4228829  91.0884686  84.7526343  79.7610486
  93.8049490  83.2335946  77.1799901  93.7263121  82.8995810  78.0735659
  94.6259156  83.7257714  77.1791373  96.5027681  76.0997686  90.3876219
  96.4704001  75.1613686  90.5735903  97.1128304  76.1781722  89.6542044
  88.3411012  74.9693739  76.4303423  89.2870116  74.8399947  76.4991841
  87.9625257  74.2308400  76.9072851  96.6522169  72.8908729  90.4334502
  96.1361218  72.1067186  90.2464431  97.5362118  72.5627446  90.5981022
  94.3132896  66.6349745  86.3930315  94.1157717  66.3264833  87.2773647
  94.9232602  67.3611383  86.5228245 102.3204231  77.1613692  89.5282256
 103.0507619  76.8998980  90.0889959 101.7111176  76.4242414  89.5684324
 100.4019528  75.3021555  90.1256707  99.6752691  75.1677520  89.5173199
  99.9866815  75.6098384  90.9313425  88.2249704  79.0211485  97.8904080
  89.1452714  79.1990084  98.0844127  88.1899287  78.0767530  97.7383780
  86.5253929  72.8943715  76.3658309  85.6185384  72.5976828  76.4421022
  86.8029910  72.5973533  75.4992595  77.4431869  74.2150078  86.8157355
  77.1234653  73.3615386  86.5231729  76.8965297  74.4298656  87.5715322
  81.2211777  76.9312519  90.5326861  81.4397786  77.8629627  90.5514895
  81.6337550  76.5720494  91.3181665  88.1415994  67.4380605  82.5202550
  87.3316723  67.0927690  82.8957796  88.8300411  67.1288148  83.1090161
  90.0706543  66.5158651  84.1426846  90.6237581  66.9354105  84.8016870
  90.3076629  65.5894400  84.1849802  86.0939642  72.5045725  99.9229610
  85.9936369  73.4540082  99.8541701  85.8761184  72.1763964  99.0505680
  85.2952713  69.7530650  76.5070288  86.1571877  70.0785548  76.7666105
  85.4803057  68.9662146  75.9943353  77.3120129  77.8352990  88.7850476
  76.6183601  77.4206943  88.2720431  78.0593120  77.8773526  88.1883895
  93.4485350  68.6259177  83.6505511  92.8684019  69.2843981  83.2683563
  93.1821282  67.8036521  83.2392928  91.8988916  68.0264234  85.8526831
  92.3988695  68.1380769  85.0441150  92.5424524  67.7225287  86.4927639
  85.9570912  75.9342864  98.7394672  85.4737994  76.7343224  98.9458561
  86.0431851  75.9450809  97.7862116  79.2256872  77.7671244  86.6616491
  79.2027560  77.8658931  85.7098374  79.5357508  78.6136394  86.9833657
  81.8844249  79.8247399  90.7763106  82.8387503  79.7931341  90.7093037
  81.6856773  79.3638022  91.5913332  82.4743632  78.3948515  93.3433903
  83.2936521  78.8892593  93.3668741  82.7480439  77.4780483  93.3151471
  92.2310228  70.7859267  82.7061859  91.3436083  71.0708918  82.4882054
  92.6464217  70.6253030  81.8589136  95.5824764  70.8105788  86.4216198
  96.3585154  71.3002240  86.6940815  94.8572898  71.2363842  86.8788068
  98.0197323  71.5233407  87.4790139  98.6141813  71.2829143  86.7683447
  98.0923906  70.8040538  88.1063675  80.2394478  85.3667018  87.7933304
  80.1048946  84.6067419  87.2271302  79.8226541  86.0907918  87.3262093
  91.3753441  80.5503942  76.8009879  92.0789291  80.7553944  77.4167535
  90.6516090  81.1180704  77.0658962  92.2051252  76.3013803  82.9212149
  92.1486453  76.7582354  82.0819782  92.7579594  75.5404487  82.7434992
  96.0156057  72.0903535  83.7462269  95.7592992  71.6900170  84.5770476
  95.3908926  72.8047329  83.6212408 100.3268395  74.8299608  86.2533560
  99.7667953  74.8992797  87.0265122  99.7211899  74.6540593  85.5333056
  83.3963604  86.2636335  88.0051746  83.2795988  87.2081768  87.9030437
  82.5756050  85.9609897  88.3937546  93.2840139  80.9886471  78.8508339
  94.1185743  80.5567669  78.6685814  93.1224482  80.8168485  79.7785233
  92.9386031  77.4918584  80.2164678  92.8834835  77.3262856  79.2753122
  92.3132086  78.1994617  80.3726868  77.7278546  72.7286649  94.0426101
  78.3737409  72.2185602  94.5313326  77.5195697  73.4655330  94.6169526
  90.2531938  79.7967496  99.5418241  91.1223098  79.9708148  99.1804876
  89.7738690  80.6161913  99.4193970  86.2482156  66.9926693  79.7949997
  86.2360826  67.9368533  79.9518268  87.1405578  66.8096839  79.5009458
  84.4218118  86.9164597  91.2207675  85.3245365  86.9488207  91.5374170
  84.1955488  85.9865048  91.2354011  86.1771720  85.6695584  87.8817753
  85.2267351  85.6697445  87.7682126  86.4804206  84.9228318  87.3653788
  90.0634276  63.5869470  84.0495934  89.2966672  63.0327956  84.1952616
  90.4744981  63.6591339  84.9110085  82.0676037  69.8754266  98.1401115
  82.9307498  69.5191070  98.3504439  81.4941448  69.5368160  98.8276519
 101.9124414  91.5056122  88.9463516 102.5502824  91.3862869  88.2426856
 101.7945257  92.4536966  89.0051468  98.7214120  91.4583550  88.8825040
  98.3832632  91.3424615  87.9945575  99.5903888  91.0574715  88.8626047
  94.5800936  93.3119026  84.8721931  94.0165801  93.2208963  84.1038219
  94.4653331  92.4918931  85.3524424  99.2033903  92.6118402  94.8411246
  99.1922544  92.2171200  93.9691750  99.3654543  91.8784474  95.4345017
  92.1265368  94.8070218  87.7106152  92.9186660  94.4661043  87.2952451
  92.3662018  94.9165193  88.6308305 100.1600494  96.9789994  80.1836396
  99.5088474  97.5644075  79.7970410 100.9544857  97.5096189  80.2431434
  94.0856122  94.0679131  80.5823531  94.8586998  93.5208118  80.4436406
  94.4381521  94.9323381  80.7937992  95.9241164  95.3955514  93.7890430
  95.6331030  96.3001144  93.6737096  96.5598149  95.4372041  94.5034500
  96.8497371  92.7732362  90.3791790  97.4460943  92.5488384  89.6648753
  96.9072343  92.0317108  90.9817237  96.4222399  90.2271797  78.2141981
  96.6747920  89.7053319  77.4525444  95.4846959  90.0637943  78.3168664
 101.4665682  89.2307576  86.0216724 102.2528772  88.8126999  85.6707141
 101.7304387  90.1353668  86.1898372 101.6375760  94.6680426  80.7205381
 101.0021593  94.7415053  81.4326285 101.3073166  95.2574025  80.0424460
 106.8674109  89.1682809  86.9249702 107.5999281  88.5982026  87.1587532
 106.1113465  88.7804409  87.3656208  96.1418688  92.1299903  80.4166356
  96.0254946  91.4544807  81.0847440  96.2520948  91.6432277  79.5998509
  98.4850229  91.5910050  84.1213045  98.1208436  91.0640671  84.8325966
  99.3417345  91.2008520  83.9479530 104.3899530  82.8804383  91.3844311
 104.0582855  83.7499794  91.1605526 103.7945143  82.5640667  92.0638341
  98.1255716  86.6199950  79.1174393  98.2930118  87.4880187  79.4844864
  97.9352885  86.7827232  78.1935683 100.8831049  95.0816929  90.7840224
 100.5831772  95.9841968  90.6756031 100.5382109  94.8149112  91.6361377
  94.3343531  91.5330726  86.8176928  93.4094027  91.4006940  87.0254620
  94.5827944  92.3124945  87.3146870 104.2828193  87.5999469  88.4637661
 103.3745070  87.5314878  88.1696422 104.2315789  88.0771414  89.2919486
  98.1044937  89.0757608  80.1021060  97.9844562  89.5214658  80.9406540
  97.4097525  89.4242925  79.5434598  91.6952342  91.1763999  87.6520717
  91.8244723  91.4298478  88.5660129  91.0149793  91.7691707  87.3325372
  95.8651829 101.8461249  83.7511191  95.7875859 102.7969075  83.8299672
  95.2613473 101.5007122  84.4086118  98.3569059  89.0189115  96.4072558
  97.5802393  89.5783035  96.3975423  98.9959622  89.5045898  96.9287428
 106.1489839  85.8015908  90.2415535 105.5064220  86.0948441  89.5955329
 105.6444768  85.6868828  91.0468732 103.8030003  89.5479081  80.9301394
 104.7147859  89.7806468  80.7549092 103.2939650  90.1316125  80.3676473
  96.6115431  91.8274568  95.9690525  97.3530116  92.3659612  95.6925349
  95.9052417  92.4540857  96.1262077 102.0870771  93.9703709  94.5662687
 102.4954127  93.5286119  93.8217319 101.3648032  93.3956336  94.8196880
  98.4401841  88.9076315  91.9396244  99.2863036  89.3315729  92.0830893
  98.3800479  88.2509940  92.6334807 102.4099585  94.5304899  88.3214976
 101.7808448  94.6950613  87.6191043 102.0225248  94.9446509  89.0925940
 106.2888817  95.4659337  85.6759339 105.6039855  95.8458239  85.1256373
 106.3732667  96.0754664  86.4091287 101.5901286  86.5680684  93.5977417
 101.3462218  87.3222744  93.0611693 101.8661217  86.9466031  94.4324664
 103.5439749  93.1119296  92.2754683 103.7556644  93.7551056  91.5989064
 103.4969497  92.2781613  91.8076613 101.1465978  85.7237117  89.1791255
 100.2850457  86.0218370  89.4707993 101.1728413  85.9407516  88.2472288
  97.9627547  94.2679307  85.5865061  98.4265893  94.5467010  84.7969683
  97.6984345  93.3662752  85.4038151  94.8551628  93.8150789  88.5244824
  95.4252985  94.2438057  87.8862308  95.4459740  93.5333374  89.2229010
  96.8996433  90.3902460  82.3954626  97.6020477  90.8423503  82.8628552
  96.5677062  89.7486279  83.0234519  95.3476795  88.9814216  96.7705835
  94.7175455  89.6630497  97.0041232  95.2412883  88.8697298  95.8258973
  90.6421767  88.6486012  87.6971759  89.8520821  88.9043541  87.2211870
  91.1333015  89.4634350  87.8023800 104.6585577  95.9891252  90.4477040
 105.4803021  95.5871439  90.1659722 104.6547980  95.8859486  91.3993156
  92.5936513  89.0130592  84.6555236  91.7967676  89.1249286  85.1738732
  92.3662105  89.3517244  83.7896127  98.4242180  95.5375295  92.6037751
  98.4886613  95.9995702  93.4395923  97.7153104  94.9072660  92.7320061
  88.9259470  88.9016503  90.1286750  89.1767509  89.7863513  90.3944326
  89.4619019  88.7221104  89.3561842 112.7491570  92.3330000  86.7962012
 111.9955278  91.7637398  86.6406016 112.8839111  92.2992665  87.7432646
  98.1390198  97.2043402  82.4716731  98.0035873  98.0494938  82.9001579
  98.6800011  97.4062680  81.7082665  94.6257538  83.2834982  99.1331086
  94.2324483  82.7301181  99.8078731  95.4423678  83.5945561  99.5237604
  91.5919595  94.7218840  83.0444656  92.1044116  95.5162091  83.1950221
  92.2442308  94.0245131  82.9778258  93.4014480  97.8384597  85.1267409
  93.5781108  98.7602561  84.9388393  94.1971314  97.5243016  85.5561789
  97.5425499  84.6992861  96.7251343  98.2835212  85.3000014  96.6455805
  97.7743421  83.9570499  96.1669385  92.6866837  89.8849229  95.0029573
  92.5720352  88.9834486  95.3036671  91.8311354  90.1312925  94.6514389
  99.7658674  97.8266969  96.6017073  99.3222529  97.0403347  96.2837978
 100.4275888  98.0146119  95.9360964  94.5245796  99.3562770  91.1277752
  95.0753221  99.2279834  90.3554746  93.6857271  99.6557660  90.7772644
 101.8639912  98.1069769  94.6298474 101.8458388  98.9278650  94.1378744
 102.7859832  97.9823844  94.8548616  98.3212967  95.6213898  95.4721983
  98.8541303  94.8602186  95.2421291  97.7927048  95.3287550  96.2146137
 101.4882662  80.7273964  91.0015625 101.1446931  81.6175606  90.9254735
 101.8561624  80.5375622  90.1385210  89.5568512  93.0507495  83.8204227
  90.3943734  93.4604503  83.6037934  89.7346780  92.1106937  83.7904421
 101.4532944  90.7182575  79.5088060 100.9379568  91.4887180  79.7476447
 101.1810253  90.0447712  80.1321121  99.0380055  85.5632276  84.5673298
  98.1821652  85.1739127  84.3878937  99.4507007  85.6424237  83.7073084
 100.5679202  83.0978619  88.9664858 100.0643998  83.0608755  88.1532663
 100.8609809  84.0071362  89.0261514  96.8122088  83.1817349  87.9731040
  97.6775085  82.9860158  87.6136929  96.8799597  82.9527701  88.9000396
 106.4267218  93.4714930  81.4441233 105.6496661  93.1326090  80.9996395
 107.1058699  93.4767553  80.7696198 101.2419247  88.5909667  81.3347841
 100.9369383  88.9055817  82.1857984 102.1949690  88.6691087  81.3775174
  99.6865679  94.7499891  82.9840795  99.1587041  94.0152650  82.6714032
  99.1853182  95.5274567  82.7380763 104.6658525  92.9448911  88.1007841
 104.0082200  93.6348173  88.1887970 105.4698925  93.3345343  88.4441827
  94.4184407  85.4119557  85.3447406  94.9928159  85.1894739  84.6120599
  95.0055389  85.4808252  86.0976008 103.4763984  91.2993284  86.1511783
 103.9895866  91.9323276  86.6533493 104.1265208  90.6994479  85.7855143
  94.7453994  87.4424018  79.3643292  93.9091306  87.7798705  79.6852566
  94.6058764  87.3072998  78.4270429  96.7207075  82.2860806  84.0722476
  96.0671487  81.9709823  83.4479091  96.6787549  81.6636546  84.7982299
  97.8318279  92.5680101  75.9875768  96.9245341  92.3369355  76.1866917
  98.3289311  91.7717720  76.1749749 100.7386358 101.2777608  78.9072454
 100.0648057 101.5809305  79.5157412 101.1252180 102.0806689  78.5577911
  99.9544815  88.7742740  88.3970123  99.0367376  88.9957687  88.2391811
 100.3704959  88.8489050  87.5381831 100.7379863  90.1734155  83.5272804
 101.4851682  90.6855552  83.2179926 101.0071452  89.8518208  84.3877197
  99.0106513  92.6692696  80.5099758  98.1017732  92.3851729  80.6072228
  99.0401597  93.0891774  79.6503065 104.2425780  96.2799285  84.2790925
 103.7888107  95.4390195  84.3356116 103.6119747  96.9160684  84.6165706
 103.1858700  87.2091271  85.5091593 102.4481457  86.6968658  85.8401836
 103.4385473  86.7691653  84.6974870 102.6858720  98.1175782  85.2140744
 102.9781694  98.6780839  84.4953109 103.1957340  98.4104343  85.9693903
 103.2870327  79.9867523  86.1033362 103.5929204  79.1264887  85.8159277
 104.0122932  80.5785144  85.9032356  89.5794683  90.3898210  84.4914960
  89.3819083  89.7967571  83.7666027  89.0241347  90.0850420  85.2090899
  97.5591407  90.2821317  86.6109553  97.6140017  89.3295153  86.5352030
  96.7482609  90.4380756  87.0950852  98.7082601  94.2101440  77.8487837
  98.2702031  93.4937299  77.3893474  99.4493042  94.4377554  77.2872928
  95.4983767  88.8998376  84.3699932  94.6851632  89.1992547  84.7765124
  95.9942761  88.5054065  85.0874414  97.6492345  98.8956133  86.3034197
  97.6068524  99.1216980  85.3742729  98.5655044  98.6619508  86.4519998
 101.0957979  89.3640201  93.2014826 101.4507366  89.5911674  94.0609292
 101.7430110  89.6958578  92.5792081 106.8255716  92.4858637  83.9064155
 106.6873614  92.6760233  82.9785344 106.4691934  93.2478019  84.3632206
  94.9897842  86.4716732  89.9861167  95.6297221  86.3305491  89.2884130
  94.1575372  86.1851245  89.6099769 106.8525095  94.5535164  88.9175427
 107.2861602  94.4610453  89.7658481 107.5656676  94.5292664  88.2795443
  95.7658146  95.7719162  86.0996160  96.5598744  95.2769482  85.8978735
  95.0549838  95.2437025  85.7363865 100.5852990  98.1537258  90.4508527
 100.6390012  98.7228194  91.2186243  99.7167771  98.3239143  90.0862564
  92.0740909  89.9162244  82.1755912  91.1438497  89.8546699  82.3925874
  92.1698381  89.3938197  81.3792553  91.9926458  86.4417057  84.7634154
  92.2533275  87.3562390  84.6543314  92.8143630  85.9741499  84.9130767
  93.4651383  87.8554814  91.9332978  94.1374437  87.6472176  91.2845627
  92.6381170  87.6576900  91.4938211 107.7140645  94.5958864  91.4508312
 107.9076535  95.5004675  91.6967587 107.6141263  94.1366283  92.2846897
  99.3676955  84.4816755  93.9498639  98.7204870  85.1806705  93.8563116
 100.1377971  84.9152899  94.3174888 102.7755753  94.7465607  97.0249193
 102.6241260  94.5176159  96.1079276 102.7660433  95.7036208  97.0380538
  99.5441090  92.3197520  92.0095459 100.4733150  92.4708679  91.8364426
  99.1232120  92.4081541  91.1544106  98.3429422  96.3448184  89.7793997
  98.2040507  95.9766969  90.6519935  97.5544018  96.8595824  89.6077954
  98.9377574 101.4457281  81.1219533  99.1129329 100.9745324  81.9365156
  98.2510362 102.0723047  81.3500794  99.8934637  95.7229787  87.1682834
  99.5584469  95.6830557  88.0640484  99.3938582  95.0574503  86.6953245
  93.8678881  91.1297417  92.6935416  93.7298679  90.3977656  93.2946955
  94.7783804  91.0406317  92.4119603 102.8293828  93.0685821  77.4419894
 102.2122999  92.3432649  77.3452947 102.3610317  93.8295182  77.0986968
  96.4961181  90.8417376  92.1819095  97.2060800  90.2010568  92.1405714
  96.4530489  91.0930271  93.1045276 104.4847960  97.7784730  95.1025674
 104.4260506  97.0943950  94.4356257 104.8867478  98.5203720  94.6506300
  95.2090115  87.8282594  94.0014735  94.6727472  87.3773333  94.6536331
  94.6206824  87.9628503  93.2585199  93.5038659 104.5946643  87.8959393
  93.7435257 105.2265168  88.5738412  92.6607855 104.2434683  88.1824753
  94.6192374  87.2871246  76.5641198  93.7421841  87.1660046  76.2003445
  95.0950127  86.4957324  76.3120087 104.4865367  95.7424314  93.3339654
 103.5992146  95.4050235  93.4566053 105.0563918  95.0107345  93.5708420
  86.1394514  92.0748405  86.6582706  86.8265554  91.7610135  86.0703721
  85.9842643  92.9789770  86.3849957  90.9429237  86.9638602  91.0867729
  90.8587425  86.3564271  90.3518139  90.1211943  87.4547620  91.0877226
  98.0166521 100.4025766  90.3000897  97.9436692 101.2080737  90.8120202
  97.5743914 100.6017732  89.4748919  97.8056300  99.6397536  83.8103719
  97.0223822 100.1819216  83.9041943  98.5049045 100.1571516  84.2097960
 101.1152950  85.4492165  86.4537924 101.6121650  84.6962128  86.1338995
 100.3439932  85.4856482  85.8881134 108.9682708  91.1532531  88.0956216
 108.9572584  92.0357246  87.7250149 108.1000087  90.8004082  87.9010753
 100.4765204 100.3012600  92.4559056 101.1893176 100.9360065  92.3834957
  99.9855233 100.3976466  91.6399058 102.1982731  94.2063853  84.0276348
 101.2639010  94.3265315  83.8581052 102.3759400  93.3036319  83.7636357
  97.6987919  87.5909548  86.1809609  97.3285707  87.0380589  86.8690514
  98.1947012  86.9867682  85.6284609 105.5855282  90.0481172  84.5626382
 106.0515735  90.8809163  84.4886684 106.0362783  89.5826153  85.2671640
  95.5277118  98.0507043  93.2764627  96.2286577  98.6843526  93.4294021
  95.0572233  98.3921775  92.5160266 103.6531514  96.3924993  81.5612534
 103.9291357  96.2781588  82.4706408 102.7836012  95.9942478  81.5224707
 103.5571945  82.4161759  88.6017283 102.6435025  82.6465986  88.7699490
 103.9865047  82.5000203  89.4531316 103.3278404  90.6051651  91.1017177
 102.6749854  90.8527558  90.4469630 103.7058784  89.7915789  90.7679654
 100.2885578 100.6411344  85.2045347 100.4707972  99.8233000  85.6673100
 101.1118564 100.8579036  84.7670237 100.6227743  99.5679529  82.4660396
 101.1515509  99.0571984  81.8530558 100.8855963  99.2522059  83.3305929
  99.3765977  91.3471462  97.5883214  98.7006614  91.2465591  98.2585589
 100.1993611  91.1910676  98.0519211  91.1244836  97.5843398  90.2095729
  91.7098273  96.8387086  90.3423634  90.9269674  97.8947355  91.0932393
  93.9783491 100.6194646  85.2258172  93.3093866 101.1040773  84.7422212
  93.8396361 100.8663866  86.1401550  85.7162491  90.1548999  88.9300173
  85.7546590  89.6212589  89.7237291  85.2102783  89.6284204  88.3111150
  98.1188760 102.6538389  91.8240830  98.6707068 102.8170011  92.5889915
  98.4594953 103.2442827  91.1520855  93.0953253  85.0013539  92.4262715
  93.1594579  85.8628370  92.0140113  93.0320373  84.3887541  91.6935073
  92.5705525  87.0736672  96.0735749  93.1977564  86.6913749  96.6873274
  91.7133444  86.8550874  96.4391442  89.3471068  88.8813101  82.0054104
  89.6424509  87.9723779  81.9521158  88.4459104  88.8600840  81.6835106
 101.2557147 100.6020365  88.8104512 101.1308286  99.8010105  88.3015458
 101.9136238 101.0966558  88.3218482  92.8765315  86.9569097  87.9881653
  92.1551901  87.5705065  87.8489126  93.6658571  87.4926862  87.9098299
 103.3192055  98.4029385  90.4384062 102.3722391  98.2834736  90.3662389
 103.6674828  97.5151883  90.5210324  95.6791629  84.2923524  94.2622304
  96.2026030  84.5385820  95.0248614  95.4603962  85.1243559  93.8425442
  91.0758910  86.5627198  82.1293429  90.7471616  85.6824577  81.9468535
  91.4298280  86.5074867  83.0169818 100.3238489  98.1982101  86.6388415
 100.1763451  97.2698809  86.8195985 101.1491982  98.2202192  86.1545490
  94.1900733  86.8500168  82.4968907  94.5296805  87.3786089  81.7747515
  94.6372853  87.1880574  83.2727473 103.9272610  99.0210660  87.7253287
 104.8519158  98.8153521  87.5877739 103.7587914  98.7727061  88.6342629
  96.8844174  85.2337219  91.9471975  96.5440994  84.4345032  92.3492655
  96.1783180  85.5338930  91.3748808  97.5360645  82.3186531  90.3999298
  98.3586715  81.8447010  90.2778188  97.7798709  83.0977015  90.8997984
  96.1768880  85.3474790  80.6962200  96.8977242  85.7256043  80.1925916
  95.5534184  86.0663667  80.7997178 100.3200003  86.0519939  81.6320532
 100.5363617  86.9344577  81.3309360  99.8394070  85.6606152  80.9026174
  95.0599224  89.0105652  88.2091277  94.9143805  89.3245955  89.1015558
  94.5824428  89.6290552  87.6562175  96.9195607  86.0008200  88.2572166
  96.9057176  85.1049293  87.9204464  97.6368035  86.0078864  88.8910452
  98.7721738  86.4345540  90.3025294  98.5139516  87.3562611  90.3009624
  98.2406778  86.0375975  90.9925758 103.7167927  99.5396327  83.0815379
 103.8904804  98.9742750  82.3289231 104.2096818 100.3397222  82.8994869
  89.5344886  91.5510996  91.1478938  88.9898354  92.3270804  91.2799212
  90.4124236  91.8981801  90.9898059  96.3232503  84.8822580  83.5259736
  96.4448414  83.9539226  83.7250624  96.0334545  84.8961266  82.6138052
  99.1923693  82.5677491  86.6626456  99.2145390  82.6316824  85.7078436
  99.6091752  81.7281999  86.8566962 109.5707318  92.3032750  84.7005679
 110.0138464  91.5540075  84.3024802 108.6933828  92.2942887  84.3179411
 104.7043099  98.8563092  80.1812277 105.3994004  99.4769784  80.3999592
 105.0466249  98.0058443  80.4564655  90.3210908  90.6780893  94.0409095
  89.5792644  90.8263528  94.6273725  90.0003653  90.9389158  93.1775844
 106.6034522  96.3062797  81.7099608 107.1285846  96.6450070  80.9848928
 106.5156875  95.3709813  81.5262743  98.2654571 100.2196871  93.8389485
  98.5741697  99.9746018  94.7112184  99.0630053 100.4243509  93.3508355
  98.2875183 102.3734781  86.0694861  97.8480173 101.8811159  86.7627718
  99.0383300 101.8307748  85.8286936  90.7667522  98.5646321  86.0719489
  91.5925542  98.2650093  85.6918133  90.4161574  97.7953944  86.5209278
  95.7349055  97.9172790  88.1417163  95.1129064  97.2543495  87.8419391
  96.4053922  97.9433922  87.4590811  88.9676127  96.4832648  87.0308423
  88.1308035  96.0554822  86.8492424  88.9399772  96.6765091  87.9679214
  95.8073583  86.3954578  97.7349669  95.8561738  87.2716700  97.3527438
  96.3496097  85.8531971  97.1621312 106.4126303  93.7888167  94.3283534
 106.4624308  93.6238175  95.2699057 106.3040227  92.9215426  93.9381415
  95.2962562  96.4676713  81.6175623  95.4450682  97.1512177  80.9642296
  96.1029005  96.4481803  82.1325079 103.7030066  89.7719095  95.6442841
 104.6039928  89.6325560  95.3526839 103.7778040  89.9373550  96.5841019
  98.0372871  87.1485950  94.4896027  97.1676180  87.4419516  94.2178616
  98.2732351  87.7326395  95.2103291 107.9144500  96.2085109  94.5725556
 107.6229308  96.5715089  95.4089017 107.3016631  95.4952117  94.3938888
 109.1140182  93.7737989  87.0928126 109.9487074  94.2127793  87.2565687
 109.2499311  93.2976642  86.2736372 106.1631688  91.3317723  93.0405614
 106.6385810  91.5245370  92.2324465 105.2397254  91.3876909  92.7948998
  93.0515195  92.4941891  82.6236692  92.8061237  91.5904221  82.8216902
  93.2211110  92.4959041  81.6816170 100.7411905  83.3665567  92.0061448
 101.2593849  84.1026594  91.6807936 100.3867038  83.6729560  92.8408207
  92.3210843  88.2270248  80.1222854  91.6280087  88.3014603  79.4662890
  92.0762594  87.4630592  80.6444371 100.9924499  79.7865850  87.5262344
 101.2726253  79.1189039  88.1522771 101.7775106  79.9794945  87.0137008
  98.7957968  98.9624843  79.0887371  98.2231935  99.5815031  78.6357843
  99.3690761  99.5124205  79.6227293 104.8633357  88.2083484  91.2733920
 105.8150780  88.3081581  91.2946144 104.6936808  87.4161752  91.7832004
 102.8847737  85.2939067  91.4593321 102.2897669  85.5744079  90.7639809
 102.5997434  85.7832968  92.2310062 102.0155227  99.2461994  80.2195953
 102.9485900  99.1807555  80.4228829 101.9278440 100.0818260  79.7610486
 104.6443244  98.5627864  77.1799901 104.5656876  98.2287727  78.0735659
 105.4652911  99.0549632  77.1791373 107.3421435  91.4289603  90.3876219
 107.3097755  90.4905604  90.5735903 107.9522059  91.5073640  89.6542044
  99.1804766  90.2985656  76.4303423 100.1263871  90.1691864  76.4991841
  98.8019011  89.5600318  76.9072851 107.4915924  88.2200647  90.4334502
 106.9754972  87.4359103  90.2464431 108.3755872  87.8919363  90.5981022
 105.1526651  81.9641662  86.3930315 104.9551472  81.6556750  87.2773647
 105.7626356  82.6903301  86.5228245 113.1597985  92.4905610  89.5282256
 113.8901374  92.2290898  90.0889959 112.5504931  91.7534332  89.5684324
 111.2413282  90.6313473  90.1256707 110.5146446  90.4969438  89.5173199
 110.8260569  90.9390301  90.9313425  99.0643459  94.3503402  97.8904080
  99.9846468  94.5282001  98.0844127  99.0293042  93.4059448  97.7383780
  97.3647683  88.2235633  76.3658309  96.4579139  87.9268745  76.4421022
  97.6423664  87.9265451  75.4992595  88.2825624  89.5441996  86.8157355
  87.9628408  88.6907304  86.5231729  87.7359052  89.7590574  87.5715322
  92.0605531  92.2604437  90.5326861  92.2791541  93.1921545  90.5514895
  92.4731305  91.9012411  91.3181665  98.9809749  82.7672522  82.5202550
  98.1710477  82.4219607  82.8957796  99.6694166  82.4580066  83.1090161
 100.9100297  81.8450569  84.1426846 101.4631336  82.2646023  84.8016870
 101.1470384  80.9186317  84.1849802  96.9333396  87.8337643  99.9229610
  96.8330123  88.7832000  99.8541701  96.7154938  87.5055882  99.0505680
  96.1346468  85.0822568  76.5070288  96.9965632  85.4077466  76.7666105
  96.3196812  84.2954064  75.9943353  88.1513884  93.1644907  88.7850476
  87.4577355  92.7498860  88.2720431  88.8986875  93.2065444  88.1883895
 104.2879104  83.9551094  83.6505511 103.7077773  84.6135898  83.2683563
 104.0215037  83.1328439  83.2392928 102.7382671  83.3556152  85.8526831
 103.2382449  83.4672686  85.0441150 103.3818279  83.0517205  86.4927639
  96.7964666  91.2634782  98.7394672  96.3131748  92.0635142  98.9458561
  96.8825606  91.2742726  97.7862116  90.0650626  93.0963161  86.6616491
  90.0421314  93.1950849  85.7098374  90.3751263  93.9428312  86.9833657
  92.7238004  95.1539316  90.7763106  93.6781258  95.1223259  90.7093037
  92.5250528  94.6929940  91.5913332  93.3137386  93.7240432  93.3433903
  94.1330275  94.2184511  93.3668741  93.5874194  92.8072400  93.3151471
 103.0703982  86.1151185  82.7061859 102.1829837  86.4000835  82.4882054
 103.4857971  85.9544948  81.8589136 106.4218518  86.1397706  86.4216198
 107.1978909  86.6294158  86.6940815 105.6966653  86.5655760  86.8788068
 108.8591077  86.8525325  87.4790139 109.4535568  86.6121061  86.7683447
 108.9317661  86.1332455  88.1063675  91.0788233 100.6958936  87.7933304
  90.9442701  99.9359337  87.2271302  90.6620295 101.4199836  87.3262093
 102.2147196  95.8795859  76.8009879 102.9183046  96.0845862  77.4167535
 101.4909845  96.4472621  77.0658962 103.0445006  91.6305721  82.9212149
 102.9880207  92.0874272  82.0819782 103.5973349  90.8696405  82.7434992
 106.8549812  87.4195452  83.7462269 106.5986746  87.0192088  84.5770476
 106.2302680  88.1339246  83.6212408 111.1662150  90.1591526  86.2533560
 110.6061708  90.2284715  87.0265122 110.5605653  89.9832510  85.5333056
  94.2357359 101.5928253  88.0051746  94.1189743 102.5373685  87.9030437
  93.4149805 101.2901814  88.3937546 104.1233893  96.3178388  78.8508339
 104.9579497  95.8859587  78.6685814 103.9618236  96.1460402  79.7785233
 103.7779785  92.8210502  80.2164678 103.7228589  92.6554773  79.2753122
 103.1525841  93.5286535  80.3726868  88.5672300  88.0578566  94.0426101
  89.2131164  87.5477520  94.5313326  88.3589451  88.7947248  94.6169526
  97.0875911  82.3218611  79.7949997  97.0754581  83.2660451  79.9518268
  97.9799333  82.1388756  79.5009458  95.2611873 102.2456515  91.2207675
  96.1639119 102.2780125  91.5374170  95.0349243 101.3156966  91.2354011
  97.0165475 100.9987501  87.8817753  96.0661106 100.9989363  87.7682126
  97.3197961 100.2520236  87.3653788 100.9028030  78.9161387  84.0495934
 100.1360426  78.3619874  84.1952616 101.3138735  78.9883256  84.9110085
  92.9069791  85.2046183  98.1401115  93.7701253  84.8482988  98.3504439
  92.3335202  84.8660078  98.8276519 105.4194690 108.6410944  84.8721931
 104.8559555 108.5500881  84.1038219 105.3047085 107.8210849  85.3524424
 102.9659122 110.1362136  87.7106152 103.7580414 109.7952960  87.2952451
 103.2055772 110.2457111  88.6308305 104.9249876 109.3971049  80.5823531
 105.6980752 108.8500036  80.4436406 105.2775275 110.2615298  80.7937992
 107.2616154 105.5563715  78.2141981 107.5141675 105.0345236  77.4525444
 106.3240713 105.3929861  78.3168664 112.3059437 104.5599493  86.0216724
 113.0922526 104.1418917  85.6707141 112.5698141 105.4645586  86.1898372
 106.9812443 107.4591821  80.4166356 106.8648701 106.7836724  81.0847440
 107.0914703 106.9724195  79.5998509 109.3243984 106.9201968  84.1213045
 108.9602191 106.3932589  84.8325966 110.1811100 106.5300437  83.9479530
 108.9649471 101.9491868  79.1174393 109.1323873 102.8172104  79.4844864
 108.7746640 102.1119150  78.1935683 105.1737285 106.8622644  86.8176928
 104.2487782 106.7298858  87.0254620 105.4221698 107.6416863  87.3146870
 108.9438691 104.4049525  80.1021060 108.8238317 104.8506576  80.9406540
 108.2491280 104.7534843  79.5434598 102.5346096 106.5055917  87.6520717
 102.6638477 106.7590396  88.5660129 101.8543548 107.0983625  87.3325372
 114.6423758 104.8770999  80.9301394 115.5541614 105.1098385  80.7549092
 114.1333405 105.4608043  80.3676473 111.9859732 101.0529034  89.1791255
 111.1244211 101.3510288  89.4707993 112.0122167 101.2699433  88.2472288
 108.8021302 109.5971225  85.5865061 109.2659647 109.8758928  84.7969683
 108.5378100 108.6954670  85.4038151 107.7390188 105.7194377  82.3954626
 108.4414231 106.1715421  82.8628552 107.4070816 105.0778196  83.0234519
 101.4815522 103.9777930  87.6971759 100.6914576 104.2335459  87.2211870
 101.9726769 104.7926268  87.8023800 103.4330267 104.3422509  84.6555236
 102.6361430 104.4541204  85.1738732 103.2055859 104.6809162  83.7896127
  99.7653225 104.2308421  90.1286750 100.0161263 105.1155430  90.3944326
 100.3012773 104.0513022  89.3561842 102.4313350 110.0510758  83.0444656
 102.9437870 110.8454008  83.1950221 103.0836063 109.3537049  82.9778258
 104.2408235 113.1676514  85.1267409 104.4174863 114.0894479  84.9388393
 105.0365068 112.8534934  85.5561789 112.3276416  96.0565882  91.0015625
 111.9840685  96.9467524  90.9254735 112.6955379  95.8667540  90.1385210
 100.3962267 108.3799412  83.8204227 101.2337489 108.7896421  83.6037934
 100.5740534 107.4398855  83.7904421 112.2926699 106.0474493  79.5088060
 111.7773322 106.8179098  79.7476447 112.0204007 105.3739629  80.1321121
 109.8773810 100.8924194  84.5673298 109.0215406 100.5031044  84.3878937
 110.2900762 100.9716155  83.7073084 111.4072956  98.4270537  88.9664858
 110.9037752  98.3900672  88.1532663 111.7003563  99.3363280  89.0261514
 107.6515842  98.5109267  87.9731040 108.5168839  98.3152075  87.6136929
 107.7193351  98.2819619  88.9000396 112.0813002 103.9201585  81.3347841
 111.7763138 104.2347734  82.1857984 113.0343444 103.9983005  81.3775174
 110.5259434 110.0791808  82.9840795 109.9980795 109.3444568  82.6714032
 110.0246937 110.8566485  82.7380763 105.2578161 100.7411475  85.3447406
 105.8321913 100.5186656  84.6120599 105.8449144 100.8100169  86.0976008
 105.5847749 102.7715936  79.3643292 104.7485061 103.1090622  79.6852566
 105.4452518 102.6364916  78.4270429 107.5600829  97.6152724  84.0722476
 106.9065241  97.3001741  83.4479091 107.5181303  96.9928464  84.7982299
 108.6712034 107.8972019  75.9875768 107.7639096 107.6661272  76.1866917
 109.1683066 107.1009638  76.1749749 110.7938569 104.1034657  88.3970123
 109.8761131 104.3249604  88.2391811 111.2098713 104.1780968  87.5381831
 111.5773617 105.5026073  83.5272804 112.3245436 106.0147470  83.2179926
 111.8465207 105.1810126  84.3877197 109.8500267 107.9984614  80.5099758
 108.9411487 107.7143646  80.6072228 109.8795351 108.4183692  79.6503065
 114.0252454 102.5383189  85.5091593 113.2875211 102.0260575  85.8401836
 114.2779228 102.0983571  84.6974870 114.1264082  95.3159441  86.1033362
 114.4322959  94.4556805  85.8159277 114.8516687  95.9077061  85.9032356
 100.4188438 105.7190128  84.4914960 100.2212838 105.1259488  83.7666027
  99.8635102 105.4142338  85.2090899 108.3985161 105.6113234  86.6109553
 108.4533771 104.6587071  86.5352030 107.5876363 105.7672673  87.0950852
 109.5476355 109.5393357  77.8487837 109.1095785 108.8229216  77.3893474
 110.2886796 109.7669472  77.2872928 106.3377521 104.2290294  84.3699932
 105.5245387 104.5284464  84.7765124 106.8336516 103.8345983  85.0874414
 105.8291596 101.8008649  89.9861167 106.4690975 101.6597409  89.2884130
 104.9969127 101.5143163  89.6099769 106.6051900 111.1011080  86.0996160
 107.3992499 110.6061400  85.8978735 105.8943592 110.5728943  85.7363865
 102.9134664 105.2454162  82.1755912 101.9832252 105.1838617  82.3925874
 103.0092135 104.7230114  81.3792553 102.8320213 101.7708974  84.7634154
 103.0927030 102.6854308  84.6543314 103.6537385 101.3033417  84.9130767
 104.3045138 103.1846732  91.9332978 104.9768191 102.9764094  91.2845627
 103.4774924 102.9868818  91.4938211 113.6687583 108.3977739  77.4419894
 113.0516753 107.6724567  77.3452947 113.2004071 109.1587099  77.0986968
 105.4586129 102.6163163  76.5641198 104.5815595 102.4951964  76.2003445
 105.9343882 101.8249242  76.3120087  96.9788269 107.4040323  86.6582706
  97.6659309 107.0902053  86.0703721  96.8236398 108.3081688  86.3849957
 101.7822991 102.2930520  91.0867729 101.6981180 101.6856189  90.3518139
 100.9605697 102.7839538  91.0877226 111.9546705 100.7784083  86.4537924
 112.4515404 100.0254045  86.1338995 111.1833686 100.8148400  85.8881134
 113.0376486 109.5355770  84.0276348 112.1032764 109.6557233  83.8581052
 113.2153154 108.6328237  83.7636357 108.5381674 102.9201466  86.1809609
 108.1679461 102.3672506  86.8690514 109.0340766 102.3159600  85.6284609
 116.4249037 105.3773090  84.5626382 116.8909489 106.2101081  84.4886684
 116.8756537 104.9118071  85.2671640 114.3965700  97.7453677  88.6017283
 113.4828779  97.9757903  88.7699490 114.8258801  97.8292121  89.4531316
  96.5556245 105.4840916  88.9300173  96.5940345 104.9504507  89.7237291
  96.0496538 104.9576122  88.3111150 103.9347007 100.3305457  92.4262715
 103.9988334 101.1920288  92.0140113 103.8714128  99.7179458  91.6935073
 100.1864823 104.2105018  82.0054104 100.4818264 103.3015697  81.9521158
  99.2852858 104.1892758  81.6835106 103.7159070 102.2861015  87.9881653
 102.9945655 102.8996983  87.8489126 104.5052325 102.8218780  87.9098299
 101.9152664 101.8919116  82.1293429 101.5865370 101.0116495  81.9468535
 102.2692035 101.8366785  83.0169818 105.0294487 102.1792086  82.4968907
 105.3690560 102.7078007  81.7747515 105.4766608 102.5172492  83.2727473
 107.7237928 100.5629137  91.9471975 107.3834749  99.7636950  92.3492655
 107.0176934 100.8630847  91.3748808 108.3754400  97.6478449  90.3999298
 109.1980469  97.1738927  90.2778188 108.6192464  98.4268933  90.8997984
 107.0162634 100.6766708  80.6962200 107.7370997 101.0547960  80.1925916
 106.3927939 101.3955584  80.7997178 111.1593757 101.3811856  81.6320532
 111.3757372 102.2636494  81.3309360 110.6787824 100.9898070  80.9026174
 105.8992979 104.3397570  88.2091277 105.7537559 104.6537873  89.1015558
 105.4218182 104.9582470  87.6562175 107.7589362 101.3300118  88.2572166
 107.7450930 100.4341211  87.9204464 108.4761790 101.3370781  88.8910452
 109.6115492 101.7637458  90.3025294 109.3533270 102.6854529  90.3009624
 109.0800533 101.3667892  90.9925758 100.3738641 106.8802914  91.1478938
  99.8292109 107.6562722  91.2799212 101.2517991 107.2273719  90.9898059
 107.1626258 100.2114498  83.5259736 107.2842169  99.2831144  83.7250624
 106.8728300 100.2253184  82.6138052 110.0317448  97.8969408  86.6626456
 110.0539145  97.9608741  85.7078436 110.4485507  97.0573917  86.8566962
 101.6061276 113.8938239  86.0719489 102.4319296 113.5942011  85.6918133
 101.2555328 113.1245862  86.5209278  99.8069881 111.8124566  87.0308423
  98.9701790 111.3846740  86.8492424  99.7793527 112.0057009  87.9679214
 106.1356316 111.7968631  81.6175623 106.2844437 112.4804095  80.9642296
 106.9422760 111.7773721  82.1325079 103.8908949 107.8233808  82.6236692
 103.6454991 106.9196138  82.8216902 104.0604864 107.8250959  81.6816170
 103.1604597 103.5562166  80.1222854 102.4673842 103.6306521  79.4662890
 102.9156349 102.7922509  80.6444371 111.8318254  95.1157767  87.5262344
 112.1120007  94.4480956  88.1522771 112.6168860  95.3086863  87.0137008
 110.0198521 105.6277574  76.4303423 110.9657625 105.4983782  76.4991841
 109.6412765 104.8892236  76.9072851 115.9920405  97.2933580  86.3930315
 115.7945226  96.9848668  87.2773647 116.6020111  98.0195219  86.5228245
 108.2041438 103.5527550  76.3658309 107.2972893 103.2560663  76.4421022
 108.4817419 103.2557368  75.4992595  99.1219378 104.8733914  86.8157355
  98.8022162 104.0199222  86.5231729  98.5752806 105.0882492  87.5715322
 109.8203503  98.0964440  82.5202550 109.0104232  97.7511525  82.8957796
 110.5087920  97.7871984  83.1090161 111.7494052  97.1742487  84.1426846
 112.3025090  97.5937940  84.8016870 111.9864138  96.2478235  84.1849802
 106.9740222 100.4114485  76.5070288 107.8359386 100.7369384  76.7666105
 107.1590566  99.6245981  75.9943353  98.9907638 108.4936825  88.7850476
  98.2971109 108.0790778  88.2720431  99.7380629 108.5357362  88.1883895
 115.1272859  99.2843012  83.6505511 114.5471528  99.9427816  83.2683563
 114.8608791  98.4620357  83.2392928 113.5776425  98.6848070  85.8526831
 114.0776204  98.7964604  85.0441150 114.2212033  98.3809122  86.4927639
 100.9044381 108.4255079  86.6616491 100.8815069 108.5242766  85.7098374
 101.2145017 109.2720230  86.9833657 113.9097737 101.4443102  82.7061859
 113.0223592 101.7292753  82.4882054 114.3251726 101.2836866  81.8589136
 117.2612273 101.4689623  86.4216198 118.0372663 101.9586076  86.6940815
 116.5360407 101.8947677  86.8788068 113.8838761 106.9597638  82.9212149
 113.8273962 107.4166190  82.0819782 114.4367103 106.1988323  82.7434992
 117.6943566 102.7487370  83.7462269 117.4380501 102.3484006  84.5770476
 117.0696434 103.4631164  83.6212408 114.6173540 108.1502419  80.2164678
 114.5622344 107.9846691  79.2753122 113.9919595 108.8578452  80.3726868
  99.4066055 103.3870484  94.0426101 100.0524918 102.8769438  94.5313326
  99.1983206 104.1239166  94.6169526 107.9269665  97.6510528  79.7949997
 107.9148335  98.5952368  79.9518268 108.8193087  97.4680674  79.5009458
 111.7421785  94.2453305  84.0495934 110.9754181  93.6911792  84.1952616
 112.1532490  94.3175174  84.9110085  44.5245349  -8.1813916  75.6070347
  44.1863860  -8.2972851  74.7190882  45.3935117  -8.5822751  75.5871353
  40.3832165  -6.3278439  71.5967238  39.8197030  -6.4188502  70.8283526
  40.2684560  -7.1478535  72.0769731  45.0065132  -7.0279064  81.5656553
  44.9953773  -7.4226266  80.6937056  45.1685771  -7.7612991  82.1590324
  37.9296597  -4.8327248  74.4351458  38.7217888  -5.1736423  74.0197758
  38.1693247  -4.7232273  75.3553612  45.9631723  -2.6607472  66.9081703
  45.3119703  -2.0753391  66.5215717  46.7576086  -2.1301277  66.9676740
  39.8887350  -5.5718334  67.3068837  40.6618226  -6.1189347  67.1681713
  40.2412749  -4.7074085  67.5183299  41.7272393  -4.2441952  80.5135737
  41.4362259  -3.3396321  80.3982403  42.3629377  -4.2025425  81.2279806
  42.6528600  -6.8665104  77.1037096  43.2492172  -7.0909081  76.3894059
  42.7103571  -7.6080358  77.7062544  47.4406988  -4.9717040  67.4450687
  46.8052821  -4.8982413  68.1571592  47.1104395  -4.3823441  66.7669766
  41.9449917  -7.5097562  67.1411662  41.8286175  -8.1852659  67.8092746
  42.0552177  -7.9965188  66.3243815  44.2881458  -8.0487415  70.8458351
  43.9239665  -8.5756794  71.5571273  45.1448574  -8.4388946  70.6724837
  46.6862278  -4.5580537  77.5085530  46.3863001  -3.6555498  77.4001338
  46.3413338  -4.8248353  78.3606683  40.1374760  -8.1066740  73.5422235
  39.2125256  -8.2390526  73.7499926  40.3859173  -7.3272521  74.0392177
  41.6683058   2.2063784  70.4756498  41.5907088   3.1571609  70.5544979
  41.0644701   1.8609656  71.1331424  42.4146660  -7.8122898  82.6935832
  43.1561344  -7.2737854  82.4170655  41.7083645  -7.1856609  82.8507384
  47.8902000  -5.6693757  81.2907993  48.2985356  -6.1111347  80.5462626
  47.1679261  -6.2441130  81.5442186  48.2130814  -5.1092566  75.0460282
  47.5839677  -4.9446852  74.3436350  47.8256476  -4.6950957  75.8171246
  52.0920046  -4.1738129  72.4004646  51.4071084  -3.7939227  71.8501679
  52.1763895  -3.5642802  73.1336594  49.3470978  -6.5278170  78.9999990
  49.5587873  -5.8846410  78.3234371  49.3000726  -7.3615853  78.5321920
  43.7658776  -5.3718158  72.3110367  44.2297122  -5.0930455  71.5214990
  43.5015574  -6.2734714  72.1283458  40.6582857  -5.8246677  75.2490131
  41.2284214  -5.3959408  74.6107615  41.2490969  -6.1064092  75.9474316
  50.4616806  -3.6506214  77.1722347  51.2834249  -4.0526027  76.8905029
  50.4579209  -3.7537980  78.1238463  44.2273409  -4.1022171  79.3283057
  44.2917842  -3.6401764  80.1641229  43.5184333  -4.7324806  79.4565367
  43.9421427  -2.4354063  69.1962038  43.8067102  -1.5902528  69.6246886
  44.4831239  -2.2334786  68.4327971  37.3950824  -4.9178625  69.7689963
  37.9075345  -4.1235375  69.9195527  38.0473537  -5.6152335  69.7023564
  39.2045709  -1.8012869  71.8512716  39.3812337  -0.8794904  71.6633700
  40.0002542  -2.1154450  72.2807096  45.5689903  -1.8130497  83.3262380
  45.1253757  -2.5994118  83.0083284  46.2307117  -1.6251346  82.6606271
  40.3277024  -0.2834695  77.8523058  40.8784449  -0.4117632  77.0800052
  39.4888500   0.0160194  77.5017951  47.6671141  -1.5327697  81.3543781
  47.6489617  -0.7118816  80.8624050  48.5891061  -1.6573622  81.5793922
  44.1244195  -4.0183567  82.1967289  44.6572532  -4.7795279  81.9666597
  43.5958277  -4.3109916  82.9391444  45.4896908  -4.8897575  69.7086101
  44.9618270  -5.6244815  69.3959339  44.9884411  -4.1122899  69.4626070
  50.4689754  -6.6948555  74.8253148  49.8113429  -6.0049293  74.9133276
  51.2730153  -6.3052123  75.1687134  43.6349508  -7.0717365  62.7121074
  42.7276570  -7.3028111  62.9112223  44.1320540  -7.8679745  62.8995056
  46.5417587   1.6380142  65.6317761  45.8679286   1.9411839  66.2402718
  46.9283409   2.4409223  65.2823218  44.8137742  -6.9704770  67.2345065
  43.9048961  -7.2545737  67.3317534  44.8432826  -6.5505691  66.3748371
  50.0457009  -3.3598180  71.0036232  49.5919336  -4.2007270  71.0601423
  49.4150976  -2.7236782  71.3411012  48.4889948  -1.5221684  71.9386050
  48.7812923  -0.9616627  71.2198416  48.9988569  -1.2293123  72.6939209
  44.5113830  -5.4296026  64.5733143  44.0733259  -6.1460167  64.1138780
  45.2524270  -5.2019911  64.0118235  43.4523574  -0.7441333  73.0279503
  43.4099752  -0.5180486  72.0988035  44.3686272  -0.9777958  73.1765305
  52.6556324  -5.0862302  75.6420733  53.0892831  -5.1787013  76.4903787
  53.3687905  -5.1104802  75.0040749  41.5689374  -3.8678304  72.8241466
  42.3629973  -4.3627983  72.6224041  40.8581067  -4.3960440  72.4609172
  46.3884219  -1.4860208  77.1753834  46.4421241  -0.9169272  77.9431550
  45.5199000  -1.3158323  76.8107871  53.5171873  -5.0438602  78.1753619
  53.7107764  -4.1392791  78.4212894  53.4172492  -5.5031182  79.0092204
  48.5786982  -4.8931859  83.7494499  48.4272489  -5.1221307  82.8324583
  48.5691662  -3.9361257  83.7625844  45.3472319  -7.3199946  78.7340766
  46.2764379  -7.1688786  78.5609733  44.9263349  -7.2315925  77.8789412
  44.1460650  -3.2949282  76.5039303  44.0071736  -3.6630497  77.3765241
  43.3575247  -2.7801642  76.3323261  44.7408802   1.8059815  67.8464840
  44.9160558   1.3347858  68.6610462  44.0541590   2.4325581  68.0746101
  45.6965866  -3.9167679  73.8928141  45.3615698  -3.9566909  74.7885791
  45.1969811  -4.5822963  73.4198551  39.6710109  -8.5100049  79.4180722
  39.5329907  -9.2419810  80.0192261  40.5815033  -8.5991149  79.1364910
  48.6325057  -6.5711645  64.1665201  48.0154228  -7.2964816  64.0698253
  48.1641546  -5.8102284  63.8232275  42.2992410  -8.7980090  78.9064402
  43.0092029  -9.4386897  78.8651020  42.2561718  -8.5467195  79.8290583
  50.2879189  -1.8612736  81.8270981  50.2291735  -2.5453516  81.1601564
  50.6898707  -1.1193746  81.3751607  39.3069888   4.9549178  74.6204700
  39.5466486   5.5867702  75.2983719  38.4639084   4.6037218  74.9070059
  50.2896596  -3.8973152  80.0584961  49.4023375  -4.2347230  80.1811360
  50.8595147  -4.6290121  80.2953726  43.8197749   0.7628300  77.0246204
  43.7467921   1.5683272  77.5365509  43.3775143   0.9620266  76.1994225
  43.6087529   0.0000070  70.5349026  42.8255051   0.5421750  70.6287250
  44.3080274   0.5174050  70.9343267  46.2796433   0.6615134  79.1804363
  46.9924405   1.2962599  79.1080264  45.7886462   0.7579000  78.3644364
  48.0013960  -5.4333613  70.7521654  47.0670239  -5.3132151  70.5826359
  48.1790628  -6.3361146  70.4881664  41.3308347  -1.5890422  80.0009933
  42.0317806  -0.9553939  80.1539328  40.8603462  -1.2475691  79.2405573
  49.4562742  -3.2472473  68.2857840  49.7322586  -3.3615878  69.1951715
  48.5867241  -3.6454988  68.2470014  46.0916806   1.0013878  71.9290654
  46.2739201   0.1835534  72.3918406  46.9149792   1.2181570  71.4915544
  46.4258972  -0.0717937  69.1905703  46.9546738  -0.5825482  68.5775865
  46.6887191  -0.3875406  70.0551236  45.1797206  -8.2926004  84.3128521
  44.5037843  -8.3931875  84.9830896  46.0024839  -8.4486790  84.7764518
  36.9276065  -2.0554067  76.9341036  37.5129501  -2.8010379  77.0668940
  36.7300903  -1.7450111  77.8177700  39.7814720   0.9797180  71.9503479
  39.1125095   1.4643308  71.4667519  39.6427590   1.2266400  72.8646857
  43.9219988   3.0140924  78.5486137  44.4738296   3.1772545  79.3135222
  44.2626182   3.6045361  77.8766162  48.7730863  -2.1597819  84.4034791
  49.3170767  -1.5467861  83.9089746  48.1917708  -1.6018241  84.9201804
  47.0588376   0.9622899  75.5349819  46.9339515   0.1612639  75.0260765
  47.7167467   1.4569092  75.0463789  49.1223284  -1.2368081  77.1629369
  48.1753620  -1.3562730  77.0907696  49.4706057  -2.1245583  77.2455631
  46.1269717  -1.4415365  73.3633721  45.9794680  -2.3698657  73.5441291
  46.9523211  -1.4195274  72.8790797  49.7303839  -0.6186806  74.4498594
  50.6550387  -0.8243945  74.3123045  49.5619143  -0.8670405  75.3587936
  49.5199155  -0.1001138  69.8060686  49.6936033  -0.6654716  69.0534538
  50.0128047   0.6999756  69.6240176  50.5074328  -0.7834374  66.9057584
  51.2025233  -0.1627681  67.1244898  50.8497478  -1.6339023  67.1809962
  52.4065751  -3.3334669  68.4344915  52.9317075  -2.9947396  67.7094235
  52.3188104  -4.2687653  68.2508049  44.0685800   0.5799405  80.5634791
  44.3772926   0.3348552  81.4357491  44.8661282   0.7846044  80.0753661
  44.0906412   2.7337315  72.7940168  43.6511402   2.2413693  73.4873025
  44.8414529   2.1910282  72.5532243  36.5698751  -1.0751144  72.7964796
  37.3956771  -1.3747373  72.4163439  36.2192803  -1.8443522  73.2454585
  41.5380284  -1.7224676  74.8662469  40.9160293  -2.3853971  74.5664697
  42.2085151  -1.6963544  74.1836117  34.7707356  -3.1564818  73.7553729
  33.9339264  -3.5842644  73.5737731  34.7431001  -2.9632375  74.6924521
  52.0959657  -2.7001765  83.7396113  51.3055201  -2.7177626  83.2000612
  51.8593012  -2.1613471  84.4945149  41.0993791  -3.1720753  68.3420930
  41.2481911  -2.4885288  67.6887603  41.9060234  -3.1915663  68.8570386
  53.7175729  -3.4312357  81.2970863  53.4260537  -3.0682376  82.1334324
  53.1047860  -4.1445349  81.1184195  38.8546424  -7.1455575  69.3481999
  38.6092466  -8.0493245  69.5462209  39.0242338  -7.1438425  68.4061477
  44.5989196  -0.6772622  65.8132677  44.0263163  -0.0582435  65.3603149
  45.1721990  -0.1273261  66.3472599  47.8186456  -0.3935472  66.9441260
  48.7517129  -0.4589911  67.1474135  47.7309669   0.4420795  66.4855792
  50.4474473  -1.0769602  63.9045207  50.3688104  -1.4109738  64.7980965
  51.2684140  -0.5847834  63.9036680  44.8674687  -5.2894063  84.6149387
  45.7877697  -5.1115464  84.8089433  44.8324270  -6.2338018  84.4629086
  37.8636760  -7.3793029  77.2572168  38.0822770  -6.4475921  77.2760202
  38.2762534  -7.7385054  78.0426972  42.5995895  -8.3762684  85.4639979
  42.1162977  -7.5762324  85.6703868  42.6856834  -8.3654739  84.5107423
  35.8681855  -6.5434305  73.3861798  35.8452543  -6.4446617  72.4343681
  36.1782491  -5.6969154  73.7078964  38.5269233  -4.4858150  77.5008412
  39.4812486  -4.5174207  77.4338344  38.3281756  -4.9467526  78.3158638
  39.1168615  -5.9157033  80.0679210  39.9361504  -5.4212955  80.0914047
  39.3905423  -6.8325065  80.0396778  36.8819462   1.0561470  74.5178610
  36.7473930   0.2961871  73.9516608  36.4651524   1.7802370  74.0507399
  48.0178425  -3.7601606  63.5255186  48.7214275  -3.5551604  64.1412841
  47.2941073  -3.1924845  63.7904269  40.0388587   1.9530787  74.7297053
  39.9220972   2.8976219  74.6275743  39.2181034   1.6504349  75.1182852
  49.9265122  -3.3219077  65.5753646  50.7610726  -3.7537879  65.3931120
  49.7649465  -3.4937064  66.5030540  49.5811014  -6.8186964  66.9409985
  49.5259818  -6.9842693  65.9998429  48.9557069  -6.1110931  67.0972175
  46.8956921  -4.5138052  86.2663548  47.7648081  -4.3397400  85.9050183
  46.4163673  -3.6943635  86.1439277  41.0643102   2.6059049  77.9452981
  41.9670348   2.6382659  78.2619476  40.8380472   1.6759500  77.9599317
  42.8196704   1.3590035  74.6063060  41.8692335   1.3591897  74.4927432
  43.1229190   0.6122770  74.0899095  58.5549397   7.1950574  75.6708822
  59.1927807   7.0757321  74.9672162  58.4370240   8.1431418  75.7296775
  55.3639103   7.1478002  75.6070347  55.0257615   7.0319067  74.7190882
  56.2328872   6.7469167  75.5871353  51.2225919   9.0013478  71.5967238
  50.6590784   8.9103415  70.8283526  51.1078314   8.1813383  72.0769731
  55.8458886   8.3012854  81.5656553  55.8347527   7.9065652  80.6937056
  56.0079526   7.5678926  82.1590324  48.7690351  10.4964670  74.4351458
  49.5611643  10.1555495  74.0197758  49.0087001  10.6059645  75.3553612
  56.8025478  12.6684446  66.9081703  56.1513458  13.2538526  66.5215717
  57.5969841  13.1990641  66.9676740  50.7281105   9.7573583  67.3068837
  51.5011981   9.2102570  67.1681713  51.0806504  10.6217833  67.5183299
  52.5666148  11.0849965  80.5135737  52.2756013  11.9895596  80.3982403
  53.2023132  11.1266493  81.2279806  53.4922354   8.4626814  77.1037096
  54.0885927   8.2382836  76.3894059  53.5497326   7.7211559  77.7062544
  53.0647383   5.9166249  64.9387287  53.3172903   5.3947771  64.1770750
  52.1271942   5.7532395  65.0413971  58.1090666   4.9202028  72.7462030
  58.8953755   4.5021451  72.3952447  58.3729370   5.8248120  72.9143679
  58.2800743  10.3574878  67.4450687  57.6446576  10.4309504  68.1571592
  57.9498149  10.9468477  66.7669766  63.5099093   4.8577261  73.6495009
  64.2424265   4.2876478  73.8832838  62.7538448   4.4698861  74.0901515
  52.7843671   7.8194355  67.1411662  52.6679930   7.1439259  67.8092746
  52.8945931   7.3326729  66.3243815  55.1275212   7.2804502  70.8458351
  54.7633420   6.7535123  71.5571273  55.9842328   6.8902971  70.6724837
  61.0324513  -1.4301165  78.1089618  60.7007838  -0.5605754  77.8850833
  60.4370126  -1.7464881  78.7883648  54.7680699   2.3094402  65.8419700
  54.9355102   3.1774638  66.2090171  54.5777868   2.4721684  64.9180989
  57.5256033  10.7711381  77.5085530  57.2256756  11.6736420  77.4001338
  57.1807092  10.5043564  78.3606683  50.9768514   7.2225178  73.5422235
  50.0519011   7.0901392  73.7499926  51.2252927   8.0019397  74.0392177
  60.9253176   3.2893921  75.1882968  60.0170054   3.2209330  74.8941729
  60.8740772   3.7665866  76.0164793  54.7469920   4.7652060  66.8266367
  54.6269545   5.2109110  67.6651847  54.0522509   5.1137377  66.2679905
  48.3377325   6.8658451  74.3766024  48.4669706   7.1192930  75.2905435
  47.6574776   7.4586159  74.0570679  52.5076812  17.5355701  70.4756498
  52.4300842  18.4863526  70.5544979  51.9038456  17.1901574  71.1331424
  54.9994042   4.7083567  83.1317865  54.2227376   5.2677487  83.1220730
  55.6384605   5.1940350  83.6532735  62.7914823   1.4910360  76.9660842
  62.1489203   1.7842893  76.3200636  62.2869751   1.3763280  77.7714038
  60.4454986   5.2373533  67.6546701  61.3572843   5.4700919  67.4794398
  59.9364634   5.8210577  67.0921779  53.2540414   7.5169020  82.6935832
  53.9955099   8.0554064  82.4170655  52.5477400   8.1435309  82.8507384
  58.7295754   9.6598161  81.2907993  59.1379110   9.2180571  80.5462626
  58.0073016   9.0850788  81.5442186  55.0826824   4.5970767  78.6641550
  55.9288019   5.0210181  78.8076199  55.0225462   3.9404392  79.3580113
  59.0524569  10.2199351  75.0460282  58.4233431  10.3845065  74.3436350
  58.6650231  10.6340961  75.8171246  62.9313801  11.1553789  72.4004646
  62.2464839  11.5352690  71.8501679  63.0157650  11.7649116  73.1336594
  58.2326269   2.2575136  80.3222724  57.9887201   3.0117196  79.7857000
  58.5086200   2.6360483  81.1569971  60.1864732   8.8013748  78.9999990
  60.3981627   9.4445508  78.3234371  60.1394481   7.9676065  78.5321920
  57.7890961   1.4131569  75.9036562  56.9275440   1.7112822  76.1953299
  57.8153396   1.6301968  74.9717594  54.6052531   9.9573759  72.3110367
  55.0690876  10.2361462  71.5214990  54.3409329   9.0557204  72.1283458
  51.4976612   9.5045241  75.2490131  52.0677969   9.9332509  74.6107615
  52.0884724   9.2227826  75.9474316  53.5421417   6.0796912  69.1199932
  54.2445460   6.5317955  69.5873859  53.2102045   5.4380731  69.7479826
  51.9901778   4.6708668  83.4951142  51.3600439   5.3524949  83.7286539
  51.8837866   4.5591750  82.5504280  47.2846751   4.3380464  74.4217066
  46.4945805   4.5937993  73.9457177  47.7757998   5.1528802  74.5269107
  61.3010560  11.6785703  77.1722347  62.1228004  11.2765891  76.8905029
  61.2972963  11.5753938  78.1238463  49.2361496   4.7025044  71.3800543
  48.4392659   4.8143738  71.8984038  49.0087088   5.0411696  70.5141433
  55.0667164  11.2269747  79.3283057  55.1311596  11.6890154  80.1641229
  54.3578088  10.5967112  79.4565367  45.5684454   4.5910955  76.8532057
  45.8192492   5.4757965  77.1189633  46.1044002   4.4115556  76.0807149
  69.3916553   8.0224452  73.5207318  68.6380262   7.4531850  73.3651323
  69.5264094   7.9887116  74.4677953  54.7815181  12.8937854  69.1962038
  54.6460856  13.7389390  69.6246886  55.3224994  13.0957132  68.4327971
  51.2682521  -1.0270566  85.8576393  50.8749467  -1.5804367  86.5324037
  52.0848661  -0.7159987  86.2482910  48.2344579  10.4113292  69.7689963
  48.7469099  11.2056543  69.9195527  48.8867292   9.7139583  69.7023564
  50.0439463  13.5279049  71.8512716  50.2206092  14.4497013  71.6633700
  50.8396297  13.2137468  72.2807096  54.1850482   0.3887313  83.4496649
  54.9260195   0.9894466  83.3701112  54.4168405  -0.3535049  82.8914692
  49.3291820   5.5743680  81.7274879  49.2145335   4.6728938  82.0281978
  48.4736338   5.8207377  81.3759696  56.4083658  13.5161421  83.3262380
  55.9647512  12.7297799  83.0083284  57.0700871  13.7040571  82.6606271
  51.1670779  15.0457222  77.8523058  51.7178204  14.9174286  77.0800052
  50.3282255  15.3452111  77.5017951  58.5064896  13.7964221  81.3543781
  58.4883371  14.6173102  80.8624050  59.4284816  13.6718296  81.5793922
  54.9637950  11.3108350  82.1967289  55.4966287  10.5496638  81.9666597
  54.4352031  11.0182002  82.9391444  58.1307645  -3.5831584  77.7260931
  57.7871914  -2.6929942  77.6500042  58.4986607  -3.7729926  76.8630516
  46.1993495   8.7401947  70.5449533  47.0368717   9.1498955  70.3283241
  46.3771763   7.8001389  70.5149727  58.0957928   6.4077027  66.2333366
  57.5804551   7.1781632  66.4721754  57.8235236   5.7342163  66.8566428
  55.6805039   1.2526728  71.2918605  54.8246635   0.8633578  71.1124243
  56.0931990   1.3318689  70.4318390  57.2104185  -1.2126929  75.6910164
  56.7068981  -1.2496794  74.8777970  57.5034792  -0.3034186  75.7506821
  53.4547071  -1.1288199  74.6976346  54.3200068  -1.3245390  74.3382236
  53.5224580  -1.3577847  75.6245703  63.0692202   9.1609382  68.1686540
  62.2921644   8.8220541  67.7241702  63.7483683   9.1662005  67.4941505
  57.8844231   4.2804119  68.0593147  57.5794366   4.5950269  68.9103291
  58.8374673   4.3585539  68.1020480  56.3290663  10.4394343  69.7086101
  55.8012024   9.7047102  69.3959339  55.8278165  11.2169019  69.4626070
  61.3083509   8.6343363  74.8253148  60.6507183   9.3242625  74.9133276
  62.1123908   9.0239795  75.1687134  51.0609390   1.1014009  72.0692713
  51.6353142   0.8789190  71.3365906  51.6480373   1.1702703  72.8221314
  60.1188967   6.9887736  72.8757089  60.6320849   7.6217728  73.3778799
  60.7690191   6.3888931  72.5100450  51.3878977   3.1318470  66.0888598
  50.5516290   3.4693157  66.4097873  51.2483747   2.9967450  65.1515735
  53.3632058  -2.0244742  70.7967782  52.7096470  -2.3395725  70.1724397
  53.3212532  -2.6469002  71.5227605  54.4743263   8.2574553  62.7121074
  53.5670325   8.0263806  62.9112223  54.9714295   7.4612172  62.8995056
  57.3811342  16.9672060  65.6317761  56.7073040  17.2703757  66.2402718
  57.7677164  17.7701140  65.2823218  56.5969798   4.4637191  75.1215430
  55.6792360   4.6852138  74.9637118  57.0129942   4.5383502  74.2627137
  57.3804846   5.8628607  70.2518110  58.1276665   6.3750004  69.9425232
  57.6496436   5.5412660  71.1122504  55.6531496   8.3587148  67.2345065
  54.7442715   8.0746181  67.3317534  55.6826580   8.7786226  66.3748371
  60.8850764  11.9693737  71.0036232  60.4313091  11.1284647  71.0601423
  60.2544730  12.6055136  71.3411012  59.8283683   2.8985723  72.2336900
  59.0906440   2.3863110  72.5647142  60.0810457   2.4586105  71.4220176
  59.3283703  13.8070234  71.9386050  59.6206677  14.3675291  71.2198416
  59.8382323  14.0998795  72.6939209  46.2219667   6.0792662  71.2160267
  46.0244066   5.4862023  70.4911333  45.6666331   5.7744872  71.9336206
  54.2016390   5.9715768  73.3354860  54.2565000   5.0189605  73.2597336
  53.3907592   6.1275208  73.8196158  55.3507584   9.8995891  64.5733143
  54.9127014   9.1831750  64.1138780  56.0918025  10.1272006  64.0118235
  52.1408750   4.5892828  71.0945239  51.3276616   4.8886999  71.5010431
  52.6367744   4.1948517  71.8119721  54.2917328  14.5850585  73.0279503
  54.2493507  14.8111431  72.0988035  55.2080027  14.3513960  73.1765305
  57.7382962   5.0534653  79.9260133  58.0932350   5.2806126  80.7854598
  58.3855093   5.3853029  79.3037388  63.4680699   8.1753089  70.6309462
  63.3298597   8.3654684  69.7030651  63.1116918   8.9372471  71.0877513
  51.6322825   2.1611184  76.7106474  52.2722204   2.0199943  76.0129437
  50.8000355   1.8745697  76.3345076  63.4950078  10.2429616  75.6420733
  63.9286585  10.1504905  76.4903787  64.2081659  10.2187116  75.0040749
  52.4083129  11.4613614  72.8241466  53.2023727  10.9663934  72.6224041
  51.6974821  10.9331477  72.4609172  57.2277973  13.8431710  77.1753834
  57.2814996  14.4122646  77.9431550  56.3592755  14.0133595  76.8107871
  48.7165892   5.6056696  68.9001219  47.7863480   5.5441151  69.1171181
  48.8123364   5.0832649  68.1037860  48.6351441   2.1311509  71.4879461
  48.8958259   3.0456842  71.3788621  49.4568614   1.6635951  71.6376073
  50.1076367   3.5449266  78.6578285  50.7799420   3.3366628  78.0090934
  49.2806153   3.3471352  78.2183517  64.3565628  10.2853316  78.1753619
  64.5501518  11.1899127  78.4212894  64.2566246   9.8260735  79.0092204
  56.0101939   0.1711207  80.6743946  55.3629854   0.8701156  80.5808422
  56.7802954   0.6047351  81.0420194  59.4180737  10.4360059  83.7494499
  59.2666243  10.2070611  82.8324583  59.4085416  11.3930660  83.7625844
  56.1866073   8.0091972  78.7340766  57.1158133   8.1603131  78.5609733
  55.7657103   8.0975992  77.8789412  54.9854405  12.0342636  76.5039303
  54.8465491  11.6661420  77.3765241  54.1969001  12.5490276  76.3323261
  55.5802557  17.1351733  67.8464840  55.7554313  16.6639776  68.6610462
  54.8935345  17.7617499  68.0746101  56.5359620  11.4124239  73.8928141
  56.2009453  11.3725009  74.7885791  56.0363566  10.7468955  73.4198551
  50.5103864   6.8191869  79.4180722  50.3723662   6.0872108  80.0192261
  51.4208787   6.7300769  79.1364910  59.4718812   8.7580273  64.1665201
  58.8547982   8.0327101  64.0698253  59.0035300   9.5189633  63.8232275
  53.1386165   6.5311828  78.9064402  53.8485783   5.8905020  78.8651020
  53.0955473   6.7824723  79.8290583  61.1272943  13.4679181  81.8270981
  61.0685489  12.7838402  81.1601564  61.5292462  14.2098171  81.3751607
  51.8515099   3.5177046  80.7260041  51.3152456   3.0667784  81.3781638
  51.2631807   3.6522955  79.9830506  50.1463642  20.2841095  74.6204700
  50.3860240  20.9159619  75.2983719  49.3032839  19.9329135  74.9070059
  51.2617358   2.9765697  63.2886505  50.3846824   2.8554498  62.9248752
  51.7375111   2.1851776  63.0365394  61.1290351  11.4318765  80.0584961
  60.2417129  11.0944687  80.1811360  61.6988902  10.7001797  80.2953726
  42.7819498   7.7642857  73.3828012  43.4690538   7.4504587  72.7949027
  42.6267626   8.6684222  73.1095264  47.5854220   2.6533054  77.8113036
  47.5012409   2.0458723  77.0763446  46.7636926   3.1442072  77.8122532
  54.6591504  16.0920218  77.0246204  54.5861675  16.8975189  77.5365509
  54.2168897  16.2912184  76.1994225  54.4481284  15.3291988  70.5349026
  53.6648805  15.8713668  70.6287250  55.1474029  15.8465967  70.9343267
  57.7577934   1.1386617  73.1783231  58.2546633   0.3856580  72.8584301
  56.9864915   1.1750934  72.6126440  65.6107691   6.8426983  74.8201522
  65.5997567   7.7251698  74.4495455  64.7425071   6.4898534  74.6256059
  57.1190187  15.9907052  79.1804363  57.8318160  16.6254517  79.1080264
  56.6280216  16.0870918  78.3644364  58.8407714   9.8958304  70.7521654
  57.9063993  10.0159767  70.5826359  59.0184383   8.9930771  70.4881664
  54.3412902   3.2804000  72.9054915  53.9710690   2.7275041  73.5935821
  54.8371995   2.6762134  72.3529916  62.2280266   5.7375624  71.2871688
  62.6940718   6.5703615  71.2131991  62.6787766   5.2720605  71.9916947
  52.1702101  13.7401495  80.0009933  52.8711561  14.3737978  80.1539328
  51.6997216  14.0816227  79.2405573  60.2956497  12.0819445  68.2857840
  60.5716341  11.9676040  69.1951715  59.4260996  11.6836930  68.2470014
  60.1996928  -1.8943789  75.3262590  59.2860008  -1.6639562  75.4944797
  60.6290030  -1.8105345  76.1776622  59.9703387   6.2946103  77.8262484
  59.3174837   6.5422010  77.1714937  60.3483767   5.4810241  77.4924961
  56.9310561  16.3305796  71.9290654  57.1132955  15.5127452  72.3918406
  57.7543547  16.5473488  71.4915544  57.2652726  15.2573981  69.1905703
  57.7940493  14.7466436  68.5775865  57.5280946  14.9416511  70.0551236
  56.0190960   7.0365914  84.3128521  55.3431597   6.9360043  84.9830896
  56.8418594   6.8805128  84.7764518  47.7669819  13.2737850  76.9341036
  48.3523256  12.5281538  77.0668940  47.5694658  13.5841807  77.8177700
  50.6208474  16.3089098  71.9503479  49.9518850  16.7935225  71.4667519
  50.4821344  16.5558318  72.8646857  42.3587474   5.8443451  75.6545479
  42.3971573   5.3107041  76.4482597  41.8527767   5.3178656  75.0356456
  54.7613743  18.3432841  78.5486137  55.3132051  18.5064463  79.3135222
  55.1019936  18.9337279  77.8766162  49.7378236   0.6907991  79.1508022
  49.8019563   1.5522822  78.7385419  49.6745356   0.0781993  78.4180380
  49.2130509   2.7631124  82.7981056  49.8402547   2.3808201  83.4118580
  48.3558427   2.5445325  83.1636748  59.6124617  13.1694099  84.4034791
  60.1564521  13.7824057  83.9089746  59.0311462  13.7273677  84.9201804
  45.9896051   4.5707553  68.7299411  46.2849492   3.6618231  68.6766464
  45.0884087   4.5495292  68.4080413  57.8982130  16.2914817  75.5349819
  57.7733270  15.4904557  75.0260765  58.5561221  16.7861010  75.0463789
  49.5190298   2.6463549  74.7126959  48.7976884   3.2599517  74.5734433
  50.3083554   3.1821314  74.6343605  59.9617039  14.0923837  77.1629369
  59.0147374  13.9729188  77.0907696  60.3099812  13.2046335  77.2455631
  52.3216612  -0.0182024  80.9867611  52.8451014   0.2280272  81.7493920
  52.1028945   0.8138011  80.5670748  47.7183893   2.2521650  68.8538736
  47.3896599   1.3719029  68.6713842  48.0723264   2.1969319  69.7415125
  56.9663472  13.8876553  73.3633721  56.8188434  12.9593260  73.5441291
  57.7916965  13.9096644  72.8790797  50.8325716   2.5394620  69.2214214
  51.1721789   3.0680541  68.4992822  51.2797837   2.8775026  69.9972780
  60.5697594  14.7105112  74.4498594  61.4944141  14.5047973  74.3123045
  60.4012897  14.4621513  75.3587936  53.5269157   0.9231671  78.6717282
  53.1865977   0.1239484  79.0737961  52.8208163   1.2233382  78.0994115
  54.1785629  -1.9919017  77.1244605  55.0011698  -2.4658539  77.0023495
  54.4223692  -1.2128533  77.6243291  52.8193863   1.0369242  67.4207506
  53.5402226   1.4150495  66.9171223  52.1959167   1.7558119  67.5242484
  56.9624986   1.7414391  68.3565839  57.1788601   2.6239029  68.0554667
  56.4819053   1.3500604  67.6271481  51.7024208   4.7000104  74.9336583
  51.5568788   5.0140407  75.8260865  51.2249411   5.3185004  74.3807482
  53.5620590   1.6902652  74.9817473  53.5482159   0.7943745  74.6449771
  54.2793019   1.6973316  75.6155759  55.4146721   2.1239992  77.0270600
  55.1564499   3.0457063  77.0254931  54.8831762   1.7270427  77.7171064
  60.3592910  15.2290779  69.8060686  60.5329787  14.6637202  69.0534538
  60.8521801  16.0291674  69.6240176  46.1769870   7.2405448  77.8724244
  45.6323338   8.0165256  78.0044519  47.0549220   7.5876253  77.7143366
  52.9657486   0.5717032  70.2505043  53.0873398  -0.3566322  70.4495930
  52.6759529   0.5855718  69.3383358  55.8348677  -1.7428057  73.3871763
  55.8570374  -1.6788724  72.4323742  56.2516736  -2.5823549  73.5812269
  66.2132301   7.9927202  71.4250985  66.6563447   7.2434527  71.0270109
  65.3358811   7.9837339  71.0424717  61.3468082  14.5457544  66.9057584
  62.0418987  15.1664236  67.1244898  61.6891233  13.6952895  67.1809962
  46.9635892   6.3675345  80.7654401  46.2217628   6.5157980  81.3519032
  46.6428636   6.6283610  79.9021151  63.2459506  11.9957249  68.4344915
  63.7710830  12.3344522  67.7094235  63.1581858  11.0604264  68.2508049
  54.9079554  15.9091323  80.5634791  55.2166681  15.6640470  81.4357491
  55.7055036  16.1137961  80.0753661  54.9300166  18.0629232  72.7940168
  54.4905157  17.5705611  73.4873025  55.6808283  17.5202200  72.5532243
  47.4092505  14.2540773  72.7964796  48.2350525  13.9544545  72.4163439
  47.0586557  13.4848396  73.2454585  52.3774038  13.6067242  74.8662469
  51.7554048  12.9437947  74.5664697  53.0478905  13.6328373  74.1836117
  45.6101110  12.1727100  73.7553729  44.7733019  11.7449274  73.5737731
  45.5824756  12.3659543  74.6924521  52.4498566   2.0849030  84.4594975
  52.4986721   2.9611152  84.0772745  52.9921080   1.5426423  83.8866619
  62.9353412  12.6290153  83.7396113  62.1448955  12.6114292  83.2000612
  62.6986766  13.1678446  84.4945149  63.0551287   9.4782619  81.0528841
  63.1049292   9.3132627  81.9944364  62.9465210   8.6109878  80.6626722
  51.9387545  12.1571165  68.3420930  52.0875666  12.8406629  67.6887603
  52.7453989  12.1376255  68.8570386  60.3455049   5.4613547  82.3688148
  61.2464912   5.3220012  82.0772146  60.4203024   5.6268002  83.3086325
  54.6797854   2.8380402  81.2141334  53.8101164   3.1313968  80.9423923
  54.9157335   3.4220847  81.9348598  64.5569483  11.8979561  81.2970863
  64.2654292  12.2609541  82.1334324  63.9441615  11.1846569  81.1184195
  65.7565166   9.4632440  73.8173433  66.5912057   9.9022245  73.9810993
  65.8924295   8.9871094  72.9981679  62.8056672   7.0212175  79.7650921
  63.2810793   7.2139822  78.9569772  61.8822237   7.0771361  79.5194304
  49.6940178   8.1836342  69.3481999  49.4486220   7.2798672  69.5462209
  49.8636093   8.1853493  68.4061477  57.3836888  -0.9439981  78.7306755
  57.9018832  -0.2078954  78.4053243  57.0292021  -0.6375988  79.5653514
  48.9635826   3.9164700  66.8468160  48.2705071   3.9909055  66.1908196
  48.7187578   3.1525044  67.3689677  55.4382951  14.6519295  65.8132677
  54.8656918  15.2709482  65.3603149  56.0115745  15.2018657  66.3472599
  61.5058341   3.8977935  77.9979226  62.4575764   3.9976033  78.0191450
  61.3361791   3.1056204  78.5077311  59.5272720   0.9833519  78.1838627
  58.9322652   1.2638531  77.4885116  59.2422417   1.4727420  78.9555368
  58.6580211  14.9356445  66.9441260  59.5910884  14.8702007  67.1474135
  58.5703423  15.7712712  66.4855792  61.2868227  14.2522316  63.9045207
  61.2081859  13.9182179  64.7980965  62.1077894  14.7444084  63.9036680
  63.9846418   7.1184055  77.1121526  63.9522739   6.1800056  77.2981210
  64.5947042   7.1968092  76.3787351  55.8229749   5.9880108  63.1548730
  56.7688854   5.8586316  63.2237148  55.4443994   5.2494770  63.6318158
  64.1340907   3.9095099  77.1579809  63.6179956   3.1253555  76.9709738
  65.0180855   3.5813815  77.3226329  61.7951634  -2.3463886  73.1175622
  61.5976455  -2.6548798  74.0018954  62.4051339  -1.6202247  73.2473552
  69.8022968   8.1800062  76.2527563  70.5326357   7.9185350  76.8135266
  69.1929914   7.4428784  76.2929631  67.8838265   6.3207925  76.8502014
  67.1571429   6.1863889  76.2418505  67.4685552   6.6284753  77.6558732
  55.7068442  10.0397854  84.6149387  56.6271451  10.2176453  84.8089433
  55.6718025   9.0953900  84.4629086  54.0072666   3.9130084  63.0903615
  53.1004122   3.6163197  63.1666329  54.2848648   3.6159903  62.2237901
  44.9250607   5.2336448  73.5402662  44.6053391   4.3801756  73.2477036
  44.3784035   5.4485026  74.2960629  48.7030514   7.9498889  77.2572168
  48.9216524   8.8815997  77.2760202  49.1156288   7.5906863  78.0426972
  55.6234732  -1.5433026  69.2447856  54.8135461  -1.8885941  69.6203103
  56.3119149  -1.8525482  69.8335468  57.5525281  -2.4654979  70.8672153
  58.1056319  -2.0459526  71.5262176  57.7895367  -3.3919231  70.9095109
  53.5758380   3.5232095  86.6474917  53.4755107   4.4726452  86.5787008
  53.3579922   3.1950334  85.7750987  52.7771451   0.7717020  63.2315594
  53.6390615   1.0971918  63.4911412  52.9621795  -0.0151484  62.7188660
  44.7938867   8.8539359  75.5095783  44.1002338   8.4393312  74.9965738
  45.5411858   8.8959896  74.9129202  60.9304088  -0.3554454  70.3750817
  60.3502757   0.3030350  69.9928870  60.6640020  -1.1777109  69.9638235
  59.3807654  -0.9549396  72.5772138  59.8807432  -0.8432862  71.7686457
  60.0243262  -1.2588343  73.2172946  53.4389650   6.9529233  85.4639979
  52.9556731   7.7529594  85.6703868  53.5250589   6.9637178  84.5107423
  46.7075609   8.7857613  73.3861798  46.6846298   8.8845300  72.4343681
  47.0176246   9.6322764  73.7078964  49.3662987  10.8433768  77.5008412
  50.3206241  10.8117710  77.4338344  49.1675511  10.3824392  78.3158638
  49.9562369   9.4134884  80.0679210  50.7755258   9.9078963  80.0914047
  50.2299177   8.4966852  80.0396778  59.7128966   1.8045637  69.4307166
  58.8254821   2.0895287  69.2127360  60.1282955   1.6439400  68.5834443
  63.0643502   1.8292157  73.1461505  63.8403892   2.3188610  73.4186122
  62.3391636   2.2550212  73.6033374  65.5016060   2.5419777  74.2035445
  66.0960551   2.3015513  73.4928754  65.5742644   1.8226907  74.8308982
  47.7213216  16.3853388  74.5178610  47.5867684  15.6253789  73.9516608
  47.3045278  17.1094288  74.0507399  58.8572179  11.5690311  63.5255186
  59.5608029  11.7740314  64.1412841  58.1334828  12.1367073  63.7904269
  59.6869989   7.3200172  69.6457456  59.6305191   7.7768724  68.8065088
  60.2398332   6.5590857  69.4680299  63.4974795   3.1089904  70.4707575
  63.2411730   2.7086540  71.3015783  62.8727663   3.8233698  70.3457714
  67.8087133   5.8485978  72.9778867  67.2486691   5.9179167  73.7510429
  67.2030636   5.6726962  72.2578363  50.8782342  17.2822705  74.7297053
  50.7614726  18.2268137  74.6275743  50.0574788  16.9796266  75.1182852
  60.7658876  12.0072840  65.5753646  61.6004480  11.5754039  65.3931120
  60.6043219  11.8354854  66.5030540  60.4204769   8.5104954  66.9409985
  60.3653572   8.3449225  65.9998429  59.7950824   9.2180987  67.0972175
  45.2097284   3.7473018  80.7671407  45.8556147   3.2371972  81.2558632
  45.0014435   4.4841700  81.3414832  57.7350676  10.8153866  86.2663548
  58.6041835  10.9894518  85.9050183  57.2557427  11.6348282  86.1439277
  53.7300894  -1.9886937  66.5195303  53.7179564  -1.0445097  66.6763574
  54.6224316  -2.1716792  66.2254765  51.9036856  17.9350967  77.9452981
  52.8064103  17.9674577  78.2619476  51.6774226  17.0051418  77.9599317
  53.6590458  16.6881953  74.6063060  52.7086089  16.6883815  74.4927432
  53.9622944  15.9414688  74.0899095  49.5494775   0.8940635  84.8646421
  50.4126236   0.5377440  85.0749746  48.9760185   0.5554530  85.5521826
  69.3943152  22.5242492  75.6708822  70.0321562  22.4049239  74.9672162
  69.2763994  23.4723335  75.7296775  66.2032858  22.4769920  75.6070347
  65.8651369  22.3610984  74.7190882  67.0722626  22.0761085  75.5871353
  62.0619674  24.3305396  71.5967238  61.4984539  24.2395333  70.8283526
  61.9472069  23.5105300  72.0769731  66.6852641  23.6304771  81.5656553
  66.6741282  23.2357570  80.6937056  66.8473280  22.8970844  82.1590324
  59.6084105  25.8256588  74.4351458  60.4005397  25.4847412  74.0197758
  59.8480756  25.9351563  75.3553612  67.6419232  27.9976364  66.9081703
  66.9907212  28.5830444  66.5215717  68.4363595  28.5282559  66.9676740
  61.5674859  25.0865501  67.3068837  62.3405735  24.5394488  67.1681713
  61.9200258  25.9509750  67.5183299  63.4059902  26.4141883  80.5135737
  63.1149768  27.3187514  80.3982403  64.0416886  26.4558411  81.2279806
  64.3316109  23.7918732  77.1037096  64.9279681  23.5674754  76.3894059
  64.3891080  23.0503477  77.7062544  63.9041137  21.2458167  64.9387287
  64.1566658  20.7239688  64.1770750  62.9665696  21.0824312  65.0413971
  68.9484420  20.2493945  72.7462030  69.7347509  19.8313369  72.3952447
  69.2123124  21.1540038  72.9143679  69.1194497  25.6866796  67.4450687
  68.4840330  25.7601422  68.1571592  68.7891904  26.2760394  66.7669766
  74.3492847  20.1869179  73.6495009  75.0818019  19.6168395  73.8832838
  73.5932203  19.7990779  74.0901515  63.6237426  23.1486273  67.1411662
  63.5073684  22.4731176  67.8092746  63.7339686  22.6618647  66.3243815
  65.9668967  22.6096420  70.8458351  65.6027174  22.0827041  71.5571273
  66.8236083  22.2194889  70.6724837  71.8718268  13.8990753  78.1089618
  71.5401592  14.7686164  77.8850833  71.2763881  13.5827037  78.7883648
  65.6074454  17.6386320  65.8419700  65.7748856  18.5066556  66.2090171
  65.4171623  17.8013601  64.9180989  68.3649787  26.1003299  77.5085530
  68.0650510  27.0028337  77.4001338  68.0200847  25.8335482  78.3606683
  61.8162269  22.5517095  73.5422235  60.8912765  22.4193310  73.7499926
  62.0646682  23.3311315  74.0392177  71.7646931  18.6185839  75.1882968
  70.8563808  18.5501247  74.8941729  71.7134527  19.0957784  76.0164793
  65.5863675  20.0943977  66.8266367  65.4663300  20.5401028  67.6651847
  64.8916263  20.4429295  66.2679905  59.1771080  22.1950369  74.3766024
  59.3063461  22.4484848  75.2905435  58.4968531  22.7878077  74.0570679
  63.3470567  32.8647619  70.4756498  63.2694597  33.8155444  70.5544979
  62.7432210  32.5193491  71.1331424  65.8387797  20.0375484  83.1317865
  65.0621131  20.5969405  83.1220730  66.4778360  20.5232267  83.6532735
  73.6308577  16.8202277  76.9660842  72.9882958  17.1134810  76.3200636
  73.1263506  16.7055198  77.7714038  71.2848741  20.5665450  67.6546701
  72.1966597  20.7992837  67.4794398  70.7758388  21.1502495  67.0921779
  64.0934169  22.8460938  82.6935832  64.8348853  23.3845982  82.4170655
  63.3871154  23.4727227  82.8507384  69.5689509  24.9890078  81.2907993
  69.9772865  24.5472489  80.5462626  68.8466770  24.4142706  81.5442186
  65.9220579  19.9262685  78.6641550  66.7681774  20.3502099  78.8076199
  65.8619216  19.2696309  79.3580113  69.8918323  25.5491269  75.0460282
  69.2627186  25.7136983  74.3436350  69.5043985  25.9632878  75.8171246
  73.7707555  26.4845707  72.4004646  73.0858593  26.8644608  71.8501679
  73.8551404  27.0941033  73.1336594  69.0720024  17.5867053  80.3222724
  68.8280956  18.3409114  79.7857000  69.3479954  17.9652401  81.1569971
  71.0258487  24.1305666  78.9999990  71.2375382  24.7737426  78.3234371
  70.9788235  23.2967982  78.5321920  68.6284716  16.7423486  75.9036562
  67.7669195  17.0404740  76.1953299  68.6547150  16.9593885  74.9717594
  65.4446285  25.2865677  72.3110367  65.9084631  25.5653380  71.5214990
  65.1803083  24.3849122  72.1283458  62.3370366  24.8337159  75.2490131
  62.9071723  25.2624427  74.6107615  62.9278478  24.5519743  75.9474316
  64.3815171  21.4088829  69.1199932  65.0839215  21.8609873  69.5873859
  64.0495800  20.7672648  69.7479826  62.8295533  20.0000586  83.4951142
  62.1994193  20.6816867  83.7286539  62.7231621  19.8883668  82.5504280
  58.1240505  19.6672382  74.4217066  57.3339559  19.9229911  73.9457177
  58.6151752  20.4820720  74.5269107  72.1404315  27.0077621  77.1722347
  72.9621758  26.6057808  76.8905029  72.1366718  26.9045855  78.1238463
  60.0755251  20.0316961  71.3800543  59.2786414  20.1435655  71.8984038
  59.8480843  20.3703613  70.5141433  65.9060918  26.5561664  79.3283057
  65.9705351  27.0182072  80.1641229  65.1971842  25.9259029  79.4565367
  56.4078208  19.9202872  76.8532057  56.6586247  20.8049882  77.1189633
  56.9437757  19.7407474  76.0807149  80.2310308  23.3516370  73.5207318
  79.4774016  22.7823768  73.3651323  80.3657849  23.3179034  74.4677953
  65.6208936  28.2229772  69.1962038  65.4854611  29.0681308  69.6246886
  66.1618748  28.4249050  68.4327971  62.1076275  14.3021352  85.8576393
  61.7143221  13.7487550  86.5324037  62.9242416  14.6131930  86.2482910
  59.0738333  25.7405210  69.7689963  59.5862854  26.5348460  69.9195527
  59.7261046  25.0431500  69.7023564  60.8833218  28.8570966  71.8512716
  61.0599846  29.7788931  71.6633700  61.6790051  28.5429385  72.2807096
  65.0244236  15.7179231  83.4496649  65.7653950  16.3186384  83.3701112
  65.2562159  14.9756869  82.8914692  60.1685574  20.9035598  81.7274879
  60.0539090  20.0020855  82.0281978  59.3130092  21.1499295  81.3759696
  67.2477412  28.8453338  83.3262380  66.8041266  28.0589717  83.0083284
  67.9094626  29.0332489  82.6606271  62.0064533  30.3749140  77.8523058
  62.5571958  30.2466203  77.0800052  61.1676009  30.6744029  77.5017951
  69.3458650  29.1256138  81.3543781  69.3277126  29.9465019  80.8624050
  70.2678570  29.0010214  81.5793922  65.8031704  26.6400268  82.1967289
  66.3360041  25.8788556  81.9666597  65.2745785  26.3473920  82.9391444
  68.9701399  11.7460334  77.7260931  68.6265669  12.6361976  77.6500042
  69.3380362  11.5561991  76.8630516  57.0387250  24.0693864  70.5449533
  57.8762472  24.4790873  70.3283241  57.2165518  23.1293306  70.5149727
  68.9351682  21.7368945  66.2333366  68.4198306  22.5073550  66.4721754
  68.6628991  21.0634081  66.8566428  66.5198793  16.5818646  71.2918605
  65.6640389  16.1925496  71.1124243  66.9325745  16.6610607  70.4318390
  68.0497940  14.1164989  75.6910164  67.5462735  14.0795124  74.8777970
  68.3428547  15.0257732  75.7506821  64.2940826  14.2003719  74.6976346
  65.1593822  14.0046527  74.3382236  64.3618335  13.9714070  75.6245703
  73.9085956  24.4901300  68.1686540  73.1315399  24.1512459  67.7241702
  74.5877437  24.4953923  67.4941505  68.7237985  19.6096037  68.0593147
  68.4188121  19.9242186  68.9103291  69.6768427  19.6877457  68.1020480
  67.1684417  25.7686260  69.7086101  66.6405779  25.0339020  69.3959339
  66.6671920  26.5460937  69.4626070  72.1477263  23.9635281  74.8253148
  71.4900938  24.6534542  74.9133276  72.9517662  24.3531713  75.1687134
  61.9003145  16.4305927  72.0692713  62.4746897  16.2081108  71.3365906
  62.4874127  16.4994621  72.8221314  70.9582722  22.3179654  72.8757089
  71.4714604  22.9509645  73.3778799  71.6083946  21.7180849  72.5100450
  62.2272732  18.4610388  66.0888598  61.3910044  18.7985074  66.4097873
  62.0877501  18.3259367  65.1515735  64.2025812  13.3047176  70.7967782
  63.5490225  12.9896193  70.1724397  64.1606287  12.6822916  71.5227605
  65.3137017  23.5866471  62.7121074  64.4064079  23.3555724  62.9112223
  65.8108049  22.7904090  62.8995056  68.2205096  32.2963978  65.6317761
  67.5466795  32.5995675  66.2402718  68.6070918  33.0993058  65.2823218
  67.4363553  19.7929109  75.1215430  66.5186114  20.0144056  74.9637118
  67.8523696  19.8675420  74.2627137  68.2198601  21.1920525  70.2518110
  68.9670419  21.7041922  69.9425232  68.4890190  20.8704577  71.1122504
  66.4925251  23.6879065  67.2345065  65.5836470  23.4038098  67.3317534
  66.5220335  24.1078144  66.3748371  71.7244518  27.2985655  71.0036232
  71.2706845  26.4576565  71.0601423  71.0938485  27.9347053  71.3411012
  70.6677438  18.2277641  72.2336900  69.9300194  17.7155027  72.5647142
  70.9204211  17.7878023  71.4220176  70.1677457  29.1362152  71.9386050
  70.4600432  29.6967209  71.2198416  70.6776078  29.4290713  72.6939209
  70.7689065  11.0053893  72.8278669  71.0747942  10.1451256  72.5404584
  71.4941670  11.5971513  72.6277663  57.0613421  21.4084580  71.2160267
  56.8637821  20.8153940  70.4911333  56.5060085  21.1036790  71.9336206
  65.0410145  21.3007686  73.3354860  65.0958755  20.3481522  73.2597336
  64.2301347  21.4567125  73.8196158  66.1901339  25.2287809  64.5733143
  65.7520768  24.5123668  64.1138780  66.9311779  25.4563924  64.0118235
  62.9802505  19.9184746  71.0945239  62.1670370  20.2178916  71.5010431
  63.4761499  19.5240435  71.8119721  65.1311083  29.9142503  73.0279503
  65.0887261  30.1403349  72.0988035  66.0473781  29.6805877  73.1765305
  68.5776716  20.3826570  79.9260133  68.9326104  20.6098043  80.7854598
  69.2248848  20.7144947  79.3037388  74.3074453  23.5045006  70.6309462
  74.1692352  23.6946602  69.7030651  73.9510672  24.2664389  71.0877513
  62.4716579  17.4903101  76.7106474  63.1115959  17.3491860  76.0129437
  61.6394110  17.2037615  76.3345076  74.3343833  25.5721533  75.6420733
  74.7680340  25.4796822  76.4903787  75.0475414  25.5479034  75.0040749
  63.2476883  26.7905532  72.8241466  64.0417482  26.2955852  72.6224041
  62.5368576  26.2623395  72.4609172  68.0671728  29.1723627  77.1753834
  68.1208750  29.7414564  77.9431550  67.1986509  29.3425512  76.8107871
  59.5559647  20.9348614  68.9001219  58.6257235  20.8733069  69.1171181
  59.6517119  20.4124566  68.1037860  59.4745196  17.4603426  71.4879461
  59.7352013  18.3748760  71.3788621  60.2962368  16.9927869  71.6376073
  60.9470121  18.8741184  78.6578285  61.6193175  18.6658546  78.0090934
  60.1199908  18.6763270  78.2183517  75.1959382  25.6145234  78.1753619
  75.3895273  26.5191044  78.4212894  75.0960001  25.1552653  79.0092204
  66.8495693  15.5003124  80.6743946  66.2023608  16.1993074  80.5808422
  67.6196709  15.9339268  81.0420194  70.2574491  25.7651977  83.7494499
  70.1059998  25.5362528  82.8324583  70.2479171  26.7222578  83.7625844
  67.0259828  23.3383889  78.7340766  67.9551888  23.4895049  78.5609733
  66.6050858  23.4267910  77.8789412  65.8248159  27.3634554  76.5039303
  65.6859245  26.9953338  77.3765241  65.0362756  27.8782193  76.3323261
  66.4196311  32.4643650  67.8464840  66.5948067  31.9931693  68.6610462
  65.7329099  33.0909416  68.0746101  67.3753374  26.7416156  73.8928141
  67.0403207  26.7016926  74.7885791  66.8757320  26.0760872  73.4198551
  61.3497618  22.1483786  79.4180722  61.2117416  21.4164025  80.0192261
  62.2602542  22.0592687  79.1364910  70.3112566  24.0872191  64.1665201
  69.6941737  23.3619019  64.0698253  69.8429055  24.8481551  63.8232275
  63.9779919  21.8603746  78.9064402  64.6879538  21.2196938  78.8651020
  63.9349227  22.1116641  79.8290583  71.9666698  28.7971099  81.8270981
  71.9079244  28.1130319  81.1601564  72.3686216  29.5390089  81.3751607
  62.6908853  18.8468964  80.7260041  62.1546210  18.3959702  81.3781638
  62.1025562  18.9814873  79.9830506  60.9857397  35.6133013  74.6204700
  61.2253995  36.2451537  75.2983719  60.1426593  35.2621053  74.9070059
  62.1011112  18.3057615  63.2886505  61.2240578  18.1846416  62.9248752
  62.5768865  17.5143693  63.0365394  71.9684105  26.7610683  80.0584961
  71.0810884  26.4236605  80.1811360  72.5382656  26.0293714  80.2953726
  53.6213252  23.0934775  73.3828012  54.3084292  22.7796505  72.7949027
  53.4661381  23.9976139  73.1095264  58.4247974  17.9824971  77.8113036
  58.3406163  17.3750641  77.0763446  57.6030681  18.4733990  77.8122532
  65.4985258  31.4212135  77.0246204  65.4255430  32.2267107  77.5365509
  65.0562652  31.6204101  76.1994225  65.2875038  30.6583905  70.5349026
  64.5042560  31.2005586  70.6287250  65.9867783  31.1757885  70.9343267
  68.5971688  16.4678535  73.1783231  69.0940388  15.7148497  72.8584301
  67.8258670  16.5042852  72.6126440  76.4501446  22.1718900  74.8201522
  76.4391322  23.0543616  74.4495455  75.5818825  21.8190451  74.6256059
  67.9583942  31.3198969  79.1804363  68.6711914  31.9546434  79.1080264
  67.4673971  31.4162835  78.3644364  69.6801469  25.2250222  70.7521654
  68.7457748  25.3451685  70.5826359  69.8578137  24.3222689  70.4881664
  65.1806657  18.6095918  72.9054915  64.8104444  18.0566958  73.5935821
  65.6765749  18.0054051  72.3529916  73.0674020  21.0667541  71.2871688
  73.5334472  21.8995533  71.2131991  73.5181521  20.6012523  71.9916947
  63.0095856  29.0693413  80.0009933  63.7105315  29.7029896  80.1539328
  62.5390971  29.4108144  79.2405573  71.1350251  27.4111363  68.2857840
  71.4110095  27.2967957  69.1951715  70.2654750  27.0128848  68.2470014
  71.0390683  13.4348128  75.3262590  70.1253763  13.6652355  75.4944797
  71.4683784  13.5186572  76.1776622  70.8097141  21.6238020  77.8262484
  70.1568592  21.8713928  77.1714937  71.1877521  20.8102159  77.4924961
  67.7704315  31.6597714  71.9290654  67.9526710  30.8419369  72.3918406
  68.5937301  31.8765406  71.4915544  68.1046481  30.5865899  69.1905703
  68.6334247  30.0758353  68.5775865  68.3674700  30.2708429  70.0551236
  66.8584714  22.3657831  84.3128521  66.1825352  22.2651961  84.9830896
  67.6812348  22.2097045  84.7764518  58.6063574  28.6029768  76.9341036
  59.1917010  27.8573456  77.0668940  58.4088412  28.9133725  77.8177700
  61.4602229  31.6381015  71.9503479  60.7912604  32.1227143  71.4667519
  61.3215098  31.8850236  72.8646857  53.1981228  21.1735368  75.6545479
  53.2365328  20.6398959  76.4482597  52.6921521  20.6470574  75.0356456
  65.6007497  33.6724759  78.5486137  66.1525805  33.8356380  79.3135222
  65.9413691  34.2629197  77.8766162  60.5771991  16.0199909  79.1508022
  60.6413317  16.8814740  78.7385419  60.5139111  15.4073910  78.4180380
  60.0524263  18.0923041  82.7981056  60.6796302  17.7100119  83.4118580
  59.1952182  17.8737243  83.1636748  70.4518372  28.4986016  84.4034791
  70.9958276  29.1115975  83.9089746  69.8705217  29.0565595  84.9201804
  56.8289806  19.8999470  68.7299411  57.1243247  18.9910149  68.6766464
  55.9277842  19.8787210  68.4080413  68.7375885  31.6206734  75.5349819
  68.6127024  30.8196474  75.0260765  69.3954976  32.1152928  75.0463789
  60.3584053  17.9755467  74.7126959  59.6370639  18.5891435  74.5734433
  61.1477309  18.5113232  74.6343605  70.8010793  29.4215755  77.1629369
  69.8541129  29.3021106  77.0907696  71.1493566  28.5338253  77.2455631
  63.1610366  15.3109893  80.9867611  63.6844768  15.5572190  81.7493920
  62.9422700  16.1429928  80.5670748  58.5577647  17.5813568  68.8538736
  58.2290354  16.7010947  68.6713842  58.9117018  17.5261237  69.7415125
  67.8057226  29.2168471  73.3633721  67.6582189  28.2885178  73.5441291
  68.6310720  29.2388561  72.8790797  61.6719471  17.8686538  69.2214214
  62.0115543  18.3972459  68.4992822  62.1191591  18.2066944  69.9972780
  71.4091348  30.0397029  74.4498594  72.3337896  29.8339891  74.3123045
  71.2406652  29.7913431  75.3587936  64.3662911  16.2523589  78.6717282
  64.0259732  15.4531402  79.0737961  63.6601918  16.5525299  78.0994115
  65.0179383  13.3372901  77.1244605  65.8405453  12.8633379  77.0023495
  65.2617447  14.1163385  77.6243291  63.6587618  16.3661159  67.4207506
  64.3795980  16.7442412  66.9171223  63.0352922  17.0850036  67.5242484
  67.8018741  17.0706308  68.3565839  68.0182355  17.9530946  68.0554667
  67.3212808  16.6792522  67.6271481  62.5417962  20.0292022  74.9336583
  62.3962543  20.3432325  75.8260865  62.0643166  20.6476922  74.3807482
  64.4014345  17.0194570  74.9817473  64.3875914  16.1235663  74.6449771
  65.1186773  17.0265233  75.6155759  66.2540476  17.4531910  77.0270600
  65.9958253  18.3748980  77.0254931  65.7225516  17.0562344  77.7171064
  71.1986664  30.5582697  69.8060686  71.3723542  29.9929119  69.0534538
  71.6915556  31.3583592  69.6240176  57.0163624  22.5697366  77.8724244
  56.4717092  23.3457174  78.0044519  57.8942974  22.9168170  77.7143366
  63.8051241  15.9008950  70.2505043  63.9267152  14.9725596  70.4495930
  63.5153283  15.9147636  69.3383358  66.6742431  13.5863860  73.3871763
  66.6964128  13.6503193  72.4323742  67.0910490  12.7468369  73.5812269
  77.0526056  23.3219120  71.4250985  77.4957202  22.5726445  71.0270109
  76.1752566  23.3129256  71.0424717  72.1861837  29.8749461  66.9057584
  72.8812742  30.4956154  67.1244898  72.5284987  29.0244813  67.1809962
  57.8029646  21.6967262  80.7654401  57.0611382  21.8449898  81.3519032
  57.4822390  21.9575528  79.9021151  74.0853260  27.3249167  68.4344915
  74.6104584  27.6636440  67.7094235  73.9975613  26.3896182  68.2508049
  65.7473309  31.2383240  80.5634791  66.0560435  30.9932387  81.4357491
  66.5448791  31.4429879  80.0753661  65.7693921  33.3921150  72.7940168
  65.3298911  32.8997529  73.4873025  66.5202038  32.8494118  72.5532243
  58.2486260  29.5832691  72.7964796  59.0744280  29.2836463  72.4163439
  57.8980312  28.8140313  73.2454585  63.2167793  28.9359159  74.8662469
  62.5947802  28.2729864  74.5664697  63.8872660  28.9620291  74.1836117
  56.4494865  27.5019017  73.7553729  55.6126773  27.0741192  73.5737731
  56.4218510  27.6951461  74.6924521  63.2892320  17.4140947  84.4594975
  63.3380476  18.2903070  84.0772745  63.8314835  16.8718340  83.8866619
  73.7747166  27.9582070  83.7396113  72.9842710  27.9406209  83.2000612
  73.5380521  28.4970364  84.4945149  73.8945041  24.8074537  81.0528841
  73.9443046  24.6424544  81.9944364  73.7858964  23.9401796  80.6626722
  62.7781300  27.4863083  68.3420930  62.9269420  28.1698547  67.6887603
  63.5847743  27.4668173  68.8570386  71.1848804  20.7905465  82.3688148
  72.0858666  20.6511930  82.0772146  71.2596778  20.9559920  83.3086325
  65.5191609  18.1672320  81.2141334  64.6494918  18.4605886  80.9423923
  65.7551089  18.7512765  81.9348598  75.3963238  27.2271478  81.2970863
  75.1048046  27.5901459  82.1334324  74.7835369  26.5138487  81.1184195
  76.5958920  24.7924358  73.8173433  77.4305812  25.2314162  73.9810993
  76.7318049  24.3163011  72.9981679  73.6450426  22.3504093  79.7650921
  74.1204548  22.5431739  78.9569772  72.7215992  22.4063279  79.5194304
  60.5333933  23.5128260  69.3481999  60.2879975  22.6090590  69.5462209
  60.7029847  23.5145411  68.4061477  68.2230643  14.3851937  78.7306755
  68.7412587  15.1212963  78.4053243  67.8685775  14.6915930  79.5653514
  59.8029580  19.2456618  66.8468160  59.1098825  19.3200973  66.1908196
  59.5581332  18.4816961  67.3689677  68.4743237  10.8052219  74.2507651
  68.7544991  10.1375408  74.8768078  69.2593844  10.9981315  73.7382315
  66.2776705  29.9811213  65.8132677  65.7050672  30.6001400  65.3603149
  66.8509499  30.5310575  66.3472599  72.3452095  19.2269853  77.9979226
  73.2969518  19.3267951  78.0191450  72.1755546  18.4348122  78.5077311
  70.3666475  16.3125436  78.1838627  69.7716407  16.5930449  77.4885116
  70.0816171  16.8019337  78.9555368  69.4973965  30.2648363  66.9441260
  70.4304638  30.1993925  67.1474135  69.4097178  31.1004630  66.4855792
  72.1261982  29.5814233  63.9045207  72.0475613  29.2474097  64.7980965
  72.9471649  30.0736001  63.9036680  74.8240173  22.4475973  77.1121526
  74.7916493  21.5091973  77.2981210  75.4340797  22.5260009  76.3787351
  66.6623504  21.3172026  63.1548730  67.6082609  21.1878234  63.2237148
  66.2837749  20.5786688  63.6318158  74.9734661  19.2387016  77.1579809
  74.4573710  18.4545473  76.9709738  75.8574610  18.9105733  77.3226329
  72.6345388  12.9828032  73.1175622  72.4370210  12.6743120  74.0018954
  73.2445094  13.7089671  73.2473552  80.6416723  23.5091980  76.2527563
  81.3720111  23.2477268  76.8135266  80.0323668  22.7720702  76.2929631
  78.7232020  21.6499842  76.8502014  77.9965184  21.5155807  76.2418505
  78.3079307  21.9576671  77.6558732  66.5462196  25.3689772  84.6149387
  67.4665206  25.5468371  84.8089433  66.5111779  24.4245817  84.4629086
  64.8466421  19.2422002  63.0903615  63.9397876  18.9455115  63.1666329
  65.1242402  18.9451820  62.2237901  55.7644361  20.5628366  73.5402662
  55.4447146  19.7093674  73.2477036  55.2177790  20.7776944  74.2960629
  59.5424269  23.2790807  77.2572168  59.7610279  24.2107914  77.2760202
  59.9550043  22.9198781  78.0426972  66.4628487  13.7858892  69.2447856
  65.6529215  13.4405977  69.6203103  67.1512904  13.4766436  69.8335468
  68.3919035  12.8636939  70.8672153  68.9450074  13.2832392  71.5262176
  68.6289121  11.9372687  70.9095109  64.4152134  18.8524012  86.6474917
  64.3148861  19.8018369  86.5787008  64.1973676  18.5242251  85.7750987
  63.6165206  16.1008937  63.2315594  64.4784370  16.4263836  63.4911412
  63.8015550  15.3140433  62.7188660  55.6332621  24.1831277  75.5095783
  54.9396093  23.7685230  74.9965738  56.3805612  24.2251814  74.9129202
  71.7697842  14.9737464  70.3750817  71.1896511  15.6322268  69.9928870
  71.5033775  14.1514808  69.9638235  70.2201408  14.3742522  72.5772138
  70.7201187  14.4859056  71.7686457  70.8637016  14.0703574  73.2172946
  64.2783404  22.2821151  85.4639979  63.7950486  23.0821511  85.6703868
  64.3644343  22.2929096  84.5107423  57.5469364  24.1149531  73.3861798
  57.5240052  24.2137218  72.4343681  57.8570000  24.9614682  73.7078964
  60.2056742  26.1725686  77.5008412  61.1599995  26.1409628  77.4338344
  60.0069265  25.7116310  78.3158638  60.7956124  24.7426802  80.0679210
  61.6149013  25.2370881  80.0914047  61.0692932  23.8258770  80.0396778
  70.5522720  17.1337554  69.4307166  69.6648575  17.4187205  69.2127360
  70.9676709  16.9731318  68.5834443  73.9037256  17.1584075  73.1461505
  74.6797646  17.6480528  73.4186122  73.1785390  17.5842129  73.6033374
  76.3409815  17.8711694  74.2035445  76.9354306  17.6307430  73.4928754
  76.4136399  17.1518825  74.8308982  58.5606971  31.7145305  74.5178610
  58.4261438  30.9545706  73.9516608  58.1439033  32.4386205  74.0507399
  69.6965934  26.8982229  63.5255186  70.4001784  27.1032231  64.1412841
  68.9728582  27.4658991  63.7904269  70.5263744  22.6492090  69.6457456
  70.4698945  23.1060642  68.8065088  71.0792086  21.8882775  69.4680299
  74.3368550  18.4381822  70.4707575  74.0805484  18.0378458  71.3015783
  73.7121418  19.1525616  70.3457714  78.6480888  21.1777895  72.9778867
  78.0880446  21.2471085  73.7510429  78.0424391  21.0018880  72.2578363
  61.7176096  32.6114622  74.7297053  61.6008481  33.5560055  74.6275743
  60.8968543  32.3088184  75.1182852  71.6052631  27.3364758  65.5753646
  72.4398235  26.9045957  65.3931120  71.4436974  27.1646772  66.5030540
  71.2598523  23.8396871  66.9409985  71.2047327  23.6741143  65.9998429
  70.6344578  24.5472904  67.0972175  56.0491038  19.0764936  80.7671407
  56.6949902  18.5663890  81.2558632  55.8408189  19.8133617  81.3414832
  68.5744430  26.1445783  86.2663548  69.4435590  26.3186436  85.9050183
  68.0951182  26.9640200  86.1439277  64.5694649  13.3404980  66.5195303
  64.5573318  14.2846820  66.6763574  65.4618070  13.1575126  66.2254765
  62.7430611  33.2642884  77.9452981  63.6457857  33.2966495  78.2619476
  62.5167981  32.3343335  77.9599317  64.4984213  32.0173871  74.6063060
  63.5479844  32.0175732  74.4927432  64.8016699  31.2706605  74.0899095
  68.3846768   9.9347757  70.7741240  67.6179164   9.3806244  70.9197922
  68.7957473  10.0069626  71.6355392  60.3888529  16.2232553  84.8646421
  61.2519991  15.8669358  85.0749746  59.8153940  15.8846448  85.5521826
  80.2336906  37.8534409  75.6708822  80.8715316  37.7341157  74.9672162
  80.1157749  38.8015253  75.7296775  72.9013428  39.6597314  71.5967238
  72.3378293  39.5687251  70.8283526  72.7865823  38.8397218  72.0769731
  77.5246395  38.9596689  81.5656553  77.5135036  38.5649487  80.6937056
  77.6867035  38.2262762  82.1590324  70.4477860  41.1548505  74.4351458
  71.2399152  40.8139330  74.0197758  70.6874510  41.2643480  75.3553612
  78.4812987  43.3268281  66.9081703  77.8300967  43.9122362  66.5215717
  79.2757350  43.8574476  66.9676740  72.4068614  40.4157419  67.3068837
  73.1799490  39.8686406  67.1681713  72.7594013  41.2801668  67.5183299
  74.2453656  41.7433801  80.5135737  73.9543522  42.6479432  80.3982403
  74.8810641  41.7850328  81.2279806  75.1709863  39.1210649  77.1037096
  75.7673436  38.8966672  76.3894059  75.2284835  38.3795395  77.7062544
  74.7434892  36.5750085  64.9387287  74.9960412  36.0531606  64.1770750
  73.8059451  36.4116230  65.0413971  79.7878175  35.5785863  72.7462030
  80.5741264  35.1605286  72.3952447  80.0516879  36.4831955  72.9143679
  79.9588252  41.0158713  67.4450687  79.3234085  41.0893340  68.1571592
  79.6285658  41.6052312  66.7669766  85.1886602  35.5161096  73.6495009
  85.9211774  34.9460313  73.8832838  84.4325957  35.1282697  74.0901515
  74.4631180  38.4778191  67.1411662  74.3467439  37.8023094  67.8092746
  74.5733440  37.9910565  66.3243815  76.8062721  37.9388338  70.8458351
  76.4420929  37.4118959  71.5571273  77.6629837  37.5486807  70.6724837
  82.7112022  29.2282670  78.1089618  82.3795347  30.0978081  77.8850833
  82.1157635  28.9118954  78.7883648  76.4468208  32.9678237  65.8419700
  76.6142611  33.8358474  66.2090171  76.2565377  33.1305519  64.9180989
  72.6556023  37.8809013  73.5422235  71.7306520  37.7485227  73.7499926
  72.9040436  38.6603232  74.0392177  82.6040685  33.9477757  75.1882968
  81.6957563  33.8793165  74.8941729  82.5528281  34.4249701  76.0164793
  76.4257429  35.4235895  66.8266367  76.3057054  35.8692946  67.6651847
  75.7310018  35.7721213  66.2679905  70.0164834  37.5242287  74.3766024
  70.1457215  37.7776766  75.2905435  69.3362285  38.1169995  74.0570679
  76.6781551  35.3667402  83.1317865  75.9014885  35.9261322  83.1220730
  77.3172114  35.8524185  83.6532735  84.4702332  32.1494195  76.9660842
  83.8276712  32.4426728  76.3200636  83.9657260  32.0347115  77.7714038
  82.1242495  35.8957368  67.6546701  83.0360352  36.1284755  67.4794398
  81.6152142  36.4794412  67.0921779  74.9327923  38.1752855  82.6935832
  75.6742608  38.7137899  82.4170655  74.2264909  38.8019144  82.8507384
  80.4083263  40.3181996  81.2907993  80.8166619  39.8764406  80.5462626
  79.6860525  39.7434623  81.5442186  76.7614333  35.2554603  78.6641550
  77.6075528  35.6794016  78.8076199  76.7012971  34.5988227  79.3580113
  84.6101310  41.8137624  72.4004646  83.9252348  42.1936526  71.8501679
  84.6945159  42.4232951  73.1336594  79.9113778  32.9158971  80.3222724
  79.6674710  33.6701032  79.7857000  80.1873709  33.2944319  81.1569971
  79.4678470  32.0715404  75.9036562  78.6062949  32.3696658  76.1953299
  79.4940905  32.2885803  74.9717594  76.2840040  40.6157595  72.3110367
  76.7478385  40.8945298  71.5214990  76.0196838  39.7141039  72.1283458
  73.1764121  40.1629076  75.2490131  73.7465478  40.5916345  74.6107615
  73.7672233  39.8811661  75.9474316  75.2208926  36.7380747  69.1199932
  75.9232969  37.1901791  69.5873859  74.8889554  36.0964566  69.7479826
  73.6689287  35.3292504  83.4951142  73.0387948  36.0108784  83.7286539
  73.5625375  35.2175585  82.5504280  68.9634260  34.9964300  74.4217066
  68.1733314  35.2521828  73.9457177  69.4545507  35.8112638  74.5269107
  82.9798069  42.3369539  77.1722347  83.8015513  41.9349726  76.8905029
  82.9760472  42.2337773  78.1238463  70.9149005  35.3608879  71.3800543
  70.1180168  35.4727573  71.8984038  70.6874597  35.6995531  70.5141433
  76.7454673  41.8853582  79.3283057  76.8099105  42.3473989  80.1641229
  76.0365597  41.2550947  79.4565367  67.2471963  35.2494790  76.8532057
  67.4980001  36.1341800  77.1189633  67.7831511  35.0699392  76.0807149
  91.0704062  38.6808287  73.5207318  90.3167771  38.1115685  73.3651323
  91.2051603  38.6470952  74.4677953  76.4602690  43.5521690  69.1962038
  76.3248365  44.3973225  69.6246886  77.0012503  43.7540967  68.4327971
  72.9470030  29.6313269  85.8576393  72.5536975  29.0779468  86.5324037
  73.7636170  29.9423848  86.2482910  69.9132088  41.0697128  69.7689963
  70.4256608  41.8640378  69.9195527  70.5654800  40.3723418  69.7023564
  71.7226972  44.1862884  71.8512716  71.8993601  45.1080849  71.6633700
  72.5183806  43.8721303  72.2807096  75.8637991  31.0471149  83.4496649
  76.6047704  31.6478302  83.3701112  76.0955914  30.3048786  82.8914692
  71.0079329  36.2327516  81.7274879  70.8932844  35.3312773  82.0281978
  70.1523847  36.4791213  81.3759696  78.0871167  44.1745256  83.3262380
  77.6435021  43.3881635  83.0083284  78.7488380  44.3624407  82.6606271
  72.8458288  45.7041058  77.8523058  73.3965713  45.5758121  77.0800052
  72.0069764  46.0035947  77.5017951  80.1852405  44.4548056  81.3543781
  80.1670880  45.2756937  80.8624050  81.1072325  44.3302131  81.5793922
  79.8095154  27.0752252  77.7260931  79.4659423  27.9653893  77.6500042
  80.1774116  26.8853909  76.8630516  67.8781004  39.3985782  70.5449533
  68.7156226  39.8082790  70.3283241  68.0559272  38.4585224  70.5149727
  79.7745437  37.0660863  66.2333366  79.2592060  37.8365467  66.4721754
  79.5022745  36.3925999  66.8566428  77.3592548  31.9110563  71.2918605
  76.5034144  31.5217414  71.1124243  77.7719499  31.9902524  70.4318390
  78.8891694  29.4456907  75.6910164  78.3856490  29.4087042  74.8777970
  79.1822301  30.3549649  75.7506821  75.1334580  29.5295636  74.6976346
  75.9987577  29.3338445  74.3382236  75.2012089  29.3005988  75.6245703
  84.7479711  39.8193217  68.1686540  83.9709153  39.4804377  67.7241702
  85.4271192  39.8245840  67.4941505  79.5631740  34.9387955  68.0593147
  79.2581875  35.2534104  68.9103291  80.5162182  35.0169375  68.1020480
  78.0078172  41.0978178  69.7086101  77.4799533  40.3630938  69.3959339
  77.5065674  41.8752854  69.4626070  82.9871018  39.2927199  74.8253148
  82.3294692  39.9826460  74.9133276  83.7911417  39.6823630  75.1687134
  72.7396899  31.7597844  72.0692713  73.3140651  31.5373026  71.3365906
  73.3267882  31.8286539  72.8221314  81.7976476  37.6471571  72.8757089
  82.3108358  38.2801563  73.3778799  82.4477700  37.0472767  72.5100450
  73.0666486  33.7902305  66.0888598  72.2303799  34.1276992  66.4097873
  72.9271256  33.6551285  65.1515735  75.0419567  28.6339093  70.7967782
  74.3883979  28.3188110  70.1724397  75.0000041  28.0114834  71.5227605
  76.1530772  38.9158388  62.7121074  75.2457834  38.6847642  62.9112223
  76.6501804  38.1196008  62.8995056  79.0598851  47.6255895  65.6317761
  78.3860549  47.9287592  66.2402718  79.4464673  48.4284976  65.2823218
  78.2757307  35.1221027  75.1215430  77.3579869  35.3435974  74.9637118
  78.6917451  35.1967337  74.2627137  79.0592355  36.5212442  70.2518110
  79.8064174  37.0333840  69.9425232  79.3283945  36.1996495  71.1122504
  77.3319005  39.0170983  67.2345065  76.4230224  38.7330016  67.3317534
  77.3614089  39.4370062  66.3748371  81.5071192  33.5569559  72.2336900
  80.7693949  33.0446945  72.5647142  81.7597966  33.1169940  71.4220176
  81.0071212  44.4654069  71.9386050  81.2994186  45.0259126  71.2198416
  81.5169832  44.7582630  72.6939209  81.6082819  26.3345811  72.8278669
  81.9141696  25.4743174  72.5404584  82.3335424  26.9263431  72.6277663
  67.9007176  36.7376497  71.2160267  67.7031575  36.1445858  70.4911333
  67.3453840  36.4328707  71.9336206  75.8803899  36.6299604  73.3354860
  75.9352509  35.6773440  73.2597336  75.0695101  36.7859043  73.8196158
  77.0295093  40.5579727  64.5733143  76.5914523  39.8415586  64.1138780
  77.7705534  40.7855842  64.0118235  73.8196259  35.2476664  71.0945239
  73.0064125  35.5470834  71.5010431  74.3155253  34.8532352  71.8119721
  75.9704837  45.2434420  73.0279503  75.9281016  45.4695267  72.0988035
  76.8867536  45.0097795  73.1765305  79.4170471  35.7118488  79.9260133
  79.7719859  35.9389961  80.7854598  80.0642602  36.0436865  79.3037388
  73.3110334  32.8195019  76.7106474  73.9509713  32.6783778  76.0129437
  72.4787864  32.5329532  76.3345076  74.0870638  42.1197449  72.8241466
  74.8811236  41.6247770  72.6224041  73.3762330  41.5915313  72.4609172
  78.9065482  44.5015545  77.1753834  78.9602505  45.0706481  77.9431550
  78.0380264  44.6717430  76.8107871  70.3953401  36.2640531  68.9001219
  69.4650989  36.2024987  69.1171181  70.4910873  35.7416484  68.1037860
  70.3138950  32.7895344  71.4879461  70.5745768  33.7040677  71.3788621
  71.1356123  32.3219787  71.6376073  71.7863876  34.2033101  78.6578285
  72.4586929  33.9950463  78.0090934  70.9593662  34.0055187  78.2183517
  86.0353137  40.9437152  78.1753619  86.2289027  41.8482962  78.4212894
  85.9353755  40.4844571  79.0092204  77.6889448  30.8295042  80.6743946
  77.0417363  31.5284992  80.5808422  78.4590463  31.2631186  81.0420194
  81.0968246  41.0943894  83.7494499  80.9453752  40.8654446  82.8324583
  81.0872925  42.0514496  83.7625844  77.8653582  38.6675807  78.7340766
  78.7945642  38.8186967  78.5609733  77.4444612  38.7559828  77.8789412
  76.6641914  42.6926471  76.5039303  76.5253000  42.3245256  77.3765241
  75.8756510  43.2074111  76.3323261  77.2590066  47.7935568  67.8464840
  77.4341821  47.3223611  68.6610462  76.5722854  48.4201334  68.0746101
  78.2147129  42.0708074  73.8928141  77.8796962  42.0308844  74.7885791
  77.7151075  41.4052790  73.4198551  72.1891373  37.4775704  79.4180722
  72.0511171  36.7455943  80.0192261  73.0996296  37.3884604  79.1364910
  81.1506321  39.4164108  64.1665201  80.5335491  38.6910937  64.0698253
  80.6822809  40.1773469  63.8232275  82.8060452  44.1263017  81.8270981
  82.7472998  43.4422237  81.1601564  83.2079971  44.8682007  81.3751607
  73.5302608  34.1760881  80.7260041  72.9939965  33.7251620  81.3781638
  72.9419316  34.3106790  79.9830506  71.8251151  50.9424931  74.6204700
  72.0647749  51.5743455  75.2983719  70.9820348  50.5912971  74.9070059
  72.9404867  33.6349533  63.2886505  72.0634333  33.5138334  62.9248752
  73.4162620  32.8435611  63.0365394  82.8077860  42.0902601  80.0584961
  81.9204638  41.7528523  80.1811360  83.3776411  41.3585632  80.2953726
  64.4607007  38.4226693  73.3828012  65.1478047  38.1088423  72.7949027
  64.3055135  39.3268057  73.1095264  69.2641729  33.3116889  77.8113036
  69.1799918  32.7042559  77.0763446  68.4424435  33.8025907  77.8122532
  76.3379013  46.7504053  77.0246204  76.2649184  47.5559025  77.5365509
  75.8956406  46.9496019  76.1994225  76.1268793  45.9875823  70.5349026
  75.3436314  46.5297503  70.6287250  76.8261538  46.5049803  70.9343267
  79.4365443  31.7970453  73.1783231  79.9334142  31.0440415  72.8584301
  78.6652424  31.8334769  72.6126440  87.2895200  37.5010818  74.8201522
  87.2785076  38.3835534  74.4495455  86.4212580  37.1482369  74.6256059
  78.7977696  46.6490887  79.1804363  79.5105669  47.2838352  79.1080264
  78.3067725  46.7454753  78.3644364  80.5195223  40.5542140  70.7521654
  79.5851502  40.6743602  70.5826359  80.6971892  39.6514607  70.4881664
  76.0200411  33.9387836  72.9054915  75.6498199  33.3858876  73.5935821
  76.5159504  33.3345969  72.3529916  83.9067775  36.3959459  71.2871688
  84.3728227  37.2287451  71.2131991  84.3575275  35.9304441  71.9916947
  73.8489610  44.3985331  80.0009933  74.5499069  45.0321814  80.1539328
  73.3784725  44.7400062  79.2405573  81.9744006  42.7403280  68.2857840
  82.2503850  42.6259875  69.1951715  81.1048505  42.3420765  68.2470014
  81.8784437  28.7640046  75.3262590  80.9647517  28.9944273  75.4944797
  82.3077539  28.8478490  76.1776622  81.6490896  36.9529938  77.8262484
  80.9962346  37.2005846  77.1714937  82.0271276  36.1394076  77.4924961
  78.6098070  46.9889631  71.9290654  78.7920464  46.1711287  72.3918406
  79.4331056  47.2057323  71.4915544  78.9440235  45.9157816  69.1905703
  79.4728002  45.4050271  68.5775865  79.2068455  45.6000347  70.0551236
  77.6978469  37.6949749  84.3128521  77.0219106  37.5943878  84.9830896
  78.5206103  37.5388963  84.7764518  69.4457328  43.9321686  76.9341036
  70.0310765  43.1865374  77.0668940  69.2482167  44.2425642  77.8177700
  72.2995983  46.9672933  71.9503479  71.6306359  47.4519061  71.4667519
  72.1608853  47.2142153  72.8646857  64.0374983  36.5027286  75.6545479
  64.0759082  35.9690877  76.4482597  63.5315276  35.9762491  75.0356456
  76.4401252  49.0016677  78.5486137  76.9919560  49.1648298  79.3135222
  76.7807445  49.5921114  77.8766162  71.4165745  31.3491826  79.1508022
  71.4807072  32.2106657  78.7385419  71.3532865  30.7365828  78.4180380
  70.8918018  33.4214959  82.7981056  71.5190056  33.0392036  83.4118580
  70.0345936  33.2029161  83.1636748  81.2912126  43.8277934  84.4034791
  81.8352030  44.4407892  83.9089746  80.7098971  44.3857512  84.9201804
  67.6683560  35.2291388  68.7299411  67.9637001  34.3202066  68.6766464
  66.7671596  35.2079127  68.4080413  79.5769639  46.9498652  75.5349819
  79.4520779  46.1488392  75.0260765  80.2348730  47.4444845  75.0463789
  71.1977807  33.3047385  74.7126959  70.4764393  33.9183352  74.5734433
  71.9871063  33.8405149  74.6343605  74.0004121  30.6401811  80.9867611
  74.5238523  30.8864108  81.7493920  73.7816454  31.4721846  80.5670748
  69.3971402  32.9105486  68.8538736  69.0684108  32.0302865  68.6713842
  69.7510773  32.8553154  69.7415125  78.6450981  44.5460388  73.3633721
  78.4975943  43.6177096  73.5441291  79.4704474  44.5680479  72.8790797
  72.5113225  33.1978455  69.2214214  72.8509298  33.7264377  68.4992822
  72.9585346  33.5358862  69.9972780  82.2485103  45.3688947  74.4498594
  83.1731650  45.1631808  74.3123045  82.0800406  45.1205348  75.3587936
  75.2056666  31.5815506  78.6717282  74.8653486  30.7823319  79.0737961
  74.4995672  31.8817217  78.0994115  75.8573138  28.6664819  77.1244605
  76.6799207  28.1925297  77.0023495  76.1011201  29.4455302  77.6243291
  74.4981372  31.6953077  67.4207506  75.2189735  32.0734330  66.9171223
  73.8746676  32.4141954  67.5242484  78.6412495  32.3998226  68.3565839
  78.8576110  33.2822864  68.0554667  78.1606562  32.0084439  67.6271481
  73.3811717  35.3583939  74.9336583  73.2356297  35.6724242  75.8260865
  72.9036920  35.9768840  74.3807482  75.2408099  32.3486487  74.9817473
  75.2269668  31.4527581  74.6449771  75.9580528  32.3557151  75.6155759
  77.0934230  32.7823827  77.0270600  76.8352008  33.7040898  77.0254931
  76.5619270  32.3854262  77.7171064  82.0380419  45.8874615  69.8060686
  82.2117296  45.3221037  69.0534538  82.5309310  46.6875509  69.6240176
  67.8557379  37.8989284  77.8724244  67.3110847  38.6749092  78.0044519
  68.7336729  38.2460088  77.7143366  74.6444995  31.2300868  70.2505043
  74.7660907  30.3017514  70.4495930  74.3547038  31.2439553  69.3383358
  77.5136186  28.9155778  73.3871763  77.5357883  28.9795111  72.4323742
  77.9304245  28.0760287  73.5812269  83.0255591  45.2041379  66.9057584
  83.7206496  45.8248072  67.1244898  83.3678742  44.3536730  67.1809962
  68.6423401  37.0259180  80.7654401  67.9005137  37.1741815  81.3519032
  68.3216145  37.2867446  79.9021151  84.9247014  42.6541085  68.4344915
  85.4498339  42.9928357  67.7094235  84.8369367  41.7188100  68.2508049
  76.5867063  46.5675158  80.5634791  76.8954190  46.3224305  81.4357491
  77.3842545  46.7721797  80.0753661  76.6087675  48.7213068  72.7940168
  76.1692666  48.2289446  73.4873025  77.3595792  48.1786035  72.5532243
  69.0880014  44.9124609  72.7964796  69.9138034  44.6128381  72.4163439
  68.7374066  44.1432231  73.2454585  74.0561547  44.2651077  74.8662469
  73.4341557  43.6021782  74.5664697  74.7266414  44.2912209  74.1836117
  67.2888619  42.8310935  73.7553729  66.4520528  42.4033109  73.5737731
  67.2612265  43.0243378  74.6924521  74.1286075  32.7432865  84.4594975
  74.1774230  33.6194988  84.0772745  74.6708589  32.2010258  83.8866619
  84.6140921  43.2873988  83.7396113  83.8236464  43.2698127  83.2000612
  84.3774275  43.8262282  84.4945149  84.7338796  40.1366455  81.0528841
  84.7836801  39.9716462  81.9944364  84.6252719  39.2693714  80.6626722
  73.6175054  42.8155000  68.3420930  73.7663175  43.4990465  67.6887603
  74.4241498  42.7960090  68.8570386  82.0242558  36.1197383  82.3688148
  82.9252421  35.9803847  82.0772146  82.0990533  36.2851837  83.3086325
  76.3585363  33.4964237  81.2141334  75.4888673  33.7897803  80.9423923
  76.5944844  34.0804682  81.9348598  86.2356992  42.5563396  81.2970863
  85.9441801  42.9193377  82.1334324  85.6229124  41.8430404  81.1184195
  87.4352675  40.1216276  73.8173433  88.2699566  40.5606080  73.9810993
  87.5711804  39.6454929  72.9981679  84.4844181  37.6796011  79.7650921
  84.9598302  37.8723657  78.9569772  83.5609746  37.7355196  79.5194304
  71.3727687  38.8420178  69.3481999  71.1273729  37.9382508  69.5462209
  71.5423602  38.8437328  68.4061477  79.0624397  29.7143854  78.7306755
  79.5806341  30.4504881  78.4053243  78.7079530  30.0207848  79.5653514
  70.6423335  34.5748535  66.8468160  69.9492580  34.6492890  66.1908196
  70.3975087  33.8108879  67.3689677  79.3136991  26.1344137  74.2507651
  79.5938745  25.4667326  74.8768078  80.0987598  26.3273232  73.7382315
  77.1170460  45.3103131  65.8132677  76.5444427  45.9293318  65.3603149
  77.6903253  45.8602492  66.3472599  83.1845850  34.5561771  77.9979226
  84.1363273  34.6559868  78.0191450  83.0149300  33.7640039  78.5077311
  81.2060229  31.6417354  78.1838627  80.6110161  31.9222367  77.4885116
  80.9209926  32.1311255  78.9555368  80.3367720  45.5940281  66.9441260
  81.2698393  45.5285842  67.1474135  80.2490932  46.4296548  66.4855792
  82.9655736  44.9106151  63.9045207  82.8869368  44.5766015  64.7980965
  83.7865403  45.4027919  63.9036680  85.6633927  37.7767890  77.1121526
  85.6310248  36.8383891  77.2981210  86.2734551  37.8551927  76.3787351
  77.5017258  36.6463943  63.1548730  78.4476363  36.5170152  63.2237148
  77.1231503  35.9078605  63.6318158  85.8128416  34.5678934  77.1579809
  85.2967465  33.7837391  76.9709738  86.6968364  34.2397650  77.3226329
  83.4739143  28.3119949  73.1175622  83.2763964  28.0035038  74.0018954
  84.0838848  29.0381588  73.2473552  91.4810477  38.8383897  76.2527563
  92.2113866  38.5769185  76.8135266  90.8717423  38.1012619  76.2929631
  89.5625774  36.9791760  76.8502014  88.8358938  36.8447725  76.2418505
  89.1473061  37.2868588  77.6558732  75.6860175  34.5713920  63.0903615
  74.7791631  34.2747033  63.1666329  75.9636156  34.2743738  62.2237901
  66.6038116  35.8920283  73.5402662  66.2840900  35.0385591  73.2477036
  66.0571544  36.1068861  74.2960629  70.3818023  38.6082724  77.2572168
  70.6004033  39.5399832  77.2760202  70.7943797  38.2490699  78.0426972
  77.3022241  29.1150810  69.2447856  76.4922970  28.7697894  69.6203103
  77.9906658  28.8058353  69.8335468  79.2312789  28.1928856  70.8672153
  79.7843828  28.6124310  71.5262176  79.4682876  27.2664604  70.9095109
  75.2545889  34.1815930  86.6474917  75.1542616  35.1310287  86.5787008
  75.0367431  33.8534169  85.7750987  74.4558960  31.4300855  63.2315594
  75.3178124  31.7555753  63.4911412  74.6409304  30.6432351  62.7188660
  66.4726376  39.5123195  75.5095783  65.7789847  39.0977147  74.9965738
  67.2199367  39.5543731  74.9129202  82.6091597  30.3029381  70.3750817
  82.0290266  30.9614186  69.9928870  82.3427529  29.4806726  69.9638235
  81.0595163  29.7034439  72.5772138  81.5594941  29.8150974  71.7686457
  81.7030771  29.3995492  73.2172946  75.1177159  37.6113069  85.4639979
  74.6344240  38.4113429  85.6703868  75.2038098  37.6221014  84.5107423
  68.3863118  39.4441448  73.3861798  68.3633806  39.5429136  72.4343681
  68.6963755  40.2906599  73.7078964  71.0450496  41.5017604  77.5008412
  71.9993750  41.4701546  77.4338344  70.8463020  41.0408227  78.3158638
  81.3916475  32.4629472  69.4307166  80.5042330  32.7479122  69.2127360
  81.8070464  32.3023235  68.5834443  84.7431011  32.4875993  73.1461505
  85.5191401  32.9772445  73.4186122  84.0179145  32.9134047  73.6033374
  87.1803569  33.2003612  74.2035445  87.7748060  32.9599348  73.4928754
  87.2530153  32.4810743  74.8308982  69.4000725  47.0437223  74.5178610
  69.2655193  46.2837624  73.9516608  68.9832787  47.7678123  74.0507399
  80.5359688  42.2274147  63.5255186  81.2395538  42.4324149  64.1412841
  79.8122337  42.7950908  63.7904269  81.3657498  37.9784008  69.6457456
  81.3092700  38.4352559  68.8065088  81.9185841  37.2174692  69.4680299
  85.1762304  33.7673740  70.4707575  84.9199238  33.3670375  71.3015783
  84.5515172  34.4817534  70.3457714  89.4874642  36.5069813  72.9778867
  88.9274200  36.5763002  73.7510429  88.8818145  36.3310798  72.2578363
  72.5569851  47.9406540  74.7297053  72.4402235  48.8851973  74.6275743
  71.7362297  47.6380102  75.1182852  82.4446385  42.6656676  65.5753646
  83.2791989  42.2337874  65.3931120  82.2830728  42.4938689  66.5030540
  82.0992278  39.1688789  66.9409985  82.0441081  39.0033060  65.9998429
  81.4738333  39.8764822  67.0972175  66.8884793  34.4056853  80.7671407
  67.5343656  33.8955807  81.2558632  66.6801944  35.1425535  81.3414832
  79.4138185  41.4737701  86.2663548  80.2829344  41.6478353  85.9050183
  78.9344936  42.2932118  86.1439277  75.4088403  28.6696898  66.5195303
  75.3967073  29.6138738  66.6763574  76.3011825  28.4867043  66.2254765
  73.5824365  48.5934802  77.9452981  74.4851612  48.6258412  78.2619476
  73.3561735  47.6635253  77.9599317  75.3377967  47.3465788  74.6063060
  74.3873598  47.3467650  74.4927432  75.6410453  46.5998523  74.0899095
  79.2240523  25.2639675  70.7741240  78.4572918  24.7098161  70.9197922
  79.6351228  25.3361543  71.6355392  71.2282284  31.5524470  84.8646421
  72.0913745  31.1961275  85.0749746  70.6547694  31.2138365  85.5521826
  87.8820367  53.1353755  75.6070347  87.5438878  53.0194820  74.7190882
  88.7510135  52.7344920  75.5871353  83.7407183  54.9889231  71.5967238
  83.1772048  54.8979168  70.8283526  83.6259578  54.1689136  72.0769731
  88.3640150  54.2888607  81.5656553  88.3528791  53.8941405  80.6937056
  88.5260789  53.5554679  82.1590324  81.2871614  56.4840423  74.4351458
  82.0792906  56.1431248  74.0197758  81.5268265  56.5935398  75.3553612
  89.3206741  58.6560199  66.9081703  88.6694721  59.2414279  66.5215717
  90.1151104  59.1866394  66.9676740  83.2462368  55.7449336  67.3068837
  84.0193244  55.1978323  67.1681713  83.5987767  56.6093586  67.5183299
  85.0847411  57.0725718  80.5135737  84.7937277  57.9771349  80.3982403
  85.7204395  57.1142246  81.2279806  86.0103618  54.4502567  77.1037096
  86.6067190  54.2258589  76.3894059  86.0678589  53.7087312  77.7062544
  85.5828646  51.9042002  64.9387287  85.8354167  51.3823524  64.1770750
  84.6453205  51.7408148  65.0413971  90.6271929  50.9077781  72.7462030
  91.4135018  50.4897204  72.3952447  90.8910633  51.8123873  72.9143679
  90.7982006  56.3450631  67.4450687  90.1627839  56.4185258  68.1571592
  90.4679413  56.9344230  66.7669766  96.0280356  50.8453014  73.6495009
  96.7605528  50.2752231  73.8832838  95.2719712  50.4574614  74.0901515
  85.3024935  53.8070108  67.1411662  85.1861193  53.1315012  67.8092746
  85.4127195  53.3202482  66.3243815  87.6456476  53.2680255  70.8458351
  87.2814683  52.7410876  71.5571273  88.5023592  52.8778724  70.6724837
  93.5505777  44.5574588  78.1089618  93.2189101  45.4269999  77.8850833
  92.9551390  44.2410872  78.7883648  87.2861963  48.2970155  65.8419700
  87.4536365  49.1650392  66.2090171  87.0959132  48.4597437  64.9180989
  90.0437296  56.7587134  77.5085530  89.7438019  57.6612173  77.4001338
  89.6988356  56.4919317  78.3606683  83.4949778  53.2100931  73.5422235
  82.5700274  53.0777145  73.7499926  83.7434191  53.9895150  74.0392177
  93.4434440  49.2769674  75.1882968  92.5351317  49.2085083  74.8941729
  93.3922036  49.7541619  76.0164793  87.2651184  50.7527813  66.8266367
  87.1450809  51.1984863  67.6651847  86.5703772  51.1013130  66.2679905
  80.8558589  52.8534204  74.3766024  80.9850970  53.1068683  75.2905435
  80.1756040  53.4461912  74.0570679  85.0258076  63.5231454  70.4756498
  84.9482106  64.4739279  70.5544979  84.4219719  63.1777327  71.1331424
  87.5175306  50.6959320  83.1317865  86.7408640  51.2553240  83.1220730
  88.1565869  51.1816103  83.6532735  95.3096086  47.4786113  76.9660842
  94.6670466  47.7718646  76.3200636  94.8051015  47.3639033  77.7714038
  92.9636250  51.2249286  67.6546701  93.8754106  51.4576673  67.4794398
  92.4545897  51.8086330  67.0921779  85.7721678  53.5044773  82.6935832
  86.5136362  54.0429817  82.4170655  85.0658663  54.1311062  82.8507384
  91.2477018  55.6473914  81.2907993  91.6560374  55.2056324  80.5462626
  90.5254279  55.0726541  81.5442186  87.6008088  50.5846520  78.6641550
  88.4469283  51.0085934  78.8076199  87.5406725  49.9280145  79.3580113
  91.5705832  56.2075104  75.0460282  90.9414695  56.3720818  74.3436350
  91.1831494  56.6216714  75.8171246  95.4495064  57.1429542  72.4004646
  94.7646102  57.5228443  71.8501679  95.5338913  57.7524869  73.1336594
  90.7507533  48.2450889  80.3222724  90.5068465  48.9992949  79.7857000
  91.0267463  48.6236236  81.1569971  92.7045996  54.7889501  78.9999990
  92.9162891  55.4321261  78.3234371  92.6575744  53.9551818  78.5321920
  90.3072225  47.4007322  75.9036562  89.4456704  47.6988575  76.1953299
  90.3334659  47.6177721  74.9717594  87.1233794  55.9449512  72.3110367
  87.5872140  56.2237215  71.5214990  86.8590592  55.0432957  72.1283458
  84.0157875  55.4920994  75.2490131  84.5859232  55.9208262  74.6107615
  84.6065987  55.2103579  75.9474316  86.0602680  52.0672665  69.1199932
  86.7626723  52.5193708  69.5873859  85.7283309  51.4256484  69.7479826
  84.5083042  50.6584421  83.4951142  83.8781702  51.3400702  83.7286539
  84.4019130  50.5467503  82.5504280  79.8028014  50.3256217  74.4217066
  79.0127068  50.5813746  73.9457177  80.2939261  51.1404555  74.5269107
  93.8191824  57.6661457  77.1722347  94.6409267  57.2641644  76.8905029
  93.8154227  57.5629691  78.1238463  81.7542759  50.6900797  71.3800543
  80.9573923  50.8019491  71.8984038  81.5268352  51.0287449  70.5141433
  87.5848427  57.2145500  79.3283057  87.6492860  57.6765907  80.1641229
  86.8759351  56.5842865  79.4565367  78.0865717  50.5786708  76.8532057
  78.3373756  51.4633718  77.1189633  78.6225265  50.3991309  76.0807149
 101.9097817  54.0100205  73.5207318 101.1561525  53.4407603  73.3651323
 102.0445358  53.9762870  74.4677953  87.2996445  58.8813607  69.1962038
  87.1642120  59.7265143  69.6246886  87.8406257  59.0832885  68.4327971
  83.7863784  44.9605187  85.8576393  83.3930730  44.4071386  86.5324037
  84.6029925  45.2715766  86.2482910  82.5620727  59.5154802  71.8512716
  82.7387355  60.4372766  71.6633700  83.3577560  59.2013221  72.2807096
  86.7031745  46.3763066  83.4496649  87.4441459  46.9770219  83.3701112
  86.9349668  45.6340704  82.8914692  81.8473083  51.5619434  81.7274879
  81.7326599  50.6604691  82.0281978  80.9917601  51.8083130  81.3759696
  88.9264921  59.5037174  83.3262380  88.4828775  58.7173552  83.0083284
  89.5882135  59.6916324  82.6606271  83.6852042  61.0332975  77.8523058
  84.2359467  60.9050039  77.0800052  82.8463518  61.3327864  77.5017951
  91.0246159  59.7839974  81.3543781  91.0064635  60.6048855  80.8624050
  91.9466079  59.6594049  81.5793922  87.4819213  57.2984103  82.1967289
  88.0147550  56.5372391  81.9666597  86.9533294  57.0057755  82.9391444
  90.6488908  42.4044169  77.7260931  90.3053178  43.2945811  77.6500042
  91.0167871  42.2145827  76.8630516  88.1986302  47.2402481  71.2918605
  87.3427898  46.8509331  71.1124243  88.6113254  47.3194442  70.4318390
  89.7285449  44.7748824  75.6910164  89.2250244  44.7378960  74.8777970
  90.0216056  45.6841567  75.7506821  90.4025494  50.2679872  68.0593147
  90.0975630  50.5826022  68.9103291  91.3555936  50.3461292  68.1020480
  88.8471926  56.4270096  69.7086101  88.3193288  55.6922855  69.3959339
  88.3459429  57.2044772  69.4626070  83.5790654  47.0889762  72.0692713
  84.1534406  46.8664943  71.3365906  84.1661636  47.1578456  72.8221314
  92.6370231  52.9763489  72.8757089  93.1502113  53.6093481  73.3778799
  93.2871455  52.3764684  72.5100450  83.9060241  49.1194223  66.0888598
  83.0697553  49.4568910  66.4097873  83.7665010  48.9843203  65.1515735
  86.9924526  54.2450306  62.7121074  86.0851588  54.0139559  62.9112223
  87.4895558  53.4487925  62.8995056  89.8992605  62.9547813  65.6317761
  89.2254304  63.2579510  66.2402718  90.2858427  63.7576894  65.2823218
  89.1151062  50.4512944  75.1215430  88.1973623  50.6727891  74.9637118
  89.5311205  50.5259255  74.2627137  89.8986110  51.8504360  70.2518110
  90.6457928  52.3625757  69.9425232  90.1677699  51.5288413  71.1122504
  88.1712760  54.3462901  67.2345065  87.2623979  54.0621934  67.3317534
  88.2007843  54.7661979  66.3748371  93.4032027  57.9569490  71.0036232
  92.9494354  57.1160400  71.0601423  92.7725994  58.5930889  71.3411012
  92.3464947  48.8861476  72.2336900  91.6087703  48.3738863  72.5647142
  92.5991720  48.4461858  71.4220176  91.8464966  59.7945987  71.9386050
  92.1387941  60.3551044  71.2198416  92.3563587  60.0874548  72.6939209
  92.4476574  41.6637728  72.8278669  92.7535451  40.8035092  72.5404584
  93.1729179  42.2555349  72.6277663  78.7400930  52.0668415  71.2160267
  78.5425330  51.4737776  70.4911333  78.1847594  51.7620625  71.9336206
  86.7197654  51.9591521  73.3354860  86.7746264  51.0065358  73.2597336
  85.9088856  52.1150961  73.8196158  87.8688847  55.8871645  64.5733143
  87.4308277  55.1707503  64.1138780  88.6099288  56.1147759  64.0118235
  84.6590014  50.5768581  71.0945239  83.8457879  50.8762752  71.5010431
  85.1549008  50.1824270  71.8119721  86.8098592  60.5726338  73.0279503
  86.7674770  60.7987184  72.0988035  87.7261290  60.3389713  73.1765305
  95.9861962  54.1628842  70.6309462  95.8479861  54.3530438  69.7030651
  95.6298181  54.9248224  71.0877513  84.1504088  48.1486937  76.7106474
  84.7903468  48.0075696  76.0129437  83.3181619  47.8621450  76.3345076
  96.0131342  56.2305369  75.6420733  96.4467849  56.1380658  76.4903787
  96.7262923  56.2062869  75.0040749  84.9264392  57.4489367  72.8241466
  85.7204991  56.9539687  72.6224041  84.2156085  56.9207230  72.4609172
  89.7459237  59.8307463  77.1753834  89.7996259  60.3998399  77.9431550
  88.8774018  60.0009348  76.8107871  81.2347156  51.5932449  68.9001219
  80.3044744  51.5316904  69.1171181  81.3304628  51.0708402  68.1037860
  81.1532705  48.1187262  71.4879461  81.4139522  49.0332595  71.3788621
  81.9749877  47.6511704  71.6376073  82.6257630  49.5325019  78.6578285
  83.2980684  49.3242381  78.0090934  81.7987417  49.3347105  78.2183517
  96.8746891  56.2729069  78.1753619  97.0682782  57.1774880  78.4212894
  96.7747510  55.8136488  79.0092204  88.5283202  46.1586960  80.6743946
  87.8811117  46.8576909  80.5808422  89.2984218  46.5923104  81.0420194
  91.9362000  56.4235812  83.7494499  91.7847507  56.1946364  82.8324583
  91.9266680  57.3806413  83.7625844  87.5035668  58.0218389  76.5039303
  87.3646754  57.6537174  77.3765241  86.7150265  58.5366029  76.3323261
  88.0983820  63.1227486  67.8464840  88.2735576  62.6515529  68.6610462
  87.4116608  63.7493252  68.0746101  89.0540883  57.3999992  73.8928141
  88.7190716  57.3600762  74.7885791  88.5544829  56.7344708  73.4198551
  83.0285127  52.8067622  79.4180722  82.8904925  52.0747861  80.0192261
  83.9390051  52.7176522  79.1364910  91.9900075  54.7456026  64.1665201
  91.3729246  54.0202854  64.0698253  91.5216564  55.5065386  63.8232275
  93.6454207  59.4554935  81.8270981  93.5866753  58.7714155  81.1601564
  94.0473725  60.1973925  81.3751607  84.3696362  49.5052799  80.7260041
  83.8333719  49.0543538  81.3781638  83.7813071  49.6398708  79.9830506
  83.7798621  48.9641450  63.2886505  82.9028087  48.8430251  62.9248752
  84.2556374  48.1727529  63.0365394  93.6471614  57.4194518  80.0584961
  92.7598393  57.0820440  80.1811360  94.2170165  56.6877550  80.2953726
  80.1035483  48.6408807  77.8113036  80.0193672  48.0334476  77.0763446
  79.2818190  49.1317825  77.8122532  87.1772767  62.0795971  77.0246204
  87.1042939  62.8850942  77.5365509  86.7350161  62.2787937  76.1994225
  86.9662547  61.3167741  70.5349026  86.1830069  61.8589421  70.6287250
  87.6655292  61.8341720  70.9343267  90.2759197  47.1262370  73.1783231
  90.7727897  46.3732333  72.8584301  89.5046179  47.1626687  72.6126440
  98.1288955  52.8302736  74.8201522  98.1178831  53.7127451  74.4495455
  97.2606334  52.4774287  74.6256059  89.6371451  61.9782805  79.1804363
  90.3499423  62.6130270  79.1080264  89.1461480  62.0746671  78.3644364
  91.3588978  55.8834058  70.7521654  90.4245257  56.0035520  70.5826359
  91.5365646  54.9806524  70.4881664  86.8594166  49.2679753  72.9054915
  86.4891953  48.7150794  73.5935821  87.3553258  48.6637887  72.3529916
  94.7461529  51.7251377  71.2871688  95.2121981  52.5579368  71.2131991
  95.1969030  51.2596358  71.9916947  84.6883364  59.7277248  80.0009933
  85.3892824  60.3613731  80.1539328  84.2178479  60.0691980  79.2405573
  92.8137760  58.0695198  68.2857840  93.0897604  57.9551793  69.1951715
  91.9442259  57.6712683  68.2470014  92.7178192  44.0931964  75.3262590
  91.8041272  44.3236191  75.4944797  93.1471293  44.1770408  76.1776622
  92.4884650  52.2821856  77.8262484  91.8356101  52.5297763  77.1714937
  92.8665030  51.4685994  77.4924961  89.4491824  62.3181549  71.9290654
  89.6314219  61.5003205  72.3918406  90.2724810  62.5349241  71.4915544
  89.7833990  61.2449734  69.1905703  90.3121756  60.7342189  68.5775865
  90.0462209  60.9292264  70.0551236  88.5372223  53.0241667  84.3128521
  87.8612860  52.9235796  84.9830896  89.3599857  52.8680881  84.7764518
  80.2851083  59.2613603  76.9341036  80.8704519  58.5157291  77.0668940
  80.0875921  59.5717560  77.8177700  83.1389738  62.2964851  71.9503479
  82.4700113  62.7810978  71.4667519  83.0002607  62.5434071  72.8646857
  74.8768737  51.8319204  75.6545479  74.9152837  51.2982794  76.4482597
  74.3709030  51.3054409  75.0356456  87.2795006  64.3308594  78.5486137
  87.8313314  64.4940216  79.3135222  87.6201200  64.9213032  77.8766162
  82.2559500  46.6783744  79.1508022  82.3200826  47.5398575  78.7385419
  82.1926620  46.0657746  78.4180380  81.7311772  48.7506877  82.7981056
  82.3583811  48.3683954  83.4118580  80.8739691  48.5321079  83.1636748
  92.1305881  59.1569852  84.4034791  92.6745785  59.7699810  83.9089746
  91.5492726  59.7149430  84.9201804  78.5077315  50.5583306  68.7299411
  78.8030756  49.6493984  68.6766464  77.6065351  50.5371045  68.4080413
  90.4163394  62.2790570  75.5349819  90.2914533  61.4780310  75.0260765
  91.0742485  62.7736763  75.0463789  82.0371562  48.6339302  74.7126959
  81.3158148  49.2475270  74.5734433  82.8264818  49.1697067  74.6343605
  92.4798302  60.0799590  77.1629369  91.5328638  59.9604941  77.0907696
  92.8281075  59.1922088  77.2455631  80.2365156  48.2397403  68.8538736
  79.9077863  47.3594782  68.6713842  80.5904527  48.1845072  69.7415125
  89.4844735  59.8752306  73.3633721  89.3369698  58.9469013  73.5441291
  90.3098229  59.8972397  72.8790797  83.3506980  48.5270373  69.2214214
  83.6903052  49.0556294  68.4992822  83.7979100  48.8650779  69.9972780
  93.0878857  60.6980865  74.4498594  94.0125405  60.4923726  74.3123045
  92.9194161  60.4497266  75.3587936  86.0450420  46.9107424  78.6717282
  85.7047241  46.1115237  79.0737961  85.3389427  47.2109135  78.0994115
  86.6966892  43.9956736  77.1244605  87.5192962  43.5217214  77.0023495
  86.9404956  44.7747220  77.6243291  84.2205471  50.6875857  74.9336583
  84.0750052  51.0016160  75.8260865  83.7430675  51.3060757  74.3807482
  86.0801854  47.6778405  74.9817473  86.0663423  46.7819498  74.6449771
  86.7974282  47.6849069  75.6155759  92.8774173  61.2166532  69.8060686
  93.0511051  60.6512955  69.0534538  93.3703065  62.0167427  69.6240176
  78.6951133  53.2281201  77.8724244  78.1504601  54.0041009  78.0044519
  79.5730483  53.5752006  77.7143366  85.4838750  46.5592785  70.2505043
  85.6054661  45.6309431  70.4495930  85.1940792  46.5731471  69.3383358
  88.3529940  44.2447696  73.3871763  88.3751637  44.3087029  72.4323742
  88.7697999  43.4052204  73.5812269  98.7313565  53.9802955  71.4250985
  99.1744711  53.2310280  71.0270109  97.8540075  53.9713092  71.0424717
  93.8649346  60.5333297  66.9057584  94.5600250  61.1539989  67.1244898
  94.2072496  59.6828648  67.1809962  79.4817155  52.3551098  80.7654401
  78.7398891  52.5033733  81.3519032  79.1609899  52.6159363  79.9021151
  95.7640769  57.9833002  68.4344915  96.2892093  58.3220275  67.7094235
  95.6763122  57.0480018  68.2508049  87.4260818  61.8967076  80.5634791
  87.7347944  61.6516223  81.4357491  88.2236300  62.1013714  80.0753661
  87.4481430  64.0504985  72.7940168  87.0086420  63.5581364  73.4873025
  88.1989547  63.5077953  72.5532243  79.9273769  60.2416526  72.7964796
  80.7531789  59.9420298  72.4163439  79.5767821  59.4724149  73.2454585
  84.8955302  59.5942995  74.8662469  84.2735311  58.9313700  74.5664697
  85.5660169  59.6204126  74.1836117  78.1282374  58.1602853  73.7553729
  77.2914282  57.7325027  73.5737731  78.1006019  58.3535296  74.6924521
  84.9679829  48.0724783  84.4594975  85.0167985  48.9486905  84.0772745
  85.5102344  47.5302176  83.8866619  95.4534675  58.6165906  83.7396113
  94.6630219  58.5990045  83.2000612  95.2168030  59.1554200  84.4945149
  95.5732550  55.4658372  81.0528841  95.6230555  55.3008380  81.9944364
  95.4646473  54.5985631  80.6626722  84.4568809  58.1446918  68.3420930
  84.6056929  58.8282382  67.6887603  85.2635252  58.1252008  68.8570386
  92.8636312  51.4489300  82.3688148  93.7646175  51.3095765  82.0772146
  92.9384287  51.6143755  83.3086325  97.0750747  57.8855314  81.2970863
  96.7835555  58.2485294  82.1334324  96.4622878  57.1722322  81.1184195
  98.2746429  55.4508194  73.8173433  99.1093321  55.8897998  73.9810993
  98.4105558  54.9746847  72.9981679  95.3237935  53.0087928  79.7650921
  95.7992057  53.2015575  78.9569772  94.4003501  53.0647114  79.5194304
  82.2121442  54.1712096  69.3481999  81.9667484  53.2674426  69.5462209
  82.3817356  54.1729246  68.4061477  89.9018152  45.0435772  78.7306755
  90.4200096  45.7796799  78.4053243  89.5473284  45.3499765  79.5653514
  81.4817089  49.9040453  66.8468160  80.7886334  49.9784808  66.1908196
  81.2368841  49.1400797  67.3689677  87.9564214  60.6395048  65.8132677
  87.3838181  61.2585235  65.3603149  88.5297008  61.1894410  66.3472599
  94.0239604  49.8853688  77.9979226  94.9757027  49.9851786  78.0191450
  93.8543055  49.0931957  78.5077311  92.0453984  46.9709272  78.1838627
  91.4503916  47.2514284  77.4885116  91.7603680  47.4603173  78.9555368
  91.1761474  60.9232198  66.9441260  92.1092147  60.8577760  67.1474135
  91.0884687  61.7588465  66.4855792  93.8049491  60.2398069  63.9045207
  93.7263122  59.9057932  64.7980965  94.6259158  60.7319837  63.9036680
  96.5027682  53.1059808  77.1121526  96.4704002  52.1675809  77.2981210
  97.1128306  53.1843845  76.3787351  88.3411013  51.9755861  63.1548730
  89.2870118  51.8462069  63.2237148  87.9625258  51.2370523  63.6318158
  96.6522170  49.8970852  77.1579809  96.1361219  49.1129308  76.9709738
  97.5362119  49.5689568  77.3226329 102.3204232  54.1675815  76.2527563
 103.0507620  53.9061103  76.8135266 101.7111177  53.4304537  76.2929631
 100.4019529  52.3083678  76.8502014  99.6752693  52.1739642  76.2418505
  99.9866816  52.6160506  77.6558732  88.2249705  56.0273607  84.6149387
  89.1452715  56.2052206  84.8089433  88.1899288  55.0829653  84.4629086
  86.5253930  49.9005837  63.0903615  85.6185385  49.6038950  63.1666329
  86.8029911  49.6035656  62.2237901  77.4431870  51.2212201  73.5402662
  77.1234655  50.3677509  73.2477036  76.8965299  51.4360779  74.2960629
  81.2211778  53.9374642  77.2572168  81.4397788  54.8691750  77.2760202
  81.6337552  53.5782616  78.0426972  88.1415996  44.4442727  69.2447856
  87.3316724  44.0989812  69.6203103  88.8300413  44.1350271  69.8335468
  86.0939643  49.5107848  86.6474917  85.9936370  50.4602205  86.5787008
  85.8761185  49.1826087  85.7750987  85.2952715  46.7592773  63.2315594
  86.1571879  47.0847671  63.4911412  85.4803059  45.9724269  62.7188660
  77.3120130  54.8415112  75.5095783  76.6183602  54.4269065  74.9965738
  78.0593121  54.8835649  74.9129202  91.8988917  45.0326357  72.5772138
  92.3988696  45.1442891  71.7686457  92.5424525  44.7287410  73.2172946
  85.9570913  52.9404986  85.4639979  85.4737995  53.7405347  85.6703868
  86.0431852  52.9512931  84.5107423  79.2256873  54.7733366  73.3861798
  79.2027561  54.8721053  72.4343681  79.5357509  55.6198517  73.7078964
  81.8844251  56.8309521  77.5008412  82.8387504  56.7993464  77.4338344
  81.6856774  56.3700145  78.3158638  82.4743633  55.4010637  80.0679210
  83.2936522  55.8954716  80.0914047  82.7480441  54.4842605  80.0396778
  95.5824765  47.8167911  73.1461505  96.3585155  48.3064363  73.4186122
  94.8572899  48.2425965  73.6033374  98.0197324  48.5295530  74.2035445
  98.6141815  48.2891266  73.4928754  98.0923908  47.8102660  74.8308982
  80.2394480  62.3729141  74.5178610  80.1048947  61.6129542  73.9516608
  79.8226542  63.0970041  74.0507399  96.0156059  49.0965657  70.4707575
  95.7592993  48.6962293  71.3015783  95.3908927  49.8109451  70.3457714
 100.3268397  51.8361731  72.9778867  99.7667955  51.9054920  73.7510429
  99.7211900  51.6602715  72.2578363  83.3963605  63.2698458  74.7297053
  83.2795990  64.2143890  74.6275743  82.5756052  62.9672019  75.1182852
  93.2840140  57.9948593  65.5753646  94.1185744  57.5629792  65.3931120
  93.1224483  57.8230607  66.5030540  92.9386032  54.4980707  66.9409985
  92.8834836  54.3324978  65.9998429  92.3132087  55.2056740  67.0972175
  77.7278547  49.7348771  80.7671407  78.3737411  49.2247725  81.2558632
  77.5195698  50.4717453  81.3414832  90.2531939  56.8029619  86.2663548
  91.1223099  56.9770271  85.9050183  89.7738691  57.6224035  86.1439277
  86.2482158  43.9988816  66.5195303  86.2360827  44.9430656  66.6763574
  87.1405579  43.8158961  66.2254765  84.4218120  63.9226720  77.9452981
  85.3245366  63.9550330  78.2619476  84.1955490  62.9927171  77.9599317
  86.1771722  62.6757706  74.6063060  85.2267353  62.6759568  74.4927432
  86.4804208  61.9290441  74.0899095  90.0634277  40.5931592  70.7741240
  89.2966673  40.0390079  70.9197922  90.4744982  40.6653461  71.6355392
  82.0676038  46.8816388  84.8646421  82.9307500  46.5253193  85.0749746
  81.4941449  46.5430283  85.5521826 101.9124415  68.5118245  75.6708822
 102.5502825  68.3924992  74.9672162 101.7945258  69.4599088  75.7296775
  98.7214121  68.4645673  75.6070347  98.3832633  68.3486737  74.7190882
  99.5903890  68.0636838  75.5871353  94.5800937  70.3181149  71.5967238
  94.0165802  70.2271086  70.8283526  94.4653332  69.4981054  72.0769731
  99.2033904  69.6180524  81.5656553  99.1922545  69.2233323  80.6937056
  99.3654544  68.8846597  82.1590324  92.1265369  71.8132341  74.4351458
  92.9186661  71.4723165  74.0197758  92.3662019  71.9227316  75.3553612
 100.1600496  73.9852117  66.9081703  99.5088475  74.5706197  66.5215717
 100.9544859  74.5158312  66.9676740  94.0856123  71.0741254  67.3068837
  94.8586999  70.5270241  67.1681713  94.4381522  71.9385503  67.5183299
  95.9241165  72.4017636  80.5135737  95.6331031  73.3063267  80.3982403
  96.5598150  72.4434164  81.2279806  96.8497372  69.7794485  77.1037096
  97.4460945  69.5550507  76.3894059  96.9072344  69.0379230  77.7062544
  96.4222401  67.2333920  64.9387287  96.6747921  66.7115441  64.1770750
  95.4846960  67.0700065  65.0413971 101.4665684  66.2369698  72.7462030
 102.2528773  65.8189122  72.3952447 101.7304388  67.1415791  72.9143679
 101.6375761  71.6742549  67.4450687 101.0021594  71.7477175  68.1571592
 101.3073167  72.2636148  66.7669766 106.8674111  66.1744932  73.6495009
 107.5999283  65.6044148  73.8832838 106.1113466  65.7866532  74.0901515
  96.1418689  69.1362026  67.1411662  96.0254948  68.4606929  67.8092746
  96.2520949  68.6494400  66.3243815  98.4850230  68.5972173  70.8458351
  98.1208438  68.0702794  71.5571273  99.3417346  68.2070642  70.6724837
 104.3899531  59.8866506  78.1089618 104.0582856  60.7561917  77.8850833
 103.7945144  59.5702790  78.7883648  98.1255717  63.6262073  65.8419700
  98.2930120  64.4942309  66.2090171  97.9352886  63.7889354  64.9180989
 100.8831051  72.0879052  77.5085530 100.5831774  72.9904090  77.4001338
 100.5382110  71.8211235  78.3606683  94.3343532  68.5392849  73.5422235
  93.4094028  68.4069063  73.7499926  94.5827945  69.3187068  74.0392177
 104.2828194  64.6061592  75.1882968 103.3745072  64.5377000  74.8941729
 104.2315790  65.0833537  76.0164793  98.1044938  66.0819730  66.8266367
  97.9844563  66.5276781  67.6651847  97.4097527  66.4305048  66.2679905
  91.6952343  68.1826122  74.3766024  91.8244724  68.4360601  75.2905435
  91.0149794  68.7753830  74.0570679  95.8651830  78.8523372  70.4756498
  95.7875860  79.8031197  70.5544979  95.2613474  78.5069245  71.1331424
  98.3569060  66.0251237  83.1317865  97.5802394  66.5845158  83.1220730
  98.9959623  66.5108020  83.6532735 106.1489841  62.8078030  76.9660842
 105.5064221  63.1010563  76.3200636 105.6444769  62.6930951  77.7714038
 103.8030004  66.5541203  67.6546701 104.7147861  66.7868590  67.4794398
 103.2939651  67.1378248  67.0921779  96.6115432  68.8336691  82.6935832
  97.3530117  69.3721735  82.4170655  95.9052418  69.4602980  82.8507384
 102.0870772  70.9765831  81.2907993 102.4954128  70.5348242  80.5462626
 101.3648034  70.4018459  81.5442186  98.4401842  65.9138438  78.6641550
  99.2863037  66.3377852  78.8076199  98.3800480  65.2572062  79.3580113
 102.4099587  71.5367022  75.0460282 101.7808449  71.7012736  74.3436350
 102.0225249  71.9508631  75.8171246 106.2888819  72.4721460  72.4004646
 105.6039857  72.8520361  71.8501679 106.3732668  73.0816786  73.1336594
 101.5901287  63.5742806  80.3222724 101.3462219  64.3284867  79.7857000
 101.8661218  63.9528154  81.1569971 103.5439750  70.1181419  78.9999990
 103.7556645  70.7613179  78.3234371 103.4969498  69.2843735  78.5321920
 101.1465979  62.7299239  75.9036562 100.2850458  63.0280493  76.1953299
 101.1728414  62.9469638  74.9717594  97.9627549  71.2741430  72.3110367
  98.4265894  71.5529133  71.5214990  97.6984347  70.3724875  72.1283458
  94.8551630  70.8212912  75.2490131  95.4252987  71.2500180  74.6107615
  95.4459741  70.5395496  75.9474316  96.8996435  67.3964582  69.1199932
  97.6020478  67.8485626  69.5873859  96.5677063  66.7548401  69.7479826
  95.3476796  65.9876339  83.4951142  94.7175457  66.6692620  83.7286539
  95.2412884  65.8759421  82.5504280  90.6421769  65.6548135  74.4217066
  89.8520823  65.9105664  73.9457177  91.1333016  66.4696473  74.5269107
 104.6585578  72.9953374  77.1722347 105.4803022  72.5933561  76.8905029
 104.6547981  72.8921608  78.1238463  92.5936514  66.0192714  71.3800543
  91.7967677  66.1311409  71.8984038  92.3662106  66.3579366  70.5141433
  98.4242182  72.5437417  79.3283057  98.4886614  73.0057825  80.1641229
  97.7153105  71.9134782  79.4565367  88.9259472  65.9078625  76.8532057
  89.1767510  66.7925635  77.1189633  89.4619020  65.7283227  76.0807149
 112.7491571  69.3392123  73.5207318 111.9955280  68.7699521  73.3651323
 112.8839112  69.3054787  74.4677953  98.1390199  74.2105525  69.1962038
  98.0035874  75.0557061  69.6246886  98.6800012  74.4124803  68.4327971
  94.6257539  60.2897105  85.8576393  94.2324484  59.7363303  86.5324037
  95.4423679  60.6007683  86.2482910  91.5919597  71.7280963  69.7689963
  92.1044117  72.5224213  69.9195527  92.2442309  71.0307253  69.7023564
  93.4014481  74.8446719  71.8512716  93.5781110  75.7664684  71.6633700
  94.1971315  74.5305139  72.2807096  97.5425500  61.7054984  83.4496649
  98.2835213  62.3062137  83.3701112  97.7743423  60.9632622  82.8914692
  92.6866838  66.8911351  81.7274879  92.5720353  65.9896608  82.0281978
  91.8311356  67.1375048  81.3759696  99.7658676  74.8329091  83.3262380
  99.3222530  74.0465470  83.0083284 100.4275889  75.0208242  82.6606271
  94.5245797  76.3624893  77.8523058  95.0753222  76.2341956  77.0800052
  93.6857273  76.6619782  77.5017951 101.8639914  75.1131891  81.3543781
 101.8458389  75.9340772  80.8624050 102.7859834  74.9885967  81.5793922
  98.3212968  72.6276021  82.1967289  98.8541305  71.8664309  81.9666597
  97.7927049  72.3349673  82.9391444 101.4882663  57.7336087  77.7260931
 101.1446932  58.6237729  77.6500042 101.8561625  57.5437745  76.8630516
  89.5568513  70.0569617  70.5449533  90.3943735  70.4666626  70.3283241
  89.7346781  69.1169059  70.5149727 101.4532946  67.7244698  66.2333366
 100.9379569  68.4949303  66.4721754 101.1810254  67.0509834  66.8566428
  99.0380057  62.5694399  71.2918605  98.1821653  62.1801249  71.1124243
  99.4507008  62.6486360  70.4318390 100.5679203  60.1040742  75.6910164
 100.0643999  60.0670877  74.8777970 100.8609810  61.0133485  75.7506821
  96.8122089  60.1879472  74.6976346  97.6775086  59.9922280  74.3382236
  96.8799598  59.9589824  75.6245703 106.4267220  70.4777053  68.1686540
 105.6496662  70.1388212  67.7241702 107.1058701  70.4829676  67.4941505
 101.2419249  65.5971790  68.0593147 100.9369384  65.9117939  68.9103291
 102.1949691  65.6753210  68.1020480  99.6865681  71.7562013  69.7086101
  99.1587042  71.0214773  69.3959339  99.1853183  72.5336690  69.4626070
 104.6658527  69.9511034  74.8253148 104.0082201  70.6410295  74.9133276
 105.4698926  70.3407466  75.1687134  94.4184408  62.4181680  72.0692713
  94.9928160  62.1956861  71.3365906  95.0055391  62.4870374  72.8221314
 103.4763985  68.3055407  72.8757089 103.9895867  68.9385398  73.3778799
 104.1265209  67.7056602  72.5100450  94.7453995  64.4486141  66.0888598
  93.9091308  64.7860827  66.4097873  94.6058765  64.3135120  65.1515735
  96.7207076  59.2922929  70.7967782  96.0671488  58.9771946  70.1724397
  96.6787550  58.6698669  71.5227605  97.8318281  69.5742224  62.7121074
  96.9245342  69.3431477  62.9112223  98.3289313  68.7779843  62.8995056
 100.7386360  78.2839731  65.6317761 100.0648058  78.5871428  66.2402718
 101.1252182  79.0868811  65.2823218  99.9544816  65.7804862  75.1215430
  99.0367378  66.0019809  74.9637118 100.3704960  65.8551173  74.2627137
 100.7379864  67.1796278  70.2518110 101.4851683  67.6917675  69.9425232
 101.0071454  66.8580331  71.1122504  99.0106514  69.6754819  67.2345065
  98.1017733  69.3913851  67.3317534  99.0401598  70.0953897  66.3748371
 104.2425782  73.2861408  71.0036232 103.7888109  72.4452318  71.0601423
 103.6119748  73.9222806  71.3411012 103.1858701  64.2153394  72.2336900
 102.4481458  63.7030780  72.5647142 103.4385475  63.7753776  71.4220176
 102.6858721  75.1237905  71.9386050 102.9781695  75.6842962  71.2198416
 103.1957341  75.4166466  72.6939209 103.2870328  56.9929646  72.8278669
 103.5929205  56.1327009  72.5404584 104.0122933  57.5847266  72.6277663
  89.5794685  67.3960333  71.2160267  89.3819084  66.8029693  70.4911333
  89.0241349  67.0912543  71.9336206  97.5591408  67.2883439  73.3354860
  97.6140018  66.3357276  73.2597336  96.7482610  67.4442878  73.8196158
  98.7082602  71.2163562  64.5733143  98.2702032  70.4999421  64.1138780
  99.4493043  71.4439677  64.0118235  95.4983768  65.9060499  71.0945239
  94.6851634  66.2054669  71.5010431  95.9942762  65.5116188  71.8119721
  97.6492346  75.9018256  73.0279503  97.6068525  76.1279102  72.0988035
  98.5655045  75.6681630  73.1765305 101.0957980  66.3702323  79.9260133
 101.4507368  66.5973796  80.7854598 101.7430111  66.7020700  79.3037388
 106.8255717  69.4920759  70.6309462 106.6873615  69.6822355  69.7030651
 106.4691936  70.2540142  71.0877513  94.9897843  63.4778854  76.7106474
  95.6297222  63.3367613  76.0129437  94.1575373  63.1913368  76.3345076
 106.8525096  71.5597286  75.6420733 107.2861603  71.4672575  76.4903787
 107.5656677  71.5354787  75.0040749  95.7658147  72.7781285  72.8241466
  96.5598745  72.2831605  72.6224041  95.0549839  72.2499148  72.4609172
 100.5852991  75.1599380  77.1753834 100.6390014  75.7290317  77.9431550
  99.7167773  75.3301265  76.8107871  92.0740910  66.9224367  68.9001219
  91.1438498  66.8608822  69.1171181  92.1698382  66.4000319  68.1037860
  91.9926459  63.4479179  71.4879461  92.2533277  64.3624513  71.3788621
  92.8143632  62.9803622  71.6376073  93.4651385  64.8616937  78.6578285
  94.1374438  64.6534299  78.0090934  92.6381171  64.6639023  78.2183517
 107.7140646  71.6020987  78.1753619 107.9076536  72.5066797  78.4212894
 107.6141264  71.1428406  79.0092204  99.3676957  61.4878877  80.6743946
  98.7204872  62.1868827  80.5808422 100.1377972  61.9215021  81.0420194
 102.7755755  71.7527730  83.7494499 102.6241261  71.5238281  82.8324583
 102.7660434  72.7098331  83.7625844  99.5441091  69.3259642  78.7340766
 100.4733151  69.4770802  78.5609733  99.1232121  69.4143663  77.8789412
  98.3429423  73.3510307  76.5039303  98.2040508  72.9829091  77.3765241
  97.5544019  73.8657946  76.3323261  98.9377575  78.4519403  67.8464840
  99.1129330  77.9807446  68.6610462  98.2510363  79.0785169  68.0746101
  99.8934638  72.7291909  73.8928141  99.5584471  72.6892679  74.7885791
  99.3938584  72.0636625  73.4198551  93.8678882  68.1359540  79.4180722
  93.7298680  67.4039778  80.0192261  94.7783805  68.0468440  79.1364910
 102.8293830  70.0747944  64.1665201 102.2123000  69.3494772  64.0698253
 102.3610318  70.8357304  63.8232275  96.4961183  67.8479499  78.9064402
  97.2060801  67.2072691  78.8651020  96.4530491  68.0992394  79.8290583
 104.4847961  74.7846852  81.8270981 104.4260507  74.1006072  81.1601564
 104.8867480  75.5265842  81.3751607  95.2090117  64.8344717  80.7260041
  94.6727474  64.3835455  81.3781638  94.6206825  64.9690626  79.9830506
  93.5038660  81.6008766  74.6204700  93.7435258  82.2327290  75.2983719
  92.6607857  81.2496806  74.9070059  94.6192376  64.2933368  63.2886505
  93.7421842  64.1722169  62.9248752  95.0950129  63.5019446  63.0365394
 104.4865369  72.7486436  80.0584961 103.5992147  72.4112358  80.1811360
 105.0563920  72.0169467  80.2953726  86.1394516  69.0810528  73.3828012
  86.8265555  68.7672258  72.7949027  85.9842644  69.9851893  73.1095264
  90.9429238  63.9700724  77.8113036  90.8587427  63.3626394  77.0763446
  90.1211944  64.4609743  77.8122532  98.0166522  77.4087888  77.0246204
  97.9436693  78.2142860  77.5365509  97.5743915  77.6079854  76.1994225
  97.8056302  76.6459658  70.5349026  97.0223823  77.1881339  70.6287250
  98.5049047  77.1633638  70.9343267 101.1152952  62.4554288  73.1783231
 101.6121651  61.7024250  72.8584301 100.3439933  62.4918605  72.6126440
 108.9682709  68.1594653  74.8201522 108.9572585  69.0419369  74.4495455
 108.1000088  67.8066204  74.6256059 100.4765205  77.3074722  79.1804363
 101.1893178  77.9422187  79.1080264  99.9855234  77.4038588  78.3644364
 102.1982732  71.2125975  70.7521654 101.2639011  71.3327438  70.5826359
 102.3759401  70.3098442  70.4881664  97.6987920  64.5971671  72.9054915
  97.3285708  64.0442711  73.5935821  98.1947013  63.9929804  72.3529916
 105.5855284  67.0543294  71.2871688 106.0515736  67.8871286  71.2131991
 106.0362784  66.5888276  71.9916947  95.5277119  75.0569166  80.0009933
  96.2286578  75.6905649  80.1539328  95.0572234  75.3983898  79.2405573
 103.6531515  73.3987116  68.2857840 103.9291359  73.2843710  69.1951715
 102.7836014  73.0004601  68.2470014 103.5571946  59.4223881  75.3262590
 102.6435026  59.6528108  75.4944797 103.9865048  59.5062326  76.1776622
 103.3278405  67.6113773  77.8262484 102.6749855  67.8589681  77.1714937
 103.7058785  66.7977912  77.4924961 100.2885579  77.6473467  71.9290654
 100.4707973  76.8295123  72.3918406 101.1118565  77.8641159  71.4915544
 100.6227744  76.5741652  69.1905703 101.1515511  76.0634106  68.5775865
 100.8855964  76.2584182  70.0551236  99.3765978  68.3533584  84.3128521
  98.7006615  68.2527714  84.9830896 100.1993612  68.1972798  84.7764518
  91.1244837  74.5905521  76.9341036  91.7098274  73.8449209  77.0668940
  90.9269675  74.9009478  77.8177700  93.9783492  77.6256768  71.9503479
  93.3093868  78.1102896  71.4667519  93.8396362  77.8725989  72.8646857
  85.7162492  67.1611121  75.6545479  85.7546591  66.6274712  76.4482597
  85.2102785  66.6346327  75.0356456  98.1188761  79.6600512  78.5486137
  98.6707069  79.8232133  79.3135222  98.4594954  80.2504950  77.8766162
  93.0953254  62.0075662  79.1508022  93.1594581  62.8690493  78.7385419
  93.0320374  61.3949663  78.4180380  92.5705527  64.0798794  82.7981056
  93.1977565  63.6975872  83.4118580  91.7133445  63.8612996  83.1636748
 102.9699635  74.4861769  84.4034791 103.5139539  75.0991728  83.9089746
 102.3886480  75.0441348  84.9201804  89.3471069  65.8875223  68.7299411
  89.6424510  64.9785902  68.6766464  88.4459105  65.8662963  68.4080413
 101.2557148  77.6082487  75.5349819 101.1308288  76.8072227  75.0260765
 101.9136239  78.1028681  75.0463789  92.8765316  63.9631220  74.7126959
  92.1551902  64.5767188  74.5734433  93.6658572  64.4988985  74.6343605
 103.3192057  75.4091508  77.1629369 102.3722392  75.2896859  77.0907696
 103.6674830  74.5214006  77.2455631  95.6791630  61.2985646  80.9867611
  96.2026032  61.5447943  81.7493920  95.4603963  62.1305681  80.5670748
  91.0758911  63.5689321  68.8538736  90.7471617  62.6886700  68.6713842
  91.4298282  63.5136990  69.7415125 100.3238490  75.2044224  73.3633721
 100.1763452  74.2760931  73.5441291 101.1491983  75.2264314  72.8790797
  94.1900734  63.8562291  69.2214214  94.5296807  64.3848212  68.4992822
  94.6372855  64.1942697  69.9972780 103.9272612  76.0272782  74.4498594
 104.8519159  75.8215644  74.3123045 103.7587915  75.7789184  75.3587936
  96.8844175  62.2399342  78.6717282  96.5440995  61.4407155  79.0737961
  96.1783181  62.5401052  78.0994115  97.5360647  59.3248654  77.1244605
  98.3586716  58.8509132  77.0023495  97.7798710  60.1039138  77.6243291
  96.1768881  62.3536912  67.4207506  96.8977244  62.7318165  66.9171223
  95.5534185  63.0725789  67.5242484 100.3200004  63.0582061  68.3565839
 100.5363619  63.9406699  68.0554667  99.8394071  62.6668275  67.6271481
  95.0599226  66.0167775  74.9336583  94.9143806  66.3308078  75.8260865
  94.5824429  66.6352675  74.3807482  96.9195608  63.0070323  74.9817473
  96.9057177  62.1111416  74.6449771  97.6368036  63.0140986  75.6155759
  98.7721739  63.4407663  77.0270600  98.5139517  64.3624733  77.0254931
  98.2406779  63.0438097  77.7171064 103.7167928  76.5458450  69.8060686
 103.8904805  75.9804872  69.0534538 104.2096819  77.3459345  69.6240176
  89.5344888  68.5573119  77.8724244  88.9898356  69.3332927  78.0044519
  90.4124238  68.9043923  77.7143366  96.3232504  61.8884703  70.2505043
  96.4448416  60.9601349  70.4495930  96.0334547  61.9023389  69.3383358
  99.1923695  59.5739613  73.3871763  99.2145392  59.6378946  72.4323742
  99.6091754  58.7344122  73.5812269 109.5707319  69.3094873  71.4250985
 110.0138465  68.5602198  71.0270109 108.6933829  69.3005009  71.0424717
 104.7043100  75.8625214  66.9057584 105.3994005  76.4831907  67.1244898
 105.0466250  75.0120566  67.1809962  90.3210910  67.6843015  80.7654401
  89.5792646  67.8325651  81.3519032  90.0003654  67.9451281  79.9021151
 106.6034523  73.3124920  68.4344915 107.1285848  73.6512193  67.7094235
 106.5156876  72.3771935  68.2508049  98.2654572  77.2258994  80.5634791
  98.5741699  76.9808140  81.4357491  99.0630054  77.4305632  80.0753661
  98.2875184  79.3796903  72.7940168  97.8480175  78.8873282  73.4873025
  99.0383301  78.8369871  72.5532243  90.7667523  75.5708444  72.7964796
  91.5925543  75.2712216  72.4163439  90.4161575  74.8016066  73.2454585
  95.7349056  74.9234912  74.8662469  95.1129066  74.2605617  74.5664697
  96.4053923  74.9496044  74.1836117  88.9676128  73.4894770  73.7553729
  88.1308037  73.0616945  73.5737731  88.9399774  73.6827214  74.6924521
  95.8073584  63.4016700  84.4594975  95.8561739  64.2778823  84.0772745
  96.3496098  62.8594093  83.8866619 106.2928430  73.9457824  83.7396113
 105.5023973  73.9281962  83.2000612 106.0561784  74.4846117  84.4945149
 106.4126305  70.7950290  81.0528841 106.4624310  70.6300297  81.9944364
 106.3040228  69.9277549  80.6626722  95.2962563  73.4738836  68.3420930
  95.4450684  74.1574300  67.6887603  96.1029007  73.4543926  68.8570386
 103.7030067  66.7781218  82.3688148 104.6039930  66.6387683  82.0772146
 103.7778041  66.9435673  83.3086325  98.0372872  64.1548073  81.2141334
  97.1676182  64.4481639  80.9423923  98.2732353  64.7388518  81.9348598
 107.9144501  73.2147231  81.2970863 107.6229310  73.5777212  82.1334324
 107.3016633  72.5014240  81.1184195 109.1140184  70.7800111  73.8173433
 109.9487075  71.2189915  73.9810993 109.2499313  70.3038764  72.9981679
 106.1631690  68.3379846  79.7650921 106.6385811  68.5307492  78.9569772
 105.2397255  68.3939032  79.5194304  93.0515196  69.5004013  69.3481999
  92.8061238  68.5966343  69.5462209  93.2211111  69.5021164  68.4061477
 100.7411906  60.3727690  78.7306755 101.2593850  61.1088717  78.4053243
 100.3867039  60.6791683  79.5653514  92.3210844  65.2332371  66.8468160
  91.6280089  65.3076726  66.1908196  92.0762596  64.4692714  67.3689677
 100.9924500  56.7927972  74.2507651 101.2726254  56.1251161  74.8768078
 101.7775107  56.9857068  73.7382315  98.7957969  75.9686966  65.8132677
  98.2231936  76.5877153  65.3603149  99.3690762  76.5186328  66.3472599
 104.8633359  65.2145606  77.9979226 105.8150782  65.3143704  78.0191450
 104.6936809  64.4223875  78.5077311 102.8847738  62.3001189  78.1838627
 102.2897670  62.5806202  77.4885116 102.5997435  62.7895090  78.9555368
 102.0155229  76.2524116  66.9441260 102.9485902  76.1869678  67.1474135
 101.9278441  77.0880383  66.4855792 104.6443245  75.5689986  63.9045207
 104.5656877  75.2349850  64.7980965 105.4652912  76.0611754  63.9036680
 107.3421436  68.4351726  77.1121526 107.3097757  67.4967727  77.2981210
 107.9522060  68.5135763  76.3787351  99.1804767  67.3047779  63.1548730
 100.1263872  67.1753987  63.2237148  98.8019012  66.5662441  63.6318158
 107.4915925  65.2262769  77.1579809 106.9754974  64.4421226  76.9709738
 108.3755873  64.8981486  77.3226329 105.1526652  58.9703785  73.1175622
 104.9551473  58.6618873  74.0018954 105.7626357  59.6965424  73.2473552
 113.1597986  69.4967733  76.2527563 113.8901375  69.2353021  76.8135266
 112.5504932  68.7596455  76.2929631 111.2413283  67.6375595  76.8502014
 110.5146447  67.5031560  76.2418505 110.8260570  67.9452424  77.6558732
  99.0643460  71.3565525  84.6149387  99.9846469  71.5344124  84.8089433
  99.0293043  70.4121570  84.4629086  97.3647684  65.2297755  63.0903615
  96.4579140  64.9330868  63.1666329  97.6423665  64.9327573  62.2237901
  88.2825625  66.5504119  73.5402662  87.9628409  65.6969427  73.2477036
  87.7359053  66.7652697  74.2960629  92.0605532  69.2666560  77.2572168
  92.2791542  70.1983667  77.2760202  92.4731306  68.9074534  78.0426972
  98.9809750  59.7734645  69.2447856  98.1710478  59.4281730  69.6203103
  99.6694167  59.4642189  69.8335468 100.9100298  58.8512692  70.8672153
 101.4631337  59.2708145  71.5262176 101.1470385  57.9248440  70.9095109
  96.9333398  64.8399765  86.6474917  96.8330125  65.7894122  86.5787008
  96.7154940  64.5118004  85.7750987  96.1346469  62.0884690  63.2315594
  96.9965633  62.4139589  63.4911412  96.3196813  61.3016186  62.7188660
  88.1513885  70.1707030  75.5095783  87.4577356  69.7560983  74.9965738
  88.8986876  70.2127567  74.9129202 104.2879106  60.9613217  70.3750817
 103.7077775  61.6198021  69.9928870 104.0215038  60.1390561  69.9638235
 102.7382672  60.3618275  72.5772138 103.2382450  60.4734809  71.7686457
 103.3818280  60.0579327  73.2172946  96.7964668  68.2696904  85.4639979
  96.3131749  69.0697264  85.6703868  96.8825607  68.2804849  84.5107423
  90.0650627  70.1025284  73.3861798  90.0421315  70.2012971  72.4343681
  90.3751264  70.9490435  73.7078964  92.7238005  72.1601439  77.5008412
  93.6781259  72.1285381  77.4338344  92.5250529  71.6992063  78.3158638
  93.3137387  70.7302555  80.0679210  94.1330276  71.2246634  80.0914047
  93.5874195  69.8134523  80.0396778 103.0703984  63.1213307  69.4307166
 102.1829839  63.4062958  69.2127360 103.4857973  62.9607071  68.5834443
 106.4218520  63.1459828  73.1461505 107.1978910  63.6356281  73.4186122
 105.6966654  63.5717882  73.6033374 108.8591078  63.8587447  74.2035445
 109.4535569  63.6183183  73.4928754 108.9317662  63.1394578  74.8308982
  91.0788234  77.7021058  74.5178610  90.9442702  76.9421459  73.9516608
  90.6620296  78.4261958  74.0507399 102.2147197  72.8857982  63.5255186
 102.9183047  73.0907984  64.1412841 101.4909846  73.4534744  63.7904269
 103.0445007  68.6367843  69.6457456 102.9880209  69.0936395  68.8065088
 103.5973350  67.8758528  69.4680299 106.8549813  64.4257575  70.4707575
 106.5986747  64.0254211  71.3015783 106.2302681  65.1401369  70.3457714
 111.1662151  67.1653648  72.9778867 110.6061709  67.2346838  73.7510429
 110.5605654  66.9894633  72.2578363  94.2357360  78.5990375  74.7297053
  94.1189744  79.5435808  74.6275743  93.4149806  78.2963937  75.1182852
 104.1233894  73.3240511  65.5753646 104.9579498  72.8921710  65.3931120
 103.9618237  73.1522525  66.5030540 103.7779787  69.8272624  66.9409985
 103.7228590  69.6616896  65.9998429 103.1525842  70.5348657  67.0972175
  88.5672302  65.0640689  80.7671407  89.2131165  64.5539643  81.2558632
  88.3589453  65.8009370  81.3414832 101.0925694  72.1321536  86.2663548
 101.9616853  72.3062189  85.9050183 100.6132445  72.9515953  86.1439277
  97.0875912  59.3280733  66.5195303  97.0754582  60.2722573  66.6763574
  97.9799334  59.1450879  66.2254765  95.2611874  79.2518637  77.9452981
  96.1639121  79.2842248  78.2619476  95.0349244  78.3219088  77.9599317
  97.0165476  78.0049624  74.6063060  96.0661107  78.0051485  74.4927432
  97.3197962  77.2582358  74.0899095 100.9028032  55.9223510  70.7741240
 100.1360427  55.3681997  70.9197922 101.3138737  55.9945379  71.6355392
  92.9069793  62.2108306  84.8646421  93.7701254  61.8545111  85.0749746
  92.3335203  61.8722201  85.5521826 112.7518170  83.8410162  75.6708822
 113.3896579  83.7216910  74.9672162 112.6339012  84.7891006  75.7296775
 109.5607876  83.7937590  75.6070347 109.2226387  83.6778655  74.7190882
 110.4297644  83.3928755  75.5871353 105.4194692  85.6473067  71.5967238
 104.8559557  85.5563004  70.8283526 105.3047087  84.8272971  72.0769731
 110.0427659  84.9472442  81.5656553 110.0316300  84.5525240  80.6937056
 110.2048298  84.2138515  82.1590324 102.9659123  87.1424258  74.4351458
 103.7580415  86.8015083  74.0197758 103.2055774  87.2519233  75.3553612
 110.9994250  89.3144034  66.9081703 110.3482230  89.8998115  66.5215717
 111.7938613  89.8450229  66.9676740 104.9249877  86.4033172  67.3068837
 105.6980753  85.8562159  67.1681713 105.2775276  87.2677421  67.5183299
 106.7634920  87.7309554  80.5135737 106.4724786  88.6355185  80.3982403
 107.3991904  87.7726081  81.2279806 107.6891127  85.1086402  77.1037096
 108.2854699  84.8842425  76.3894059 107.7466098  84.3671148  77.7062544
 107.2616155  82.5625838  64.9387287 107.5141676  82.0407359  64.1770750
 106.3240714  82.3991983  65.0413971 112.3059438  81.5661616  72.7462030
 113.0922527  81.1481039  72.3952447 112.5698142  82.4707708  72.9143679
 112.4769515  87.0034466  67.4450687 111.8415348  87.0769093  68.1571592
 112.1466922  87.5928065  66.7669766 117.7067865  81.5036849  73.6495009
 118.4393037  80.9336066  73.8832838 116.9507221  81.1158450  74.0901515
 106.9812444  84.4653944  67.1411662 106.8648702  83.7898847  67.8092746
 107.0914704  83.9786318  66.3243815 109.3243985  83.9264091  70.8458351
 108.9602192  83.3994712  71.5571273 110.1811101  83.5362560  70.6724837
 115.2293285  75.2158423  78.1089618 114.8976610  76.0853834  77.8850833
 114.6338899  74.8994707  78.7883648 108.9649472  78.9553990  65.8419700
 109.1323874  79.8234227  66.2090171 108.7746641  79.1181272  64.9180989
 111.7224805  87.4170969  77.5085530 111.4225528  88.3196008  77.4001338
 111.3775865  87.1503153  78.3606683 105.1737287  83.8684766  73.5422235
 104.2487783  83.7360980  73.7499926 105.4221700  84.6478985  74.0392177
 115.1221949  79.9353510  75.1882968 114.2138826  79.8668918  74.8941729
 115.0709545  80.4125454  76.0164793 108.9438693  81.4111648  66.8266367
 108.8238318  81.8568699  67.6651847 108.2491281  81.7596966  66.2679905
 102.5346098  83.5118040  74.3766024 102.6638479  83.7652519  75.2905435
 101.8543549  84.1045748  74.0570679 106.7045585  94.1815290  70.4756498
 106.6269615  95.1323115  70.5544979 106.1007228  93.8361162  71.1331424
 109.1962815  81.3543155  83.1317865 108.4196149  81.9137075  83.1220730
 109.8353378  81.8399938  83.6532735 116.9883595  78.1369948  76.9660842
 116.3457975  78.4302481  76.3200636 116.4838524  78.0222868  77.7714038
 114.6423759  81.8833121  67.6546701 115.5541615  82.1160508  67.4794398
 114.1333406  82.4670165  67.0921779 107.4509187  84.1628608  82.6935832
 108.1923871  84.7013652  82.4170655 106.7446172  84.7894897  82.8507384
 112.9264527  86.3057749  81.2907993 113.3347883  85.8640159  80.5462626
 112.2041788  85.7310376  81.5442186 109.2795597  81.2430356  78.6641550
 110.1256792  81.6669769  78.8076199 109.2194234  80.5863980  79.3580113
 113.2493341  86.8658940  75.0460282 112.6202204  87.0304654  74.3436350
 112.8619003  87.2800549  75.8171246 117.1282573  87.8013377  72.4004646
 116.4433611  88.1812279  71.8501679 117.2126422  88.4108704  73.1336594
 112.4295042  78.9034724  80.3222724 112.1855974  79.6576785  79.7857000
 112.7054972  79.2820072  81.1569971 114.3833505  85.4473336  78.9999990
 114.5950400  86.0905096  78.3234371 114.3363253  84.6135653  78.5321920
 111.9859734  78.0591157  75.9036562 111.1244213  78.3572411  76.1953299
 112.0122168  78.2761556  74.9717594 108.8021303  86.6033348  72.3110367
 109.2659649  86.8821051  71.5214990 108.5378101  85.7016792  72.1283458
 105.6945384  86.1504829  75.2490131 106.2646741  86.5792098  74.6107615
 106.2853496  85.8687414  75.9474316 107.7390189  82.7256500  69.1199932
 108.4414232  83.1777544  69.5873859 107.4070818  82.0840319  69.7479826
 106.1870551  81.3168257  83.4951142 105.5569211  81.9984538  83.7286539
 106.0806639  81.2051338  82.5504280 101.4815523  80.9840053  74.4217066
 100.6914577  81.2397581  73.9457177 101.9726770  81.7988391  74.5269107
 115.4979333  88.3245292  77.1722347 116.3196776  87.9225479  76.8905029
 115.4941736  88.2213526  78.1238463 103.4330268  81.3484632  71.3800543
 102.6361432  81.4603326  71.8984038 103.2055861  81.6871284  70.5141433
 109.2635936  87.8729335  79.3283057 109.3280369  88.3349742  80.1641229
 108.5546860  87.2426700  79.4565367  99.7653226  81.2370543  76.8532057
 100.0161264  82.1217553  77.1189633 100.3012774  81.0575145  76.0807149
 108.9783954  89.5397443  69.1962038 108.8429629  90.3848978  69.6246886
 109.5193766  89.7416720  68.4327971 105.4651293  75.6189023  85.8576393
 105.0718239  75.0655221  86.5324037 106.2817434  75.9299601  86.2482910
 102.4313351  87.0572881  69.7689963 102.9437872  87.8516131  69.9195527
 103.0836064  86.3599171  69.7023564 104.2408236  90.1738637  71.8512716
 104.4174864  91.0956602  71.6633700 105.0365069  89.8597056  72.2807096
 108.3819254  77.0346902  83.4496649 109.1228968  77.6354055  83.3701112
 108.6137177  76.2924539  82.8914692 103.5260592  82.2203269  81.7274879
 103.4114108  81.3188526  82.0281978 102.6705110  82.4666966  81.3759696
 110.6052430  90.1621009  83.3262380 110.1616284  89.3757388  83.0083284
 111.2669644  90.3500160  82.6606271 105.3639551  91.6916811  77.8523058
 105.9146976  91.5633874  77.0800052 104.5251027  91.9911700  77.5017951
 112.7033668  90.4423809  81.3543781 112.6852144  91.2632690  80.8624050
 113.6253588  90.3177884  81.5793922 109.1606722  87.9567939  82.1967289
 109.6935059  87.1956227  81.9666597 108.6320803  87.6641590  82.9391444
 112.3276417  73.0628005  77.7260931 111.9840687  73.9529646  77.6500042
 112.6955380  72.8729662  76.8630516 100.3962268  85.3861535  70.5449533
 101.2337490  85.7958543  70.3283241 100.5740536  84.4460977  70.5149727
 112.2926700  83.0536616  66.2333366 111.7773323  83.8241220  66.4721754
 112.0204008  82.3801752  66.8566428 109.8773811  77.8986316  71.2918605
 109.0215407  77.5093167  71.1124243 110.2900763  77.9778277  70.4318390
 111.4072958  75.4332660  75.6910164 110.9037753  75.3962795  74.8777970
 111.7003565  76.3425402  75.7506821 107.6515844  75.5171389  74.6976346
 108.5168840  75.3214198  74.3382236 107.7193352  75.2881741  75.6245703
 117.2660974  85.8068970  68.1686540 116.4890417  85.4680130  67.7241702
 117.9452455  85.8121593  67.4941505 112.0813003  80.9263708  68.0593147
 111.7763139  81.2409857  68.9103291 113.0343445  81.0045128  68.1020480
 110.5259435  87.0853931  69.7086101 109.9980797  86.3506691  69.3959339
 110.0246938  87.8628607  69.4626070 115.5052281  85.2802952  74.8253148
 114.8475956  85.9702213  74.9133276 116.3092680  85.6699383  75.1687134
 105.2578163  77.7473597  72.0692713 105.8321915  77.5248779  71.3365906
 105.8449145  77.8162292  72.8221314 114.3157740  83.6347324  72.8757089
 114.8289622  84.2677316  73.3778799 114.9658964  83.0348520  72.5100450
 105.5847750  79.7778058  66.0888598 104.7485062  80.1152745  66.4097873
 105.4452519  79.6427038  65.1515735 107.5600830  74.6214846  70.7967782
 106.9065243  74.3063863  70.1724397 107.5181305  73.9990587  71.5227605
 108.6712035  84.9034141  62.7121074 107.7639097  84.6723395  62.9112223
 109.1683067  84.1071761  62.8995056 111.5780114  93.6131649  65.6317761
 110.9041813  93.9163345  66.2402718 111.9645936  94.4160729  65.2823218
 110.7938571  81.1096780  75.1215430 109.8761132  81.3311727  74.9637118
 111.2098714  81.1843090  74.2627137 111.5773618  82.5088195  70.2518110
 112.3245437  83.0209593  69.9425232 111.8465208  82.1872248  71.1122504
 109.8500269  85.0046736  67.2345065 108.9411488  84.7205769  67.3317534
 109.8795352  85.4245815  66.3748371 115.0819536  88.6153326  71.0036232
 114.6281863  87.7744236  71.0601423 114.4513503  89.2514724  71.3411012
 114.0252456  79.5445312  72.2336900 113.2875212  79.0322698  72.5647142
 114.2779229  79.1045693  71.4220176 113.5252475  90.4529822  71.9386050
 113.8175450  91.0134879  71.2198416 114.0351096  90.7458383  72.6939209
 114.1264083  72.3221564  72.8278669 114.4322960  71.4618927  72.5404584
 114.8516688  72.9139184  72.6277663 100.4188439  82.7252250  71.2160267
 100.2212839  82.1321611  70.4911333  99.8635103  82.4204461  71.9336206
 108.3985163  82.6175357  73.3354860 108.4533772  81.6649193  73.2597336
 107.5876365  82.7734796  73.8196158 109.5476356  86.5455480  64.5733143
 109.1095786  85.8291339  64.1138780 110.2886797  86.7731595  64.0118235
 106.3377523  81.2352417  71.0945239 105.5245388  81.5346587  71.5010431
 106.8336517  80.8408105  71.8119721 108.4886101  91.2310173  73.0279503
 108.4462279  91.4571020  72.0988035 109.4048799  90.9973548  73.1765305
 111.9351734  81.6994241  79.9260133 112.2901122  81.9265714  80.7854598
 112.5823866  82.0312618  79.3037388 117.6649471  84.8212677  70.6309462
 117.5267370  85.0114273  69.7030651 117.3085690  85.5832060  71.0877513
 105.8291597  78.8070772  76.7106474 106.4690977  78.6659531  76.0129437
 104.9969128  78.5205285  76.3345076 117.6918851  86.8889204  75.6420733
 118.1255358  86.7964493  76.4903787 118.4050432  86.8646704  75.0040749
 106.6051901  88.1073202  72.8241466 107.3992500  87.6123523  72.6224041
 105.8943594  87.5791066  72.4609172 111.4246746  90.4891298  77.1753834
 111.4783768  91.0582234  77.9431550 110.5561527  90.6593183  76.8107871
 102.9134665  82.2516284  68.9001219 101.9832253  82.1900740  69.1171181
 103.0092137  81.7292237  68.1037860 102.8320214  78.7771097  71.4879461
 103.0927031  79.6916430  71.3788621 103.6537386  78.3095540  71.6376073
 104.3045139  80.1908854  78.6578285 104.9768193  79.9826216  78.0090934
 103.4774926  79.9930940  78.2183517 118.5534400  86.9312905  78.1753619
 118.7470291  87.8358715  78.4212894 118.4535019  86.4720324  79.0092204
 110.2070711  76.8170795  80.6743946 109.5598626  77.5160745  80.5808422
 110.9771727  77.2506939  81.0420194 113.6149509  87.0819647  83.7494499
 113.4635016  86.8530199  82.8324583 113.6054189  88.0390249  83.7625844
 110.3834846  84.6551560  78.7340766 111.3126906  84.8062720  78.5609733
 109.9625876  84.7435581  77.8789412 109.1823177  88.6802224  76.5039303
 109.0434263  88.3121009  77.3765241 108.3937774  89.1949864  76.3323261
 109.7771329  93.7811321  67.8464840 109.9523085  93.3099364  68.6610462
 109.0904117  94.4077087  68.0746101 110.7328392  88.0583827  73.8928141
 110.3978225  88.0184597  74.7885791 110.2332338  87.3928543  73.4198551
 104.7072636  83.4651457  79.4180722 104.5692434  82.7331696  80.0192261
 105.6177560  83.3760357  79.1364910 113.6687584  85.4039862  64.1665201
 113.0516755  84.6786690  64.0698253 113.2004073  86.1649222  63.8232275
 107.3354937  83.1771417  78.9064402 108.0454556  82.5364609  78.8651020
 107.2924245  83.4284311  79.8290583 115.3241716  90.1138770  81.8270981
 115.2654262  89.4297990  81.1601564 115.7261234  90.8557760  81.3751607
 106.0483871  80.1636634  80.7260041 105.5121228  79.7127373  81.3781638
 105.4600579  80.2982543  79.9830506 104.3432415  96.9300684  74.6204700
 104.5829013  97.5619208  75.2983719 103.5001611  96.5788724  74.9070059
 105.4586130  79.6225286  63.2886505 104.5815596  79.5014087  62.9248752
 105.9343883  78.8311364  63.0365394 115.3259123  88.0778354  80.0584961
 114.4385902  87.7404276  80.1811360 115.8957674  87.3461385  80.2953726
  96.9788270  84.4102446  73.3828012  97.6659310  84.0964176  72.7949027
  96.8236399  85.3143810  73.1095264 101.7822992  79.2992642  77.8113036
 101.6981181  78.6918312  77.0763446 100.9605699  79.7901660  77.8122532
 108.8560276  92.7379806  77.0246204 108.7830448  93.5434778  77.5365509
 108.4137670  92.9371772  76.1994225 108.6450056  91.9751576  70.5349026
 107.8617578  92.5173256  70.6287250 109.3442801  92.4925556  70.9343267
 111.9546706  77.7846206  73.1783231 112.4515406  77.0316168  72.8584301
 111.1833688  77.8210522  72.6126440 119.8076464  83.4886571  74.8201522
 119.7966340  84.3711287  74.4495455 118.9393843  83.1358122  74.6256059
 111.3158960  92.6366640  79.1804363 112.0286932  93.2714105  79.1080264
 110.8248989  92.7330506  78.3644364 113.0376487  86.5417893  70.7521654
 112.1032766  86.6619355  70.5826359 113.2153155  85.6390360  70.4881664
 108.5381675  79.9263589  72.9054915 108.1679462  79.3734629  73.5935821
 109.0340767  79.3221722  72.3529916 116.4249038  82.3835212  71.2871688
 116.8909490  83.2163204  71.2131991 116.8756539  81.9180194  71.9916947
 106.3670873  90.3861084  80.0009933 107.0680333  91.0197567  80.1539328
 105.8965988  90.7275815  79.2405573 114.4925269  88.7279033  68.2857840
 114.7685113  88.6135628  69.1951715 113.6229768  88.3296518  68.2470014
 114.3965701  74.7515799  75.3262590 113.4828781  74.9820026  75.4944797
 114.8258802  74.8354243  76.1776622 114.1672159  82.9405691  77.8262484
 113.5143610  83.1881599  77.1714937 114.5452539  82.1269829  77.4924961
 111.1279333  92.9765384  71.9290654 111.3101728  92.1587040  72.3918406
 111.9512319  93.1933077  71.4915544 111.4621499  91.9033569  69.1905703
 111.9909265  91.3926024  68.5775865 111.7249718  91.5876100  70.0551236
 110.2159732  83.6825502  84.3128521 109.5400369  83.5819631  84.9830896
 111.0387366  83.5264716  84.7764518 101.9638592  89.9197439  76.9341036
 102.5492028  89.1741127  77.0668940 101.7663430  90.2301395  77.8177700
 104.8177247  92.9548686  71.9503479 104.1487622  93.4394814  71.4667519
 104.6790116  93.2017907  72.8646857  96.5556246  82.4903039  75.6545479
  96.5940346  81.9566630  76.4482597  96.0496539  81.9638244  75.0356456
 108.9582515  94.9892430  78.5486137 109.5100823  95.1524051  79.3135222
 109.2988709  95.5796867  77.8766162 103.9347009  77.3367579  79.1508022
 103.9988335  78.1982410  78.7385419 103.8714129  76.7241581  78.4180380
 103.4099281  79.4090712  82.7981056 104.0371320  79.0267789  83.4118580
 102.5527200  79.1904914  83.1636748 113.8093390  89.8153687  84.4034791
 114.3533294  90.4283645  83.9089746 113.2280235  90.3733266  84.9201804
 100.1864824  81.2167141  68.7299411 100.4818265  80.3077819  68.6766464
  99.2852860  81.1954880  68.4080413 112.0950903  92.9374405  75.5349819
 111.9702042  92.1364145  75.0260765 112.7529994  93.4320598  75.0463789
 103.7159071  79.2923138  74.7126959 102.9945657  79.9059105  74.5734433
 104.5052327  79.8280902  74.6343605 114.1585811  90.7383425  77.1629369
 113.2116147  90.6188776  77.0907696 114.5068584  89.8505923  77.2455631
 106.5185384  76.6277564  80.9867611 107.0419786  76.8739861  81.7493920
 106.2997718  77.4597599  80.5670748 101.9152665  78.8981239  68.8538736
 101.5865372  78.0178618  68.6713842 102.2692036  78.8428907  69.7415125
 111.1632244  90.5336141  73.3633721 111.0157207  89.6052849  73.5441291
 111.9885738  90.5556232  72.8790797 105.0294489  79.1854209  69.2214214
 105.3690561  79.7140130  68.4992822 105.4766609  79.5234615  69.9972780
 114.7666366  91.3564700  74.4498594 115.6912914  91.1507561  74.3123045
 114.5981670  91.1081101  75.3587936 107.7237929  77.5691259  78.6717282
 107.3834750  76.7699072  79.0737961 107.0176936  77.8692970  78.0994115
 108.3754401  74.6540572  77.1244605 109.1980471  74.1801050  77.0023495
 108.6192465  75.4331055  77.6243291 107.0162636  77.6828830  67.4207506
 107.7370998  78.0610083  66.9171223 106.3927940  78.4017707  67.5242484
 111.1593759  78.3873979  68.3565839 111.3757373  79.2698617  68.0554667
 110.6787826  77.9960192  67.6271481 105.8992980  81.3459692  74.9336583
 105.7537561  81.6599995  75.8260865 105.4218184  81.9644593  74.3807482
 107.7589363  78.3362240  74.9817473 107.7450932  77.4403334  74.6449771
 108.4761791  78.3432904  75.6155759 109.6115494  78.7699580  77.0270600
 109.3533271  79.6916651  77.0254931 109.0800534  78.3730015  77.7171064
 114.5561682  91.8750368  69.8060686 114.7298560  91.3096790  69.0534538
 115.0490574  92.6751262  69.6240176 100.3738642  83.8865037  77.8724244
  99.8292110  84.6624845  78.0044519 101.2517992  84.2335841  77.7143366
 107.1626259  77.2176621  70.2505043 107.2842170  76.2893267  70.4495930
 106.8728301  77.2315307  69.3383358 110.0317449  74.9031531  73.3871763
 110.0539146  74.9670864  72.4323742 110.4485508  74.0636040  73.5812269
 120.4101074  84.6386791  71.4250985 120.8532220  83.8894116  71.0270109
 119.5327584  84.6296927  71.0424717 115.5436855  91.1917132  66.9057584
 116.2387759  91.8123825  67.1244898 115.8860005  90.3412483  67.1809962
 101.1604664  83.0134933  80.7654401 100.4186400  83.1617568  81.3519032
 100.8397408  83.2743199  79.9021151 117.4428278  88.6416838  68.4344915
 117.9679602  88.9804110  67.7094235 117.3550631  87.7063853  68.2508049
 109.1048327  92.5550911  80.5634791 109.4135453  92.3100058  81.4357491
 109.9023809  92.7597550  80.0753661 109.1268939  94.7088821  72.7940168
 108.6873929  94.2165200  73.4873025 109.8777056  94.1661788  72.5532243
 101.6061278  90.9000362  72.7964796 102.4319298  90.6004134  72.4163439
 101.2555330  90.1307984  73.2454585 106.5742811  90.2526830  74.8662469
 105.9522820  89.5897535  74.5664697 107.2447678  90.2787962  74.1836117
  99.8069883  88.8186688  73.7553729  98.9701791  88.3908862  73.5737731
  99.7793528  89.0119131  74.6924521 106.6467338  78.7308618  84.4594975
 106.6955494  79.6070741  84.0772745 107.1889853  78.1886011  83.8866619
 117.1322184  89.2749741  83.7396113 116.3417728  89.2573880  83.2000612
 116.8955539  89.8138035  84.4945149 117.2520059  86.1242208  81.0528841
 117.3018064  85.9592215  81.9944364 117.1433982  85.2569467  80.6626722
 106.1356318  88.8030753  68.3420930 106.2844438  89.4866218  67.6887603
 106.9422761  88.7835843  68.8570386 114.5423821  82.1073136  82.3688148
 115.4433684  81.9679600  82.0772146 114.6171796  82.2727590  83.3086325
 108.8766627  79.4839990  81.2141334 108.0069936  79.7773556  80.9423923
 109.1126107  80.0680435  81.9348598 118.7538256  88.5439149  81.2970863
 118.4623064  88.9069130  82.1334324 118.1410387  87.8306157  81.1184195
 119.9533938  86.1092029  73.8173433 120.7880830  86.5481833  73.9810993
 120.0893067  85.6330682  72.9981679 117.0025444  83.6671764  79.7650921
 117.4779566  83.8599410  78.9569772 116.0791010  83.7230950  79.5194304
 103.8908951  84.8295931  69.3481999 103.6454993  83.9258261  69.5462209
 104.0604865  84.8313081  68.4061477 111.5805661  75.7019607  78.7306755
 112.0987604  76.4380634  78.4053243 111.2260793  76.0083601  79.5653514
 103.1604598  80.5624288  66.8468160 102.4673843  80.6368643  66.1908196
 102.9156350  79.7984632  67.3689677 111.8318255  72.1219890  74.2507651
 112.1120009  71.4543079  74.8768078 112.6168862  72.3148985  73.7382315
 109.6351723  91.2978884  65.8132677 109.0625690  91.9169071  65.3603149
 110.2084517  91.8478245  66.3472599 115.7027113  80.5437524  77.9979226
 116.6544536  80.6435621  78.0191450 115.5330564  79.7515792  78.5077311
 113.7241493  77.6293107  78.1838627 113.1291425  77.9098120  77.4885116
 113.4391189  78.1187008  78.9555368 112.8548983  91.5816034  66.9441260
 113.7879656  91.5161596  67.1474135 112.7672196  92.4172301  66.4855792
 115.4837000  90.8981904  63.9045207 115.4050631  90.5641768  64.7980965
 116.3046667  91.3903672  63.9036680 118.1815191  83.7643643  77.1121526
 118.1491511  82.8259644  77.2981210 118.7915815  83.8427680  76.3787351
 110.0198522  82.6339696  63.1548730 110.9657627  82.5045905  63.2237148
 109.6412767  81.8954358  63.6318158 118.3309679  80.5554687  77.1579809
 117.8148728  79.7713144  76.9709738 119.2149628  80.2273404  77.3226329
 115.9920406  74.2995702  73.1175622 115.7945227  73.9910791  74.0018954
 116.6020112  75.0257341  73.2473552 109.9037214  86.6857443  84.6149387
 110.8240224  86.8636042  84.8089433 109.8686797  85.7413488  84.4629086
 108.2041439  80.5589673  63.0903615 107.2972894  80.2622786  63.1666329
 108.4817420  80.2619491  62.2237901  99.1219379  81.8796036  73.5402662
  98.8022164  81.0261344  73.2477036  98.5752808  82.0944614  74.2960629
 102.8999287  84.5958477  77.2572168 103.1185297  85.5275585  77.2760202
 103.3125061  84.2366452  78.0426972 109.8203505  75.1026563  69.2447856
 109.0104233  74.7573648  69.6203103 110.5087922  74.7934106  69.8335468
 111.7494053  74.1804609  70.8672153 112.3025092  74.6000063  71.5262176
 111.9864139  73.2540357  70.9095109 107.7727152  80.1691683  86.6474917
 107.6723879  81.1186040  86.5787008 107.5548694  79.8409922  85.7750987
 106.9740224  77.4176608  63.2315594 107.8359388  77.7431506  63.4911412
 107.1590568  76.6308104  62.7188660  98.9907639  85.4998948  75.5095783
  98.2971111  85.0852901  74.9965738  99.7380630  85.5419484  74.9129202
 115.1272860  76.2905135  70.3750817 114.5471529  76.9489939  69.9928870
 114.8608793  75.4682479  69.9638235 113.5776426  75.6910192  72.5772138
 114.0776205  75.8026727  71.7686457 114.2212034  75.3871245  73.2172946
 107.6358422  83.5988822  85.4639979 107.1525504  84.3989182  85.6703868
 107.7219361  83.6096767  84.5107423 100.9044382  85.4317202  73.3861798
 100.8815070  85.5304889  72.4343681 101.2145018  86.2782352  73.7078964
 103.5631760  87.4893357  77.5008412 104.5175013  87.4577299  77.4338344
 103.3644283  87.0283980  78.3158638 104.1531142  86.0594473  80.0679210
 104.9724031  86.5538551  80.0914047 104.4267950  85.1426441  80.0396778
 113.9097738  78.4505225  69.4307166 113.0223593  78.7354876  69.2127360
 114.3251727  78.2898988  68.5834443 117.2612274  78.4751746  73.1461505
 118.0372664  78.9648198  73.4186122 116.5360408  78.9009800  73.6033374
 119.6984833  79.1879365  74.2035445 120.2929324  78.9475101  73.4928754
 119.7711417  78.4686496  74.8308982 101.9181989  93.0312976  74.5178610
 101.7836456  92.2713377  73.9516608 101.5014051  93.7553876  74.0507399
 113.0540952  88.2149900  63.5255186 113.7576802  88.4199902  64.1412841
 112.3303600  88.7826661  63.7904269 113.8838762  83.9659761  69.6457456
 113.8273963  84.4228312  68.8065088 114.4367104  83.2050445  69.4680299
 117.6943568  79.7549493  70.4707575 117.4380502  79.3546128  71.3015783
 117.0696436  80.4693287  70.3457714 105.0751114  93.9282293  74.7297053
 104.9583499  94.8727726  74.6275743 104.2543561  93.6255855  75.1182852
 114.9627649  88.6532429  65.5753646 115.7973253  88.2213627  65.3931120
 114.8011992  88.4814442  66.5030540 114.6173541  85.1564542  66.9409985
 114.5622345  84.9908814  65.9998429 113.9919596  85.8640575  67.0972175
  99.4066056  80.3932606  80.7671407 100.0524920  79.8831560  81.2558632
  99.1983207  81.1301288  81.3414832 111.9319448  87.4613454  86.2663548
 112.8010608  87.6354106  85.9050183 111.4526200  88.2807871  86.1439277
 107.9269667  74.6572651  66.5195303 107.9148336  75.6014491  66.6763574
 108.8193088  74.4742796  66.2254765 106.1005629  94.5810555  77.9452981
 107.0032875  94.6134165  78.2619476 105.8742999  93.6511006  77.9599317
 107.8559231  93.3341541  74.6063060 106.9054862  93.3343403  74.4927432
 108.1591717  92.5874276  74.0899095 111.7421786  71.2515428  70.7741240
 110.9754182  70.6973914  70.9197922 112.1532491  71.3237296  71.6355392
 103.7463547  77.5400224  84.8646421 104.6095009  77.1837028  85.0749746
 103.1728958  77.2014118  85.5521826 120.4001630  99.1229508  75.6070347
 120.0620142  99.0070573  74.7190882 121.2691398  98.7220673  75.5871353
 116.2588446 100.9764984  71.5967238 115.6953311 100.8854921  70.8283526
 116.1440841 100.1564889  72.0769731 120.8821413 100.2764360  81.5656553
 120.8710054  99.8817158  80.6937056 121.0442053  99.5430432  82.1590324
 113.8052878 102.4716176  74.4351458 114.5974170 102.1307001  74.0197758
 114.0449528 102.5811151  75.3553612 115.7643632 101.7325089  67.3068837
 116.5374508 101.1854076  67.1681713 116.1169031 102.5969339  67.5183299
 117.6028674 103.0601472  80.5135737 117.3118540 103.9647102  80.3982403
 118.2385659 103.1017999  81.2279806 118.5284881 100.4378320  77.1037096
 119.1248454 100.2134342  76.3894059 118.5859853  99.6963066  77.7062544
 118.1009910  97.8917755  64.9387287 118.3535430  97.3699277  64.1770750
 117.1634469  97.7283901  65.0413971 117.8206198  99.7945861  67.1411662
 117.7042457  99.1190765  67.8092746 117.9308458  99.3078235  66.3243815
 120.1637739  99.2556008  70.8458351 119.7995947  98.7286629  71.5571273
 121.0204855  98.8654477  70.6724837 119.8043226  94.2845908  65.8419700
 119.9717629  95.1526145  66.2090171 119.6140395  94.4473190  64.9180989
 116.0131041  99.1976684  73.5422235 115.0881537  99.0652898  73.7499926
 116.2615454  99.9770903  74.0392177 119.7832447  96.7403566  66.8266367
 119.6632072  97.1860616  67.6651847 119.0885036  97.0888883  66.2679905
 113.3739852  98.8409957  74.3766024 113.5032233  99.0944436  75.2905435
 112.6937303  99.4337665  74.0570679 120.0356569  96.6835073  83.1317865
 119.2589903  97.2428993  83.1220730 120.6747132  97.1691856  83.6532735
 118.2902941  99.4920526  82.6935832 119.0317626 100.0305570  82.4170655
 117.5839927 100.1186815  82.8507384 120.1189351  96.5722273  78.6641550
 120.9650546  96.9961687  78.8076199 120.0587989  95.9155898  79.3580113
 119.6415058 101.9325265  72.3110367 120.1053403 102.2112968  71.5214990
 119.3771856 101.0308710  72.1283458 116.5339139 101.4796747  75.2490131
 117.1040496 101.9084015  74.6107615 117.1247250 101.1979332  75.9474316
 118.5783944  98.0548418  69.1199932 119.2807987  98.5069461  69.5873859
 118.2464572  97.4132237  69.7479826 117.0264305  96.6460174  83.4951142
 116.3962966  97.3276455  83.7286539 116.9200393  96.5343256  82.5504280
 112.3209278  96.3131970  74.4217066 111.5308332  96.5689499  73.9457177
 112.8120525  97.1280308  74.5269107 114.2724023  96.6776550  71.3800543
 113.4755186  96.7895244  71.8984038 114.0449615  97.0163202  70.5141433
 120.1029691 103.2021253  79.3283057 120.1674123 103.6641660  80.1641229
 119.3940614 102.5718618  79.4565367 110.6046981  96.5662461  76.8532057
 110.8555019  97.4509471  77.1189633 111.1406529  96.3867062  76.0807149
 116.3045048  90.9480940  85.8576393 115.9111993  90.3947139  86.5324037
 117.1211188  91.2591519  86.2482910 113.2707106 102.3864798  69.7689963
 113.7831626 103.1808049  69.9195527 113.9229818 101.6891089  69.7023564
 115.0801990 105.5030555  71.8512716 115.2568619 106.4248519  71.6633700
 115.8758824 105.1888974  72.2807096 119.2213009  92.3638819  83.4496649
 119.9622722  92.9645972  83.3701112 119.4530932  91.6216457  82.8914692
 114.3654347  97.5495187  81.7274879 114.2507862  96.6480444  82.0281978
 113.5098865  97.7958883  81.3759696 116.2033306 107.0208728  77.8523058
 116.7540731 106.8925792  77.0800052 115.3644782 107.3203617  77.5017951
 120.0000477 103.2859856  82.1967289 120.5328814 102.5248144  81.9666597
 119.4714558 102.9933508  82.9391444 111.2356022 100.7153453  70.5449533
 112.0731244 101.1250461  70.3283241 111.4134290  99.7752895  70.5149727
 120.7167566  93.2278234  71.2918605 119.8609162  92.8385084  71.1124243
 121.1294517  93.3070195  70.4318390 118.4909598  90.8463307  74.6976346
 119.3562595  90.6506116  74.3382236 118.5587107  90.6173659  75.6245703
 121.3653190 102.4145849  69.7086101 120.8374551 101.6798608  69.3959339
 120.8640692 103.1920525  69.4626070 116.0971917  93.0765515  72.0692713
 116.6715669  92.8540697  71.3365906 116.6842900  93.1454210  72.8221314
 116.4241504  95.1069976  66.0888598 115.5878817  95.4444663  66.4097873
 116.2846274  94.9718956  65.1515735 118.3994585  89.9506764  70.7967782
 117.7458997  89.6355781  70.1724397 118.3575059  89.3282504  71.5227605
 119.5105790 100.2326059  62.7121074 118.6032851 100.0015312  62.9112223
 120.0076822  99.4363678  62.8995056 120.6894023 100.3338654  67.2345065
 119.7805242 100.0497687  67.3317534 120.7189107 100.7537732  66.3748371
 111.2582194  98.0544168  71.2160267 111.0606593  97.4613529  70.4911333
 110.7028858  97.7496378  71.9336206 119.2378917  97.9467274  73.3354860
 119.2927527  96.9941111  73.2597336 118.4270119  98.1026714  73.8196158
 120.3870111 101.8747398  64.5733143 119.9489541 101.1583256  64.1138780
 121.1280552 102.1023512  64.0118235 117.1771277  96.5644334  71.0945239
 116.3639143  96.8638505  71.5010431 117.6730271  96.1700023  71.8119721
 116.6685352  94.1362690  76.7106474 117.3084731  93.9951449  76.0129437
 115.8362882  93.8497203  76.3345076 117.4445656 103.4365120  72.8241466
 118.2386254 102.9415440  72.6224041 116.7337348 102.9082983  72.4609172
 113.7528419  97.5808202  68.9001219 112.8226007  97.5192657  69.1171181
 113.8485891  97.0584155  68.1037860 113.6713968  94.1063015  71.4879461
 113.9320786  95.0208348  71.3788621 114.4931141  93.6387457  71.6376073
 115.1438894  95.5200772  78.6578285 115.8161947  95.3118134  78.0090934
 114.3168680  95.3222858  78.2183517 120.0216932 104.0094142  76.5039303
 119.8828017 103.6412927  77.3765241 119.2331528 104.5241782  76.3323261
 121.5722147 103.3875745  73.8928141 121.2371980 103.3476515  74.7885791
 121.0726093 102.7220461  73.4198551 115.5466391  98.7943375  79.4180722
 115.4086189  98.0623614  80.0192261 116.4571314  98.7052275  79.1364910
 118.1748692  98.5063334  78.9064402 118.8848310  97.8656526  78.8651020
 118.1318000  98.7576229  79.8290583 116.8877626  95.4928552  80.7260041
 116.3514983  95.0419291  81.3781638 116.2994334  95.6274461  79.9830506
 116.2979884  94.9517203  63.2886505 115.4209351  94.8306004  62.9248752
 116.7737638  94.1603282  63.0365394 107.8182025  99.7394363  73.3828012
 108.5053064  99.4256093  72.7949027 107.6630153 100.6435728  73.1095264
 112.6216747  94.6284560  77.8113036 112.5374936  94.0210229  77.0763446
 111.7999453  95.1193578  77.8122532 119.3775429  95.2555506  72.9054915
 119.0073217  94.7026547  73.5935821 119.8734522  94.6513640  72.3529916
 117.2064628 105.7153001  80.0009933 117.9074087 106.3489484  80.1539328
 116.7359743 106.0567733  79.2405573 112.8032346 105.2489356  76.9341036
 113.3885783 104.5033044  77.0668940 112.6057184 105.5593313  77.8177700
 107.3950001  97.8194957  75.6545479 107.4334100  97.2858547  76.4482597
 106.8890294  97.2930162  75.0356456 114.7740763  92.6659497  79.1508022
 114.8382090  93.5274328  78.7385419 114.7107883  92.0533499  78.4180380
 114.2493036  94.7382630  82.7981056 114.8765074  94.3559707  83.4118580
 113.3920954  94.5196832  83.1636748 111.0258578  96.5459059  68.7299411
 111.3212019  95.6369737  68.6766464 110.1246614  96.5246798  68.4080413
 114.5552825  94.6215055  74.7126959 113.8339411  95.2351023  74.5734433
 115.3446081  95.1572820  74.6343605 117.3579139  91.9569482  80.9867611
 117.8813541  92.2031778  81.7493920 117.1391472  92.7889517  80.5670748
 112.7546420  94.2273156  68.8538736 112.4259126  93.3470535  68.6713842
 113.1085791  94.1720825  69.7415125 115.8688243  94.5146126  69.2214214
 116.2084316  95.0432047  68.4992822 116.3160364  94.8526532  69.9972780
 118.5631684  92.8983177  78.6717282 118.2228504  92.0990990  79.0737961
 117.8570690  93.1984888  78.0994115 119.2148156  89.9832489  77.1244605
 120.0374225  89.5092968  77.0023495 119.4586219  90.7622973  77.6243291
 117.8556390  93.0120748  67.4207506 118.5764753  93.3902001  66.9171223
 117.2321694  93.7309625  67.5242484 116.7386734  96.6751610  74.9336583
 116.5931315  96.9891913  75.8260865 116.2611938  97.2936510  74.3807482
 118.5983117  93.6654158  74.9817473 118.5844686  92.7695251  74.6449771
 119.3155545  93.6724822  75.6155759 120.4509248  94.0991498  77.0270600
 120.1927026  95.0208569  77.0254931 119.9194288  93.7021933  77.7171064
 111.2132397  99.2156954  77.8724244 110.6685865  99.9916762  78.0044519
 112.0911747  99.5627759  77.7143366 118.0020013  92.5468538  70.2505043
 118.1235924  91.6185184  70.4495930 117.7122056  92.5607224  69.3383358
 120.8711204  90.2323449  73.3871763 120.8932901  90.2962782  72.4323742
 121.2879263  89.3927957  73.5812269 111.9998419  98.3426851  80.7654401
 111.2580155  98.4909486  81.3519032 111.6791163  98.6035116  79.9021151
 112.4455032 106.2292279  72.7964796 113.2713052 105.9296051  72.4163439
 112.0949084 105.4599902  73.2454585 117.4136565 105.5818748  74.8662469
 116.7916575 104.9189453  74.5664697 118.0841432 105.6079879  74.1836117
 110.6463637 104.1478606  73.7553729 109.8095546 103.7200780  73.5737731
 110.6187283 104.3411049  74.6924521 117.4861093  94.0600536  84.4594975
 117.5349248  94.9362658  84.0772745 118.0283607  93.5177929  83.8866619
 116.9750072 104.1322671  68.3420930 117.1238193 104.8158135  67.6887603
 117.7816516 104.1127761  68.8570386 119.7160381  94.8131908  81.2141334
 118.8463691  95.1065474  80.9423923 119.9519862  95.3972353  81.9348598
 114.7302705 100.1587849  69.3481999 114.4848747  99.2550179  69.5462209
 114.8998620 100.1604999  68.4061477 113.9998353  95.8916206  66.8468160
 113.3067598  95.9660561  66.1908196 113.7550105  95.1276550  67.3689677
 119.0435193  95.8881591  63.0903615 118.1366649  95.5914703  63.1666329
 119.3211174  95.5911409  62.2237901 109.9613134  97.2087954  73.5402662
 109.6415918  96.3553262  73.2477036 109.4146562  97.4236532  74.2960629
 113.7393041  99.9250395  77.2572168 113.9579051 100.8567503  77.2760202
 114.1518815  99.5658369  78.0426972 120.6597259  90.4318480  69.2447856
 119.8497987  90.0865565  69.6203103 121.3481676  90.1226024  69.8335468
 118.6120907  95.4983601  86.6474917 118.5117634  96.4477958  86.5787008
 118.3942449  95.1701840  85.7750987 117.8133978  92.7468526  63.2315594
 118.6753142  93.0723424  63.4911412 117.9984322  91.9600022  62.7188660
 109.8301394 100.8290865  75.5095783 109.1364865 100.4144818  74.9965738
 110.5774385 100.8711402  74.9129202 118.4752177  98.9280740  85.4639979
 117.9919258  99.7281100  85.6703868 118.5613116  98.9388684  84.5107423
 111.7438136 100.7609119  73.3861798 111.7208824 100.8596806  72.4343681
 112.0538773 101.6074270  73.7078964 114.4025514 102.8185274  77.5008412
 115.3568768 102.7869217  77.4338344 114.2038038 102.3575898  78.3158638
 114.9924896 101.3886390  80.0679210 115.8117785 101.8830469  80.0914047
 115.2661704 100.4718358  80.0396778 112.7575743 108.3604894  74.5178610
 112.6230211 107.6005295  73.9516608 112.3407805 109.0845794  74.0507399
 110.2459811  95.7224524  80.7671407 110.8918674  95.2123478  81.2558632
 110.0376962  96.4593206  81.3414832 118.7663421  89.9864569  66.5195303
 118.7542091  90.9306409  66.6763574 119.6586843  89.8034714  66.2254765
 114.5857302  92.8692141  84.8646421 115.4488763  92.5128946  85.0749746
 114.0122712  92.5306036  85.5521826  52.5076814  -5.4582176  57.2001805
  52.4300843  -4.5074351  57.2790285  51.9038457  -5.8036304  57.8576731
  50.1463643  -2.7096782  61.3450007  50.3860242  -2.0778258  62.0229025
  49.3032840  -3.0608742  61.6315366  50.6208476  -6.6848780  58.6748785
  49.9518851  -6.2002652  58.1912825  50.4821345  -6.4379559  59.5892164
  54.7613744  -4.6505036  65.2731444  55.3132052  -4.4873415  66.0380529
  55.1019938  -4.0600598  64.6011468  47.7213217  -6.6084490  61.2423917
  47.5867685  -7.3684089  60.6761915  47.3045280  -5.8843590  60.7752706
  50.8782343  -5.7115173  61.4542360  50.7614727  -4.7669740  61.3521050
  50.0574789  -6.0141611  61.8428159  51.9036857  -5.0586911  64.6698288
  52.8064104  -5.0263301  64.9864783  51.6774227  -5.9886460  64.6844624
  66.2032859  -0.5167958  62.3315654  65.8651371  -0.6326893  61.4436189
  67.0722627  -0.9176793  62.3116660  62.0619675   1.3367519  58.3212545
  61.4984540   1.2457456  57.5528832  61.9472070   0.5167423  58.8015037
  66.6852642   0.6366894  68.2901859  66.6741283   0.2419692  67.4182363
  66.8473282  -0.0967033  68.8835631  59.6084107   2.8318710  61.1596765
  60.4005399   2.4909535  60.7443064  59.8480757   2.9413685  62.0798918
  67.6419234   5.0038486  53.6327010  66.9907213   5.5892567  53.2461023
  68.4363596   5.5344681  53.6922047  61.5674861   2.0927623  54.0314144
  62.3405737   1.5456611  53.8927020  61.9200260   2.9571873  54.2428605
  63.4059903   3.4204006  67.2381043  63.1149769   4.3249637  67.1227710
  64.0416888   3.4620533  67.9525113  64.3316110   0.7980854  63.8282403
  64.9279682   0.5736877  63.1139366  64.3891082   0.0565600  64.4307851
  69.1194499   2.6928918  54.1695994  68.4840332   2.7663545  54.8816899
  68.7891905   3.2822517  53.4915073  63.6237427   0.1548396  53.8656969
  63.5073685  -0.5206701  54.5338053  63.7339687  -0.3319231  53.0489122
  65.9668968  -0.3841457  57.5703658  65.6027175  -0.9110836  58.2816580
  66.8236084  -0.7742988  57.3970143  68.3649788   3.1065421  64.2330837
  68.0650511   4.0090460  64.1246644  68.0200848   2.8397604  65.0851990
  61.8162270  -0.4420782  60.2667541  60.8912766  -0.5744568  60.4745233
  62.0646683   0.3373437  60.7637484  59.1771081  -0.7987508  61.1011330
  59.3063462  -0.5453029  62.0150742  58.4968532  -0.2059800  60.7815985
  63.3470568   9.8709742  57.2001805  63.2694598  10.8217567  57.2790285
  62.7432212   9.5255614  57.8576731  64.0934170  -0.1476940  69.4181139
  64.8348855   0.3908104  69.1415962  63.3871156   0.4789349  69.5752690
  69.5689510   1.9952201  68.0153300  69.9772866   1.5534611  67.2707932
  68.8466771   1.4204828  68.2687493  69.8918324   2.5553391  61.7705589
  69.2627187   2.7199106  61.0681657  69.5043987   2.9695001  62.5416553
  73.7707556   3.4907829  59.1249953  73.0858595   3.8706731  58.5746986
  73.8551406   4.1003156  59.8581900  71.0258488   1.1367788  65.7245296
  71.2375383   1.7799548  65.0479677  70.9788236   0.3030105  65.2567226
  65.4446286   2.2927800  59.0355674  65.9084632   2.5715503  58.2460296
  65.1803084   1.3911244  58.8528765  62.3370367   1.8399281  61.9735437
  62.9071725   2.2686549  61.3352922  62.9278479   1.5581866  62.6719623
  58.1240506  -3.3265495  61.1462373  57.3339560  -3.0707967  60.6702483
  58.6151754  -2.5117158  61.2514413  72.1404316   4.0139744  63.8967654
  72.9621760   3.6119931  63.6150335  72.1366719   3.9107978  64.8483769
  60.0755252  -2.9620916  58.1045849  59.2786415  -2.8502222  58.6229345
  59.8480844  -2.6234264  57.2386740  65.9060919   3.5623787  66.0528364
  65.9705352   4.0244194  66.8886536  65.1971843   2.9321152  66.1810674
  56.4078209  -3.0735005  63.5777363  56.6586248  -2.1887995  63.8434939
  56.9437758  -3.2530403  62.8052455  65.6208937   5.2291895  55.9207344
  65.4854612   6.0743430  56.3492192  66.1618750   5.4311172  55.1573278
  59.0738334   2.7467333  56.4935269  59.5862855   3.5410583  56.6440834
  59.7261047   2.0493623  56.4268871  60.8833219   5.8633089  58.5758023
  61.0599847   6.7851054  58.3879006  61.6790053   5.5491508  59.0052402
  60.1685576  -2.0902279  68.4520186  60.0539091  -2.9917022  68.7527285
  59.3130093  -1.8438582  68.1005002  67.2477413   5.8515461  70.0507686
  66.8041268   5.0651840  69.7328591  67.9094627   6.0394612  69.3851577
  62.0064535   7.3811263  64.5768365  62.5571960   7.2528326  63.8045359
  61.1676011   7.6806152  64.2263258  69.3458651   6.1318261  68.0789088
  69.3277127   6.9527142  67.5869357  70.2678572   6.0072336  68.3039229
  65.8031706   3.6462390  68.9212596  66.3360042   2.8850679  68.6911904
  65.2745787   3.3536042  69.6636751  57.0387251   1.0755987  57.2694840
  57.8762473   1.4852995  57.0528548  57.2165519   0.1355429  57.2395034
  67.1684418   2.7748383  56.4331408  66.6405780   2.0401143  56.1204646
  66.6671921   3.5523059  56.1871376  72.1477264   0.9697403  61.5498454
  71.4900939   1.6596665  61.6378583  72.9517664   1.3593835  61.8932441
  65.3137019   0.5928593  49.4366381  64.4064080   0.3617847  49.6357530
  65.8108051  -0.2033788  49.6240363  68.2205097   9.3026100  52.3563067
  67.5466796   9.6057797  52.9648025  68.6070919  10.1055181  52.0068524
  66.4925252   0.6941188  53.9590371  65.5836471   0.4100221  54.0562841
  66.5220336   1.1140267  53.0993678  71.7244519   4.3047778  57.7281539
  71.2706846   3.4638687  57.7846729  71.0938486   4.9409176  58.0656319
  70.1677459   6.1424274  58.6631357  70.4600433   6.7029331  57.9443723
  70.6776079   6.4352835  59.4184516  57.0613422  -1.5853298  57.9405573
  56.8637822  -2.1783937  57.2156640  56.5060086  -1.8901088  58.6581512
  66.1901340   2.2349932  51.2978450  65.7520770   1.5185791  50.8384087
  66.9311781   2.4626047  50.7363541  65.1311084   6.9204625  59.7524810
  65.0887263   7.1465472  58.8233342  66.0473783   6.6868000  59.9010611
  74.3343834   2.5783656  62.3666040  74.7680341   2.4858945  63.2149094
  75.0475415   2.5541156  61.7286056  63.2476885   3.7967654  59.5486773
  64.0417483   3.3017975  59.3469348  62.5368577   3.2685518  59.1854478
  68.0671729   6.1785750  63.8999140  68.1208751   6.7476686  64.6676856
  67.1986510   6.3487635  63.5353178  59.5559648  -2.0589264  55.6246526
  58.6257236  -2.1204808  55.8416488  59.6517120  -2.5813311  54.8283167
  75.1959384   2.6207356  64.8998925  75.3895274   3.5253167  65.1458200
  75.0960002   2.1614776  65.7337510  70.2574492   2.7714099  70.4739806
  70.1059999   2.5424651  69.5569890  70.2479172   3.7284701  70.4871151
  67.0259829   0.3446012  65.4586072  67.9551889   0.4957172  65.2855040
  66.6050859   0.4330033  64.6034719  65.8248161   4.3696676  63.2284610
  65.6859246   4.0015461  64.1010548  65.0362757   4.8844316  63.0568568
  66.4196313   9.4705773  54.5710146  66.5948068   8.9993816  55.3855769
  65.7329101  10.0971539  54.7991407  67.3753376   3.7478279  60.6173448
  67.0403208   3.7079049  61.5131098  66.8757321   3.0822995  60.1443858
  61.3497620  -0.8454091  66.1426029  61.2117418  -1.5773852  66.7437568
  62.2602543  -0.9345191  65.8610217  70.3112567   1.0934313  50.8910507
  69.6941738   0.3681142  50.7943560  69.8429056   1.8543674  50.5477582
  63.9779920  -1.1334132  65.6309709  64.6879539  -1.7740939  65.5896327
  63.9349229  -0.8821237  66.5535889  71.9666699   5.8033222  68.5516288
  71.9079245   5.1192442  67.8846871  72.3686217   6.5452212  68.0996914
  60.9857398  12.6195136  61.3450007  61.2253996  13.2513660  62.0229025
  60.1426594  12.2683176  61.6315366  71.9684106   3.7672806  66.7830267
  71.0810885   3.4298727  66.9056666  72.5382657   3.0355837  67.0199033
  53.6213253   0.0996897  60.1073319  54.3084293  -0.2141373  59.5194334
  53.4661382   1.0038262  59.8340570  65.4985260   8.4274258  63.7491511
  65.4255431   9.2329230  64.2610815  65.0562653   8.6266224  62.9239532
  65.2875039   7.6646028  57.2594332  64.5042561   8.2067708  57.3532557
  65.9867785   8.1820008  57.6588573  67.9583943   8.3261092  65.9049669
  68.6711915   8.9608557  65.8325571  67.4673972   8.4224958  65.0889671
  69.6801470   2.2312345  57.4766961  68.7457749   2.3513807  57.3071665
  69.8578139   1.3284812  57.2126971  63.0095857   6.0755536  66.7255240
  63.7105316   6.7092018  66.8784634  62.5390972   6.4170267  65.9650879
  71.1350253   4.4173485  55.0103147  71.4110096   4.3030080  55.9197021
  70.2654751   4.0190970  54.9715320  67.7704317   8.6659836  58.6535961
  67.9526711   7.8481492  59.1163713  68.5937303   8.8827528  58.2160851
  68.1046482   7.5928021  55.9151009  68.6334249   7.0820476  55.3021171
  68.3674702   7.2770551  56.7796542  66.8584716  -0.6280046  71.0373828
  66.1825353  -0.7285917  71.7076203  67.6812350  -0.7840832  71.5009825
  58.6063575   5.6091891  63.6586343  59.1917012   4.8635578  63.7914247
  58.4088413   5.9195847  64.5423007  61.4602230   8.6443138  58.6748785
  60.7912605   9.1289266  58.1912825  61.3215100   8.8912358  59.5892164
  53.1981230  -1.8202509  62.3790786  53.2365329  -2.3538919  63.1727904
  52.6921522  -2.3467304  61.7601763  65.6007499  10.6786881  65.2731444
  66.1525807  10.8418503  66.0380529  65.9413692  11.2691319  64.6011468
  70.4518373   5.5048139  71.1280098  70.9958277   6.1178097  70.6335053
  69.8705218   6.0627717  71.6447111  56.8289807  -3.0938407  55.4544717
  57.1243248  -4.0027729  55.4011771  55.9277843  -3.1150668  55.1325720
  68.7375886   8.6268857  62.2595126  68.6127025   7.8258597  61.7506071
  69.3954977   9.1215050  61.7709096  70.8010794   6.4277877  63.8874676
  69.8541130   6.3083228  63.8153002  71.1493567   5.5400375  63.9700937
  67.8057228   6.2230593  60.0879028  67.6582190   5.2947301  60.2686598
  68.6310721   6.2450684  59.6036103  71.4091349   7.0459152  61.1743901
  72.3337897   6.8402013  61.0368352  71.2406653   6.7975553  62.0833242
  71.1986666   7.5644819  56.5305992  71.3723543   6.9991242  55.7779845
  71.6915557   8.3645714  56.3485482  57.0163625  -0.4240511  64.5969551
  56.4717094   0.3519297  64.7289825  57.8942975  -0.0769707  64.4388672
  72.1861838   6.8811584  53.6302890  72.8812743   7.5018277  53.8490205
  72.5284988   6.0306935  53.9055268  57.8029647  -1.2970615  67.4899708
  57.0611383  -1.1487980  68.0764338  57.4822392  -1.0362350  66.6266457
  74.0853261   4.3311289  55.1590221  74.6104585   4.6698562  54.4339541
  73.9975614   3.3958305  54.9753356  65.7473310   8.2445363  67.2880098
  66.0560436   7.9994510  68.1602797  66.5448792   8.4492002  66.7998968
  65.7693922  10.3983273  59.5185474  65.3298912   9.9059651  60.2118331
  66.5202039   9.8556240  59.2777550  58.2486261   6.5894814  59.5210102
  59.0744281   6.2898585  59.1408746  57.8980313   5.8202436  59.9699891
  63.2167794   5.9421282  61.5907776  62.5947803   5.2791987  61.2910004
  63.8872661   5.9682414  60.9081424  56.4494866   4.5081140  60.4799036
  55.6126774   4.0803314  60.2983037  56.4218511   4.7013583  61.4169827
  73.7747167   4.9644193  70.4641419  72.9842711   4.9468332  69.9245919
  73.5380522   5.5032487  71.2190456  62.7781301   4.4925205  55.0666237
  62.9269421   5.1760670  54.4132909  63.5847745   4.4730295  55.5815692
  75.3963239   4.2333601  68.0216169  75.1048048   4.5963582  68.8579630
  74.7835370   3.5200609  67.8429501  60.5333934   0.5190383  56.0727306
  60.2879976  -0.3847287  56.2707516  60.7029849   0.5207533  55.1306784
  66.2776707   6.9873336  52.5377984  65.7050674   7.6063523  52.0848456
  66.8509500   7.5372697  53.0717906  69.4973966   7.2710486  53.6686566
  70.4304640   7.2056047  53.8719442  69.4097179   8.1066753  53.2101099
  72.1261983   6.5876356  50.6290514  72.0475615   6.2536220  51.5226272
  72.9471650   7.0798124  50.6281986  66.5462198   2.3751894  71.3394694
  67.4665207   2.5530493  71.5334740  66.5111781   1.4307940  71.1874393
  55.7644363  -2.4309512  60.2647968  55.4447147  -3.2844204  59.9722342
  55.2177791  -2.2160934  61.0205936  59.5424270   0.2852929  63.9817475
  59.7610280   1.2170037  64.0005509  59.9550044  -0.0739096  64.7672279
  55.6332623   1.1893400  62.2341090  54.9396094   0.7747352  61.7211044
  56.3805614   1.2313936  61.6374509  64.2783406  -0.7116726  72.1885285
  63.7950487   0.0883634  72.3949174  64.3644345  -0.7008781  71.2352729
  57.5469365   1.1211653  60.1107105  57.5240053   1.2199341  59.1588988
  57.8570002   1.9676804  60.4324271  60.2056743   3.1787808  64.2253719
  61.1599997   3.1471751  64.1583651  60.0069267   2.7178432  65.0403945
  60.7956125   1.7488924  66.7924517  61.6149014   2.2433003  66.8159354
  61.0692933   0.8320893  66.7642084  58.5606972   8.7207428  61.2423917
  58.4261440   7.9607829  60.6761915  58.1439034   9.4448328  60.7752706
  69.6965935   3.9044351  50.2500492  70.4001785   4.1094354  50.8658148
  68.9728584   4.4721113  50.5149576  61.7176098   9.6176745  61.4542360
  61.6008482  10.5622177  61.3521050  60.8968544   9.3150306  61.8428159
  71.6052632   4.3426881  52.2998952  72.4398236   3.9108079  52.1176427
  71.4436975   4.1708894  53.2275847  71.2598524   0.8458994  53.6655292
  71.2047328   0.6803265  52.7243736  70.6344580   1.5535027  53.8217481
  56.0491039  -3.9172942  67.4916714  56.6949903  -4.4273988  67.9803939
  55.8408191  -3.1804260  68.0660139  68.5744432   3.1507906  72.9908854
  69.4435591   3.3248558  72.6295489  68.0951183   3.9702323  72.8684584
  62.7430612  10.2705007  64.6698288  63.6457859  10.3028617  64.9864783
  62.5167982   9.3405458  64.6844624  64.4984214   9.0235993  61.3308367
  63.5479845   9.0237855  61.2172739  64.8016700   8.2768728  60.8144401
  80.2336907  14.8596532  62.3954129  80.8715317  14.7403279  61.6917469
  80.1157750  15.8077376  62.4542081  77.0426614  14.8123960  62.3315654
  76.7045125  14.6965025  61.4436189  77.9116382  14.4115125  62.3116660
  72.9013429  16.6659436  58.3212545  72.3378294  16.5749373  57.5528832
  72.7865824  15.8459341  58.8015037  77.5246397  15.9658812  68.2901859
  77.5135037  15.5711610  67.4182363  77.6867036  15.2324884  68.8835631
  70.4477861  18.1610628  61.1596765  71.2399153  17.8201453  60.7443064
  70.6874511  18.2705603  62.0798918  78.4812988  20.3330404  53.6327010
  77.8300968  20.9184484  53.2461023  79.2757351  20.8636599  53.6922047
  72.4068615  17.4219541  54.0314144  73.1799491  16.8748528  53.8927020
  72.7594014  18.2863790  54.2428605  74.2453658  18.7495923  67.2381043
  73.9543524  19.6541554  67.1227710  74.8810642  18.7912451  67.9525113
  75.1709865  16.1272772  63.8282403  75.7673437  15.9028794  63.1139366
  75.2284836  15.3857517  64.4307851  74.7434893  13.5812207  51.6632594
  74.9960414  13.0593729  50.9016057  73.8059452  13.4178353  51.7659277
  79.7878176  12.5847986  59.4707337  80.5741265  12.1667409  59.1197754
  80.0516880  13.4894078  59.6388985  79.9588253  18.0220836  54.1695994
  79.3234086  18.0955462  54.8816899  79.6285660  18.6114435  53.4915073
  85.1886603  12.5223219  60.3740316  85.9211775  11.9522436  60.6078145
  84.4325959  12.1344819  60.8146821  74.4631182  15.4840313  53.8656969
  74.3467440  14.8085217  54.5338053  74.5733442  14.9972687  53.0489122
  76.8062723  14.9450460  57.5703658  76.4420930  14.4181081  58.2816580
  77.6629839  14.5548929  57.3970143  82.7112023   6.2344793  64.8334924
  82.3795348   7.1040204  64.6096139  82.1157637   5.9181077  65.5128955
  76.4468210   9.9740360  52.5665007  76.6142612  10.8420596  52.9335478
  76.2565379  10.1367642  51.6426296  79.2043543  18.4357339  64.2330837
  78.9044266  19.3382378  64.1246644  78.8594602  18.1689522  65.0851990
  72.6556024  14.8871136  60.2667541  71.7306521  14.7547350  60.4745233
  72.9040438  15.6665355  60.7637484  82.6040687  10.9539879  61.9128274
  81.6957564  10.8855288  61.6187035  82.5528282  11.4311824  62.7410100
  76.4257431  12.4298018  53.5511673  76.3057056  12.8755068  54.3897154
  75.7310019  12.7783335  52.9925212  70.0164835  14.5304409  61.1011330
  70.1457217  14.7838888  62.0150742  69.3362287  15.1232117  60.7815985
  74.1864323  25.2001659  57.2001805  74.1088352  26.1509484  57.2790285
  73.5825966  24.8547532  57.8576731  76.6781552  12.3729525  69.8563172
  75.9014886  12.9323445  69.8466036  77.3172115  12.8586308  70.3778042
  84.4702333   9.1556318  63.6906148  83.8276713   9.4488851  63.0445943
  83.9657262   9.0409238  64.4959345  82.1242497  12.9019491  54.3792007
  83.0360353  13.1346877  54.2039705  81.6152144  13.4856535  53.8167086
  74.9327925  15.1814978  69.4181139  75.6742609  15.7200022  69.1415962
  74.2264910  15.8081267  69.5752690  80.4083264  17.3244119  68.0153300
  80.8166620  16.8826529  67.2707932  79.6860526  16.7496746  68.2687493
  76.7614334  12.2616725  65.3886857  77.6075530  12.6856139  65.5321506
  76.7012972  11.6050350  66.0825420  80.7312079  17.8845309  61.7705589
  80.1020941  18.0491023  61.0681657  80.3437741  18.2986919  62.5416553
  84.6101311  18.8199747  59.1249953  83.9252349  19.1998648  58.5746986
  84.6945160  19.4295074  59.8581900  79.9113780   9.9221094  67.0468031
  79.6674712  10.6763154  66.5102306  80.1873710  10.3006441  67.8815278
  81.8652242  16.4659706  65.7245296  82.0769138  17.1091466  65.0479677
  81.8181991  15.6322023  65.2567226  79.4678471   9.0777527  62.6281868
  78.6062950   9.3758780  62.9198606  79.4940906   9.2947926  61.6962901
  76.2840041  17.6219717  59.0355674  76.7478386  17.9007420  58.2460296
  76.0196839  16.7203162  58.8528765  73.1764122  17.1691199  61.9735437
  73.7465479  17.5978467  61.3352922  73.7672234  16.8873783  62.6719623
  75.2208927  13.7442870  55.8445239  75.9232970  14.1963913  56.3119165
  74.8889555  13.1026688  56.4725132  73.6689288  12.3354626  70.2196449
  73.0387949  13.0170907  70.4531845  73.5625376  12.2237708  69.2749587
  68.9634261  12.0026422  61.1462373  68.1733315  12.2583951  60.6702483
  69.4545508  12.8174760  61.2514413  82.9798070  19.3431661  63.8967654
  83.8015514  18.9411849  63.6150335  82.9760473  19.2399896  64.8483769
  70.9149006  12.3671002  58.1045849  70.1180170  12.4789696  58.6229345
  70.6874598  12.7057654  57.2386740  76.7454674  18.8915705  66.0528364
  76.8099106  19.3536112  66.8886536  76.0365598  18.2613070  66.1810674
  67.2471964  12.2556913  63.5777363  67.4980002  13.1403923  63.8434939
  67.7831512  12.0761514  62.8052455  91.0704063  15.6870410  60.2452625
  90.3167772  15.1177808  60.0896629  91.2051605  15.6533074  61.1923260
  76.4602692  20.5583812  55.9207344  76.3248366  21.4035348  56.3492192
  77.0012504  20.7603090  55.1573278  72.9470031   6.6375392  72.5821700
  72.5536977   6.0841591  73.2569344  73.7636171   6.9485971  72.9728217
  69.9132089  18.0759250  56.4935269  70.4256609  18.8702501  56.6440834
  70.5654802  17.3785541  56.4268871  71.7226974  21.1925007  58.5758023
  71.8993602  22.1142971  58.3879006  72.5183807  20.8783426  59.0052402
  75.8637992   8.0533271  70.1741956  76.6047706   8.6540424  70.0946419
  76.0955915   7.3110909  69.6159999  71.0079330  13.2389638  68.4520186
  70.8932845  12.3374896  68.7527285  70.1523848  13.4853335  68.1005002
  78.0871168  21.1807379  70.0507686  77.6435022  20.3943757  69.7328591
  78.7488381  21.3686529  69.3851577  72.8458289  22.7103180  64.5768365
  73.3965714  22.5820244  63.8045359  72.0069765  23.0098069  64.2263258
  80.1852406  21.4610179  68.0789088  80.1670881  22.2819060  67.5869357
  81.1072326  21.3364254  68.3039229  76.6425460  18.9754308  68.9212596
  77.1753797  18.2142596  68.6911904  76.1139541  18.6827960  69.6636751
  79.8095155   4.0814374  64.4506238  79.4659424   4.9716016  64.3745348
  80.1774118   3.8916032  63.5875823  67.8781006  16.4047905  57.2694840
  68.7156228  16.8144913  57.0528548  68.0559273  15.4647347  57.2395034
  79.7745438  14.0722985  52.9578673  79.2592061  14.8427590  53.1967060
  79.5022746  13.3988121  53.5811734  77.3592549   8.9172686  58.0163911
  76.5034145   8.5279536  57.8369550  77.7719501   8.9964647  57.1563697
  78.8891695   6.4519029  62.4155471  78.3856491   6.4149164  61.6023276
  79.1822302   7.3611772  62.4752128  75.1334581   6.5357759  61.4221653
  75.9987578   6.3400568  61.0627542  75.2012090   6.3068111  62.3491010
  84.7479712  16.8255340  54.8931846  83.9709155  16.4866499  54.4487008
  85.4271193  16.8307963  54.2186811  79.5631741  11.9450077  54.7838454
  79.2581877  12.2596226  55.6348597  80.5162183  12.0231497  54.8265787
  78.0078173  18.1040301  56.4331408  77.4799534  17.3693060  56.1204646
  77.5065676  18.8814977  56.1871376  82.9871019  16.2989321  61.5498454
  82.3294693  16.9888583  61.6378583  83.7911418  16.6885753  61.8932441
  72.7396900   8.7659967  58.7938020  73.3140652   8.5435148  58.0611213
  73.3267883   8.8348661  59.5466621  81.7976478  14.6533694  59.6002396
  82.3108359  15.2863686  60.1024106  82.4477702  14.0534889  59.2345756
  73.0666488  10.7964428  52.8133905  72.2303800  11.1339114  53.1343180
  72.9271257  10.6613408  51.8761042  75.0419568   5.6401216  57.5213089
  74.3883981   5.3250233  56.8969704  75.0000042   5.0176956  58.2472912
  76.1530773  15.9220511  49.4366381  75.2457835  15.6909764  49.6357530
  76.6501805  15.1258130  49.6240363  79.0598852  24.6318018  52.3563067
  78.3860551  24.9349715  52.9648025  79.4464674  25.4347098  52.0068524
  78.2757309  12.1283149  61.8460737  77.3579870  12.3498096  61.6882425
  78.6917452  12.2029460  60.9872444  79.0592356  13.5274565  56.9763417
  79.8064175  14.0395962  56.6670539  79.3283946  13.2058618  57.8367810
  77.3319006  16.0233106  53.9590371  76.4230226  15.7392139  54.0562841
  77.3614090  16.4432184  53.0993678  82.5638274  19.6339695  57.7281539
  82.1100601  18.7930605  57.7846729  81.9332241  20.2701094  58.0656319
  81.5071193  10.5631681  58.9582206  80.7693950  10.0509067  59.2892449
  81.7597967  10.1232063  58.1465483  81.0071213  21.4716192  58.6631357
  81.2994187  22.0321249  57.9443723  81.5169834  21.7644753  59.4184516
  67.9007177  13.7438620  57.9405573  67.7031577  13.1507981  57.2156640
  67.3453841  13.4390830  58.6581512  75.8803901  13.6361726  60.0600167
  75.9352510  12.6835563  59.9842643  75.0695103  13.7921165  60.5441465
  77.0295094  17.5641849  51.2978450  76.5914524  16.8477708  50.8384087
  77.7705535  17.7917964  50.7363541  73.8196260  12.2538786  57.8190545
  73.0064126  12.5532957  58.2255738  74.3155255  11.8594475  58.5365028
  75.9704838  22.2496543  59.7524810  75.9281017  22.4757389  58.8233342
  76.8867537  22.0159918  59.9010611  79.4170472  12.7180611  66.6505439
  79.7719860  12.9452084  67.5099905  80.0642603  13.0498987  66.0282695
  85.1468209  15.8399046  57.3554768  85.0086108  16.0300642  56.4275958
  84.7904428  16.6018429  57.8122819  73.3110335   9.8257142  63.4351780
  73.9509715   9.6845901  62.7374744  72.4787866   9.5391655  63.0590382
  85.1737589  17.9075573  62.3666040  85.6074095  17.8150863  63.2149094
  85.8869169  17.8833074  61.7286056  74.0870639  19.1259572  59.5486773
  74.8811238  18.6309892  59.3469348  73.3762331  18.5977435  59.1854478
  78.9065484  21.5077668  63.8999140  78.9602506  22.0768604  64.6676856
  78.0380265  21.6779553  63.5353178  70.3953403  13.2702654  55.6246526
  69.4650991  13.2087109  55.8416488  70.4910875  12.7478607  54.8283167
  70.3138952   9.7957467  58.2124767  70.5745769  10.7102800  58.1033928
  71.1356124   9.3281909  58.3621380  71.7863877  11.2095224  65.3823592
  72.4586930  11.0012586  64.7336241  70.9593663  11.0117310  64.9428824
  86.0353138  17.9499274  64.8998925  86.2289028  18.8545085  65.1458200
  85.9353756  17.4906693  65.7337510  77.6889449   7.8357165  67.3989253
  77.0417364   8.5347114  67.3053729  78.4590464   8.2693309  67.7665501
  81.0968247  18.1006017  70.4739806  80.9453753  17.8716569  69.5569890
  81.0872926  19.0576618  70.4871151  77.8653583  15.6737930  65.4586072
  78.7945643  15.8249089  65.2855040  77.4444613  15.7621950  64.6034719
  76.6641915  19.6988594  63.2284610  76.5253001  19.3307378  64.1010548
  75.8756511  20.2136233  63.0568568  77.2590067  24.7997690  54.5710146
  77.4341823  24.3285734  55.3855769  76.5722855  25.4263457  54.7991407
  78.2147130  19.0770197  60.6173448  77.8796963  19.0370967  61.5131098
  77.7151076  18.4114913  60.1443858  72.1891374  14.4837827  66.1426029
  72.0511172  13.7518066  66.7437568  73.0996298  14.3946727  65.8610217
  81.1506322  16.4226231  50.8910507  80.5335493  15.6973059  50.7943560
  80.6822810  17.1835591  50.5477582  74.8173675  14.1957786  65.6309709
  75.5273293  13.5550978  65.5896327  74.7742983  14.4470681  66.5535889
  82.8060454  21.1325139  68.5516288  82.7473000  20.4484360  67.8846871
  83.2079972  21.8744129  68.0996914  73.5302609  11.1823004  67.4505348
  72.9939966  10.7313742  68.1026944  72.9419317  11.3168913  66.7075812
  71.8251152  27.9487053  61.3450007  72.0647751  28.5805577  62.0229025
  70.9820349  27.5975093  61.6315366  72.9404868  10.6411655  50.0131812
  72.0634334  10.5200456  49.6494058  73.4162621   9.8497734  49.7610700
  82.8077861  19.0964723  66.7830267  81.9204640  18.7590645  66.9056666
  83.3776412  18.3647755  67.0199033  64.4607008  15.4288815  60.1073319
  65.1478048  15.1150545  59.5194334  64.3055137  16.3330180  59.8340570
  69.2641730  10.3179012  64.5358342  69.1799919   9.7104681  63.8008752
  68.4424436  10.8088030  64.5367839  76.3379014  23.7566176  63.7491511
  76.2649186  24.5621147  64.2610815  75.8956407  23.9558142  62.9239532
  76.1268794  22.9937946  57.2594332  75.3436316  23.5359626  57.3532557
  76.8261539  23.5111925  57.6588573  79.4365444   8.8032575  59.9028538
  79.9334143   8.0502538  59.5829608  78.6652425   8.8396892  59.3371747
  87.2895201  14.5072941  61.5446829  87.2785078  15.3897656  61.1740762
  86.4212581  14.1544492  61.3501366  78.7977698  23.6553010  65.9049669
  79.5105670  24.2900475  65.8325571  78.3067726  23.7516876  65.0889671
  80.5195225  17.5604262  57.4766961  79.5851503  17.6805725  57.3071665
  80.6971893  16.6576729  57.2126971  76.0200413  10.9449958  59.6300222
  75.6498200  10.3920999  60.3181128  76.5159505  10.3408092  59.0775222
  83.9067776  13.4021582  58.0116995  84.3728228  14.2349573  57.9377298
  84.3575276  12.9366563  58.7162254  73.8489611  21.4047453  66.7255240
  74.5499071  22.0383936  66.8784634  73.3784726  21.7462185  65.9650879
  81.9744007  19.7465403  55.0103147  82.2503851  19.6321998  55.9197021
  81.1048506  19.3482888  54.9715320  81.8784439   5.7702169  62.0507896
  80.9647519   6.0006396  62.2190103  82.3077540   5.8540613  62.9021929
  81.6490897  13.9592061  64.5507790  80.9962347  14.2067968  63.8960243
  82.0271277  13.1456199  64.2170268  78.6098071  23.9951754  58.6535961
  78.7920466  23.1773410  59.1163713  79.4331057  24.2119446  58.2160851
  78.9440237  22.9219939  55.9151009  79.4728003  22.4112394  55.3021171
  79.2068456  22.6062469  56.7796542  77.6978470  14.7011872  71.0373828
  77.0219107  14.6006001  71.7076203  78.5206104  14.5451085  71.5009825
  69.4457329  20.9383808  63.6586343  70.0310766  20.1927496  63.7914247
  69.2482168  21.2487765  64.5423007  72.2995985  23.9735056  58.6748785
  71.6306360  24.4581183  58.1912825  72.1608854  24.2204276  59.5892164
  64.0374984  13.5089408  62.3790786  64.0759084  12.9752999  63.1727904
  63.5315277  12.9824614  61.7601763  76.4401253  26.0078799  65.2731444
  76.9919561  26.1710421  66.0380529  76.7807447  26.5983237  64.6011468
  71.4165746   8.3553949  65.8753328  71.4807073   9.2168780  65.4630726
  71.3532867   7.7427951  65.1425687  70.8918019  10.4277082  69.5226362
  71.5190058  10.0454159  70.1363887  70.0345938  10.2091283  69.8882055
  81.2912127  20.8340057  71.1280098  81.8352031  21.4470015  70.6335053
  80.7098972  21.3919635  71.6447111  67.6683562  12.2353511  55.4544717
  67.9637003  11.3264189  55.4011771  66.7671597  12.2141250  55.1325720
  79.5769640  23.9560775  62.2595126  79.4520780  23.1550515  61.7506071
  80.2348732  24.4506968  61.7709096  71.1977809  10.3109507  61.4372266
  70.4764394  10.9245475  61.2979739  71.9871064  10.8467272  61.3588912
  81.6404549  21.7569795  63.8874676  80.6934884  21.6375146  63.8153002
  81.9887322  20.8692293  63.9700937  74.0004122   7.6463934  67.7112918
  74.5238524   7.8926230  68.4739227  73.7816455   8.4783969  67.2916055
  69.3971403   9.9167608  55.5784042  69.0684109   9.0364987  55.3959148
  69.7510774   9.8615277  56.4660432  78.6450982  21.5522511  60.0879028
  78.4975945  20.6239218  60.2686598  79.4704476  21.5742602  59.6036103
  72.5113226  10.2040578  55.9459520  72.8509299  10.7326499  55.2238128
  72.9585347  10.5420984  56.7218087  82.2485104  22.3751070  61.1743901
  83.1731651  22.1693931  61.0368352  82.0800407  22.1267471  62.0833242
  75.2056667   8.5877629  65.3962588  74.8653488   7.7885442  65.7983268
  74.4995673   8.8879340  64.8239421  75.8573139   5.6726941  63.8489911
  76.6799208   5.1987419  63.7268802  76.1011203   6.4517425  64.3488598
  74.4981374   8.7015200  54.1452813  75.2189736   9.0796452  53.6416530
  73.8746678   9.4204076  54.2487791  78.6412496   9.4060349  55.0811145
  78.8576111  10.2884987  54.7799973  78.1606564   9.0146562  54.3516787
  73.3811718  12.3646062  61.6581890  73.2356298  12.6786365  62.5506171
  72.9036921  12.9830962  61.1052788  75.2408101   9.3548610  61.7062779
  75.2269669   8.4589703  61.3695077  75.9580529   9.3619274  62.3401065
  77.0934231   9.7885950  63.7515907  76.8352009  10.7103021  63.7500237
  76.5619272   9.3916385  64.4416371  82.0380420  22.8936737  56.5305992
  82.2117298  22.3283160  55.7779845  82.5309311  23.6937632  56.3485482
  67.8557380  14.9051406  64.5969551  67.3110848  15.6811214  64.7289825
  68.7336730  15.2522211  64.4388672  74.6444997   8.2362990  56.9750350
  74.7660908   7.3079636  57.1741237  74.3547039   8.2501676  56.0628665
  77.5136187   5.9217901  60.1117069  77.5357884   5.9857234  59.1569049
  77.9304246   5.0822409  60.3057576  87.8919811  15.6573160  58.1496292
  88.3350957  14.9080485  57.7515415  87.0146322  15.6483296  57.7670024
  83.0255593  22.2103502  53.6302890  83.7206497  22.8310194  53.8490205
  83.3678743  21.3598853  53.9055268  68.6423402  14.0321303  67.4899708
  67.9005138  14.1803938  68.0764338  68.3216146  14.2929568  66.6266457
  84.9247016  19.6603207  55.1590221  85.4498340  19.9990480  54.4339541
  84.8369368  18.7250222  54.9753356  76.5867064  23.5737281  67.2880098
  76.8954191  23.3286428  68.1602797  77.3842546  23.7783919  66.7998968
  76.6087676  25.7275190  59.5185474  76.1692667  25.2351569  60.2118331
  77.3595793  25.1848158  59.2777550  69.0880015  21.9186731  59.5210102
  69.9138035  21.6190503  59.1408746  68.7374067  21.1494354  59.9699891
  74.0561549  21.2713199  61.5907776  73.4341558  20.6083904  61.2910004
  74.7266416  21.2974331  60.9081424  67.2888621  19.8373058  60.4799036
  66.4520529  19.4095232  60.2983037  67.2612266  20.0305501  61.4169827
  74.1286076   9.7494987  71.1840282  74.1774232  10.6257110  70.8018052
  74.6708590   9.2072381  70.6111925  84.6140922  20.2936111  70.4641419
  83.8236466  20.2760250  69.9245919  84.3774276  20.8324404  71.2190456
  84.7338797  17.1428577  67.7774148  84.7836802  16.9778585  68.7189671
  84.6252720  16.2755836  67.3872029  73.6175056  19.8217123  55.0666237
  73.7663176  20.5052587  54.4132909  74.4241499  19.8022213  55.5815692
  82.0242559  13.1259505  69.0933454  82.9252422  12.9865970  68.8017452
  82.0990534  13.2913960  70.0331632  76.3585365  10.5026360  67.9386641
  75.4888674  10.7959926  67.6669229  76.5944845  11.0866805  68.6593904
  86.2356994  19.5625519  68.0216169  85.9441802  19.9255499  68.8579630
  85.6229125  18.8492527  67.8429501  87.4352676  17.1278398  60.5418740
  88.2699567  17.5668202  60.7056300  87.5711805  16.6517052  59.7226985
  84.4844182  14.6858133  66.4896227  84.9598304  14.8785780  65.6815079
  83.5609747  14.7417319  66.2439611  71.3727689  15.8482300  56.0727306
  71.1273730  14.9444630  56.2707516  71.5423603  15.8499451  55.1306784
  79.0624398   6.7205977  65.4552061  79.5806342   7.4567004  65.1298550
  78.7079531   7.0269970  66.2898820  70.6423336  11.5810658  53.5713467
  69.9492581  11.6555013  52.9153503  70.3975088  10.8171002  54.0934984
  77.1170461  22.3165253  52.5377984  76.5444428  22.9355440  52.0848456
  77.6903255  22.8664615  53.0717906  83.1845851  11.5623893  64.7224533
  84.1363274  11.6621991  64.7436757  83.0149301  10.7702162  65.2322617
  81.2060230   8.6479477  64.9083934  80.6110163   8.9284489  64.2130422
  80.9209927   9.1373377  65.6800675  80.3367721  22.6002403  53.6686566
  81.2698394  22.5347965  53.8719442  80.2490934  23.4358670  53.2101099
  82.9655738  21.9168274  50.6290514  82.8869369  21.5828137  51.5226272
  83.7865404  22.4090042  50.6281986  85.6633929  14.7830013  63.8366833
  85.6310249  13.8446014  64.0226516  86.2734552  14.8614050  63.1032657
  77.5017260  13.6526066  49.8794037  78.4476364  13.5232274  49.9482455
  77.1231505  12.9140728  50.3563465  85.8128417  11.5741056  63.8825116
  85.2967466  10.7899513  63.6955045  86.6968366  11.2459773  64.0471635
  83.4739144   5.3182072  59.8420928  83.2763965   5.0097160  60.7264260
  84.0838850   6.0443711  59.9718858  91.4810479  15.8446020  62.9772869
  92.2113867  15.5831308  63.5380573  90.8717424  15.1074742  63.0174937
  89.5625776  13.9853882  63.5747321  88.8358939  13.8509847  62.9663812
  89.1473063  14.2930711  64.3804039  77.3855952  17.7043812  71.3394694
  78.3058962  17.8822411  71.5334740  77.3505535  16.7599857  71.1874393
  75.6860177  11.5776042  49.8148922  74.7791632  11.2809155  49.8911635
  75.9636158  11.2805860  48.9483208  66.6038117  12.8982406  60.2647968
  66.2840901  12.0447714  59.9722342  66.0571545  13.1130984  61.0205936
  70.3818025  15.6144847  63.9817475  70.6004034  16.5461955  64.0005509
  70.7943798  15.2552821  64.7672279  77.3022242   6.1212932  55.9693163
  76.4922971   5.7760017  56.3448409  77.9906659   5.8120476  56.5580775
  79.2312791   5.1990979  57.5917460  79.7843829   5.6186432  58.2507483
  79.4682877   4.2726727  57.6340416  75.2545890  11.1878053  73.3720224
  75.1542617  12.1372410  73.3032315  75.0367432  10.8596291  72.4996294
  74.4558961   8.4362978  49.9560901  75.3178125   8.7617876  50.2156718
  74.6409306   7.6494474  49.4433967  66.4726377  16.5185317  62.2341090
  65.7789849  16.1039270  61.7211044  67.2199368  16.5605854  61.6374509
  82.6091598   7.3091504  57.0996124  82.0290267   7.9676308  56.7174176
  82.3427531   6.4868849  56.6883541  81.0595164   6.7096562  59.3017444
  81.5594943   6.8213096  58.4931763  81.7030772   6.4057615  59.9418253
  75.1177160  14.6175191  72.1885285  74.6344242  15.4175552  72.3949174
  75.2038099  14.6283136  71.2352729  68.3863120  16.4503571  60.1107105
  68.3633808  16.5491258  59.1588988  68.6963756  17.2968722  60.4324271
  71.0450498  18.5079726  64.2253719  71.9993751  18.4763668  64.1583651
  70.8463021  18.0470350  65.0403945  71.6349880  17.0780842  66.7924517
  72.4542769  17.5724921  66.8159354  71.9086687  16.1612810  66.7642084
  81.3916476   9.4691594  56.1552472  80.5042331   9.7541245  55.9372667
  81.8070465   9.3085358  55.3079749  84.7431012   9.4938115  59.8706811
  85.5191402   9.9834568  60.1431428  84.0179146   9.9196170  60.3278681
  87.1803571  10.2065735  60.9280752  87.7748061   9.9661471  60.2174060
  87.2530154   9.4872865  61.5554288  69.4000726  24.0499346  61.2423917
  69.2655194  23.2899746  60.6761915  68.9832789  24.7740245  60.7752706
  80.5359689  19.2336269  50.2500492  81.2395539  19.4386272  50.8658148
  79.8122338  19.8013031  50.5149576  81.3657500  14.9846130  56.3702762
  81.3092701  15.4414682  55.5310395  81.9185842  14.2236815  56.1925605
  85.1762306  10.7735862  57.1952882  84.9199240  10.3732498  58.0261090
  84.5515174  11.4879656  57.0703021  89.4874643  13.5131936  59.7024173
  88.9274201  13.5825125  60.4755735  88.8818147  13.3372920  58.9823670
  72.5569852  24.9468663  61.4542360  72.4402236  25.8914095  61.3521050
  71.7362298  24.6442224  61.8428159  82.4446387  19.6718798  52.2998952
  83.2791991  19.2399997  52.1176427  82.2830730  19.5000812  53.2275847
  82.0992279  16.1750912  53.6655292  82.0441083  16.0095183  52.7243736
  81.4738334  16.8826945  53.8217481  66.8884794  11.4118976  67.4916714
  67.5343657  10.9017930  67.9803939  66.6801945  12.1487658  68.0660139
  79.4138186  18.4799824  72.9908854  80.2829346  18.6540476  72.6295489
  78.9344938  19.2994240  72.8684584  75.4088404   5.6759021  53.2440610
  75.3967074   6.6200861  53.4008881  76.3011826   5.4929166  52.9500071
  73.5824366  25.5996925  64.6698288  74.4851613  25.6320535  64.9864783
  73.3561736  24.6697375  64.6844624  75.3377968  24.3527911  61.3308367
  74.3873599  24.3529773  61.2172739  75.6410454  23.6060646  60.8144401
  71.2282285   8.5586593  71.5891728  72.0913746   8.2023398  71.7995053
  70.6547696   8.2200488  72.2767132  91.0730662  30.1888449  62.3954129
  91.7109072  30.0695197  61.6917469  90.9551505  31.1369293  62.4542081
  87.8820368  30.1415878  62.3315654  87.5438880  30.0256942  61.4436189
  88.7510136  29.7407043  62.3116660  88.3640151  31.2950729  68.2901859
  88.3528792  30.9003528  67.4182363  88.5260791  30.5616802  68.8835631
  85.0847412  34.0787841  67.2381043  84.7937278  34.9833472  67.1227710
  85.7204397  34.1204369  67.9525113  86.0103619  31.4564690  63.8282403
  86.6067191  31.2320712  63.1139366  86.0678591  30.7149435  64.4307851
  96.0280357  27.8515136  60.3740316  96.7605529  27.2814353  60.6078145
  95.2719713  27.4636737  60.8146821  93.5505778  21.5636711  64.8334924
  93.2189103  22.4332122  64.6096139  92.9551391  21.2472995  65.5128955
  90.0437297  33.7649257  64.2330837  89.7438020  34.6674295  64.1246644
  89.6988357  33.4981440  65.0851990  93.4434441  26.2831797  61.9128274
  92.5351318  26.2147205  61.6187035  93.3922037  26.7603742  62.7410100
  80.8558590  29.8596327  61.1011330  80.9850971  30.1130806  62.0150742
  80.1756041  30.4524035  60.7815985  87.5175307  27.7021442  69.8563172
  86.7408641  28.2615363  69.8466036  88.1565870  28.1878225  70.3778042
  95.3096088  24.4848235  63.6906148  94.6670468  24.7780768  63.0445943
  94.8051016  24.3701156  64.4959345  85.7721679  30.5106896  69.4181139
  86.5136364  31.0491940  69.1415962  85.0658665  31.1373184  69.5752690
  91.2477019  32.6536036  68.0153300  91.6560375  32.2118447  67.2707932
  90.5254280  32.0788664  68.2687493  87.6008089  27.5908643  65.3886857
  88.4469284  28.0148057  65.5321506  87.5406727  26.9342267  66.0825420
  90.7507534  25.2513011  67.0468031  90.5068466  26.0055072  66.5102306
  91.0267465  25.6298359  67.8815278  92.7045997  31.7951624  65.7245296
  92.9162892  32.4383384  65.0479677  92.6575745  30.9613940  65.2567226
  90.3072226  24.4069444  62.6281868  89.4456705  24.7050698  62.9198606
  90.3334661  24.6239843  61.6962901  84.0157876  32.4983116  61.9735437
  84.5859233  32.9270385  61.3352922  84.6065988  32.2165701  62.6719623
  84.5083043  27.6646544  70.2196449  83.8781704  28.3462825  70.4531845
  84.4019131  27.5529626  69.2749587  79.8028015  27.3318340  61.1462373
  79.0127069  27.5875868  60.6702483  80.2939263  28.1466678  61.2514413
  93.8191825  34.6723579  63.8967654  94.6409269  34.2703766  63.6150335
  93.8154228  34.5691813  64.8483769  81.7542761  27.6962919  58.1045849
  80.9573924  27.8081613  58.6229345  81.5268353  28.0349571  57.2386740
  87.5848428  34.2207622  66.0528364  87.6492861  34.6828030  66.8886536
  86.8759352  33.5904987  66.1810674  78.0865718  27.5848830  63.5777363
  78.3373757  28.4695840  63.8434939  78.6225267  27.4053432  62.8052455
 101.9097818  31.0162328  60.2452625 101.1561526  30.4469726  60.0896629
 102.0445359  30.9824992  61.1923260  83.7863786  21.9667310  72.5821700
  83.3930731  21.4133508  73.2569344  84.6029926  22.2777888  72.9728217
  86.7031747  23.3825189  70.1741956  87.4441460  23.9832342  70.0946419
  86.9349669  22.6402827  69.6159999  81.8473085  28.5681556  68.4520186
  81.7326600  27.6666813  68.7527285  80.9917602  28.8145253  68.1005002
  88.9264922  36.5099296  70.0507686  88.4828777  35.7235675  69.7328591
  89.5882136  36.6978447  69.3851577  83.6852044  38.0395098  64.5768365
  84.2359469  37.9112161  63.8045359  82.8463519  38.3389987  64.2263258
  91.0246160  36.7902096  68.0789088  91.0064636  37.6110977  67.5869357
  91.9466081  36.6656172  68.3039229  87.4819215  34.3046226  68.9212596
  88.0147551  33.5434514  68.6911904  86.9533296  34.0119878  69.6636751
  90.6488910  19.4106292  64.4506238  90.3053179  20.3007933  64.3745348
  91.0167872  19.2207949  63.5875823  89.7285450  21.7810947  62.4155471
  89.2250246  21.7441082  61.6023276  90.0216057  22.6903690  62.4752128
  85.9728336  21.8649677  61.4221653  86.8381333  21.6692485  61.0627542
  86.0405845  21.6360028  62.3491010  83.5790655  24.0951885  58.7938020
  84.1534407  23.8727066  58.0611213  84.1661637  24.1640579  59.5466621
  85.8813323  20.9693133  57.5213089  85.2277735  20.6542151  56.8969704
  85.8393797  20.3468874  58.2472912  89.1151063  27.4575067  61.8460737
  88.1973624  27.6790014  61.6882425  89.5311207  27.5321378  60.9872444
  92.4476575  18.6699851  59.5523975  92.7535452  17.8097214  59.2649891
  93.1729180  19.2617471  59.3522969  78.7400931  29.0730538  57.9405573
  78.5425331  28.4799898  57.2156640  78.1847595  28.7682748  58.6581512
  90.2564227  28.0472528  66.6505439  90.6113614  28.2744001  67.5099905
  90.9036358  28.3790905  66.0282695  84.1504090  25.1549059  63.4351780
  84.7903469  25.0137818  62.7374744  83.3181620  24.8683573  63.0590382
  89.7459238  36.8369585  63.8999140  89.7996260  37.4060522  64.6676856
  88.8774019  37.0071470  63.5353178  81.1532706  25.1249384  58.2124767
  81.4139523  26.0394718  58.1033928  81.9749878  24.6573827  58.3621380
  82.6257631  26.5387141  65.3823592  83.2980685  26.3304504  64.7336241
  81.7987418  26.3409227  64.9428824  96.8746893  33.2791192  64.8998925
  97.0682783  34.1837002  65.1458200  96.7747511  32.8198611  65.7337510
  88.5283203  23.1649082  67.3989253  87.8811118  23.8639032  67.3053729
  89.2984219  23.5985226  67.7665501  91.9362001  33.4297935  70.4739806
  91.7847508  33.2008486  69.5569890  91.9266681  34.3868536  70.4871151
  88.7047338  31.0029847  65.4586072  89.6339398  31.1541007  65.2855040
  88.2838368  31.0913868  64.6034719  87.5035670  35.0280512  63.2284610
  87.3646755  34.6599296  64.1010548  86.7150266  35.5428151  63.0568568
  83.0285129  29.8129744  66.1426029  82.8904927  29.0809983  66.7437568
  83.9390052  29.7238645  65.8610217  85.6567429  29.5249704  65.6309709
  86.3667048  28.8842896  65.5896327  85.6136738  29.7762599  66.5535889
  93.6454208  36.4617057  68.5516288  93.5866754  35.7776277  67.8846871
  94.0473726  37.2036047  68.0996914  84.3696363  26.5114922  67.4505348
  83.8333720  26.0605660  68.1026944  83.7813072  26.6460830  66.7075812
  82.6644907  43.2778971  61.3450007  82.9041505  43.9097495  62.0229025
  81.8214103  42.9267011  61.6315366  93.6471615  34.4256641  66.7830267
  92.7598394  34.0882563  66.9056666  94.2170166  33.6939672  67.0199033
  75.3000762  30.7580733  60.1073319  75.9871802  30.4442463  59.5194334
  75.1448891  31.6622097  59.8340570  80.1035485  25.6470929  64.5358342
  80.0193673  25.0396599  63.8008752  79.2818191  26.1379948  64.5367839
  87.1772769  39.0858093  63.7491511  87.1042940  39.8913065  64.2610815
  86.7350162  39.2850059  62.9239532  90.2759198  24.1324493  59.9028538
  90.7727898  23.3794455  59.5829608  89.5046180  24.1688810  59.3371747
  98.1288956  29.8364858  61.5446829  98.1178832  30.7189574  61.1740762
  97.2606335  29.4836409  61.3501366  89.6371452  38.9844927  65.9049669
  90.3499424  39.6192392  65.8325571  89.1461481  39.0808793  65.0889671
  84.6883366  36.7339371  66.7255240  85.3892825  37.3675854  66.8784634
  84.2178481  37.0754102  65.9650879  92.7178193  21.0994086  62.0507896
  91.8041273  21.3298313  62.2190103  93.1471295  21.1832530  62.9021929
  92.4884652  29.2883978  64.5507790  91.8356102  29.5359886  63.8960243
  92.8665032  28.4748117  64.2170268  88.5372225  30.0303789  71.0373828
  87.8612862  29.9297919  71.7076203  89.3599859  29.8743003  71.5009825
  80.2851084  36.2675726  63.6586343  80.8704521  35.5219414  63.7914247
  80.0875922  36.5779683  64.5423007  74.8768739  28.8381326  62.3790786
  74.9152838  28.3044917  63.1727904  74.3709031  28.3116532  61.7601763
  87.2795008  41.3370717  65.2731444  87.8313316  41.5002338  66.0380529
  87.6201201  41.9275155  64.6011468  82.2559501  23.6845867  65.8753328
  82.3200827  24.5460698  65.4630726  82.1926621  23.0719868  65.1425687
  81.7311773  25.7568999  69.5226362  82.3583812  25.3746077  70.1363887
  80.8739692  25.5383201  69.8882055  92.1305882  36.1631974  71.1280098
  92.6745786  36.7761933  70.6335053  91.5492727  36.7211553  71.6447111
  78.5077316  27.5645428  55.4544717  78.8030757  26.6556107  55.4011771
  77.6065352  27.5433168  55.1325720  90.4163395  39.2852692  62.2595126
  90.2914534  38.4842432  61.7506071  91.0742486  39.7798886  61.7709096
  82.0371563  25.6401425  61.4372266  81.3158149  26.2537393  61.2979739
  82.8264819  26.1759190  61.3588912  92.4798303  37.0861712  63.8874676
  91.5328639  36.9667064  63.8153002  92.8281076  36.1984210  63.9700937
  84.8397877  22.9755851  67.7112918  85.3632278  23.2218148  68.4739227
  84.6210210  23.8075886  67.2916055  86.0450422  23.9169546  65.3962588
  85.7047242  23.1177360  65.7983268  85.3389428  24.2171257  64.8239421
  86.6966894  21.0018859  63.8489911  87.5192963  20.5279337  63.7268802
  86.9404957  21.7809343  64.3488598  84.2205472  27.6937980  61.6581890
  84.0750053  28.0078283  62.5506171  83.7430676  28.3122880  61.1052788
  86.0801855  24.6840528  61.7062779  86.0663424  23.7881621  61.3695077
  86.7974283  24.6911191  62.3401065  87.9327986  25.1177868  63.7515907
  87.6745764  26.0394938  63.7500237  87.4013026  24.7208302  64.4416371
  78.6951134  30.2343324  64.5969551  78.1504603  31.0103132  64.7289825
  79.5730484  30.5814128  64.4388672  85.4838751  23.5654908  56.9750350
  85.6054662  22.6371554  57.1741237  85.1940793  23.5793594  56.0628665
  88.3529941  21.2509818  60.1117069  88.3751638  21.3149151  59.1569049
  88.7698000  20.4114327  60.3057576  79.4817156  29.3613220  67.4899708
  78.7398892  29.5095856  68.0764338  79.1609901  29.6221486  66.6266457
  87.4260819  38.9029198  67.2880098  87.7347945  38.6578345  68.1602797
  88.2236301  39.1075837  66.7998968  78.1282375  35.1664975  60.4799036
  77.2914283  34.7387150  60.2983037  78.1006020  35.3597419  61.4169827
  84.9679831  25.0786905  71.1840282  85.0167986  25.9549028  70.8018052
  85.5102345  24.5364298  70.6111925  95.4534676  35.6228028  70.4641419
  94.6630220  35.6052167  69.9245919  95.2168031  36.1616322  71.2190456
  95.5732551  32.4720495  67.7774148  95.6230556  32.3070502  68.7189671
  95.4646475  31.6047754  67.3872029  92.8636314  28.4551423  69.0933454
  93.7646176  28.3157888  68.8017452  92.9384288  28.6205878  70.0331632
  87.1979119  25.8318278  67.9386641  86.3282428  26.1251844  67.6669229
  87.4338599  26.4158723  68.6593904  97.0750748  34.8917436  68.0216169
  96.7835556  35.2547417  68.8579630  96.4622879  34.1784445  67.8429501
  95.3237936  30.0150051  66.4896227  95.7992058  30.2077697  65.6815079
  94.4003502  30.0709237  66.2439611  89.9018153  22.0497895  65.4552061
  90.4200097  22.7858921  65.1298550  89.5473286  22.3561888  66.2898820
  90.1530747  18.4698177  60.9752958  90.4332501  17.8021366  61.6013384
  90.9381354  18.6627273  60.4627622  94.0239605  26.8915811  64.7224533
  94.9757028  26.9913909  64.7436757  93.8543056  26.0994080  65.2322617
  92.0453985  23.9771394  64.9083934  91.4503917  24.2576407  64.2130422
  91.7603682  24.4665295  65.6800675  96.5027683  30.1121931  63.8366833
  96.4704003  29.1737931  64.0226516  97.1128307  30.1905967  63.1032657
  96.6522172  26.9032974  63.8825116  96.1361220  26.1191431  63.6955045
  97.5362120  26.5751691  64.0471635  94.3132899  20.6473990  59.8420928
  94.1157720  20.3389078  60.7264260  94.9232604  21.3735629  59.9718858
 102.3204233  31.1737938  62.9772869 103.0507622  30.9123226  63.5380573
 101.7111179  30.4366660  63.0174937 100.4019530  29.3145800  63.5747321
  99.6752694  29.1801765  62.9663812  99.9866817  29.6222629  64.3804039
  88.2249707  33.0335730  71.3394694  89.1452716  33.2114329  71.5334740
  88.1899290  32.0891775  71.1874393  77.4431872  28.2274323  60.2647968
  77.1234656  27.3739632  59.9722342  76.8965300  28.4422902  61.0205936
  81.2211779  30.9436764  63.9817475  81.4397789  31.8753872  64.0005509
  81.6337553  30.5844739  64.7672279  88.1415997  21.4504850  55.9693163
  87.3316725  21.1051935  56.3448409  88.8300414  21.1412394  56.5580775
  90.0706545  20.5282897  57.5917460  90.6237584  20.9478350  58.2507483
  90.3076632  19.6018645  57.6340416  86.0939644  26.5169970  73.3720224
  85.9936371  27.4664327  73.3032315  85.8761187  26.1888209  72.4996294
  77.3120132  31.8477235  62.2341090  76.6183603  31.4331188  61.7211044
  78.0593123  31.8897771  61.6374509  93.4485352  22.6383422  57.0996124
  92.8684021  23.2968226  56.7174176  93.1821285  21.8160766  56.6883541
  91.8988919  22.0388479  59.3017444  92.3988697  22.1505014  58.4931763
  92.5424527  21.7349532  59.9418253  85.9570915  29.9467109  72.1885285
  85.4737996  30.7467469  72.3949174  86.0431854  29.9575054  71.2352729
  79.2256874  31.7795489  60.1107105  79.2027562  31.8783176  59.1588988
  79.5357511  32.6260640  60.4324271  81.8844252  33.8371644  64.2253719
  82.8387506  33.8055586  64.1583651  81.6856776  33.3762268  65.0403945
  82.4743634  32.4072760  66.7924517  83.2936523  32.9016839  66.8159354
  82.7480442  31.4904728  66.7642084  95.5824766  24.8230033  59.8706811
  96.3585157  25.3126486  60.1431428  94.8572901  25.2488087  60.3278681
  98.0197325  25.5357652  60.9280752  98.6141816  25.2953388  60.2174060
  98.0923909  24.8164783  61.5554288  80.2394481  39.3791263  61.2423917
  80.1048949  38.6191664  60.6761915  79.8226543  40.1032163  60.7752706
  96.0156060  26.1027780  57.1952882  95.7592994  25.7024416  58.0261090
  95.3908928  26.8171574  57.0703021 100.3268398  28.8423853  59.7024173
  99.7667956  28.9117043  60.4755735  99.7211901  28.6664838  58.9823670
  83.3963607  40.2760580  61.4542360  83.2795991  41.2206013  61.3521050
  82.5756053  39.9734142  61.8428159  77.7278548  26.7410894  67.4916714
  78.3737412  26.2309848  67.9803939  77.5195699  27.4779575  68.0660139
  90.2531941  33.8091741  72.9908854  91.1223100  33.9832393  72.6295489
  89.7738692  34.6286158  72.8684584  86.2482159  21.0050938  53.2440610
  86.2360829  21.9492778  53.4008881  87.1405581  20.8221084  52.9500071
  84.4218121  40.9288842  64.6698288  85.3245368  40.9612452  64.9864783
  84.1955491  39.9989293  64.6844624  90.0634278  17.5993715  57.4986547
  89.2966674  17.0452202  57.6443229  90.4744983  17.6715584  58.3600698
  82.0676039  23.8878511  71.5891728  82.9307501  23.5315316  71.7995053
  81.4941450  23.5492406  72.2767132 101.9124416  45.5180367  62.3954129
 102.5502826  45.3987114  61.6917469 101.7945259  46.4661211  62.4542081
  98.7214123  45.4707795  62.3315654  98.3832634  45.3548860  61.4436189
  99.5903891  45.0698960  62.3116660  94.5800938  47.3243272  58.3212545
  94.0165803  47.2333209  57.5528832  94.4653333  46.5043176  58.8015037
  99.2033906  46.6242647  68.2901859  99.1922546  46.2295445  67.4182363
  99.3654545  45.8908720  68.8835631  92.1265370  48.8194463  61.1596765
  92.9186662  48.4785288  60.7443064  92.3662020  48.9289438  62.0798918
 100.1600497  50.9914239  53.6327010  99.5088477  51.5768320  53.2461023
 100.9544860  51.5220434  53.6922047  94.0856124  48.0803376  54.0314144
  94.8587000  47.5332364  53.8927020  94.4381523  48.9447626  54.2428605
  95.9241167  49.4079759  67.2381043  95.6331033  50.3125390  67.1227710
  96.5598151  49.4496286  67.9525113  96.8497374  46.7856607  63.8282403
  97.4460946  46.5612630  63.1139366  96.9072345  46.0441353  64.4307851
  96.4222402  44.2396043  51.6632594  96.6747923  43.7177564  50.9016057
  95.4846961  44.0762188  51.7659277 101.4665685  43.2431821  59.4707337
 102.2528774  42.8251244  59.1197754 101.7304389  44.1477913  59.6388985
 101.6375762  48.6804671  54.1695994 101.0021595  48.7539298  54.8816899
 101.3073169  49.2698270  53.4915073 106.8674112  43.1807054  60.3740316
 107.5999284  42.6106271  60.6078145 106.1113468  42.7928655  60.8146821
  96.1418691  46.1424149  53.8656969  96.0254949  45.4669052  54.5338053
  96.2520951  45.6556522  53.0489122  98.4850232  45.6034296  57.5703658
  98.1208439  45.0764917  58.2816580  99.3417348  45.2132765  57.3970143
 104.3899532  36.8928628  64.8334924 104.0582857  37.7624039  64.6096139
 103.7945146  36.5764912  65.5128955 100.8831052  49.0941174  64.2330837
 100.5831775  49.9966213  64.1246644 100.5382111  48.8273357  65.0851990
  94.3343533  45.5454971  60.2667541  93.4094030  45.4131185  60.4745233
  94.5827946  46.3249190  60.7637484 104.2828196  41.6123714  61.9128274
 103.3745073  41.5439123  61.6187035 104.2315791  42.0895659  62.7410100
  98.1044939  43.0881853  53.5511673  97.9844565  43.5338904  54.3897154
  97.4097528  43.4367171  52.9925212  91.6952344  45.1888245  61.1011330
  91.8244725  45.4422724  62.0150742  91.0149796  45.7815953  60.7815985
  95.8651832  55.8585495  57.2001805  95.7875861  56.8093320  57.2790285
  95.2613475  55.5131367  57.8576731  98.3569061  43.0313360  69.8563172
  97.5802395  43.5907280  69.8466036  98.9959624  43.5170143  70.3778042
 106.1489842  39.8140153  63.6906148 105.5064222  40.1072686  63.0445943
 105.6444771  39.6993073  64.4959345 103.8030006  43.5603326  54.3792007
 104.7147862  43.7930713  54.2039705 103.2939653  44.1440370  53.8167086
  96.6115434  45.8398813  69.4181139  97.3530118  46.3783857  69.1415962
  95.9052419  46.4665102  69.5752690 102.0870773  47.9827954  68.0153300
 102.4954129  47.5410364  67.2707932 101.3648035  47.4080581  68.2687493
  98.4401843  42.9200561  65.3886857  99.2863039  43.3439974  65.5321506
  98.3800481  42.2634185  66.0825420 102.4099588  48.5429144  61.7705589
 101.7808450  48.7074859  61.0681657 102.0225250  48.9570754  62.5416553
 106.2888820  49.4783582  59.1249953 105.6039858  49.8582484  58.5746986
 106.3732669  50.0878909  59.8581900 101.5901289  40.5804929  67.0468031
 101.3462221  41.3346990  66.5102306 101.8661219  40.9590277  67.8815278
 103.5439751  47.1243541  65.7245296 103.7556647  47.7675301  65.0479677
 103.4969500  46.2905858  65.2567226 101.1465980  39.7361362  62.6281868
 100.2850459  40.0342616  62.9198606 101.1728415  39.9531761  61.6962901
  97.9627550  48.2803553  59.0355674  98.4265895  48.5591256  58.2460296
  97.6984348  47.3786997  58.8528765  94.8551631  47.8275034  61.9735437
  95.4252988  48.2562302  61.3352922  95.4459743  47.5457619  62.6719623
  95.3476797  42.9938462  70.2196449  94.7175458  43.6754742  70.4531845
  95.2412885  42.8821543  69.2749587  90.6421770  42.6610258  61.1462373
  89.8520824  42.9167786  60.6702483  91.1333017  43.4758595  61.2514413
 104.6585579  50.0015497  63.8967654 105.4803023  49.5995684  63.6150335
 104.6547982  49.8983731  64.8483769  98.4242183  49.5499540  66.0528364
  98.4886615  50.0119947  66.8886536  97.7153107  48.9196905  66.1810674
  88.9259473  42.9140748  63.5777363  89.1767511  43.7987758  63.8434939
  89.4619021  42.7345350  62.8052455 112.7491572  46.3454245  60.2452625
 111.9955281  45.7761643  60.0896629 112.8839114  46.3116910  61.1923260
  98.1390201  51.2167648  55.9207344  98.0035875  52.0619183  56.3492192
  98.6800013  51.4186925  55.1573278  94.6257540  37.2959227  72.5821700
  94.2324486  36.7425426  73.2569344  95.4423680  37.6069806  72.9728217
  91.5919598  48.7343086  56.4935269  92.1044118  49.5286336  56.6440834
  92.2442311  48.0369376  56.4268871  93.4014483  51.8508842  58.5758023
  93.5781111  52.7726807  58.3879006  94.1971316  51.5367261  59.0052402
  97.5425501  38.7117107  70.1741956  98.2835215  39.3124260  70.0946419
  97.7743424  37.9694744  69.6159999  92.6866839  43.8973474  68.4520186
  92.5720354  42.9958731  68.7527285  91.8311357  44.1437171  68.1005002
  99.7658677  51.8391214  70.0507686  99.3222531  51.0527593  69.7328591
 100.4275890  52.0270365  69.3851577 101.8639915  52.1194014  68.0789088
 101.8458390  52.9402895  67.5869357 102.7859835  51.9948089  68.3039229
  98.3212969  49.6338144  68.9212596  98.8541306  48.8726432  68.6911904
  97.7927050  49.3411795  69.6636751 101.4882664  34.7398209  64.4506238
 101.1446933  35.6299851  64.3745348 101.8561627  34.5499867  63.5875823
  89.5568515  47.0631740  57.2694840  90.3943737  47.4728748  57.0528548
  89.7346782  46.1231182  57.2395034 101.4532947  44.7306821  52.9578673
 100.9379570  45.5011425  53.1967060 101.1810255  44.0571957  53.5811734
 100.5679204  37.1102865  62.4155471 100.0644000  37.0733000  61.6023276
 100.8609811  38.0195607  62.4752128 106.4267221  47.4839175  54.8931846
 105.6496664  47.1450335  54.4487008 107.1058702  47.4891798  54.2186811
  99.6865682  48.7624136  56.4331408  99.1587043  48.0276896  56.1204646
  99.1853185  49.5398812  56.1871376 104.6658528  46.9573156  61.5498454
 104.0082202  47.6472418  61.6378583 105.4698927  47.3469588  61.8932441
 103.4763987  45.3117529  59.6002396 103.9895868  45.9447521  60.1024106
 104.1265211  44.7118725  59.2345756  97.8318282  46.5804346  49.4366381
  96.9245344  46.3493600  49.6357530  98.3289314  45.7841965  49.6240363
 100.7386361  55.2901853  52.3563067 100.0648060  55.5933550  52.9648025
 101.1252183  56.0930934  52.0068524  99.9544818  42.7866985  61.8460737
  99.0367379  43.0081932  61.6882425 100.3704961  42.8613295  60.9872444
 100.7379865  44.1858400  56.9763417 101.4851684  44.6979798  56.6670539
 101.0071455  43.8642453  57.8367810  99.0106515  46.6816941  53.9590371
  98.1017735  46.3975974  54.0562841  99.0401599  47.1016020  53.0993678
 104.2425783  50.2923531  57.7281539 103.7888110  49.4514440  57.7846729
 103.6119750  50.9284929  58.0656319 103.1858702  41.2215517  58.9582206
 102.4481459  40.7092903  59.2892449 103.4385476  40.7815898  58.1465483
 102.6858722  52.1300027  58.6631357 102.9781696  52.6905084  57.9443723
 103.1957343  52.4228588  59.4184516 103.2870330  33.9991769  59.5523975
 103.5929207  33.1389132  59.2649891 104.0122935  34.5909389  59.3522969
  97.5591409  44.2945562  60.0600167  97.6140019  43.3419398  59.9842643
  96.7482612  44.4505001  60.5441465  98.7082603  48.2225685  51.2978450
  98.2702033  47.5061544  50.8384087  99.4493044  48.4501800  50.7363541
  97.6492347  52.9080378  59.7524810  97.6068526  53.1341225  58.8233342
  98.5655046  52.6743753  59.9010611 101.0957981  43.3764446  66.6505439
 101.4507369  43.6035919  67.5099905 101.7430112  43.7082823  66.0282695
 106.8255718  46.4982882  57.3554768 106.6873617  46.6884478  56.4275958
 106.4691937  47.2602265  57.8122819  94.9897844  40.4840977  63.4351780
  95.6297223  40.3429736  62.7374744  94.1575375  40.1975490  63.0590382
 106.8525098  48.5659409  62.3666040 107.2861604  48.4734698  63.2149094
 107.5656678  48.5416909  61.7286056  95.7658148  49.7843407  59.5486773
  96.5598747  49.2893728  59.3469348  95.0549840  49.2561271  59.1854478
 100.5852993  52.1661503  63.8999140 100.6390015  52.7352439  64.6676856
  99.7167774  52.3363388  63.5353178  93.4651386  41.8679059  65.3823592
  94.1374439  41.6596421  64.7336241  92.6381172  41.6701145  64.9428824
 107.7140647  48.6083109  64.8998925 107.9076537  49.5128920  65.1458200
 107.6141265  48.1490529  65.7337510  99.3676958  38.4941000  67.3989253
  98.7204873  39.1930950  67.3053729 100.1377973  38.9277144  67.7665501
 102.7755756  48.7589852  70.4739806 102.6241262  48.5300404  69.5569890
 102.7660435  49.7160454  70.4871151  99.5441092  46.3321765  65.4586072
 100.4733152  46.4832925  65.2855040  99.1232122  46.4205786  64.6034719
  98.3429424  50.3572429  63.2284610  98.2040510  49.9891214  64.1010548
  97.5544020  50.8720069  63.0568568  98.9377576  55.4581526  54.5710146
  99.1129332  54.9869569  55.3855769  98.2510364  56.0847292  54.7991407
  99.8934639  49.7354032  60.6173448  99.5584472  49.6954802  61.5131098
  99.3938585  49.0698748  60.1443858  93.8678883  45.1421662  66.1426029
  93.7298681  44.4101901  66.7437568  94.7783807  45.0530562  65.8610217
 102.8293831  47.0810066  50.8910507 102.2123001  46.3556895  50.7943560
 102.3610319  47.8419427  50.5477582  96.4961184  44.8541621  65.6309709
  97.2060802  44.2134814  65.5896327  96.4530492  45.1054516  66.5535889
 104.4847963  51.7908975  68.5516288 104.4260509  51.1068195  67.8846871
 104.8867481  52.5327965  68.0996914  95.2090118  41.8406839  67.4505348
  94.6727475  41.3897578  68.1026944  94.6206826  41.9752748  66.7075812
 104.4865370  49.7548559  66.7830267 103.5992149  49.4174481  66.9056666
 105.0563921  49.0231590  67.0199033  86.1394517  46.0872650  60.1073319
  86.8265557  45.7734380  59.5194334  85.9842646  46.9914015  59.8340570
  90.9429239  40.9762847  64.5358342  90.8587428  40.3688517  63.8008752
  90.1211945  41.4671865  64.5367839  98.0166523  54.4150011  63.7491511
  97.9436695  55.2204983  64.2610815  97.5743916  54.6141977  62.9239532
  97.8056303  53.6521781  57.2594332  97.0223825  54.1943461  57.3532557
  98.5049048  54.1695761  57.6588573 108.9682710  45.1656776  61.5446829
 108.9572587  46.0481492  61.1740762 108.1000090  44.8128327  61.3501366
 100.4765207  54.3136845  65.9049669 101.1893179  54.9484310  65.8325571
  99.9855235  54.4100711  65.0889671 102.1982734  48.2188098  57.4766961
 101.2639012  48.3389560  57.3071665 102.3759402  47.3160565  57.2126971
 105.5855285  44.0605417  58.0116995 106.0515737  44.8933409  57.9377298
 106.0362785  43.5950399  58.7162254  95.5277120  52.0631289  66.7255240
  96.2286580  52.6967772  66.8784634  95.0572235  52.4046020  65.9650879
 103.6531516  50.4049238  55.0103147 103.9291360  50.2905833  55.9197021
 102.7836015  50.0066723  54.9715320 103.5571948  36.4286004  62.0507896
 102.6435027  36.6590231  62.2190103 103.9865049  36.5124448  62.9021929
 103.3278406  44.6175896  64.5507790 102.6749856  44.8651803  63.8960243
 103.7058786  43.8040034  64.2170268 100.2885580  54.6535589  58.6535961
 100.4707975  53.8357245  59.1163713 101.1118566  54.8703281  58.2160851
 100.6227746  53.5803774  55.9151009 101.1515512  53.0696229  55.3021171
 100.8855965  53.2646305  56.7796542  99.3765979  45.3595707  71.0373828
  98.7006616  45.2589836  71.7076203 100.1993613  45.2034921  71.5009825
  91.1244838  51.5967644  63.6586343  91.7098275  50.8511332  63.7914247
  90.9269677  51.9071600  64.5423007  93.9783494  54.6318891  58.6748785
  93.3093869  55.1165019  58.1912825  93.8396363  54.8788111  59.5892164
  85.7162493  44.1673244  62.3790786  85.7546593  43.6336835  63.1727904
  85.2102786  43.6408449  61.7601763  98.1188762  56.6662635  65.2731444
  98.6707070  56.8294256  66.0380529  98.4594956  57.2567072  64.6011468
  93.0953255  39.0137784  65.8753328  93.1594582  39.8752615  65.4630726
  93.0320376  38.4011786  65.1425687  92.5705528  41.0860917  69.5226362
  93.1977567  40.7037994  70.1363887  91.7133447  40.8675119  69.8882055
 102.9699636  51.4923892  71.1280098 103.5139540  52.1053850  70.6335053
 102.3886481  52.0503470  71.6447111 101.2557149  54.6144610  62.2595126
 101.1308289  53.8134350  61.7506071 101.9136240  55.1090803  61.7709096
  92.8765318  40.9693343  61.4372266  92.1551903  41.5829310  61.2979739
  93.6658573  41.5051107  61.3588912 103.3192058  52.4153630  63.8874676
 102.3722393  52.2958981  63.8153002 103.6674831  51.5276128  63.9700937
  95.6791631  38.3047769  67.7112918  96.2026033  38.5510066  68.4739227
  95.4603964  39.1367804  67.2916055 100.3238491  52.2106346  60.0879028
 100.1763453  51.2823054  60.2686598 101.1491985  52.2326437  59.6036103
 103.9272613  53.0334905  61.1743901 104.8519160  52.8277766  61.0368352
 103.7587916  52.7851306  62.0833242  96.8844176  39.2461464  65.3962588
  96.5440997  38.4469277  65.7983268  96.1783182  39.5463175  64.8239421
  97.5360648  36.3310777  63.8489911  98.3586717  35.8571255  63.7268802
  97.7798712  37.1101260  64.3488598  95.0599227  43.0229897  61.6581890
  94.9143807  43.3370200  62.5506171  94.5824430  43.6414798  61.1052788
  96.9195610  40.0132445  61.7062779  96.9057178  39.1173539  61.3695077
  97.6368038  40.0203109  62.3401065  98.7721740  40.4469785  63.7515907
  98.5139518  41.3686856  63.7500237  98.2406781  40.0500220  64.4416371
 103.7167929  53.5520573  56.5305992 103.8904807  52.9866995  55.7779845
 104.2096820  54.3521467  56.3485482  89.5344889  45.5635242  64.5969551
  88.9898357  46.3395050  64.7289825  90.4124239  45.9106046  64.4388672
 109.5707320  46.3156995  58.1496292 110.0138466  45.5664321  57.7515415
 108.6933831  46.3067132  57.7670024 104.7043102  52.8687337  53.6302890
 105.3994006  53.4894030  53.8490205 105.0466252  52.0182688  53.9055268
  90.3210911  44.6905138  67.4899708  89.5792647  44.8387773  68.0764338
  90.0003655  44.9513403  66.6266457 106.6034525  50.3187042  55.1590221
 107.1285849  50.6574315  54.4339541 106.5156877  49.3834058  54.9753356
  98.2654573  54.2321116  67.2880098  98.5741700  53.9870263  68.1602797
  99.0630055  54.4367755  66.7998968  98.2875185  56.3859026  59.5185474
  97.8480176  55.8935404  60.2118331  99.0383302  55.8431993  59.2777550
  90.7667524  52.5770567  59.5210102  91.5925544  52.2774338  59.1408746
  90.4161576  51.8078189  59.9699891  95.7349058  51.9297035  61.5907776
  95.1129067  51.2667740  61.2910004  96.4053925  51.9558167  60.9081424
  88.9676130  50.4956893  60.4799036  88.1308038  50.0679067  60.2983037
  88.9399775  50.6889336  61.4169827  95.8073585  40.4078823  71.1840282
  95.8561741  41.2840946  70.8018052  96.3496099  39.8656216  70.6111925
 106.2928431  50.9519946  70.4641419 105.5023974  50.9344085  69.9245919
 106.0561785  51.4908240  71.2190456 106.4126306  47.8012412  67.7774148
 106.4624311  47.6362420  68.7189671 106.3040229  46.9339671  67.3872029
  95.2962565  50.4800958  55.0666237  95.4450685  51.1636423  54.4132909
  96.1029008  50.4606048  55.5815692 103.7030068  43.7843340  69.0933454
 104.6039931  43.6449805  68.8017452 103.7778043  43.9497795  70.0331632
  98.0372874  41.1610195  67.9386641  97.1676183  41.4543761  67.6669229
  98.2732354  41.7450640  68.6593904 107.9144503  50.2209354  68.0216169
 107.6229311  50.5839335  68.8579630 107.3016634  49.5076362  67.8429501
 109.1140185  47.7862234  60.5418740 109.9487076  48.2252038  60.7056300
 109.2499314  47.3100887  59.7226985 106.1631691  45.3441969  66.4896227
 106.6385813  45.5369615  65.6815079 105.2397256  45.4001154  66.2439611
  93.0515198  46.5066136  56.0727306  92.8061239  45.6028466  56.2707516
  93.2211112  46.5083286  55.1306784 100.7411907  37.3789812  65.4552061
 101.2593851  38.1150839  65.1298550 100.3867040  37.6853805  66.2898820
 100.9924502  33.7990095  60.9752958 101.2726255  33.1313284  61.6013384
 101.7775108  33.9919190  60.4627622  98.7957970  52.9749089  52.5377984
  98.2231937  53.5939276  52.0848456  99.3690764  53.5248450  53.0717906
 104.8633360  42.2207729  64.7224533 105.8150783  42.3205826  64.7436757
 104.6936810  41.4285997  65.2322617 102.8847739  39.3063312  64.9083934
 102.2897671  39.5868325  64.2130422 102.5997436  39.7957213  65.6800675
 102.0155230  53.2586239  53.6686566 102.9485903  53.1931800  53.8719442
 101.9278443  54.0942506  53.2101099 104.6443247  52.5752109  50.6290514
 104.5656878  52.2411973  51.5226272 105.4652913  53.0673877  50.6281986
 107.3421438  45.4413848  63.8366833 107.3097758  44.5029849  64.0226516
 107.9522061  45.5197885  63.1032657 107.4915926  42.2324892  63.8825116
 106.9754975  41.4483348  63.6955045 108.3755875  41.9043608  64.0471635
 105.1526653  35.9765907  59.8420928 104.9551474  35.6680996  60.7264260
 105.7626359  36.7027546  59.9718858 113.1597988  46.5029855  62.9772869
 113.8901376  46.2415143  63.5380573 112.5504933  45.7658577  63.0174937
 111.2413285  44.6437718  63.5747321 110.5146448  44.5093683  62.9663812
 110.8260572  44.9514546  64.3804039  99.0643461  48.3627647  71.3394694
  99.9846471  48.5406247  71.5334740  99.0293044  47.4183693  71.1874393
  88.2825626  43.5566241  60.2647968  87.9628410  42.7031549  59.9722342
  87.7359054  43.7714819  61.0205936  92.0605534  46.2728682  63.9817475
  92.2791543  47.2045790  64.0005509  92.4731307  45.9136657  64.7672279
 100.9100300  35.8574814  57.5917460 101.4631338  36.2770268  58.2507483
 101.1470386  34.9310562  57.6340416  96.9333399  41.8461888  73.3720224
  96.8330126  42.7956245  73.3032315  96.7154941  41.5180127  72.4996294
  88.1513886  47.1769153  62.2341090  87.4577358  46.7623105  61.7211044
  88.8986877  47.2189689  61.6374509 104.2879107  37.9675339  57.0996124
 103.7077776  38.6260143  56.7174176 104.0215039  37.1452684  56.6883541
 102.7382673  37.3680397  59.3017444 103.2382452  37.4796932  58.4931763
 103.3818281  37.0641450  59.9418253  96.7964669  45.2759027  72.1885285
  96.3131751  46.0759387  72.3949174  96.8825608  45.2866972  71.2352729
  90.0650629  47.1087406  60.1107105  90.0421317  47.2075094  59.1588988
  90.3751265  47.9552557  60.4324271  92.7238006  49.1663561  64.2253719
  93.6781260  49.1347504  64.1583651  92.5250530  48.7054185  65.0403945
  93.3137389  47.7364678  66.7924517  94.1330278  48.2308756  66.8159354
  93.5874196  46.8196646  66.7642084 106.4218521  40.1521951  59.8706811
 107.1978911  40.6418403  60.1431428 105.6966655  40.5780005  60.3278681
 108.8591080  40.8649570  60.9280752 109.4535570  40.6245306  60.2174060
 108.9317663  40.1456701  61.5554288  91.0788235  54.7083181  61.2423917
  90.9442703  53.9483582  60.6761915  90.6620298  55.4324081  60.7752706
 102.2147198  49.8920104  50.2500492 102.9183048  50.0970107  50.8658148
 101.4909847  50.4596866  50.5149576 103.0445009  45.6429966  56.3702762
 102.9880210  46.0998517  55.5310395 103.5973351  44.8820650  56.1925605
 106.8549814  41.4319698  57.1952882 106.5986749  41.0316333  58.0261090
 106.2302683  42.1463492  57.0703021 111.1662152  44.1715771  59.7024173
 110.6061710  44.2408960  60.4755735 110.5605656  43.9956755  58.9823670
  94.2357361  55.6052498  61.4542360  94.1189745  56.5497930  61.3521050
  93.4149807  55.3026060  61.8428159 104.1233896  50.3302634  52.2998952
 104.9579500  49.8983832  52.1176427 103.9618239  50.1584647  53.2275847
 103.7779788  46.8334747  53.6655292 103.7228592  46.6679018  52.7243736
 103.1525843  47.5410780  53.8217481  88.5672303  42.0702811  67.4916714
  89.2131166  41.5601765  67.9803939  88.3589454  42.8071493  68.0660139
 101.0925695  49.1383659  72.9908854 101.9616855  49.3124311  72.6295489
 100.6132447  49.9578076  72.8684584  95.2611875  56.2580760  64.6698288
  96.1639122  56.2904370  64.9864783  95.0349245  55.3281211  64.6844624
  97.0165477  55.0111746  61.3308367  96.0661108  55.0113608  61.2172739
  97.3197963  54.2644481  60.8144401 100.9028033  32.9285633  57.4986547
 100.1360429  32.3744119  57.6443229 101.3138738  33.0007501  58.3600698
  92.9069794  39.2170428  71.5891728  93.7701255  38.8607233  71.7995053
  92.3335205  38.8784323  72.2767132 112.7518171  60.8472285  62.3954129
 113.3896581  60.7279032  61.6917469 112.6339014  61.7953129  62.4542081
 109.5607877  60.7999713  62.3315654 109.2226389  60.6840778  61.4436189
 110.4297645  60.3990878  62.3116660 105.4194693  62.6535189  58.3212545
 104.8559558  62.5625126  57.5528832 105.3047088  61.8335094  58.8015037
 110.0427660  61.9534565  68.2901859 110.0316301  61.5587363  67.4182363
 110.2048300  61.2200637  68.8835631 102.9659125  64.1486381  61.1596765
 103.7580417  63.8077206  60.7443064 103.2055775  64.2581356  62.0798918
 110.9994251  66.3206157  53.6327010 110.3482231  66.9060237  53.2461023
 111.7938614  66.8512352  53.6922047 104.9249879  63.4095294  54.0314144
 105.6980755  62.8624281  53.8927020 105.2775278  64.2739543  54.2428605
 106.7634921  64.7371676  67.2381043 106.4724787  65.6417307  67.1227710
 107.3991906  64.7788204  67.9525113 107.6891128  62.1148525  63.8282403
 108.2854700  61.8904547  63.1139366 107.7466100  61.3733270  64.4307851
 107.2616156  59.5687960  51.6632594 107.5141677  59.0469482  50.9016057
 106.3240716  59.4054106  51.7659277 112.3059439  58.5723739  59.4707337
 113.0922529  58.1543162  59.1197754 112.5698144  59.4769831  59.6388985
 112.4769517  64.0096589  54.1695994 111.8415350  64.0831215  54.8816899
 112.1466923  64.5990188  53.4915073 117.7067866  58.5098972  60.3740316
 118.4393038  57.9398189  60.6078145 116.9507222  58.1220572  60.8146821
 106.9812445  61.4716066  53.8656969 106.8648703  60.7960970  54.5338053
 107.0914705  60.9848440  53.0489122 109.3243986  60.9326213  57.5703658
 108.9602193  60.4056834  58.2816580 110.1811102  60.5424682  57.3970143
 115.2293287  52.2220546  64.8334924 114.8976612  53.0915957  64.6096139
 114.6338900  51.9056830  65.5128955 108.9649473  55.9616113  52.5665007
 109.1323875  56.8296349  52.9335478 108.7746642  56.1243395  51.6426296
 111.7224806  64.4233092  64.2330837 111.4225529  65.3258131  64.1246644
 111.3775866  64.1565275  65.0851990 105.1737288  60.8746889  60.2667541
 104.2487784  60.7423103  60.4745233 105.4221701  61.6541108  60.7637484
 115.1221950  56.9415632  61.9128274 114.2138827  56.8731041  61.6187035
 115.0709546  57.4187577  62.7410100 108.9438694  58.4173771  53.5511673
 108.8238319  58.8630821  54.3897154 108.2491282  58.7659088  52.9925212
 102.5346099  60.5180162  61.1011330 102.6638480  60.7714641  62.0150742
 101.8543550  61.1107870  60.7815985 106.7045586  71.1877412  57.2001805
 106.6269616  72.1385237  57.2790285 106.1007230  70.8423285  57.8576731
 109.1962816  58.3605278  69.8563172 108.4196150  58.9199198  69.8466036
 109.8353379  58.8462061  70.3778042 116.9883596  55.1432071  63.6906148
 116.3457977  55.4364604  63.0445943 116.4838525  55.0284991  64.4959345
 114.6423760  58.8895244  54.3792007 115.5541616  59.1222630  54.2039705
 114.1333407  59.4732288  53.8167086 107.4509188  61.1690731  69.4181139
 108.1923873  61.7075775  69.1415962 106.7446174  61.7957020  69.5752690
 112.9264528  63.3119872  68.0153300 113.3347884  62.8702282  67.2707932
 112.2041789  62.7372499  68.2687493 109.2795598  58.2492478  65.3886857
 110.1256793  58.6731892  65.5321506 109.2194236  57.5926103  66.0825420
 113.2493342  63.8721062  61.7705589 112.6202205  64.0366776  61.0681657
 112.8619005  64.2862672  62.5416553 117.1282574  64.8075500  59.1249953
 116.4433613  65.1874401  58.5746986 117.2126424  65.4170827  59.8581900
 112.4295043  55.9096847  67.0468031 112.1855975  56.6638907  66.5102306
 112.7054974  56.2882194  67.8815278 114.3833506  62.4535459  65.7245296
 114.5950401  63.0967219  65.0479677 114.3363254  61.6197776  65.2567226
 111.9859735  55.0653280  62.6281868 111.1244214  55.3634533  62.9198606
 112.0122170  55.2823679  61.6962901 108.8021304  63.6095470  59.0355674
 109.2659650  63.8883173  58.2460296 108.5378102  62.7078915  58.8528765
 105.6945385  63.1566952  61.9735437 106.2646742  63.5854220  61.3352922
 106.2853497  62.8749537  62.6719623 107.7390190  59.7318623  55.8445239
 108.4414234  60.1839666  56.3119165 107.4070819  59.0902441  56.4725132
 106.1870552  58.3230379  70.2196449 105.5569212  59.0046660  70.4531845
 106.0806640  58.2113461  69.2749587 101.4815524  57.9902175  61.1462373
 100.6914578  58.2459704  60.6702483 101.9726772  58.8050513  61.2514413
 115.4979334  65.3307414  63.8967654 116.3196778  64.9287602  63.6150335
 115.4941737  65.2275649  64.8483769 103.4330270  58.3546755  58.1045849
 102.6361433  58.4665449  58.6229345 103.2055862  58.6933407  57.2386740
 109.2635937  64.8791458  66.0528364 109.3280370  65.3411865  66.8886536
 108.5546861  64.2488823  66.1810674  99.7653227  58.2432666  63.5777363
 100.0161266  59.1279676  63.8434939 100.3012776  58.0637267  62.8052455
 108.9783955  66.5459565  55.9207344 108.8429630  67.3911101  56.3492192
 109.5193768  66.7478843  55.1573278 105.4651295  52.6251145  72.5821700
 105.0718240  52.0717344  73.2569344 106.2817435  52.9361724  72.9728217
 102.4313352  64.0635003  56.4935269 102.9437873  64.8578254  56.6440834
 103.0836065  63.3661294  56.4268871 104.2408237  67.1800760  58.5758023
 104.4174865  68.1018724  58.3879006 105.0365071  66.8659179  59.0052402
 108.3819256  54.0409024  70.1741956 109.1228969  54.6416177  70.0946419
 108.6137178  53.2986662  69.6159999 103.5260594  59.2265391  68.4520186
 103.4114109  58.3250649  68.7527285 102.6705111  59.4729088  68.1005002
 110.6052431  67.1683132  70.0507686 110.1616286  66.3819510  69.7328591
 111.2669645  67.3562282  69.3851577 105.3639553  68.6978933  64.5768365
 105.9146978  68.5695997  63.8045359 104.5251028  68.9973822  64.2263258
 112.7033669  67.4485932  68.0789088 112.6852145  68.2694813  67.5869357
 113.6253589  67.3240007  68.3039229 109.1606724  64.9630061  68.9212596
 109.6935060  64.2018349  68.6911904 108.6320805  64.6703713  69.6636751
 112.3276419  50.0690127  64.4506238 111.9840688  50.9591769  64.3745348
 112.6955381  49.8791785  63.5875823 100.3962269  62.3923658  57.2694840
 101.2337491  62.8020666  57.0528548 100.5740537  61.4523100  57.2395034
 112.2926701  60.0598738  52.9578673 111.7773325  60.8303343  53.1967060
 112.0204010  59.3863874  53.5811734 109.8773812  54.9048439  58.0163911
 109.0215409  54.5155289  57.8369550 110.2900764  54.9840400  57.1563697
 111.4072959  52.4394782  62.4155471 110.9037755  52.4024917  61.6023276
 111.7003566  53.3487525  62.4752128 107.6515845  52.5233512  61.4221653
 108.5168842  52.3276321  61.0627542 107.7193354  52.2943864  62.3491010
 117.2660975  62.8131093  54.8931846 116.4890418  62.4742252  54.4487008
 117.9452456  62.8183716  54.2186811 112.0813004  57.9325830  54.7838454
 111.7763140  58.2471980  55.6348597 113.0343447  58.0107250  54.8265787
 110.5259436  64.0916054  56.4331408 109.9980798  63.3568813  56.1204646
 110.0246939  64.8690730  56.1871376 115.5052282  62.2865074  61.5498454
 114.8475957  62.9764336  61.6378583 116.3092682  62.6761506  61.8932441
 105.2578164  54.7535720  58.7938020 105.8321916  54.5310901  58.0611213
 105.8449146  54.8224414  59.5466621 114.3157741  60.6409447  59.6002396
 114.8289623  61.2739439  60.1024106 114.9658965  60.0410642  59.2345756
 105.5847751  56.7840181  52.8133905 104.7485063  57.1214868  53.1343180
 105.4452521  56.6489161  51.8761042 107.5600832  51.6276969  57.5213089
 106.9065244  51.3125986  56.8969704 107.5181306  51.0052709  58.2472912
 108.6712036  61.9096264  49.4366381 107.7639098  61.6785517  49.6357530
 109.1683068  61.1133883  49.6240363 111.5780115  70.6193771  52.3563067
 110.9041814  70.9225468  52.9648025 111.9645937  71.4222851  52.0068524
 110.7938572  58.1158902  61.8460737 109.8761133  58.3373849  61.6882425
 111.2098716  58.1905213  60.9872444 111.5773620  59.5150318  56.9763417
 112.3245439  60.0271715  56.6670539 111.8465209  59.1934371  57.8367810
 109.8500270  62.0108859  53.9590371 108.9411489  61.7267892  54.0562841
 109.8795354  62.4307937  53.0993678 115.0819537  65.6215448  57.7281539
 114.6281864  64.7806358  57.7846729 114.4513504  66.2576847  58.0656319
 114.0252457  56.5507434  58.9582206 113.2875214  56.0384821  59.2892449
 114.2779230  56.1107816  58.1465483 113.5252477  67.4591945  58.6631357
 113.8175451  68.0197002  57.9443723 114.0351097  67.7520506  59.4184516
 114.1264084  49.3283686  59.5523975 114.4322961  48.4681050  59.2649891
 114.8516689  49.9201307  59.3522969 100.4188440  59.7314373  57.9405573
 100.2212840  59.1383734  57.2156640  99.8635104  59.4266583  58.6581512
 108.3985164  59.6237479  60.0600167 108.4533774  58.6711316  59.9842643
 107.5876366  59.7796918  60.5441465 109.5476358  63.5517602  51.2978450
 109.1095788  62.8353461  50.8384087 110.2886799  63.7793717  50.7363541
 106.3377524  58.2414539  57.8190545 105.5245389  58.5408710  58.2255738
 106.8336518  57.8470228  58.5365028 108.4886102  68.2372296  59.7524810
 108.4462281  68.4633142  58.8233342 109.4048801  68.0035671  59.9010611
 111.9351736  58.7056364  66.6505439 112.2901123  58.9327837  67.5099905
 112.5823867  59.0374740  66.0282695 117.6649473  61.8274799  57.3554768
 117.5267371  62.0176395  56.4275958 117.3085691  62.5894182  57.8122819
 105.8291599  55.8132895  63.4351780 106.4690978  55.6721654  62.7374744
 104.9969129  55.5267408  63.0590382 117.6918852  63.8951326  62.3666040
 118.1255359  63.8026616  63.2149094 118.4050433  63.8708827  61.7286056
 106.6051903  65.1135325  59.5486773 107.3992501  64.6185645  59.3469348
 105.8943595  64.5853188  59.1854478 111.4246747  67.4953421  63.8999140
 111.4783769  68.0644357  64.6676856 110.5561528  67.6655306  63.5353178
 102.9134666  59.2578407  55.6246526 101.9832254  59.1962862  55.8416488
 103.0092138  58.7354360  54.8283167 102.8320215  55.7833220  58.2124767
 103.0927032  56.6978553  58.1033928 103.6537387  55.3157662  58.3621380
 104.3045140  57.1970977  65.3823592 104.9768194  56.9888339  64.7336241
 103.4774927  56.9993063  64.9428824 118.5534402  63.9375027  64.8998925
 118.7470292  64.8420838  65.1458200 118.4535020  63.4782446  65.7337510
 110.2070712  53.8232918  67.3989253 109.5598627  54.5222867  67.3053729
 110.9771728  54.2569062  67.7665501 113.6149510  64.0881770  70.4739806
 113.4635017  63.8592322  69.5569890 113.6054190  65.0452371  70.4871151
 110.3834847  61.6613683  65.4586072 111.3126907  61.8124842  65.2855040
 109.9625877  61.7497703  64.6034719 109.1823179  65.6864347  63.2284610
 109.0434264  65.3183131  64.1010548 108.3937775  66.2011986  63.0568568
 109.7771331  70.7873444  54.5710146 109.9523086  70.3161487  55.3855769
 109.0904119  71.4139210  54.7991407 110.7328394  65.0645950  60.6173448
 110.3978226  65.0246720  61.5131098 110.2332339  64.3990666  60.1443858
 104.7072638  60.4713580  66.1426029 104.5692436  59.7393819  66.7437568
 105.6177561  60.3822480  65.8610217 113.6687585  62.4101984  50.8910507
 113.0516756  61.6848812  50.7943560 113.2004074  63.1711344  50.5477582
 107.3354938  60.1833539  65.6309709 108.0454557  59.5426731  65.5896327
 107.2924246  60.4346434  66.5535889 115.3241717  67.1200892  68.5516288
 115.2654263  66.4360113  67.8846871 115.7261235  67.8619882  68.0996914
 106.0483872  57.1698757  67.4505348 105.5121229  56.7189495  68.1026944
 105.4600581  57.3044666  66.7075812 104.3432416  73.9362806  61.3450007
 104.5829014  74.5681330  62.0229025 103.5001612  73.5850846  61.6315366
 105.4586131  56.6287408  50.0131812 104.5815598  56.5076209  49.6494058
 105.9343884  55.8373487  49.7610700 115.3259124  65.0840476  66.7830267
 114.4385903  64.7466398  66.9056666 115.8957675  64.3523508  67.0199033
  96.9788271  61.4164568  60.1073319  97.6659311  61.1026298  59.5194334
  96.8236400  62.3205933  59.8340570 101.7822994  56.3054765  64.5358342
 101.6981182  55.6980434  63.8008752 100.9605700  56.7963783  64.5367839
 108.8560278  69.7441929  63.7491511 108.7830449  70.5496900  64.2610815
 108.4137671  69.9433895  62.9239532 108.6450057  68.9813699  57.2594332
 107.8617579  69.5235379  57.3532557 109.3442802  69.4987678  57.6588573
 111.9546707  54.7908328  59.9028538 112.4515407  54.0378291  59.5829608
 111.1833689  54.8272645  59.3371747 119.8076465  60.4948694  61.5446829
 119.7966341  61.3773409  61.1740762 118.9393844  60.1420245  61.3501366
 111.3158961  69.6428763  65.9049669 112.0286933  70.2776228  65.8325571
 110.8248990  69.7392629  65.0889671 113.0376488  63.5480015  57.4766961
 112.1032767  63.6681478  57.3071665 113.2153157  62.6452482  57.2126971
 108.5381676  56.9325711  59.6300222 108.1679464  56.3796752  60.3181128
 109.0340769  56.3283845  59.0775222 116.4249039  59.3897335  58.0116995
 116.8909492  60.2225326  57.9377298 116.8756540  58.9242316  58.7162254
 106.3670875  67.3923206  66.7255240 107.0680334  68.0259689  66.8784634
 105.8965990  67.7337938  65.9650879 114.4925271  65.7341156  55.0103147
 114.7685114  65.6197751  55.9197021 113.6229769  65.3358641  54.9715320
 114.3965702  51.7577922  62.0507896 113.4828782  51.9882149  62.2190103
 114.8258804  51.8416366  62.9021929 114.1672161  59.9467814  64.5507790
 113.5143611  60.1943721  63.8960243 114.5452541  59.1331952  64.2170268
 111.1279335  69.9827507  58.6535961 111.3101729  69.1649163  59.1163713
 111.9512321  70.1995199  58.2160851 111.4621500  68.9095692  55.9151009
 111.9909266  68.3988147  55.3021171 111.7249720  68.5938222  56.7796542
 110.2159734  60.6887625  71.0373828 109.5400371  60.5881754  71.7076203
 111.0387368  60.5326838  71.5009825 101.9638593  66.9259561  63.6586343
 102.5492030  66.1803249  63.7914247 101.7663431  67.2363518  64.5423007
 104.8177248  69.9610809  58.6748785 104.1487623  70.4456936  58.1912825
 104.6790118  70.2080029  59.5892164  96.5556248  59.4965161  62.3790786
  96.5940347  58.9628752  63.1727904  96.0496540  58.9700367  61.7601763
 108.9582517  71.9954552  65.2731444 109.5100825  72.1586174  66.0380529
 109.2988710  72.5858990  64.6011468 103.9347010  54.3429702  65.8753328
 103.9988336  55.2044533  65.4630726 103.8714130  53.7303704  65.1425687
 103.4099282  56.4152835  69.5226362 104.0371321  56.0329912  70.1363887
 102.5527201  56.1967036  69.8882055 113.8093391  66.8215810  71.1280098
 114.3533295  67.4345768  70.6335053 113.2280236  67.3795388  71.6447111
 100.1864825  58.2229264  55.4544717 100.4818266  57.3139942  55.4011771
  99.2852861  58.2017003  55.1325720 112.0950904  69.9436528  62.2595126
 111.9702043  69.1426268  61.7506071 112.7529995  70.4382721  61.7709096
 103.7159072  56.2985260  61.4372266 102.9945658  56.9121228  61.2979739
 104.5052328  56.8343025  61.3588912 114.1585812  67.7445548  63.8874676
 113.2116148  67.6250899  63.8153002 114.5068585  66.8568046  63.9700937
 106.5185386  53.6339687  67.7112918 107.0419787  53.8801983  68.4739227
 106.2997719  54.4659722  67.2916055 101.9152667  55.9043361  55.5784042
 101.5865373  55.0240740  55.3959148 102.2692037  55.8491030  56.4660432
 111.1632246  67.5398264  60.0879028 111.0157208  66.6114971  60.2686598
 111.9885739  67.5618355  59.6036103 105.0294490  56.1916331  55.9459520
 105.3690562  56.7202252  55.2238128 105.4766610  56.5296737  56.7218087
 114.7666367  68.3626823  61.1743901 115.6912915  68.1569684  61.0368352
 114.5981671  68.1143224  62.0833242 107.7237931  54.5753382  65.3962588
 107.3834751  53.7761195  65.7983268 107.0176937  54.8755093  64.8239421
 108.3754402  51.6602694  63.8489911 109.1980472  51.1863172  63.7268802
 108.6192466  52.4393178  64.3488598 107.0162637  54.6890953  54.1452813
 107.7370999  55.0672205  53.6416530 106.3927941  55.4079830  54.2487791
 111.1593760  55.3936102  55.0811145 111.3757374  56.2760740  54.7799973
 110.6787827  55.0022315  54.3516787 105.8992981  58.3521815  61.6581890
 105.7537562  58.6662118  62.5506171 105.4218185  58.9706715  61.1052788
 107.7589364  55.3424363  61.7062779 107.7450933  54.4465456  61.3695077
 108.4761792  55.3495027  62.3401065 109.6115495  55.7761703  63.7515907
 109.3533273  56.6978774  63.7500237 109.0800535  55.3792138  64.4416371
 114.5561684  68.8812490  56.5305992 114.7298561  68.3158913  55.7779845
 115.0490575  69.6813385  56.3485482 100.3738643  60.8927159  64.5969551
  99.8292111  61.6686967  64.7289825 101.2517993  61.2397964  64.4388672
 107.1626260  54.2238743  56.9750350 107.2842171  53.2955389  57.1741237
 106.8728302  54.2377429  56.0628665 110.0317450  51.9093654  60.1117069
 110.0539147  51.9732987  59.1569049 110.4485509  51.0698162  60.3057576
 120.4101075  61.6448913  58.1496292 120.8532221  60.8956238  57.7515415
 119.5327585  61.6359050  57.7670024 115.5436856  68.1979255  53.6302890
 116.2387761  68.8185947  53.8490205 115.8860006  67.3474606  53.9055268
 101.1604665  60.0197056  67.4899708 100.4186401  60.1679691  68.0764338
 100.8397410  60.2805321  66.6266457 117.4428279  65.6478960  55.1590221
 117.9679603  65.9866233  54.4339541 117.3550632  64.7125975  54.9753356
 109.1048328  69.5613034  67.2880098 109.4135454  69.3162181  68.1602797
 109.9023810  69.7659672  66.7998968 109.1268940  71.7150943  59.5185474
 108.6873930  71.2227322  60.2118331 109.8777057  71.1723911  59.2777550
 101.6061279  67.9062484  59.5210102 102.4319299  67.6066256  59.1408746
 101.2555331  67.1370107  59.9699891 106.5742812  67.2588953  61.5907776
 105.9522821  66.5959658  61.2910004 107.2447679  67.2850084  60.9081424
  99.8069884  65.8248811  60.4799036  98.9701792  65.3970985  60.2983037
  99.7793529  66.0181254  61.4169827 106.6467340  55.7370741  71.1840282
 106.6955495  56.6132863  70.8018052 107.1889854  55.1948134  70.6111925
 117.1322185  66.2811864  70.4641419 116.3417729  66.2636003  69.9245919
 116.8955540  66.8200157  71.2190456 117.2520060  63.1304330  67.7774148
 117.3018065  62.9654338  68.7189671 117.1433984  62.2631589  67.3872029
 106.1356319  65.8092876  55.0666237 106.2844439  66.4928340  54.4132909
 106.9422762  65.7897966  55.5815692 114.5423823  59.1135258  69.0933454
 115.4433685  58.9741723  68.8017452 114.6171797  59.2789713  70.0331632
 108.8766628  56.4902113  67.9386641 108.0069937  56.7835679  67.6669229
 109.1126108  57.0742558  68.6593904 118.7538257  65.5501272  68.0216169
 118.4623065  65.9131252  68.8579630 118.1410388  64.8368280  67.8429501
 119.9533939  63.1154151  60.5418740 120.7880831  63.5543956  60.7056300
 120.0893068  62.6392805  59.7226985 117.0025445  60.6733886  66.4896227
 117.4779567  60.8661533  65.6815079 116.0791011  60.7293072  66.2439611
 103.8908952  61.8358053  56.0727306 103.6454994  60.9320383  56.2707516
 104.0604867  61.8375204  55.1306784 111.5805662  52.7081730  65.4552061
 112.0987606  53.4442757  65.1298550 111.2260795  53.0145723  66.2898820
 103.1604600  57.5686411  53.5713467 102.4673844  57.6430766  52.9153503
 102.9156351  56.8046755  54.0934984 111.8318256  49.1282012  60.9752958
 112.1120010  48.4605201  61.6013384 112.6168863  49.3211108  60.4627622
 109.6351725  68.3041006  52.5377984 109.0625692  68.9231193  52.0848456
 110.2084518  68.8540368  53.0717906 115.7027114  57.5499646  64.7224533
 116.6544537  57.6497744  64.7436757 115.5330565  56.7577915  65.2322617
 113.7241494  54.6355230  64.9083934 113.1291426  54.9160242  64.2130422
 113.4391191  55.1249131  65.6800675 112.8548984  68.5878156  53.6686566
 113.7879657  68.5223718  53.8719442 112.7672197  69.4234423  53.2101099
 115.4837001  67.9044027  50.6290514 115.4050633  67.5703890  51.5226272
 116.3046668  68.3965795  50.6281986 118.1815192  60.7705766  63.8366833
 118.1491512  59.8321767  64.0226516 118.7915816  60.8489803  63.1032657
 110.0198523  59.6401819  49.8794037 110.9657628  59.5108027  49.9482455
 109.6412768  58.9016481  50.3563465 118.3309681  57.5616809  63.8825116
 117.8148729  56.7775266  63.6955045 119.2149629  57.2335526  64.0471635
 115.9920408  51.3057825  59.8420928 115.7945229  50.9972913  60.7264260
 116.6020113  52.0319464  59.9718858 109.9037216  63.6919565  71.3394694
 110.8240225  63.8698164  71.5334740 109.8686799  62.7475611  71.1874393
 108.2041440  57.5651795  49.8148922 107.2972896  57.2684908  49.8911635
 108.4817421  57.2681614  48.9483208  99.1219381  58.8858159  60.2647968
  98.8022165  58.0323467  59.9722342  98.5752809  59.1006737  61.0205936
 102.8999288  61.6020600  63.9817475 103.1185298  62.5337708  64.0005509
 103.3125062  61.2428574  64.7672279 109.8203506  52.1088685  55.9693163
 109.0104234  51.7635770  56.3448409 110.5087923  51.7996229  56.5580775
 111.7494054  51.1866732  57.5917460 112.3025093  51.6062185  58.2507483
 111.9864141  50.2602480  57.6340416 107.7727153  57.1753806  73.3720224
 107.6723880  58.1248163  73.3032315 107.5548695  56.8472044  72.4996294
 106.9740225  54.4238731  49.9560901 107.8359389  54.7493629  50.2156718
 107.1590569  53.6370227  49.4433967  98.9907641  62.5061070  62.2341090
  98.2971112  62.0915023  61.7211044  99.7380632  62.5481607  61.6374509
 115.1272861  53.2967257  57.0996124 114.5471530  53.9552061  56.7174176
 114.8608794  52.4744602  56.6883541 113.5776428  52.6972315  59.3017444
 114.0776206  52.8088849  58.4931763 114.2212036  52.3933368  59.9418253
 107.6358424  60.6050944  72.1885285 107.1525505  61.4051305  72.3949174
 107.7219363  60.6158889  71.2352729 100.9044383  62.4379324  60.1107105
 100.8815071  62.5367011  59.1588988 101.2145020  63.2844475  60.4324271
 103.5631761  64.4955479  64.2253719 104.5175015  64.4639421  64.1583651
 103.3644285  64.0346103  65.0403945 104.1531143  63.0656595  66.7924517
 104.9724032  63.5600674  66.8159354 104.4267951  62.1488563  66.7642084
 113.9097739  55.4567347  56.1552472 113.0223594  55.7416998  55.9372667
 114.3251728  55.2961111  55.3079749 117.2612275  55.4813868  59.8706811
 118.0372666  55.9710321  60.1431428 116.5360410  55.9071923  60.3278681
 119.6984834  56.1941488  60.9280752 120.2929325  55.9537224  60.2174060
 119.7711418  55.4748618  61.5554288 101.9181990  70.0375099  61.2423917
 101.7836458  69.2775500  60.6761915 101.5014052  70.7615998  60.7752706
 113.0540953  65.2212022  50.2500492 113.7576803  65.4262025  50.8658148
 112.3303602  65.7888784  50.5149576 113.8838763  60.9721883  56.3702762
 113.8273964  61.4290435  55.5310395 114.4367106  60.2112568  56.1925605
 117.6943569  56.7611615  57.1952882 117.4380503  56.3608251  58.0261090
 117.0696437  57.4755409  57.0703021 105.0751116  70.9344416  61.4542360
 104.9583500  71.8789848  61.3521050 104.2543562  70.6317977  61.8428159
 114.9627650  65.6594551  52.2998952 115.7973254  65.2275750  52.1176427
 114.8011993  65.4876565  53.2275847 114.6173542  62.1626665  53.6655292
 114.5622346  61.9970936  52.7243736 113.9919598  62.8702698  53.8217481
  99.4066057  57.3994729  67.4916714 100.0524921  56.8893683  67.9803939
  99.1983208  58.1363411  68.0660139 111.9319450  64.4675577  72.9908854
 112.8010609  64.6416229  72.6295489 111.4526201  65.2869993  72.8684584
 107.9269668  51.6634774  53.2440610 107.9148338  52.6076614  53.4008881
 108.8193090  51.4804919  52.9500071 106.1005630  71.5872678  64.6698288
 107.0032876  71.6196288  64.9864783 105.8743000  70.6573128  64.6844624
 107.8559232  70.3403664  61.3308367 106.9054863  70.3405526  61.2172739
 108.1591718  69.5936399  60.8144401 111.7421787  48.2577550  57.4986547
 110.9754183  47.7036037  57.6443229 112.1532492  48.3299419  58.3600698
 103.7463548  54.5462346  71.5891728 104.6095010  54.1899151  71.7995053
 103.1728959  54.2076241  72.2767132 120.4001632  76.1291631  62.3315654
 120.0620143  76.0132695  61.4436189 121.2691400  75.7282796  62.3116660
 116.2588447  77.9827107  58.3212545 115.6953312  77.8917044  57.5528832
 116.1440842  77.1627011  58.8015037 120.8821415  77.2826482  68.2901859
 120.8710055  76.8879281  67.4182363 121.0442054  76.5492555  68.8835631
 113.8052879  79.4778299  61.1596765 114.5974171  79.1369123  60.7443064
 114.0449529  79.5873274  62.0798918 115.7643633  78.7387212  54.0314144
 116.5374509  78.1916199  53.8927020 116.1169032  79.6031461  54.2428605
 117.6028676  80.0663594  67.2381043 117.3118542  80.9709225  67.1227710
 118.2385660  80.1080122  67.9525113 118.5284883  77.4440443  63.8282403
 119.1248455  77.2196465  63.1139366 118.5859854  76.7025188  64.4307851
 118.1009911  74.8979878  51.6632594 118.3535432  74.3761399  50.9016057
 117.1634470  74.7346023  51.7659277 117.8206200  76.8007984  53.8656969
 117.7042458  76.1252887  54.5338053 117.9308460  76.3140358  53.0489122
 120.1637741  76.2618131  57.5703658 119.7995948  75.7348752  58.2816580
 121.0204857  75.8716600  57.3970143 119.8043228  71.2908031  52.5665007
 119.9717630  72.1588267  52.9335478 119.6140397  71.4535312  51.6426296
 116.0131042  76.2038806  60.2667541 115.0881539  76.0715021  60.4745233
 116.2615455  76.9833026  60.7637484 119.7832448  73.7465688  53.5511673
 119.6632074  74.1922739  54.3897154 119.0885037  74.0951006  52.9925212
 113.3739853  75.8472080  61.1011330 113.5032234  76.1006559  62.0150742
 112.6937305  76.4399788  60.7815985 117.5439341  86.5169330  57.2001805
 117.4663370  87.4677155  57.2790285 116.9400984  86.1715202  57.8576731
 120.0356570  73.6897195  69.8563172 119.2589904  74.2491116  69.8466036
 120.6747133  74.1753978  70.3778042 118.2902943  76.4982649  69.4181139
 119.0317627  77.0367693  69.1415962 117.5839928  77.1248938  69.5752690
 120.1189352  73.5784396  65.3886857 120.9650548  74.0023810  65.5321506
 120.0587990  72.9218020  66.0825420 119.6415059  78.9387388  59.0355674
 120.1053404  79.2175091  58.2460296 119.3771857  78.0370833  58.8528765
 116.5339140  78.4858869  61.9735437 117.1040497  78.9146138  61.3352922
 117.1247252  78.2041454  62.6719623 118.5783945  75.0610540  55.8445239
 119.2807988  75.5131584  56.3119165 118.2464573  74.4194359  56.4725132
 117.0264306  73.6522297  70.2196449 116.3962967  74.3338578  70.4531845
 116.9200394  73.5405379  69.2749587 112.3209279  73.3194093  61.1462373
 111.5308333  73.5751622  60.6702483 112.8120526  74.1342431  61.2514413
 114.2724024  73.6838672  58.1045849 113.4755187  73.7957366  58.6229345
 114.0449616  74.0225324  57.2386740 120.1029692  80.2083375  66.0528364
 120.1674124  80.6703783  66.8886536 119.3940616  79.5780740  66.1810674
 110.6046982  73.5724583  63.5777363 110.8555020  74.4571593  63.8434939
 111.1406530  73.3929185  62.8052455 119.8177709  81.8751483  55.9207344
 119.6823384  82.7203019  56.3492192 120.3587522  82.0770761  55.1573278
 116.3045049  67.9543063  72.5821700 115.9111995  67.4009261  73.2569344
 117.1211189  68.2653641  72.9728217 113.2707107  79.3926921  56.4935269
 113.7831627  80.1870171  56.6440834 113.9229820  78.6953211  56.4268871
 115.0801992  82.5092677  58.5758023 115.2568620  83.4310642  58.3879006
 115.8758825  82.1951096  59.0052402 119.2213010  69.3700942  70.1741956
 119.9622723  69.9708095  70.0946419 119.4530933  68.6278580  69.6159999
 114.3654348  74.5557309  68.4520186 114.2507863  73.6542566  68.7527285
 113.5098866  74.8021006  68.1005002 116.2033307  84.0270851  64.5768365
 116.7540732  83.8987914  63.8045359 115.3644783  84.3265740  64.2263258
 120.0000478  80.2921979  68.9212596 120.5328815  79.5310267  68.6911904
 119.4714559  79.9995631  69.6636751 111.2356024  77.7215575  57.2694840
 112.0731246  78.1312584  57.0528548 111.4134291  76.7815017  57.2395034
 120.7167567  70.2340357  58.0163911 119.8609163  69.8447207  57.8369550
 121.1294519  70.3132317  57.1563697 118.4909599  67.8525430  61.4221653
 119.3562596  67.6568238  61.0627542 118.5587108  67.6235781  62.3491010
 121.3653191  79.4207971  56.4331408 120.8374552  78.6860731  56.1204646
 120.8640694  80.1982648  56.1871376 116.0971918  70.0827638  58.7938020
 116.6715670  69.8602819  58.0611213 116.6842901  70.1516332  59.5466621
 116.4241506  72.1132099  52.8133905 115.5878818  72.4506785  53.1343180
 116.2846275  71.9781078  51.8761042 118.3994586  66.9568887  57.5213089
 117.7458998  66.6417904  56.8969704 118.3575060  66.3344627  58.2472912
 119.5105791  77.2388182  49.4366381 118.6032853  77.0077435  49.6357530
 120.0076823  76.4425801  49.6240363 120.6894024  77.3400776  53.9590371
 119.7805244  77.0559809  54.0562841 120.7189108  77.7599855  53.0993678
 111.2582195  75.0606291  57.9405573 111.0606595  74.4675651  57.2156640
 110.7028859  74.7558501  58.6581512 119.2378918  74.9529397  60.0600167
 119.2927528  74.0003233  59.9842643 118.4270120  75.1088836  60.5441465
 120.3870112  78.8809520  51.2978450 119.9489542  78.1645379  50.8384087
 121.1280553  79.1085635  50.7363541 117.1771278  73.5706457  57.8190545
 116.3639144  73.8700627  58.2255738 117.6730273  73.1762146  58.5365028
 119.3279856  83.5664214  59.7524810 119.2856035  83.7925060  58.8233342
 120.2442555  83.3327588  59.9010611 116.6685353  71.1424812  63.4351780
 117.3084732  71.0013571  62.7374744 115.8362884  70.8559326  63.0590382
 117.4445657  80.4427243  59.5486773 118.2386256  79.9477563  59.3469348
 116.7337349  79.9145106  59.1854478 113.7528421  74.5870324  55.6246526
 112.8226009  74.5254780  55.8416488 113.8485892  74.0646277  54.8283167
 113.6713970  71.1125137  58.2124767 113.9320787  72.0270471  58.1033928
 114.4931142  70.6449580  58.3621380 115.1438895  72.5262894  65.3823592
 115.8161948  72.3180257  64.7336241 114.3168681  72.3284980  64.9428824
 120.0216933  81.0156265  63.2284610 119.8828019  80.6475049  64.1010548
 119.2331529  81.5303904  63.0568568 120.6165085  86.1165361  54.5710146
 120.7916841  85.6453404  55.3855769 119.9297873  86.7431127  54.7991407
 121.5722148  80.3937867  60.6173448 121.2371981  80.3538637  61.5131098
 121.0726094  79.7282583  60.1443858 115.5466392  75.8005497  66.1426029
 115.4086190  75.0685736  66.7437568 116.4571316  75.7114398  65.8610217
 118.1748693  75.5125457  65.6309709 118.8848311  74.8718649  65.5896327
 118.1318001  75.7638352  66.5535889 116.8877627  72.4990675  67.4505348
 116.3514984  72.0481413  68.1026944 116.2994335  72.6336584  66.7075812
 115.1826170  89.2654724  61.3450007 115.4222769  89.8973248  62.0229025
 114.3395367  88.9142764  61.6315366 116.2979886  71.9579326  50.0131812
 115.4209352  71.8368127  49.6494058 116.7737639  71.1665404  49.7610700
 107.8182026  76.7456486  60.1073319 108.5053066  76.4318216  59.5194334
 107.6630155  77.6497850  59.8340570 112.6216748  71.6346682  64.5358342
 112.5374937  71.0272352  63.8008752 111.7999454  72.1255701  64.5367839
 119.6954032  85.0733846  63.7491511 119.6224204  85.8788818  64.2610815
 119.2531425  85.2725812  62.9239532 119.4843812  84.3105616  57.2594332
 118.7011334  84.8527297  57.3532557 120.1836557  84.8279596  57.6588573
 119.3775431  72.2617629  59.6300222 119.0073218  71.7088669  60.3181128
 119.8734523  71.6575762  59.0775222 117.2064629  82.7215124  66.7255240
 117.9074089  83.3551607  66.8784634 116.7359744  83.0629855  65.9650879
 112.8032347  82.2551479  63.6586343 113.3885784  81.5095167  63.7914247
 112.6057186  82.5655436  64.5423007 115.6571002  85.2902726  58.6748785
 114.9881378  85.7748854  58.1912825 115.5183872  85.5371947  59.5892164
 107.3950002  74.8257079  62.3790786 107.4334102  74.2920670  63.1727904
 106.8890295  74.2992285  61.7601763 119.7976271  87.3246470  65.2731444
 120.3494579  87.4878091  66.0380529 120.1382465  87.9150908  64.6011468
 114.7740764  69.6721620  65.8753328 114.8382091  70.5336451  65.4630726
 114.7107885  69.0595621  65.1425687 114.2493037  71.7444752  69.5226362
 114.8765076  71.3621830  70.1363887 113.3920956  71.5258954  69.8882055
 111.0258580  73.5521181  55.4544717 111.3212021  72.6431860  55.4011771
 110.1246615  73.5308921  55.1325720 114.5552827  71.6277178  61.4372266
 113.8339412  72.2413146  61.2979739 115.3446082  72.1634943  61.3588912
 117.3579140  68.9631604  67.7112918 117.8813542  69.2093901  68.4739227
 117.1391473  69.7951639  67.2916055 112.7546421  71.2335279  55.5784042
 112.4259127  70.3532658  55.3959148 113.1085792  71.1782948  56.4660432
 115.8688244  71.5208249  55.9459520 116.2084317  72.0494170  55.2238128
 116.3160365  71.8588655  56.7218087 118.5631685  69.9045300  65.3962588
 118.2228506  69.1053113  65.7983268 117.8570691  70.2047010  64.8239421
 119.2148157  66.9894612  63.8489911 120.0374226  66.5155090  63.7268802
 119.4586221  67.7685096  64.3488598 117.8556391  70.0182870  54.1452813
 118.5764754  70.3964123  53.6416530 117.2321696  70.7371747  54.2487791
 116.7386736  73.6813733  61.6581890 116.5931316  73.9954036  62.5506171
 116.2611939  74.2998633  61.1052788 118.5983119  70.6716281  61.7062779
 118.5844687  69.7757374  61.3695077 119.3155547  70.6786944  62.3401065
 120.4509249  71.1053621  63.7515907 120.1927027  72.0270691  63.7500237
 119.9194290  70.7084055  64.4416371 111.2132398  76.2219077  64.5969551
 110.6685866  76.9978885  64.7289825 112.0911748  76.5689881  64.4388672
 118.0020015  69.5530661  56.9750350 118.1235926  68.6247307  57.1741237
 117.7122057  69.5669347  56.0628665 120.8711205  67.2385571  60.1117069
 120.8932902  67.3024904  59.1569049 121.2879264  66.3990080  60.3057576
 111.9998420  75.3488973  67.4899708 111.2580156  75.4971609  68.0764338
 111.6791164  75.6097239  66.6266457 119.9442082  84.8904951  67.2880098
 120.2529209  84.6454098  68.1602797 120.7417564  85.0951590  66.7998968
 119.9662694  87.0442861  59.5185474 119.5267685  86.5519240  60.2118331
 120.7170811  86.5015829  59.2777550 112.4455033  83.2354402  59.5210102
 113.2713053  82.9358174  59.1408746 112.0949085  82.4662024  59.9699891
 117.4136567  82.5880870  61.5907776 116.7916576  81.9251575  61.2910004
 118.0841434  82.6142002  60.9081424 110.6463638  81.1540728  60.4799036
 109.8095547  80.7262903  60.2983037 110.6187284  81.3473172  61.4169827
 117.4861094  71.0662658  71.1840282 117.5349250  71.9424781  70.8018052
 118.0283608  70.5240051  70.6111925 116.9750074  81.1384794  55.0666237
 117.1238194  81.8220258  54.4132909 117.7816517  81.1189884  55.5815692
 119.7160383  71.8194031  67.9386641 118.8463692  72.1127597  67.6669229
 119.9519863  72.4034476  68.6593904 114.7302706  77.1649971  56.0727306
 114.4848748  76.2612301  56.2707516 114.8998621  77.1667122  55.1306784
 113.9998354  72.8978329  53.5713467 113.3067599  72.9722684  52.9153503
 113.7550106  72.1338672  54.0934984 120.4745479  83.6332924  52.5377984
 119.9019446  84.2523111  52.0848456 121.0478273  84.1832286  53.0717906
 119.0435195  72.8943713  49.8148922 118.1366650  72.5976826  49.8911635
 119.3211176  72.5973531  48.9483208 109.9613135  74.2150077  60.2647968
 109.6415919  73.3615385  59.9722342 109.4146563  74.4298655  61.0205936
 113.7393043  76.9312518  63.9817475 113.9579052  77.8629625  64.0005509
 114.1518816  76.5720492  64.7672279 120.6597260  67.4380603  55.9693163
 119.8497989  67.0927688  56.3448409 121.3481677  67.1288147  56.5580775
 118.6120908  72.5045723  73.3720224 118.5117635  73.4540080  73.3032315
 118.3942450  72.1763962  72.4996294 117.8133979  69.7530648  49.9560901
 118.6753143  70.0785547  50.2156718 117.9984323  68.9662144  49.4433967
 109.8301395  77.8352988  62.2341090 109.1364867  77.4206941  61.7211044
 110.5774386  77.8773525  61.6374509 118.4752178  75.9342862  72.1885285
 117.9919260  76.7343222  72.3949174 118.5613117  75.9450807  71.2352729
 111.7438138  77.7671242  60.1107105 111.7208826  77.8658929  59.1588988
 112.0538774  78.6136393  60.4324271 114.4025515  79.8247397  64.2253719
 115.3568769  79.7931339  64.1583651 114.2038039  79.3638021  65.0403945
 114.9924898  78.3948513  66.7924517 115.8117787  78.8892592  66.8159354
 115.2661705  77.4780481  66.7642084 112.7575744  85.3667016  61.2423917
 112.6230212  84.6067417  60.6761915 112.3407807  86.0907916  60.7752706
 115.9144870  86.2636333  61.4542360 115.7977254  87.2081766  61.3521050
 115.0937316  85.9609895  61.8428159 110.2459812  72.7286647  67.4916714
 110.8918675  72.2185601  67.9803939 110.0376963  73.4655328  68.0660139
 118.7663422  66.9926691  53.2440610 118.7542092  67.9368531  53.4008881
 119.6586844  66.8096837  52.9500071 116.9399384  86.9164595  64.6698288
 117.8426631  86.9488205  64.9864783 116.7136754  85.9865046  64.6844624
 118.6952986  85.6695582  61.3308367 117.7448617  85.6697443  61.2172739
 118.9985472  84.9228316  60.8144401 114.5857303  69.8754264  71.5891728
 115.4488764  69.5191069  71.7995053 114.0122713  69.5368159  72.2767132
 118.6575780  92.0748403  60.1073319 119.3446820  91.7610134  59.5194334
 118.5023909  92.9789768  59.8340570 118.2343756  90.1548997  62.3790786
 118.2727856  89.6212588  63.1727904 117.7284049  89.6284202  61.7601763
 121.4857393  96.4832646  60.4799036 120.6489301  96.0554820  60.2983037
 121.4581038  96.6765089  61.4169827 120.8006890  89.5441994  60.2647968
 120.4809674  88.6907302  59.9722342 120.2540318  89.7590572  61.0205936
 120.6695150  93.1644906  62.2341090 119.9758621  92.7498858  61.7211044
 121.4168141  93.2065442  61.6374509  74.1864324   2.2063782  43.9247111
  74.1088354   3.1571607  44.0035592  73.5825967   1.8609654  44.5822038
  71.8251154   4.9549176  48.0695313  72.0647752   5.5867700  48.7474332
  70.9820350   4.6037216  48.3560673  72.2995986   0.9797178  45.3994092
  71.6306361   1.4643306  44.9158132  72.1608855   1.2266399  46.3137470
  76.4401254   3.0140922  51.9976750  76.9919562   3.1772543  52.7625835
  76.7807448   3.6045360  51.3256775  69.4000728   1.0561468  47.9669224
  69.2655195   0.2961869  47.4007222  68.9832790   1.7802368  47.4998012
  72.5569853   1.9530785  48.1787666  72.4402238   2.8976218  48.0766356
  71.7362300   1.6504347  48.5673465  73.5824368   2.6059047  51.3943595
  74.4851614   2.6382657  51.7110090  73.3561738   1.6759498  51.4089930
  87.8820369   7.1478000  49.0560960  87.5438881   7.0319065  48.1681495
  88.7510138   6.7469165  49.0361966  83.7407185   9.0013477  45.0457851
  83.1772050   8.9103414  44.2774139  83.6259580   8.1813381  45.5260344
  88.3640152   8.3012852  55.0147166  88.3528793   7.9065650  54.1427670
  88.5260792   7.5678924  55.6080937  81.2871617  10.4964668  47.8842072
  82.0792909  10.1555493  47.4688371  81.5268267  10.6059643  48.8044225
  89.3206744  12.6684444  40.3572316  88.6694724  13.2538525  39.9706330
  90.1151107  13.1990639  40.4167354  83.2462371   9.7573581  40.7559451
  84.0193247   9.2102568  40.6172326  83.5987770  10.6217831  40.9673912
  85.0847413  11.0849964  53.9626350  84.7937279  11.9895595  53.8473016
  85.7204398  11.1266491  54.6770419  86.0103620   8.4626812  50.5527710
  86.6067193   8.2382835  49.8384672  86.0678592   7.7211558  51.1553157
  90.7982009  10.3574876  40.8941301  90.1627842  10.4309503  41.6062205
  90.4679415  10.9468475  40.2160380  85.3024937   7.8194353  40.5902275
  85.1861196   7.1439257  41.2583360  85.4127197   7.3326727  39.7734428
  87.6456478   7.2804501  44.2948965  87.2814686   6.7535122  45.0061886
  88.5023594   6.8902970  44.1215450  90.0437299  10.7711379  50.9576144
  89.7438022  11.6736418  50.8491951  89.6988358  10.5043562  51.8097296
  83.4949780   7.2225176  46.9912848  82.5700277   7.0901390  47.1990540
  83.7434193   8.0019395  47.4882790  80.8558591   6.8658450  47.8256637
  80.9850972   7.1192929  48.7396049  80.1756042   7.4586158  47.5061292
  85.0258078  17.5355700  43.9247111  84.9482108  18.4863525  44.0035592
  84.4219722  17.1901572  44.5822038  85.7721680   7.5169018  56.1426445
  86.5136365   8.0554062  55.8661269  85.0658666   8.1435307  56.2997997
  91.2477020   9.6598159  54.7398607  91.6560376   9.2180569  53.9953239
  90.5254282   9.0850786  54.9932800  91.5705835  10.2199349  48.4950896
  90.9414697  10.3845064  47.7926963  91.1831497  10.6340959  49.2661860
  95.4495067  11.1553787  45.8495259  94.7646105  11.5352689  45.2992293
  95.5338916  11.7649114  46.5827207  92.7045998   8.8013746  52.4490603
  92.9162893   9.4445506  51.7724984  92.6575746   7.9676063  51.9812533
  87.1233797   9.9573758  45.7600981  87.5872142  10.2361460  44.9705603
  86.8590595   9.0557202  45.5774071  84.0157878   9.5045239  48.6980744
  84.5859235   9.9332507  48.0598228  84.6065990   9.2227824  49.3964930
  79.8028017   4.3380463  47.8707679  79.0127071   4.5937991  47.3947790
  80.2939264   5.1528800  47.9759720  93.8191826  11.6785702  50.6212960
  94.6409270  11.2765889  50.3395642  93.8154229  11.5753936  51.5729076
  81.7542762   4.7025042  44.8291156  80.9573925   4.8143736  45.3474652
  81.5268354   5.0411694  43.9632047  87.5848430  11.2269745  52.7773671
  87.6492862  11.6890152  53.6131842  86.8759354  10.5967110  52.9055980
  78.0865720   4.5910953  50.3022670  78.3373758   5.4757963  50.5680246
  78.6225268   4.4115555  49.5297762  87.2996447  12.8937852  42.6452651
  87.1642122  13.7389388  43.0737499  87.8406260  13.0957130  41.8818585
  80.7525845  10.4113291  43.2180576  81.2650365  11.2056541  43.3686141
  81.4048558   9.7139581  43.1514178  82.5620729  13.5279047  45.3003329
  82.7387358  14.4497012  45.1124313  83.3577563  13.2137466  45.7297709
  81.8473086   5.5743679  55.1765492  81.7326601   4.6728936  55.4772591
  80.9917604   5.8207375  54.8250309  88.9264924  13.5161419  56.7752993
  88.4828778  12.7297798  56.4573898  89.5882137  13.7040570  56.1096884
  83.6852045  15.0457221  51.3013672  84.2359470  14.9174284  50.5290666
  82.8463521  15.3452110  50.9508564  91.0246162  13.7964219  54.8034394
  91.0064637  14.6173100  54.3114663  91.9466082  13.6718294  55.0284535
  87.4819216  11.3108348  55.6457903  88.0147553  10.5496637  55.4157211
  86.9533297  11.0182000  56.3882057  78.7174761   8.7401945  43.9940147
  79.5549983   9.1498953  43.7773854  78.8953029   7.8001387  43.9640340
  88.8471929  10.4394341  43.1576715  88.3193290   9.7047100  42.8449952
  88.3459431  11.2169017  42.9116683  93.8264775   8.6343361  48.2743761
  93.1688449   9.3242623  48.3623890  94.6305174   9.0239793  48.6177747
  86.9924529   8.2574551  36.1611688  86.0851591   8.0263805  36.3602837
  87.4895561   7.4612170  36.3485669  89.8992608  16.9672058  39.0808374
  89.2254306  17.2703755  39.6893332  90.2858430  17.7701139  38.7313831
  88.1712762   8.3587146  40.6835678  87.2623981   8.0746179  40.7808148
  88.2007846   8.7786225  39.8238985  93.4032030  11.9693736  44.4526845
  92.9494357  11.1284645  44.5092036  92.7725996  12.6055134  44.7901626
  91.8464969  13.8070232  45.3876664  92.1387943  14.3675289  44.6689029
  92.3563589  14.0998793  46.1429823  78.7400933   6.0792660  44.6650880
  78.5425332   5.4862021  43.9401947  78.1847597   5.7744870  45.3826819
  87.8688850   9.8995890  38.0223756  87.4308280   9.1831749  37.5629394
  88.6099291  10.1272005  37.4608848  86.8098594  14.5850583  46.4770117
  86.7674773  14.8111430  45.5478649  87.7261293  14.3513958  46.6255918
  96.0131344  10.2429614  49.0911346  96.4467851  10.1504903  49.9394401
  96.7262925  10.2187114  48.4531362  84.9264395  11.4613612  46.2732079
  85.7204993  10.9663932  46.0714654  84.2156087  10.9331475  45.9099785
  89.7459239  13.8431708  50.6244447  89.7996262  14.4122644  51.3922163
  88.8774021  14.0133593  50.2598484  81.2347158   5.6056694  42.3491832
  80.3044746   5.5441150  42.5661794  81.3304630   5.0832647  41.5528473
  96.8746894  10.2853314  51.6244232  97.0682784  11.1899125  51.8703507
  96.7747512   9.8260733  52.4582817  91.9362003  10.4360057  57.1985112
  91.7847509  10.2070609  56.2815196  91.9266682  11.3930659  57.2116458
  88.7047339   8.0091970  52.1831379  89.6339399   8.1603130  52.0100346
  88.2838369   8.0975991  51.3280025  87.5035671  12.0342634  49.9529917
  87.3646757  11.6661419  50.8255855  86.7150267  12.5490274  49.7813874
  88.0983823  17.1351731  41.2955453  88.2735578  16.6639774  42.1101076
  87.4116611  17.7617497  41.5236714  89.0540886  11.4124237  47.3418754
  88.7190719  11.3725007  48.2376404  88.5544832  10.7468953  46.8689165
  83.0285130   6.8191867  52.8671336  82.8904928   6.0872106  53.4682875
  83.9390053   6.7300767  52.5855523  91.9900078   8.7580271  37.6155814
  91.3729248   8.0327100  37.5188867  91.5216566   9.5189632  37.2722888
  85.6567431   6.5311826  52.3555015  86.3667049   5.8905019  52.3141634
  85.6136739   6.7824721  53.2781196  93.6454209  13.4679180  55.2761594
  93.5866755  12.7838400  54.6092177  94.0473728  14.2098170  54.8242220
  82.6644908  20.2841094  48.0695313  82.9041506  20.9159618  48.7474332
  81.8214105  19.9329134  48.3560673  93.6471617  11.4318764  53.5075574
  92.7598395  11.0944685  53.6301973  94.2170168  10.7001795  53.7444339
  75.3000764   7.7642855  46.8318625  75.9871804   7.4504585  46.2439641
  75.1448892   8.6684220  46.5585877  87.1772770  16.0920216  50.4736817
  87.1042941  16.8975187  50.9856122  86.7350163  16.2912182  49.6484839
  86.9662550  15.3291986  43.9839639  86.1830071  15.8713666  44.0777863
  87.6655295  15.8465966  44.3833880  89.6371453  15.9907050  52.6294976
  90.3499426  16.6254515  52.5570877  89.1461482  16.0870916  51.8134978
  91.3588980   9.8958303  44.2012268  90.4245259  10.0159765  44.0316972
  91.5365649   8.9930769  43.9372277  84.6883367  13.7401493  53.4500547
  85.3892826  14.3737976  53.6029941  84.2178482  14.0816225  52.6896186
  92.8137763  12.0819443  41.7348454  93.0897607  11.9676038  42.6442328
  91.9442262  11.6836928  41.6960627  89.4491827  16.3305794  45.3781267
  89.6314221  15.5127450  45.8409020  90.2724813  16.5473486  44.9406157
  89.7833992  15.2573979  42.6396316  90.3121759  14.7466434  42.0266478
  90.0462212  14.9416509  43.5041849  88.5372226   7.0365912  57.7619134
  87.8612863   6.9360041  58.4321509  89.3599860   6.8805126  58.2255131
  80.2851085  13.2737849  50.3831649  80.8704522  12.5281536  50.5159554
  80.0875924  13.5841805  51.2668313  83.1389740  16.3089096  45.3994092
  82.4700116  16.7935224  44.9158132  83.0002610  16.5558316  46.3137470
  74.8768740   5.8443449  49.1036093  74.9152839   5.3107039  49.8973211
  74.3709033   5.3178654  48.4847070  87.2795009  18.3432839  51.9976750
  87.8313317  18.5064461  52.7625835  87.6201202  18.9337277  51.3256775
  92.1305883  13.1694097  57.8525405  92.6745787  13.7824055  57.3580359
  91.5492728  13.7273675  58.3692418  78.5077317   4.5707551  42.1790024
  78.8030758   3.6618229  42.1257078  77.6065353   4.5495290  41.8571026
  90.4163396  16.2914815  48.9840432  90.2914536  15.4904555  48.4751378
  91.0742487  16.7861008  48.4954402  92.4798305  14.0923835  50.6119982
  91.5328640  13.9729186  50.5398309  92.8281078  13.2046333  50.6946244
  89.4844738  13.8876551  46.8124335  89.3369700  12.9593259  46.9931905
  90.3098231  13.9096642  46.3281410  93.0878860  14.7105110  47.8989207
  94.0125407  14.5047971  47.7613659  92.9194163  14.4621511  48.8078549
  92.8774176  15.2290777  43.2551299  93.0511053  14.6637200  42.5025151
  93.3703067  16.0291672  43.0730789  78.6951136   7.2405447  51.3214858
  78.1504604   8.0165254  51.4535132  79.5730486   7.5876251  51.1633979
  93.8649348  14.5457542  40.3548197  94.5600253  15.1664235  40.5735512
  94.2072499  13.6952893  40.6300575  79.4817158   6.3675343  54.2145015
  78.7398894   6.5157978  54.8009645  79.1609902   6.6283608  53.3511764
  95.7640771  11.9957247  41.8835528  96.2892096  12.3344520  41.1584848
  95.6763124  11.0604263  41.6998663  87.4260820  15.9091321  54.0125405
  87.7347947  15.6640468  54.8848104  88.2236302  16.1137959  53.5244275
  87.4481432  18.0629231  46.2430781  87.0086423  17.5705609  46.9363638
  88.1989549  17.5202198  46.0022856  79.9273771  14.2540772  46.2455409
  80.7531791  13.9544543  45.8654053  79.5767823  13.4848394  46.6945198
  84.8955304  13.6067240  48.3153083  84.2735314  12.9437945  48.0155311
  85.5660171  13.6328372  47.6326731  78.1282376  12.1727098  47.2044343
  77.2914285  11.7449272  47.0228344  78.1006022  12.3659541  48.1415134
  95.4534678  12.6290151  57.1886726  94.6630221  12.6114290  56.6491225
  95.2168032  13.1678445  57.9435762  84.4568811  12.1571163  41.7911543
  84.6056932  12.8406627  41.1378216  85.2635255  12.1376253  42.3060999
  97.0750749  11.8979559  54.7461476  96.7835558  12.2609539  55.5824937
  96.4622881  11.1846567  54.5674808  82.2121444   8.1836341  42.7972612
  81.9667486   7.2798671  42.9952822  82.3817359   8.1853491  41.8552090
  87.9564217  14.6519294  39.2623291  87.3838184  15.2709481  38.8093763
  88.5297010  15.2018655  39.7963213  91.1761477  14.9356444  40.3931873
  92.1092150  14.8702005  40.5964748  91.0884689  15.7712711  39.9346406
  93.8049493  14.2522314  37.3535821  93.7263125  13.9182178  38.2471578
  94.6259160  14.7444082  37.3527293  88.2249708  10.0397852  58.0640000
  89.1452717  10.2176451  58.2580047  88.1899291   9.0953898  57.9119699
  77.4431873   5.2336446  46.9893275  77.1234657   4.3801754  46.6967649
  76.8965301   5.4485024  47.7451242  81.2211780   7.9498887  50.7062781
  81.4397790   8.8815995  50.7250815  81.6337554   7.5906861  51.4917585
  77.3120133   8.8539358  48.9586396  76.6183604   8.4393310  48.4456351
  78.0593124   8.8959894  48.3619815  85.9570916   6.9529232  58.9130592
  85.4737997   7.7529592  59.1194481  86.0431855   6.9637177  57.9598036
  79.2256875   8.7857611  46.8352411  79.2027563   8.8845299  45.8834294
  79.5357512   9.6322762  47.1569577  81.8844253  10.8433766  50.9499026
  82.8387507  10.8117709  50.8828957  81.6856777  10.3824390  51.7649252
  82.4743635   9.4134882  53.5169823  83.2936524   9.9078961  53.5404661
  82.7480443   8.4966851  53.4887391  80.2394482  16.3853386  47.9669224
  80.1048950  15.6253787  47.4007222  79.8226544  17.1094286  47.4998012
  91.3753445  11.5690309  36.9745799  92.0789295  11.7740312  37.5903454
  90.6516094  12.1367071  37.2394882  83.3963608  17.2822703  48.1787666
  83.2795992  18.2268135  48.0766356  82.5756054  16.9796264  48.5673465
  93.2840142  12.0072839  39.0244259  94.1185746  11.5754037  38.8421734
  93.1224485  11.8354852  39.9521153  92.9386035   8.5104952  40.3900598
  92.8834838   8.3449223  39.4489042  92.3132090   9.2180985  40.5462788
  77.7278550   3.7473016  54.2162020  78.3737413   3.2371970  54.7049246
  77.5195701   4.4841698  54.7905446  90.2531942  10.8153864  59.7154161
  91.1223101  10.9894516  59.3540796  89.7738693  11.6348281  59.5929890
  84.4218122  17.9350965  51.3943595  85.3245369  17.9674575  51.7110090
  84.1955492  17.0051416  51.4089930  86.1771724  16.6881951  48.0553673
  85.2267355  16.6883813  47.9418046  86.4804210  15.9414686  47.5389708
 101.9124418  22.5242490  49.1199436 102.5502828  22.4049237  48.4162776
 101.7945260  23.4723334  49.1787388  98.7214124  22.4769918  49.0560960
  98.3832635  22.3610983  48.1681495  99.5903892  22.0761083  49.0361966
  99.2033907  23.6304770  55.0147166  99.1922548  23.2357568  54.1427670
  99.3654546  22.8970842  55.6080937  96.4222403  21.2458165  38.3877900
  96.6747924  20.7239686  37.6261363  95.4846962  21.0824311  38.4904584
 101.4665686  20.2493944  46.1952644 102.2528775  19.8313367  45.8443061
 101.7304390  21.1540036  46.3634292 101.6375763  25.6866794  40.8941301
 101.0021596  25.7601420  41.6062205 101.3073170  26.2760393  40.2160380
 106.8674113  20.1869177  47.0985622 107.5999285  19.6168394  47.3323452
 106.1113469  19.7990777  47.5392128  96.1418692  23.1486271  40.5902275
  96.0254950  22.4731175  41.2583360  96.2520952  22.6618645  39.7734428
  98.4850233  22.6096418  44.2948965  98.1208440  22.0827039  45.0061886
  99.3417349  22.2194887  44.1215450 104.3899534  13.8990751  51.5580231
 104.0582858  14.7686162  51.3341446 103.7945147  13.5827035  52.2374261
  98.1255720  17.6386318  39.2910313  98.2930122  18.5066554  39.6580784
  97.9352889  17.8013600  38.3671602 100.8831053  26.1003297  50.9576144
 100.5831776  27.0028336  50.8491951 100.5382113  25.8335480  51.8097296
  94.3343535  22.5517094  46.9912848  93.4094031  22.4193308  47.1990540
  94.5827948  23.3311313  47.4882790 104.2828197  18.6185837  48.6373581
 103.3745074  18.5501245  48.3432342 104.2315793  19.0957782  49.4655406
  98.1044941  20.0943975  40.2756980  97.9844566  20.5401026  41.1142460
  97.4097529  20.4429293  39.7170518  91.6952346  22.1950367  47.8256637
  91.8244727  22.4484846  48.7396049  91.0149797  22.7878075  47.5061292
  98.3569063  20.0375483  56.5808478  97.5802397  20.5969403  56.5711343
  98.9959626  20.5232266  57.1023348 106.1489843  16.8202275  50.4151455
 105.5064223  17.1134809  49.7691249 105.6444772  16.7055196  51.2204651
 103.8030007  20.5665449  41.1037314 104.7147863  20.7992835  40.9285012
 103.2939654  21.1502493  40.5412393  96.6115435  22.8460936  56.1426445
  97.3530119  23.3845980  55.8661269  95.9052420  23.4727225  56.2997997
 102.0870775  24.9890076  54.7398607 102.4954131  24.5472487  53.9953239
 101.3648036  24.4142704  54.9932800  98.4401845  19.9262683  52.1132164
  99.2863040  20.3502097  52.2566813  98.3800482  19.2696308  52.8070727
 102.4099589  25.5491267  48.4950896 101.7808452  25.7136981  47.7926963
 102.0225251  25.9632877  49.2661860 106.2888821  26.4845705  45.8495259
 105.6039859  26.8644606  45.2992293 106.3732670  27.0941032  46.5827207
 101.5901290  17.5867052  53.7713337 101.3462222  18.3409112  53.2347613
 101.8661220  17.9652399  54.6060584 103.5439753  24.1305664  52.4490603
 103.7556648  24.7737424  51.7724984 103.4969501  23.2967981  51.9812533
 101.1465982  16.7423485  49.3527175 100.2850461  17.0404738  49.6443913
 101.1728416  16.9593884  48.4208208  96.8996437  21.4088828  42.5690546
  97.6020480  21.8609871  43.0364472  96.5677066  20.7672646  43.1970439
  95.3476799  20.0000584  56.9441755  94.7175459  20.6816865  57.1777152
  95.2412887  19.8883666  55.9994893  90.6421771  19.6672380  47.8707679
  89.8520825  19.9229909  47.3947790  91.1333018  20.4820718  47.9759720
 104.6585581  27.0077619  50.6212960 105.4803024  26.6057807  50.3395642
 104.6547984  26.9045854  51.5729076  92.5936516  20.0316959  44.8291156
  91.7967680  20.1435654  45.3474652  92.3662109  20.3703612  43.9632047
  98.4242184  26.5561663  52.7773671  98.4886617  27.0182070  53.6131842
  97.7153108  25.9259028  52.9055980  88.9259474  19.9202871  50.3022670
  89.1767513  20.8049881  50.5680246  89.4619022  19.7407472  49.5297762
 112.7491574  23.3516368  46.9697932 111.9955282  22.7823766  46.8141936
 112.8839115  23.3179032  47.9168566  94.6257541  14.3021350  59.3067006
  94.2324487  13.7487549  59.9814650  95.4423682  14.6131928  59.6973524
  97.5425502  15.7179229  56.8987263  98.2835216  16.3186382  56.8191725
  97.7743425  14.9756867  56.3405305  92.6866840  20.9035596  55.1765492
  92.5720356  20.0020854  55.4772591  91.8311358  21.1499293  54.8250309
  99.7658678  28.8453337  56.7752993  99.3222532  28.0589715  56.4573898
 100.4275892  29.0332487  56.1096884 101.8639916  29.1256137  54.8034394
 101.8458392  29.9465018  54.3114663 102.7859836  29.0010212  55.0284535
  98.3212970  26.6400266  55.6457903  98.8541307  25.8788554  55.4157211
  97.7927051  26.3473918  56.3882057 101.4882665  11.7460332  51.1751544
 101.1446935  12.6361974  51.0990655 101.8561628  11.5561990  50.3121129
 101.4532948  21.7368943  39.6823980 100.9379571  22.5073548  39.9212367
 101.1810257  21.0634079  40.3057041  99.0380059  16.5818644  44.7409218
  98.1821655  16.1925494  44.5614857  99.4507011  16.6610605  43.8809003
 100.5679206  14.1164987  49.1400778 100.0644001  14.0795122  48.3268583
 100.8609813  15.0257730  49.1997434  96.8122092  14.2003717  48.1466959
  97.6775088  14.0046526  47.7872849  96.8799601  13.9714069  49.0736316
 106.4267222  24.4901298  41.6177153 105.6496665  24.1512457  41.1732315
 107.1058703  24.4953921  40.9432118 101.2419251  19.6096035  41.5083761
 100.9369387  19.9242184  42.3593904 102.1949693  19.6877455  41.5511094
 104.6658529  23.9635279  48.2743761 104.0082204  24.6534540  48.3623890
 105.4698928  24.3531711  48.6177747  94.4184411  16.4305925  45.5183326
  94.9928163  16.2081106  44.7856519  95.0055393  16.4994619  46.2711928
 103.4763988  22.3179652  46.3247703 103.9895870  22.9509644  46.8269412
 104.1265212  21.7180847  45.9591063  94.7453998  18.4610386  39.5379211
  93.9091310  18.7985072  39.8588486  94.6058767  18.3259366  38.6006348
  96.7207078  13.3047174  44.2458396  96.0671491  12.9896191  43.6215010
  96.6787553  12.6822914  44.9718219  97.8318283  23.5866469  36.1611688
  96.9245345  23.3555722  36.3602837  98.3289315  22.7904088  36.3485669
  99.9544819  19.7929107  48.5706043  99.0367380  20.0144054  48.4127731
 100.3704962  19.8675418  47.7117751 100.7379867  21.1920523  43.7008724
 101.4851685  21.7041920  43.3915846 101.0071456  20.8704576  44.5613117
  99.0106517  23.6879064  40.6835678  98.1017736  23.4038097  40.7808148
  99.0401601  24.1078142  39.8238985 104.2425784  27.2985653  44.4526845
 103.7888111  26.4576563  44.5092036 103.6119751  27.9347052  44.7901626
 103.1858704  18.2277639  45.6827513 102.4481460  17.7155025  46.0137755
 103.4385477  17.7878021  44.8710790  97.5591411  21.3007684  46.7845473
  97.6140021  20.3481521  46.7087950  96.7482613  21.4567123  47.2686772
  98.7082605  25.2287807  38.0223756  98.2702034  24.5123666  37.5629394
  99.4493045  25.4563922  37.4608848  95.4983771  19.9184744  44.5435852
  94.6851636  20.2178915  44.9501044  95.9942765  19.5240433  45.2610334
 101.0957982  20.3826569  53.3750746 101.4507370  20.6098042  54.2345212
 101.7430114  20.7144945  52.7528001 106.8255719  23.5045004  44.0800075
 106.6873618  23.6946600  43.1521264 106.4691938  24.2664387  44.5368126
  94.9897845  17.4903100  50.1597087  95.6297225  17.3491859  49.4620050
  94.1575376  17.2037613  49.7835689 106.8525099  25.5721531  49.0911346
 107.2861606  25.4796821  49.9394401 107.5656680  25.5479032  48.4531362
 100.5852994  29.1723626  50.6244447 100.6390016  29.7414562  51.3922163
  99.7167775  29.3425511  50.2598484  91.9926462  17.4603425  44.9370074
  92.2533279  18.3748758  44.8279234  92.8143634  16.9927867  45.0866687
  93.4651387  18.8741182  52.1068898  94.1374441  18.6658544  51.4581547
  92.6381174  18.6763268  51.6674131 107.7140648  25.6145232  51.6244232
 107.9076539  26.5191043  51.8703507 107.6141267  25.1552651  52.4582817
  99.3676959  15.5003123  54.1234559  98.7204874  16.1993072  54.0299036
 100.1377975  15.9339267  54.4910807 102.7755757  25.7651975  57.1985112
 102.6241264  25.5362527  56.2815196 102.7660437  26.7222576  57.2116458
  99.5441094  23.3383888  52.1831379 100.4733154  23.4895047  52.0100346
  99.1232124  23.4267908  51.3280025  98.3429425  27.3634552  49.9529917
  98.2040511  26.9953336  50.8255855  97.5544022  27.8782191  49.7813874
 102.8293832  24.0872189  37.6155814 102.2123003  23.3619017  37.5188867
 102.3610321  24.8481549  37.2722888  96.4961185  21.8603744  52.3555015
  97.2060804  21.2196936  52.3141634  96.4530493  22.1116639  53.2781196
 104.4847964  28.7971097  55.2761594 104.4260510  28.1130318  54.6092177
 104.8867482  29.5390087  54.8242220  95.2090119  18.8468962  54.1750655
  94.6727476  18.3959700  54.8272251  94.6206828  18.9814871  53.4321119
  94.6192378  18.3057613  36.7377118  93.7421844  18.1846414  36.3739365
  95.0950131  17.5143692  36.4856007 104.4865371  26.7610681  53.5075574
 103.5992150  26.4236603  53.6301973 105.0563922  26.0293713  53.7444339
  90.9429240  17.9824970  51.2603649  90.8587429  17.3750639  50.5254059
  90.1211947  18.4733988  51.2613145 101.1152954  16.4678533  46.6273844
 101.6121654  15.7148495  46.3074914 100.3439936  16.5042850  46.0617053
 108.9682712  22.1718899  48.2692136 108.9572588  23.0543614  47.8986069
 108.1000091  21.8190450  48.0746673 100.4765208  31.3198968  52.6294976
 101.1893180  31.9546433  52.5570877  99.9855237  31.4162834  51.8134978
 102.1982735  25.2250220  44.2012268 101.2639014  25.3451683  44.0316972
 102.3759403  24.3222687  43.9372277  97.6987923  18.6095916  46.3545529
  97.3285710  18.0566957  47.0426434  98.1947015  18.0054050  45.8020529
 105.5855286  21.0667540  44.7362302 106.0515738  21.8995531  44.6622604
 106.0362787  20.6012521  45.4407560 103.6531517  27.4111361  41.7348454
 103.9291361  27.2967956  42.6442328 102.7836016  27.0128846  41.6960627
 103.5571949  13.4348127  48.7753203 102.6435029  13.6652353  48.9435410
 103.9865050  13.5186571  49.6267235 103.3278407  21.6238019  51.2753097
 102.6749858  21.8713926  50.6205550 103.7058787  20.8102157  50.9415574
  99.3765980  22.3657830  57.7619134  98.7006617  22.2651959  58.4321509
 100.1993614  22.2097043  58.2255131  85.7162494  21.1735366  49.1036093
  85.7546594  20.6398957  49.8973211  85.2102787  20.6470572  48.4847070
  93.0953257  16.0199907  52.5998635  93.1594583  16.8814738  52.1876033
  93.0320377  15.4073909  51.8670993  92.5705529  18.0923039  56.2471669
  93.1977568  17.7100117  56.8609193  91.7133448  17.8737241  56.6127362
 102.9699638  28.4986015  57.8525405 103.5139542  29.1115973  57.3580359
 102.3886483  29.0565593  58.3692418  89.3471072  19.8999469  42.1790024
  89.6424513  18.9910147  42.1257078  88.4459108  19.8787208  41.8571026
 101.2557151  31.6206733  48.9840432 101.1308290  30.8196472  48.4751378
 101.9136242  32.1152926  48.4954402  92.8765319  17.9755465  48.1617573
  92.1551905  18.5891433  48.0225046  93.6658575  18.5113230  48.0834218
 103.3192059  29.4215753  50.6119982 102.3722395  29.3021104  50.5398309
 103.6674832  28.5338251  50.6946244  95.6791632  15.3109892  54.4358224
  96.2026034  15.5572188  55.1984534  95.4603966  16.1429926  54.0161362
  91.0758913  17.5813566  42.3029349  90.7471620  16.7010945  42.1204455
  91.4298284  17.5261235  43.1905738  94.1900737  17.8686536  42.6704827
  94.5296809  18.3972457  41.9483435  94.6372857  18.2066942  43.4463393
 103.9272614  30.0397028  47.8989207 104.8519162  29.8339889  47.7613659
 103.7587918  29.7913429  48.8078549  96.8844177  16.2523587  52.1207895
  96.5440998  15.4531400  52.5228575  96.1783184  16.5525298  51.5484728
  97.5360649  13.3372899  50.5735218  98.3586719  12.8633377  50.4514108
  97.7798713  14.1163383  51.0733904  96.1768884  16.3661158  40.8698120
  96.8977246  16.7442410  40.3661836  95.5534188  17.0850034  40.9733097
 100.3200007  17.0706307  41.8056452 100.5363621  17.9530944  41.5045280
  99.8394074  16.6792520  41.0762094  95.0599228  20.0292020  48.3827196
  94.9143809  20.3432323  49.2751478  94.5824432  20.6476920  47.8298095
  96.9195611  17.0194568  48.4308086  96.9057180  16.1235661  48.0940384
  97.6368039  17.0265232  49.0646372  98.7721742  17.4531908  50.4761213
  98.5139519  18.3748979  50.4745544  98.2406782  17.0562343  51.1661678
  96.3232507  15.9008948  43.6995656  96.4448418  14.9725594  43.8986544
  96.0334549  15.9147634  42.7873972  99.1923697  13.5863859  46.8362376
  99.2145394  13.6503192  45.8814356  99.6091756  12.7468367  47.0302882
 109.5707322  23.3219118  44.8741599 110.0138468  22.5726443  44.4760722
 108.6933832  23.3129254  44.4915331 104.7043103  29.8749460  40.3548197
 105.3994007  30.4956152  40.5735512 105.0466253  29.0244811  40.6300575
  90.3210912  21.6967260  54.2145015  89.5792648  21.8449896  54.8009645
  90.0003656  21.9575526  53.3511764 106.6034526  27.3249165  41.8835528
 107.1285850  27.6636438  41.1584848 106.5156879  26.3896180  41.6998663
  95.8073586  17.4140945  57.9085589  95.8561742  18.2903068  57.5263358
  96.3496101  16.8718338  57.3357232 106.2928432  27.9582069  57.1886726
 105.5023976  27.9406208  56.6491225 106.0561787  28.4970362  57.9435762
 106.4126307  24.8074535  54.5019454 106.4624312  24.6424543  55.4434977
 106.3040230  23.9401794  54.1117335 103.7030069  20.7905463  55.8178761
 104.6039932  20.6511928  55.5262759 103.7778044  20.9559918  56.7576939
  98.0372875  18.1672318  54.6631947  97.1676184  18.4605884  54.3914536
  98.2732355  18.7512763  55.3839211 107.9144504  27.2271477  54.7461476
 107.6229312  27.5901457  55.5824937 107.3016635  26.5138485  54.5674808
 109.1140186  24.7924356  47.2664046 109.9487078  25.2314160  47.4301607
 109.2499315  24.3163010  46.4472292 106.1631692  22.3504091  53.2141534
 106.6385814  22.5431738  52.4060385 105.2397258  22.4063277  52.9684918
 100.7411909  14.3851935  52.1797368 101.2593853  15.1212962  51.8543856
 100.3867041  14.6915928  53.0144127 104.8633361  19.2269851  51.4469840
 105.8150784  19.3267949  51.4682064 104.6936812  18.4348120  51.9567924
 102.8847741  16.3125435  51.6329240 102.2897673  16.5930447  50.9375729
 102.5997437  16.8019335  52.4045982 104.6443248  29.5814232  37.3535821
 104.5656879  29.2474095  38.2471578 105.4652915  30.0736000  37.3527293
 107.3421439  22.4475971  50.5612139 107.3097759  21.5091972  50.7471823
 107.9522063  22.5260008  49.8277964  99.1804770  21.3172024  36.6039343
 100.1263875  21.1878232  36.6727761  98.8019015  20.5786686  37.0808771
 107.4915927  19.2387014  50.6070422 106.9754976  18.4545471  50.4200351
 108.3755876  18.9105731  50.7716942 105.1526654  12.9828030  46.5666235
 104.9551475  12.6743118  47.4509567 105.7626360  13.7089669  46.6964165
 113.1597989  23.5091978  49.7018176 113.8901377  23.2477266  50.2625879
 112.5504934  22.7720700  49.7420244 111.2413286  21.6499840  50.2992627
 110.5146450  21.5155805  49.6909119 110.8260573  21.9576669  51.1049345
  99.0643462  25.3689770  58.0640000  99.9846472  25.5468369  58.2580047
  99.0293045  24.4245815  57.9119699  97.3647687  19.2422000  36.5394228
  96.4579142  18.9455113  36.6156942  97.6423668  18.9451818  35.6728515
  98.9809753  13.7858890  42.6938470  98.1710481  13.4405975  43.0693716
  99.6694170  13.4766434  43.2826081 100.9100301  12.8636937  44.3162766
 101.4631340  13.2832390  44.9752789 101.1470387  11.9372685  44.3585722
  96.9333400  18.8524011  60.0965530  96.8330127  19.8018367  60.0277621
  96.7154942  18.5242249  59.2241600  96.1346472  16.1008936  36.6806208
  96.9965636  16.4263834  36.9402025  96.3196816  15.3140431  36.1679273
 104.2879108  14.9737462  43.8241431 103.7077777  15.6322266  43.4419483
 104.0215041  14.1514807  43.4128848 102.7382674  14.3742520  46.0262751
 103.2382453  14.4859054  45.2177070 103.3818282  14.0703573  46.6663559
  96.7964670  22.2821149  58.9130592  96.3131752  23.0821509  59.1194481
  96.8825609  22.2929094  57.9598036 103.0703986  17.1337552  42.8797779
 102.1829841  17.4187203  42.6617974 103.4857975  16.9731316  42.0325056
 106.4218522  17.1584073  46.5952118 107.1978912  17.6480526  46.8676735
 105.6966656  17.5842128  47.0523988 108.8591081  17.8711693  47.6526059
 109.4535572  17.6307429  46.9419367 108.9317665  17.1518823  48.2799595
 102.2147200  26.8982227  36.9745799 102.9183050  27.1032230  37.5903454
 101.4909848  27.4658989  37.2394882 103.0445010  22.6492088  43.0948069
 102.9880211  23.1060640  42.2555701 103.5973352  21.8882773  42.9170912
 106.8549816  18.4381820  43.9198189 106.5986750  18.0378456  44.7506396
 106.2302684  19.1525614  43.7948328 111.1662154  21.1777893  46.4269480
 110.6061712  21.2471083  47.2001042 110.5605657  21.0018878  45.7068976
 104.1233897  27.3364756  39.0244259 104.9579501  26.9045955  38.8421734
 103.9618240  27.1646770  39.9521153 103.7779789  23.8396870  40.3900598
 103.7228593  23.6741141  39.4489042 103.1525844  24.5472903  40.5462788
  88.5672304  19.0764934  54.2162020  89.2131168  18.5663888  54.7049246
  88.3589455  19.8133616  54.7905446 101.0925696  26.1445781  59.7154161
 101.9616856  26.3186434  59.3540796 100.6132448  26.9640198  59.5929890
  97.0875915  13.3404979  39.9685917  97.0754584  14.2846819  40.1254187
  97.9799336  13.1575124  39.6745378  92.9069795  16.2232551  58.3137035
  93.7701257  15.8669356  58.5240359  92.3335206  15.8846446  59.0012439
 112.7518172  37.8534407  49.1199436 113.3896582  37.7341155  48.4162776
 112.6339015  38.8015251  49.1787388 109.5607878  37.8061836  49.0560960
 109.2226390  37.6902900  48.1681495 110.4297647  37.4053001  49.0361966
 105.4194694  39.6597312  45.0457851 104.8559559  39.5687249  44.2774139
 105.3047089  38.8397216  45.5260344 110.0427661  38.9596687  55.0147166
 110.0316302  38.5649485  54.1427670 110.2048301  38.2262760  55.6080937
 102.9659126  41.1548504  47.8842072 103.7580418  40.8139328  47.4688371
 103.2055776  41.2643479  48.8044225 110.9994253  43.3268280  40.3572316
 110.3482233  43.9122360  39.9706330 111.7938616  43.8574475  40.4167354
 104.9249880  40.4157417  40.7559451 105.6980756  39.8686404  40.6172326
 105.2775279  41.2801666  40.9673912 106.7634922  41.7433799  53.9626350
 106.4724788  42.6479430  53.8473016 107.3991907  41.7850327  54.6770419
 107.6891129  39.1210648  50.5527710 108.2854702  38.8966670  49.8384672
 107.7466101  38.3795393  51.1553157 107.2616158  36.5750083  38.3877900
 107.5141678  36.0531604  37.6261363 106.3240717  36.4116228  38.4904584
 112.3059441  35.5785861  46.1952644 113.0922530  35.1605284  45.8443061
 112.5698145  36.4831953  46.3634292 112.4769518  41.0158712  40.8941301
 111.8415351  41.0893338  41.6062205 112.1466924  41.6052310  40.2160380
 117.7067868  35.5161094  47.0985622 118.4393040  34.9460311  47.3323452
 116.9507223  35.1282695  47.5392128 106.9812446  38.4778189  40.5902275
 106.8648705  37.8023092  41.2583360 107.0914706  37.9910563  39.7734428
 109.3243987  37.9388336  44.2948965 108.9602195  37.4118957  45.0061886
 110.1811103  37.5486805  44.1215450 115.2293288  29.2282669  51.5580231
 114.8976613  30.0978080  51.3341446 114.6338901  28.9118953  52.2374261
 108.9649474  32.9678236  39.2910313 109.1323877  33.8358472  39.6580784
 108.7746643  33.1305517  38.3671602 111.7224808  41.4295215  50.9576144
 111.4225531  42.3320253  50.8491951 111.3775867  41.1627398  51.8097296
 105.1737289  37.8809011  46.9912848 104.2487786  37.7485225  47.1990540
 105.4221702  38.6603231  47.4882790 115.1221951  33.9477755  48.6373581
 114.2138829  33.8793163  48.3432342 115.0709547  34.4249700  49.4655406
 108.9438695  35.4235893  40.2756980 108.8238320  35.8692944  41.1142460
 108.2491284  35.7721211  39.7170518 102.5346100  37.5242285  47.8256637
 102.6638481  37.7776764  48.7396049 101.8543551  38.1169993  47.5061292
 106.7045587  48.1939535  43.9247111 106.6269617  49.1447360  44.0035592
 106.1007231  47.8485407  44.5822038 109.1962817  35.3667400  56.5808478
 108.4196151  35.9261320  56.5711343 109.8353380  35.8524183  57.1023348
 116.9883598  32.1494193  50.4151455 116.3457978  32.4426726  49.7691249
 116.4838526  32.0347113  51.2204651 114.6423761  35.8957366  41.1037314
 115.5541618  36.1284753  40.9285012 114.1333408  36.4794411  40.5412393
 107.4509189  38.1752854  56.1426445 108.1923874  38.7137898  55.8661269
 106.7446175  38.8019142  56.2997997 112.9264529  40.3181994  54.7398607
 113.3347885  39.8764405  53.9953239 112.2041791  39.7434622  54.9932800
 109.2795599  35.2554601  52.1132164 110.1256794  35.6794014  52.2566813
 109.2194237  34.5988225  52.8070727 113.2493344  40.8783185  48.4950896
 112.6202206  41.0428899  47.7926963 112.8619006  41.2924794  49.2661860
 117.1282576  41.8137623  45.8495259 116.4433614  42.1936524  45.2992293
 117.2126425  42.4232949  46.5827207 112.4295044  32.9158969  53.7713337
 112.1855976  33.6701030  53.2347613 112.7054975  33.2944317  54.6060584
 114.3833507  39.4597582  52.4490603 114.5950402  40.1029342  51.7724984
 114.3363255  38.6259898  51.9812533 111.9859736  32.0715402  49.3527175
 111.1244215  32.3696656  49.6443913 112.0122171  32.2885801  48.4208208
 108.8021306  40.6157593  45.7600981 109.2659651  40.8945296  44.9705603
 108.5378104  39.7141037  45.5774071 105.6945387  40.1629074  48.6980744
 106.2646744  40.5916343  48.0598228 106.2853498  39.8811659  49.3964930
 107.7390192  36.7380745  42.5690546 108.4414235  37.1901789  43.0364472
 107.4070820  36.0964564  43.1970439 106.1870553  35.3292502  56.9441755
 105.5569214  36.0108783  57.1777152 106.0806641  35.2175583  55.9994893
 115.4979335  42.3369537  50.6212960 116.3196779  41.9349724  50.3395642
 115.4941738  42.2337771  51.5729076 109.2635939  41.8853580  52.7773671
 109.3280371  42.3473988  53.6131842 108.5546862  41.2550945  52.9055980
 108.9783956  43.5521688  42.6452651 108.8429631  44.3973224  43.0737499
 109.5193769  43.7540965  41.8818585 105.4651296  29.6313268  59.3067006
 105.0718241  29.0779466  59.9814650 106.2817436  29.9423846  59.6973524
 104.2408238  44.1862882  45.3003329 104.4174867  45.1080847  45.1124313
 105.0365072  43.8721301  45.7297709 108.3819257  31.0471147  56.8987263
 109.1228970  31.6478300  56.8191725 108.6137180  30.3048785  56.3405305
 103.5260595  36.2327514  55.1765492 103.4114110  35.3312771  55.4772591
 102.6705113  36.4791211  54.8250309 110.6052433  44.1745254  56.7752993
 110.1616287  43.3881633  56.4573898 111.2669646  44.3624405  56.1096884
 105.3639554  45.7041056  51.3013672 105.9146979  45.5758119  50.5290666
 104.5251030  46.0035945  50.9508564 112.7033671  44.4548054  54.8034394
 112.6852146  45.2756935  54.3114663 113.6253591  44.3302130  55.0284535
 109.1606725  41.9692184  55.6457903 109.6935062  41.2080472  55.4157211
 108.6320806  41.6765836  56.3882057 112.3276420  27.0752250  51.1751544
 111.9840689  27.9653891  51.0990655 112.6955382  26.8853907  50.3121129
 112.2926703  37.0660861  39.6823980 111.7773326  37.8365465  39.9212367
 112.0204011  36.3925997  40.3057041 109.8773814  31.9110562  44.7409218
 109.0215410  31.5217412  44.5614857 110.2900765  31.9902522  43.8809003
 111.4072960  29.4456905  49.1400778 110.9037756  29.4087040  48.3268583
 111.7003567  30.3549648  49.1997434 107.6515846  29.5295635  48.1466959
 108.5168843  29.3338443  47.7872849 107.7193355  29.3005986  49.0736316
 117.2660977  39.8193215  41.6177153 116.4890419  39.4804375  41.1732315
 117.9452458  39.8245839  40.9432118 112.0813006  34.9387953  41.5083761
 111.7763141  35.2534102  42.3593904 113.0343448  35.0169373  41.5511094
 110.5259438  41.0978176  43.1576715 109.9980799  40.3630936  42.8449952
 110.0246940  41.8752853  42.9116683 115.5052284  39.2927197  48.2743761
 114.8475958  39.9826458  48.3623890 116.3092683  39.6823629  48.6177747
 105.2578165  31.7597843  45.5183326 105.8321917  31.5373024  44.7856519
 105.8449148  31.8286537  46.2711928 114.3157742  37.6471569  46.3247703
 114.8289624  38.2801561  46.8269412 114.9658966  37.0472765  45.9591063
 105.5847752  33.7902304  39.5379211 104.7485065  34.1276990  39.8588486
 105.4452522  33.6551283  38.6006348 107.5600833  28.6339091  44.2458396
 106.9065245  28.3188109  43.6215010 107.5181307  28.0114832  44.9718219
 108.6712038  38.9158387  36.1611688 107.7639099  38.6847640  36.3602837
 109.1683070  38.1196006  36.3485669 111.5780117  47.6255894  39.0808374
 110.9041815  47.9287590  39.6893332 111.9645939  48.4284974  38.7313831
 110.7938573  35.1221025  48.5706043 109.8761135  35.3435972  48.4127731
 111.2098717  35.1967335  47.7117751 111.5773621  36.5212441  43.7008724
 112.3245440  37.0333838  43.3915846 111.8465211  36.1996493  44.5613117
 109.8500271  39.0170981  40.6835678 108.9411490  38.7330014  40.7808148
 109.8795355  39.4370060  39.8238985 115.0819539  42.6277571  44.4526845
 114.6281866  41.7868481  44.5092036 114.4513505  43.2638969  44.7901626
 114.0252458  33.5569557  45.6827513 113.2875215  33.0446943  46.0137755
 114.2779232  33.1169939  44.8710790 113.5252478  44.4654068  45.3876664
 113.8175452  45.0259125  44.6689029 114.0351098  44.7582629  46.1429823
 114.1264085  26.3345809  46.2769282 114.4322962  25.4743172  45.9895197
 114.8516690  26.9263429  46.0768276 108.3985165  36.6299602  46.7845473
 108.4533775  35.6773438  46.7087950 107.5876367  36.7859041  47.2686772
 109.5476359  40.5579725  38.0223756 109.1095789  39.8415584  37.5629394
 110.2886800  40.7855840  37.4608848 106.3377525  35.2476662  44.5435852
 105.5245391  35.5470832  44.9501044 106.8336519  34.8532351  45.2610334
 108.4886103  45.2434419  46.4770117 108.4462282  45.4695265  45.5478649
 109.4048802  45.0097793  46.6255918 111.9351737  35.7118486  53.3750746
 112.2901125  35.9389959  54.2345212 112.5823868  36.0436863  52.7528001
 117.6649474  38.8336922  44.0800075 117.5267372  39.0238518  43.1521264
 117.3085693  39.5956305  44.5368126 105.8291600  32.8195017  50.1597087
 106.4690979  32.6783776  49.4620050 104.9969130  32.5329531  49.7835689
 117.6918853  40.9013449  49.0911346 118.1255360  40.8088738  49.9394401
 118.4050434  40.8770950  48.4531362 106.6051904  42.1197448  46.2732079
 107.3992502  41.6247768  46.0714654 105.8943596  41.5915311  45.9099785
 111.4246748  44.5015543  50.6244447 111.4783771  45.0706480  51.3922163
 110.5561530  44.6717428  50.2598484 104.3045142  34.2033099  52.1068898
 104.9768195  33.9950462  51.4581547 103.4774928  34.0055185  51.6674131
 118.5534403  40.9437150  51.6244232 118.7470293  41.8482960  51.8703507
 118.4535021  40.4844569  52.4582817 110.2070714  30.8295040  54.1234559
 109.5598629  31.5284990  54.0299036 110.9771729  31.2631184  54.4910807
 113.6149512  41.0943893  57.1985112 113.4635018  40.8654444  56.2815196
 113.6054191  42.0514494  57.2116458 110.3834848  38.6675805  52.1831379
 111.3126908  38.8186965  52.0100346 109.9625878  38.7559826  51.3280025
 109.1823180  42.6926470  49.9529917 109.0434266  42.3245254  50.8255855
 108.3937776  43.2074109  49.7813874 109.7771332  47.7935566  41.2955453
 109.9523087  47.3223609  42.1101076 109.0904120  48.4201332  41.5236714
 110.7328395  42.0708072  47.3418754 110.3978228  42.0308842  48.2376404
 110.2332341  41.4052788  46.8689165 104.7072639  37.4775702  52.8671336
 104.5692437  36.7455941  53.4682875 105.6177562  37.3884602  52.5855523
 113.6687587  39.4164107  37.6155814 113.0516757  38.6910935  37.5188867
 113.2004075  40.1773467  37.2722888 107.3354940  37.1895662  52.3555015
 108.0454558  36.5488854  52.3141634 107.2924248  37.4408557  53.2781196
 115.3241718  44.1263015  55.2761594 115.2654264  43.4422235  54.6092177
 115.7261237  44.8682005  54.8242220 106.0483874  34.1760880  54.1750655
 105.5121231  33.7251618  54.8272251 105.4600582  34.3106788  53.4321119
 104.3432417  50.9424929  48.0695313 104.5829015  51.5743453  48.7474332
 103.5001614  50.5912969  48.3560673 105.4586133  33.6349531  36.7377118
 104.5815599  33.5138332  36.3739365 105.9343886  32.8435609  36.4856007
 115.3259126  42.0902599  53.5075574 114.4385904  41.7528521  53.6301973
 115.8957677  41.3585630  53.7444339 101.7822995  33.3116887  51.2603649
 101.6981184  32.7042557  50.5254059 100.9605701  33.8025906  51.2613145
 108.8560279  46.7504051  50.4736817 108.7830450  47.5559023  50.9856122
 108.4137672  46.9496017  49.6484839 108.6450059  45.9875821  43.9839639
 107.8617580  46.5297502  44.0777863 109.3442804  46.5049801  44.3833880
 111.9546709  31.7970451  46.6273844 112.4515408  31.0440413  46.3074914
 111.1833690  31.8334767  46.0617053 119.8076466  37.5010816  48.2692136
 119.7966342  38.3835532  47.8986069 118.9393845  37.1482367  48.0746673
 111.3158962  46.6490885  52.6294976 112.0286935  47.2838350  52.5570877
 110.8248991  46.7454751  51.8134978 113.0376489  40.5542138  44.2012268
 112.1032768  40.6743601  44.0316972 113.2153158  39.6514605  43.9372277
 108.5381677  33.9387834  46.3545529 108.1679465  33.3858874  47.0426434
 109.0340770  33.3345967  45.8020529 116.4249041  36.3959457  44.7362302
 116.8909493  37.2287449  44.6622604 116.8756541  35.9304439  45.4407560
 106.3670876  44.3985329  53.4500547 107.0680335  45.0321812  53.6029941
 105.8965991  44.7400060  52.6896186 114.4925272  42.7403279  41.7348454
 114.7685116  42.6259873  42.6442328 113.6229771  42.3420763  41.6960627
 114.3965703  28.7640044  48.7753203 113.4828783  28.9944271  48.9435410
 114.8258805  28.8478488  49.6267235 114.1672162  36.9529936  51.2753097
 113.5143612  37.2005844  50.6205550 114.5452542  36.1394074  50.9415574
 111.1279336  46.9889629  45.3781267 111.3101730  46.1711285  45.8409020
 111.9512322  47.2057322  44.9406157 111.4621501  45.9157815  42.6396316
 111.9909268  45.4050269  42.0266478 111.7249721  45.6000345  43.5041849
 110.2159735  37.6949747  57.7619134 109.5400372  37.5943877  58.4321509
 111.0387369  37.5388961  58.2255131 101.9638594  43.9321684  50.3831649
 102.5492031  43.1865372  50.5159554 101.7663432  44.2425641  51.2668313
 104.8177249  46.9672931  45.3994092 104.1487625  47.4519059  44.9158132
 104.6790119  47.2142152  46.3137470 108.9582518  49.0016675  51.9976750
 109.5100826  49.1648296  52.7625835 109.2988711  49.5921113  51.3256775
 103.9347011  31.3491825  52.5998635 103.9988338  32.2106655  52.1876033
 103.8714131  30.7365826  51.8670993 103.4099284  33.4214957  56.2471669
 104.0371322  33.0392034  56.8609193 102.5527202  33.2029159  56.6127362
 113.8093392  43.8277932  57.8525405 114.3533296  44.4407891  57.3580359
 113.2280237  44.3857511  58.3692418 112.0950905  46.9498650  48.9840432
 111.9702045  46.1488390  48.4751378 112.7529996  47.4444844  48.4954402
 103.7159073  33.3047383  48.1617573 102.9945659  33.9183351  48.0225046
 104.5052329  33.8405148  48.0834218 114.1585814  44.7507670  50.6119982
 113.2116149  44.6313022  50.5398309 114.5068587  43.8630168  50.6946244
 106.5185387  30.6401809  54.4358224 107.0419789  30.8864106  55.1984534
 106.2997720  31.4721844  54.0161362 111.1632247  44.5460387  46.8124335
 111.0157209  43.6177094  46.9931905 111.9885740  44.5680477  46.3281410
 105.0294491  33.1978454  42.6704827 105.3690564  33.7264375  41.9483435
 105.4766612  33.5358860  43.4463393 114.7666369  45.3688945  47.8989207
 115.6912916  45.1631807  47.7613659 114.5981672  45.1205347  48.8078549
 107.7237932  31.5815504  52.1207895 107.3834752  30.7823317  52.5228575
 107.0176938  31.8817215  51.5484728 108.3754404  28.6664817  50.5735218
 109.1980473  28.1925295  50.4514108 108.6192467  29.4455301  51.0733904
 107.0162638  31.6953075  40.8698120 107.7371001  32.0734328  40.3661836
 106.3927942  32.4141952  40.9733097 111.1593761  32.3998224  41.8056452
 111.3757376  33.2822862  41.5045280 110.6787828  32.0084438  41.0762094
 105.8992983  35.3583937  48.3827196 105.7537563  35.6724241  49.2751478
 105.4218186  35.9768838  47.8298095 107.7589365  32.3486485  48.4308086
 107.7450934  31.4527579  48.0940384 108.4761794  32.3557149  49.0646372
 109.6115496  32.7823826  50.4761213 109.3533274  33.7040896  50.4745544
 109.0800536  32.3854260  51.1661678 114.5561685  45.8874613  43.2551299
 114.7298562  45.3221035  42.5025151 115.0490576  46.6875508  43.0730789
 107.1626261  31.2300866  43.6995656 107.2842173  30.3017512  43.8986544
 106.8728304  31.2439552  42.7873972 110.0317452  28.9155776  46.8362376
 110.0539149  28.9795109  45.8814356 110.4485511  28.0760285  47.0302882
 120.4101076  38.6511036  44.8741599 120.8532222  37.9018361  44.4760722
 119.5327586  38.6421172  44.4915331 115.5436857  45.2041377  40.3548197
 116.2387762  45.8248070  40.5735512 115.8860007  44.3536728  40.6300575
 101.1604667  37.0259178  54.2145015 100.4186403  37.1741814  54.8009645
 100.8397411  37.2867444  53.3511764 117.4428280  42.6541083  41.8835528
 117.9679605  42.9928355  41.1584848 117.3550633  41.7188098  41.6998663
 109.1048329  46.5675156  54.0125405 109.4135456  46.3224303  54.8848104
 109.9023811  46.7721795  53.5244275 109.1268941  48.7213066  46.2430781
 108.6873932  48.2289445  46.9363638 109.8777058  48.1786034  46.0022856
 101.6061280  44.9124607  46.2455409 102.4319300  44.6128379  45.8654053
 101.2555332  44.1432229  46.6945198 106.5742813  44.2651075  48.3153083
 105.9522823  43.6021780  48.0155311 107.2447680  44.2912207  47.6326731
 106.6467341  32.7432863  57.9085589 106.6955496  33.6194986  57.5263358
 107.1889855  32.2010256  57.3357232 117.1322187  43.2873986  57.1886726
 116.3417730  43.2698125  56.6491225 116.8955541  43.8262280  57.9435762
 117.2520062  40.1366453  54.5019454 117.3018067  39.9716460  55.4434977
 117.1433985  39.2693712  54.1117335 106.1356320  42.8154998  41.7911543
 106.2844441  43.4990463  41.1378216 106.9422764  42.7960088  42.3060999
 114.5423824  36.1197381  55.8178761 115.4433687  35.9803846  55.5262759
 114.6171798  36.2851836  56.7576939 108.8766629  33.4964236  54.6631947
 108.0069939  33.7897802  54.3914536 109.1126110  34.0804681  55.3839211
 118.7538258  42.5563394  54.7461476 118.4623067  42.9193375  55.5824937
 118.1410390  41.8430403  54.5674808 119.9533941  40.1216274  47.2664046
 120.7880832  40.5606078  47.4301607 120.0893070  39.6454927  46.4472292
 117.0025447  37.6796009  53.2141534 117.4779568  37.8723655  52.4060385
 116.0791012  37.7355195  52.9684918 111.5805663  29.7143852  52.1797368
 112.0987607  30.4504879  51.8543856 111.2260796  30.0207846  53.0144127
 111.8318257  26.1344135  47.6998264 112.1120011  25.4667324  48.3258691
 112.6168864  26.3273231  47.1872928 109.6351726  45.3103129  39.2623291
 109.0625693  45.9293316  38.8093763 110.2084519  45.8602491  39.7963213
 115.7027116  34.5561769  51.4469840 116.6544539  34.6559867  51.4682064
 115.5330566  33.7640038  51.9567924 113.7241495  31.6417352  51.6329240
 113.1291427  31.9222365  50.9375729 113.4391192  32.1311253  52.4045982
 112.8548986  45.5940279  40.3931873 113.7879659  45.5285841  40.5964748
 112.7672198  46.4296546  39.9346406 115.4837002  44.9106149  37.3535821
 115.4050634  44.5766013  38.2471578 116.3046669  45.4027917  37.3527293
 118.1815193  37.7767889  50.5612139 118.1491514  36.8383889  50.7471823
 118.7915817  37.8551925  49.8277964 110.0198524  36.6463942  36.6039343
 110.9657629  36.5170150  36.6727761 109.6412769  35.9078604  37.0808771
 118.3309682  34.5678932  50.6070422 117.8148731  33.7837389  50.4200351
 119.2149630  34.2397649  50.7716942 115.9920409  28.3119948  46.5666235
 115.7945230  28.0035036  47.4509567 116.6020114  29.0381587  46.6964165
 109.9037217  40.6981688  58.0640000 110.8240226  40.8760287  58.2580047
 109.8686800  39.7537733  57.9119699 108.2041441  34.5713918  36.5394228
 107.2972897  34.2747031  36.6156942 108.4817422  34.2743736  35.6728515
 102.8999289  38.6082722  50.7062781 103.1185299  39.5399830  50.7250815
 103.3125063  38.2490697  51.4917585 109.8203507  29.1150808  42.6938470
 109.0104236  28.7697893  43.0693716 110.5087924  28.8058351  43.2826081
 111.7494055  28.1928855  44.3162766 112.3025094  28.6124308  44.9752789
 111.9864142  27.2664603  44.3585722 107.7727155  34.1815928  60.0965530
 107.6723882  35.1310285  60.0277621 107.5548697  33.8534167  59.2241600
 106.9740226  31.4300853  36.6806208 107.8359390  31.7555752  36.9402025
 107.1590570  30.6432349  36.1679273 115.1272863  30.3029380  43.8241431
 114.5471532  30.9614184  43.4419483 114.8608795  29.4806724  43.4128848
 113.5776429  29.7034437  46.0262751 114.0776207  29.8150972  45.2177070
 114.2212037  29.3995490  46.6663559 107.6358425  37.6113067  58.9130592
 107.1525506  38.4113427  59.1194481 107.7219364  37.6221012  57.9598036
 103.5631762  41.5017602  50.9499026 104.5175016  41.4701544  50.8828957
 103.3644286  41.0408225  51.7649252 104.1531144  40.0718718  53.5169823
 104.9724033  40.5662796  53.5404661 104.4267952  39.1550686  53.4887391
 113.9097741  32.4629470  42.8797779 113.0223596  32.7479121  42.6617974
 114.3251730  32.3023233  42.0325056 117.2612277  32.4875991  46.5952118
 118.0372667  32.9772444  46.8676735 116.5360411  32.9134045  47.0523988
 119.6984835  33.2003610  47.6526059 120.2929326  32.9599346  46.9419367
 119.7711419  32.4810741  48.2799595 101.9181991  47.0437221  47.9669224
 101.7836459  46.2837622  47.4007222 101.5014053  47.7678121  47.4998012
 113.0540954  42.2274145  36.9745799 113.7576804  42.4324147  37.5903454
 112.3303603  42.7950907  37.2394882 113.8838764  37.9784006  43.0948069
 113.8273966  38.4352557  42.2555701 114.4367107  37.2174691  42.9170912
 117.6943570  33.7673738  43.9198189 117.4380504  33.3670374  44.7506396
 117.0696438  34.4817532  43.7948328 105.0751117  47.9406538  48.1787666
 104.9583501  48.8851971  48.0766356 104.2543563  47.6380100  48.5673465
 114.9627651  42.6656674  39.0244259 115.7973255  42.2337872  38.8421734
 114.8011994  42.4938688  39.9521153 114.6173544  39.1688787  40.3900598
 114.5622347  39.0033059  39.4489042 113.9919599  39.8764820  40.5462788
 111.9319451  41.4737699  59.7154161 112.8010610  41.6478351  59.3540796
 111.4526202  42.2932116  59.5929890 107.9269669  28.6696896  39.9685917
 107.9148339  29.6138736  40.1254187 108.8193091  28.4867042  39.6745378
 106.1005631  48.5934800  51.3943595 107.0032878  48.6258410  51.7110090
 105.8743001  47.6635251  51.4089930 107.8559233  47.3465787  48.0553673
 106.9054864  47.3467648  47.9418046 108.1591719  46.5998521  47.5389708
 111.7421789  25.2639673  44.2231853 110.9754184  24.7098160  44.3688536
 112.1532494  25.3361542  45.0846005 103.7463550  31.5524469  58.3137035
 104.6095011  31.1961274  58.5240359 103.1728960  31.2138364  59.0012439
 120.4001633  53.1353753  49.0560960 120.0620144  53.0194818  48.1681495
 121.2691401  52.7344918  49.0361966 116.2588449  54.9889230  45.0457851
 115.6953314  54.8979167  44.2774139 116.1440844  54.1689134  45.5260344
 120.8821416  54.2888605  55.0147166 120.8710057  53.8941403  54.1427670
 121.0442055  53.5554678  55.6080937 113.8052880  56.4840421  47.8842072
 114.5974172  56.1431246  47.4688371 114.0449531  56.5935396  48.8044225
 115.7643634  55.7449334  40.7559451 116.5374510  55.1978322  40.6172326
 116.1169033  56.6093584  40.9673912 117.6028677  57.0725717  53.9626350
 117.3118543  57.9771348  53.8473016 118.2385661  57.1142244  54.6770419
 118.5284884  54.4502565  50.5527710 119.1248456  54.2258588  49.8384672
 118.5859855  53.7087311  51.1553157 118.1009912  51.9042001  38.3877900
 118.3535433  51.3823522  37.6261363 117.1634471  51.7408146  38.4904584
 117.8206201  53.8070107  40.5902275 117.7042459  53.1315010  41.2583360
 117.9308461  53.3202480  39.7734428 120.1637742  53.2680254  44.2948965
 119.7995949  52.7410875  45.0061886 121.0204858  52.8778723  44.1215450
 119.8043229  48.2970153  39.2910313 119.9717631  49.1650390  39.6580784
 119.6140398  48.4597435  38.3671602 116.0131044  53.2100929  46.9912848
 115.0881540  53.0777143  47.1990540 116.2615457  53.9895148  47.4882790
 119.7832450  50.7527811  40.2756980 119.6632075  51.1984862  41.1142460
 119.0885038  51.1013128  39.7170518 113.3739855  52.8534203  47.8256637
 113.5032236  53.1068682  48.7396049 112.6937306  53.4461911  47.5061292
 117.5439342  63.5231453  43.9247111 117.4663372  64.4739278  44.0035592
 116.9400985  63.1777325  44.5822038 120.0356572  50.6959318  56.5808478
 119.2589906  51.2553238  56.5711343 120.6747135  51.1816101  57.1023348
 118.2902944  53.5044771  56.1426445 119.0317628  54.0429815  55.8661269
 117.5839929  54.1311060  56.2997997 120.1189354  50.5846519  52.1132164
 120.9650549  51.0085932  52.2566813 120.0587991  49.9280143  52.8070727
 119.6415060  55.9449511  45.7600981 120.1053406  56.2237214  44.9705603
 119.3771858  55.0432955  45.5774071 116.5339141  55.4920992  48.6980744
 117.1040498  55.9208260  48.0598228 117.1247253  55.2103577  49.3964930
 118.5783946  52.0672663  42.5690546 119.2807989  52.5193707  43.0364472
 118.2464575  51.4256482  43.1970439 117.0264308  50.6584420  56.9441755
 116.3962968  51.3400700  57.1777152 116.9200396  50.5467501  55.9994893
 112.3209280  50.3256216  47.8707679 111.5308334  50.5813744  47.3947790
 112.8120527  51.1404553  47.9759720 114.2724025  50.6900795  44.8291156
 113.4755189  50.8019489  45.3474652 114.0449618  51.0287447  43.9632047
 120.1029693  57.2145498  52.7773671 120.1674126  57.6765905  53.6131842
 119.3940617  56.5842863  52.9055980 110.6046983  50.5786706  50.3022670
 110.8555021  51.4633716  50.5680246 111.1406531  50.3991308  49.5297762
 119.8177711  58.8813606  42.6452651 119.6823386  59.7265141  43.0737499
 120.3587523  59.0832883  41.8818585 116.3045050  44.9605185  59.3067006
 115.9111996  44.4071384  59.9814650 117.1211191  45.2715764  59.6973524
 113.2707108  56.3989044  43.2180576 113.7831629  57.1932294  43.3686141
 113.9229821  55.7015334  43.1514178 115.0801993  59.5154800  45.3003329
 115.2568621  60.4372765  45.1124313 115.8758826  59.2013219  45.7297709
 119.2213011  46.3763064  56.8987263 119.9622725  46.9770218  56.8191725
 119.4530934  45.6340702  56.3405305 114.3654349  51.5619432  55.1765492
 114.2507865  50.6604689  55.4772591 113.5098867  51.8083128  54.8250309
 116.2033308  61.0332974  51.3013672 116.7540733  60.9050037  50.5290666
 115.3644784  61.3327863  50.9508564 120.0000479  57.2984101  55.6457903
 120.5328816  56.5372390  55.4157211 119.4714560  57.0057753  56.3882057
 111.2356025  54.7277698  43.9940147 112.0731247  55.1374706  43.7773854
 111.4134293  53.7877140  43.9640340 120.7167568  47.2402479  44.7409218
 119.8609164  46.8509330  44.5614857 121.1294520  47.3194440  43.8809003
 118.4909601  44.8587552  48.1466959 119.3562597  44.6630361  47.7872849
 118.5587109  44.6297904  49.0736316 121.3653192  56.4270094  43.1576715
 120.8374554  55.6922854  42.8449952 120.8640695  57.2044770  42.9116683
 116.0971920  47.0889760  45.5183326 116.6715672  46.8664942  44.7856519
 116.6842902  47.1578455  46.2711928 116.4241507  49.1194221  39.5379211
 115.5878819  49.4568908  39.8588486 116.2846276  48.9843201  38.6006348
 118.3994587  43.9631009  44.2458396 117.7459000  43.6480026  43.6215010
 118.3575062  43.3406750  44.9718219 119.5105792  54.2450304  36.1611688
 118.6032854  54.0139558  36.3602837 120.0076824  53.4487923  36.3485669
 120.6894026  54.3462899  40.6835678 119.7805245  54.0621932  40.7808148
 120.7189109  54.7661978  39.8238985 111.2582196  52.0668413  44.6650880
 111.0606596  51.4737774  43.9401947 110.7028860  51.7620623  45.3826819
 119.2378920  51.9591520  46.7845473 119.2927529  51.0065356  46.7087950
 118.4270122  52.1150959  47.2686772 120.3870113  55.8871643  38.0223756
 119.9489543  55.1707502  37.5629394 121.1280554  56.1147758  37.4608848
 117.1771280  50.5768579  44.5435852 116.3639145  50.8762750  44.9501044
 117.6730274  50.1824268  45.2610334 119.3279858  60.5726336  46.4770117
 119.2856036  60.7987183  45.5478649 120.2442556  60.3389711  46.6255918
 116.6685354  48.1486935  50.1597087 117.3084734  48.0075694  49.4620050
 115.8362885  47.8621448  49.7835689 117.4445658  57.4489365  46.2732079
 118.2386257  56.9539685  46.0714654 116.7337351  56.9207228  45.9099785
 113.7528422  51.5932447  42.3491832 112.8226010  51.5316903  42.5661794
 113.8485894  51.0708400  41.5528473 113.6713971  48.1187260  44.9370074
 113.9320788  49.0332593  44.8279234 114.4931143  47.6511702  45.0866687
 115.1438896  49.5325017  52.1068898 115.8161950  49.3242379  51.4581547
 114.3168683  49.3347103  51.6674131 120.0216934  58.0218387  49.9529917
 119.8828020  57.6537172  50.8255855 119.2331531  58.5366027  49.7813874
 120.6165086  63.1227484  41.2955453 120.7916842  62.6515527  42.1101076
 119.9297874  63.7493250  41.5236714 121.5722149  57.3999990  47.3418754
 121.2371982  57.3600760  48.2376404 121.0726095  56.7344706  46.8689165
 115.5466393  52.8067620  52.8671336 115.4086191  52.0747859  53.4682875
 116.4571317  52.7176520  52.5855523 118.1748694  52.5187579  52.3555015
 118.8848313  51.8780772  52.3141634 118.1318002  52.7700474  53.2781196
 116.8877628  49.5052797  54.1750655 116.3514985  49.0543536  54.8272251
 116.2994337  49.6398706  53.4321119 115.1826172  66.2716847  48.0695313
 115.4222770  66.9035371  48.7474332 114.3395368  65.9204887  48.3560673
 116.2979887  48.9641449  36.7377118 115.4209353  48.8430249  36.3739365
 116.7737640  48.1727527  36.4856007 107.8182027  53.7518608  46.8318625
 108.5053067  53.4380338  46.2439641 107.6630156  54.6559973  46.5585877
 112.6216749  48.6408805  51.2603649 112.5374938  48.0334475  50.5254059
 111.7999456  49.1317823  51.2613145 119.6954033  62.0795969  50.4736817
 119.6224205  62.8850941  50.9856122 119.2531427  62.2787935  49.6484839
 119.4843813  61.3167739  43.9839639 118.7011335  61.8589419  44.0777863
 120.1836558  61.8341719  44.3833880 119.3775432  49.2679751  46.3545529
 119.0073219  48.7150792  47.0426434 119.8734524  48.6637885  45.8020529
 117.2064630  59.7277247  53.4500547 117.9074090  60.3613729  53.6029941
 116.7359745  60.0691978  52.6896186 112.8032349  59.2613602  50.3831649
 113.3885785  58.5157289  50.5159554 112.6057187  59.5717558  51.2668313
 115.6571004  62.2964849  45.3994092 114.9881379  62.7810977  44.9158132
 115.5183873  62.5434069  46.3137470 107.3950003  51.8319202  49.1036093
 107.4334103  51.2982792  49.8973211 106.8890296  51.3054407  48.4847070
 119.7976272  64.3308592  51.9976750 120.3494580  64.4940214  52.7625835
 120.1382466  64.9213030  51.3256775 114.7740766  46.6783742  52.5998635
 114.8382092  47.5398573  52.1876033 114.7107886  46.0657744  51.8670993
 114.2493038  48.7506875  56.2471669 114.8765077  48.3683952  56.8609193
 113.3920957  48.5321077  56.6127362 111.0258581  50.5583304  42.1790024
 111.3212022  49.6493982  42.1257078 110.1246617  50.5371043  41.8571026
 114.5552828  48.6339300  48.1617573 113.8339414  49.2475268  48.0225046
 115.3446084  49.1697065  48.0834218 117.3579141  45.9693727  54.4358224
 117.8813543  46.2156024  55.1984534 117.1391475  46.8013762  54.0161362
 112.7546422  48.2397402  42.3029349 112.4259129  47.3594780  42.1204455
 113.1085793  48.1845070  43.1905738 115.8688246  48.5270371  42.6704827
 116.2084318  49.0556293  41.9483435 116.3160366  48.8650777  43.4463393
 118.5631686  46.9107422  52.1207895 118.2228507  46.1115235  52.5228575
 117.8570693  47.2109133  51.5484728 119.2148158  43.9956735  50.5735218
 120.0374228  43.5217213  50.4514108 119.4586222  44.7747218  51.0733904
 117.8556393  47.0244993  40.8698120 118.5764755  47.4026246  40.3661836
 117.2321697  47.7433870  40.9733097 116.7386737  50.6875855  48.3827196
 116.5931318  51.0016158  49.2751478 116.2611941  51.3060755  47.8298095
 118.5983120  47.6778403  48.4308086 118.5844689  46.7819496  48.0940384
 119.3155548  47.6849067  49.0646372 120.4509251  48.1115743  50.4761213
 120.1927028  49.0332814  50.4745544 119.9194291  47.7146178  51.1661678
 111.2132399  53.2281200  51.3214858 110.6685867  54.0041008  51.4535132
 112.0911749  53.5752004  51.1633979 118.0020016  46.5592783  43.6995656
 118.1235927  45.6309430  43.8986544 117.7122058  46.5731469  42.7873972
 120.8711206  44.2447694  46.8362376 120.8932903  44.3087027  45.8814356
 121.2879265  43.4052203  47.0302882 111.9998421  52.3551096  54.2145015
 111.2580157  52.5033731  54.8009645 111.6791165  52.6159361  53.3511764
 119.9442084  61.8967074  54.0125405 120.2529210  61.6516221  54.8848104
 120.7417566  62.1013713  53.5244275 119.9662696  64.0504984  46.2430781
 119.5267686  63.5581362  46.9363638 120.7170813  63.5077951  46.0022856
 112.4455035  60.2416525  46.2455409 113.2713055  59.9420296  45.8654053
 112.0949087  59.4724147  46.6945198 117.4136568  59.5942993  48.3153083
 116.7916577  58.9313698  48.0155311 118.0841435  59.6204125  47.6326731
 110.6463640  58.1602851  47.2044343 109.8095548  57.7325025  47.0228344
 110.6187285  58.3535294  48.1415134 117.4861095  48.0724781  57.9085589
 117.5349251  48.9486904  57.5263358 118.0283610  47.5302174  57.3357232
 116.9750075  58.1446916  41.7911543 117.1238195  58.8282381  41.1378216
 117.7816518  58.1252006  42.3060999 119.7160384  48.8256153  54.6631947
 118.8463693  49.1189719  54.3914536 119.9519864  49.4096598  55.3839211
 114.7302708  54.1712094  42.7972612 114.4848750  53.2674424  42.9952822
 114.8998622  54.1729244  41.8552090 113.9998355  49.9040451  40.2958774
 113.3067600  49.9784806  39.6398810 113.7550107  49.1400795  40.8180291
 120.4745480  60.6395047  39.2623291 119.9019447  61.2585234  38.8093763
 121.0478274  61.1894408  39.7963213 119.0435196  49.9005836  36.5394228
 118.1366651  49.6038948  36.6156942 119.3211177  49.6035654  35.6728515
 109.9613136  51.2212199  46.9893275 109.6415921  50.3677507  46.6967649
 109.4146565  51.4360777  47.7451242 113.7393044  53.9374640  50.7062781
 113.9579054  54.8691748  50.7250815 114.1518818  53.5782615  51.4917585
 120.6597262  44.4442725  42.6938470 119.8497990  44.0989810  43.0693716
 121.3481679  44.1350269  43.2826081 118.6120909  49.5107846  60.0965530
 118.5117636  50.4602203  60.0277621 118.3942451  49.1826085  59.2241600
 117.8133981  46.7592771  36.6806208 118.6753145  47.0847669  36.9402025
 117.9984325  45.9724267  36.1679273 109.8301396  54.8415111  48.9586396
 109.1364868  54.4269063  48.4456351 110.5774387  54.8835647  48.3619815
 118.4752179  52.9404985  58.9130592 117.9919261  53.7405345  59.1194481
 118.5613118  52.9512930  57.9598036 111.7438139  54.7733364  46.8352411
 111.7208827  54.8721052  45.8834294 112.0538775  55.6198515  47.1569577
 114.4025517  56.8309519  50.9499026 115.3568770  56.7993462  50.8828957
 114.2038040  56.3700143  51.7649252 114.9924899  55.4010635  53.5169823
 115.8117788  55.8954714  53.5404661 115.2661707  54.4842604  53.4887391
 112.7575746  62.3729139  47.9669224 112.6230213  61.6129540  47.4007222
 112.3407808  63.0970039  47.4998012 115.9144871  63.2698456  48.1787666
 115.7977256  64.2143888  48.0766356 115.0937318  62.9672017  48.5673465
 110.2459813  49.7348769  54.2162020 110.8918677  49.2247723  54.7049246
 110.0376964  50.4717451  54.7905446 118.7663424  43.9988814  39.9685917
 118.7542093  44.9430654  40.1254187 119.6586845  43.8158959  39.6745378
 116.9399386  63.9226718  51.3943595 117.8426632  63.9550328  51.7110090
 116.7136756  62.9927169  51.4089930 118.6952988  62.6757704  48.0553673
 117.7448619  62.6759566  47.9418046 118.9985474  61.9290439  47.5389708
 114.5857304  46.8816386  58.3137035 115.4488766  46.5253191  58.5240359
 114.0122715  46.5430281  59.0012439 118.6575782  69.0810526  46.8318625
 119.3446821  68.7672256  46.2439641 118.5023910  69.9851891  46.5585877
 118.2343758  67.1611119  49.1036093 118.2727857  66.6274710  49.8973211
 117.7284051  66.6346325  48.4847070 121.4857394  73.4894769  47.2044343
 120.6489303  73.0616943  47.0228344 121.4581040  73.6827212  48.1415134
 120.8006891  66.5504117  46.9893275 120.4809675  65.6969425  46.6967649
 120.2540319  66.7652695  47.7451242 120.6695151  70.1707028  48.9586396
 119.9758622  69.7560981  48.4456351 121.4168142  70.2127565  48.3619815
  95.8651834   9.8709740  30.6492418  95.7875864  10.8217565  30.7280898
  95.2613478   9.5255612  31.3067344  93.5038664  12.6195134  34.7940620
  93.7435262  13.2513658  35.4719638  92.6607860  12.2683174  35.0805979
  93.9783496   8.6443136  32.1239398  93.3093871   9.1289264  31.6403438
  93.8396366   8.8912357  33.0382777  98.1188765  10.6786880  38.7222057
  98.6707073  10.8418501  39.4871142  98.4594958  11.2691318  38.0502082
  91.0788238   8.7207426  34.6914530  90.9442706   7.9607827  34.1252528
  90.6620300   9.4448326  34.2243319  94.2357364   9.6176743  34.9032973
  94.1189748  10.5622176  34.8011663  93.4149810   9.3150305  35.2918772
  95.2611878  10.2705005  38.1188901  96.1639125  10.3028615  38.4355396
  95.0349248   9.3405456  38.1335237 109.5607880  14.8123958  35.7806267
 109.2226391  14.6965023  34.8926802 110.4297648  14.4115123  35.7607273
 105.4194695  16.6659435  31.7703158 104.8559560  16.5749371  31.0019446
 105.3047090  15.8459339  32.2505650 110.0427663  15.9658810  41.7392473
 110.0316303  15.5711608  40.8672976 110.2048302  15.2324882  42.3326244
 102.9659127  18.1610626  34.6087378 103.7580419  17.8201451  34.1933678
 103.2055777  18.2705601  35.5289532 110.9994254  20.3330402  27.0817623
 110.3482234  20.9184483  26.6951637 111.7938617  20.8636597  27.1412660
 104.9249881  17.4219539  27.4804757 105.6980757  16.8748526  27.3417633
 105.2775280  18.2863789  27.6919219 106.7634924  18.7495922  40.6871656
 106.4724790  19.6541552  40.5718323 107.3991908  18.7912449  41.4015726
 107.6891131  16.1272770  37.2773016 108.2854703  15.9028793  36.5629979
 107.7466102  15.3857516  37.8798464 106.9812448  15.4840311  27.3147582
 106.8648706  14.8085215  27.9828666 107.0914708  14.9972685  26.4979735
 109.3243989  14.9450459  31.0194271 108.9602196  14.4181080  31.7307193
 110.1811105  14.5548928  30.8460757 111.7224809  18.4357337  37.6821450
 111.4225532  19.3382376  37.5737257 111.3775868  18.1689520  38.5342603
 105.1737290  14.8871134  33.7158155 104.2487787  14.7547348  33.9235846
 105.4221703  15.6665353  34.2128097 102.5346101  14.5304408  34.5501944
 102.6638482  14.7838886  35.4641355 101.8543553  15.1232116  34.2306599
 106.7045589  25.2001657  30.6492418 106.6269618  26.1509483  30.7280898
 106.1007232  24.8547530  31.3067344 107.4509191  15.1814976  42.8671752
 108.1923875  15.7200020  42.5906575 106.7446176  15.8081265  43.0243304
 112.9264530  17.3244117  41.4643913 113.3347886  16.8826527  40.7198546
 112.2041792  16.7496744  41.7178106 113.2493345  17.8845307  35.2196202
 112.6202207  18.0491021  34.5172270 112.8619007  18.2986917  35.9907166
 117.1282577  18.8199745  32.5740566 116.4433615  19.1998647  32.0237599
 117.2126426  19.4295072  33.3072514 114.3833508  16.4659704  39.1735909
 114.5950404  17.1091464  38.4970291 114.3363257  15.6322021  38.7057840
 108.8021307  17.6219715  32.4846287 109.2659652  17.9007418  31.6950910
 108.5378105  16.7203160  32.3019378 105.6945388  17.1691197  35.4226051
 106.2646745  17.5978465  34.7843535 106.2853500  16.8873782  36.1210236
 101.4815527  12.0026420  34.5952986 100.6914581  12.2583949  34.1193097
 101.9726774  12.8174758  34.7005026 115.4979336  19.3431660  37.3458267
 116.3196780  18.9411847  37.0640948 115.4941739  19.2399894  38.2974383
 103.4330272  12.3671000  31.5536463 102.6361436  12.4789694  32.0719958
 103.2055864  12.7057652  30.6877353 109.2635940  18.8915703  39.5018977
 109.3280372  19.3536110  40.3377149 108.5546864  18.2613068  39.6301287
  99.7653230  12.2556911  37.0267977 100.0161268  13.1403921  37.2925553
 100.3012778  12.0761512  36.2543069 108.9783958  20.5583810  29.3697958
 108.8429632  21.4035346  29.7982805 109.5193770  20.7603088  28.6063891
 102.4313355  18.0759248  29.9425883 102.9437875  18.8702499  30.0931447
 103.0836068  17.3785539  29.8759484 104.2408240  21.1925005  32.0248636
 104.4174868  22.1142969  31.8369620 105.0365073  20.8783424  32.4543016
 103.5260596  13.2389637  41.9010799 103.4114111  12.3374894  42.2017898
 102.6705114  13.4853333  41.5495616 110.6052434  21.1807377  43.4998300
 110.1616288  20.3943756  43.1819204 111.2669647  21.3686527  42.8342190
 105.3639555  22.7103179  38.0258978 105.9146980  22.5820242  37.2535972
 104.5251031  23.0098068  37.6753871 112.7033672  21.4610177  41.5279701
 112.6852147  22.2819058  41.0359970 113.6253592  21.3364252  41.7529842
 109.1606726  18.9754306  42.3703209 109.6935063  18.2142595  42.1402517
 108.6320807  18.6827958  43.1127364 100.3962272  16.4047903  30.7185453
 101.2337494  16.8144911  30.5019161 100.5740539  15.4647345  30.6885647
 110.5259439  18.1040299  29.8822021 109.9980800  17.3693058  29.5695259
 110.0246942  18.8814975  29.6361990 115.5052285  16.2989319  34.9989068
 114.8475959  16.9888581  35.0869196 116.3092684  16.6885751  35.3423054
 111.5780118  24.6318016  25.8053681 110.9041817  24.9349713  26.4138638
 111.9645940  25.4347097  25.4559138 115.0819540  19.6339693  31.1772152
 114.6281867  18.7930603  31.2337343 114.4513507  20.2701092  31.5146932
 113.5252479  21.4716190  32.1121970 113.8175453  22.0321247  31.3934336
 114.0351100  21.7644751  32.8675129 100.4188443  13.7438618  31.3896187
 100.2212843  13.1507979  30.6647253  99.8635107  13.4390828  32.1072125
 108.4886104  22.2496541  33.2015423 108.4462283  22.4757388  32.2723955
 109.4048803  22.0159916  33.3501225 117.6918855  17.9075572  35.8156653
 118.1255361  17.8150861  36.6639707 118.4050435  17.8833072  35.1776669
 106.6051905  19.1259570  32.9977386 107.3992504  18.6309890  32.7959961
 105.8943597  18.5977433  32.6345092 111.4246750  21.5077666  37.3489754
 111.4783772  22.0768602  38.1167470 110.5561531  21.6779551  36.9843791
 102.9134669  13.2702652  29.0737139 101.9832257  13.2087107  29.2907101
 103.0092141  12.7478605  28.2773780 118.5534404  17.9499272  38.3489539
 118.7470294  18.8545083  38.5948813 118.4535022  17.4906691  39.1828124
 113.6149513  18.1006015  43.9230419 113.4635019  17.8716567  43.0060503
 113.6054192  19.0576617  43.9361764 110.3834849  15.6737928  38.9076686
 111.3126909  15.8249087  38.7345653 109.9625879  15.7621949  38.0525332
 109.1823181  19.6988592  36.6775223 109.0434267  19.3307377  37.5501161
 108.3937777  20.2136232  36.5059181 109.7771333  24.7997689  28.0200760
 109.9523089  24.3285732  28.8346382 109.0904121  25.4263455  28.2482020
 110.7328396  19.0770195  34.0664061 110.3978229  19.0370965  34.9621711
 110.2332342  18.4114911  33.5934471 104.7072640  14.4837825  39.5916642
 104.5692438  13.7518064  40.1928181 105.6177564  14.3946725  39.3100830
 107.3354941  14.1957784  39.0800322 108.0454559  13.5550977  39.0386940
 107.2924249  14.4470679  40.0026503 115.3241720  21.1325138  42.0006901
 115.2654266  20.4484358  41.3337484 115.7261238  21.8744128  41.5487527
 104.3432418  27.9487051  34.7940620 104.5829017  28.5805576  35.4719638
 103.5001615  27.5975092  35.0805979 115.3259127  19.0964722  40.2320881
 114.4385906  18.7590643  40.3547280 115.8957678  18.3647753  40.4689646
  96.9788274  15.4288813  33.5563932  97.6659314  15.1150543  32.9684947
  96.8236403  16.3330178  33.2831183 108.8560280  23.7566174  37.1982124
 108.7830452  24.5621145  37.7101428 108.4137673  23.9558140  36.3730145
 108.6450060  22.9937944  30.7084945 107.8617582  23.5359624  30.8023170
 109.3442805  23.5111924  31.1079187 111.3158964  23.6553008  39.3540283
 112.0286936  24.2900473  39.2816184 110.8248992  23.7516874  38.5380284
 113.0376491  17.5604261  30.9257574 112.1032769  17.6805723  30.7562279
 113.2153159  16.6576727  30.6617584 106.3670877  21.4047451  40.1745853
 107.0680337  22.0383934  40.3275248 105.8965992  21.7462183  39.4141493
 111.1279337  23.9951752  32.1026574 111.3101732  23.1773408  32.5654326
 111.9512323  24.2119444  31.6651464 111.4621503  22.9219937  29.3641622
 111.9909269  22.4112392  28.7511785 111.7249722  22.6062467  30.2287156
 110.2159736  14.7011870  44.4864441 109.5400373  14.6005999  45.1566816
 111.0387370  14.5451084  44.9500438 101.9638595  20.9383806  37.1076956
 102.5492032  20.1927494  37.2404860 101.7663434  21.2487763  37.9913620
 104.8177251  23.9735054  32.1239398 104.1487626  24.4581181  31.6403438
 104.6790120  24.2204274  33.0382777  96.5556250  13.5089407  35.8281399
  96.5940350  12.9752997  36.6218517  96.0496543  12.9824612  35.2092376
 108.9582519  26.0078797  38.7222057 109.5100827  26.1710419  39.4871142
 109.2988713  26.5983235  38.0502082 113.8093393  20.8340055  44.5770711
 114.3533297  21.4470013  44.0825666 113.2280238  21.3919633  45.0937724
 100.1864828  12.2353509  28.9035331 100.4818269  11.3264187  28.8502384
  99.2852863  12.2141248  28.5816333 112.0950906  23.9560773  35.7085739
 111.9702046  23.1550513  35.1996684 112.7529997  24.4506966  35.2199709
 114.1585815  21.7569793  37.3365289 113.2116150  21.6375144  37.2643616
 114.5068588  20.8692291  37.4191550 111.1632248  21.5522509  33.5369641
 111.0157210  20.6239217  33.7177211 111.9885742  21.5742600  33.0526716
 114.7666370  22.3751068  34.6234514 115.6912917  22.1693929  34.4858965
 114.5981673  22.1267469  35.5323856 114.5561686  22.8936735  29.9796605
 114.7298564  22.3283158  29.2270458 115.0490577  23.6937630  29.7976095
 100.3738646  14.9051404  38.0460164  99.8292114  15.6811212  38.1780439
 101.2517996  15.2522209  37.8879286 101.1604668  14.0321301  40.9390321
 100.4186404  14.1803936  41.5254952 100.8397412  14.2929566  40.0757071
 109.1048330  23.5737279  40.7370711 109.4135457  23.3286426  41.6093411
 109.9023812  23.7783917  40.2489581 109.1268942  25.7275189  32.9676088
 108.6873933  25.2351567  33.6608944 109.8777059  25.1848156  32.7268163
 101.6061281  21.9186729  32.9700716 102.4319301  21.6190501  32.5899359
 101.2555333  21.1494352  33.4190504 106.5742815  21.2713198  35.0398389
 105.9522824  20.6083903  34.7400617 107.2447682  21.2974330  34.3572037
  99.8069887  19.8373056  33.9289649  98.9701795  19.4095230  33.7473651
  99.7793532  20.0305499  34.8660441 117.1322188  20.2936109  43.9132032
 116.3417732  20.2760248  43.3736532 116.8955542  20.8324403  44.6681069
 106.1356322  19.8217121  28.5156850 106.2844442  20.5052585  27.8623523
 106.9422765  19.8022211  29.0306306 118.7538260  19.5625517  41.4706783
 118.4623068  19.9255497  42.3070244 118.1410391  18.8492525  41.2920115
 103.8908955  15.8482299  29.5217919 103.6454996  14.9444629  29.7198129
 104.0604869  15.8499449  28.5797397 109.6351727  22.3165251  25.9868597
 109.0625694  22.9355439  25.5339069 110.2084521  22.8664613  26.5208519
 109.9037218  17.7043810  44.7885307 110.8240228  17.8822409  44.9825353
 109.8686801  16.7599856  44.6365006  99.1219383  12.8982404  33.7138581
  98.8022167  12.0447712  33.4212955  98.5752811  13.1130982  34.4696549
 102.8999291  15.6144845  37.4308088 103.1185300  16.5461953  37.4496122
 103.3125064  15.2552819  38.2162892  98.9907643  16.5185316  35.6831703
  98.2971115  16.1039268  35.1701657  99.7380634  16.5605852  35.0865122
 107.6358426  14.6175190  45.6375899 107.1525508  15.4175550  45.8439788
 107.7219365  14.6283134  44.6843343 100.9044386  16.4503569  33.5597718
 100.8815074  16.5491257  32.6079601 101.2145022  17.2968720  33.8814884
 103.5631764  18.5079724  37.6744332 104.5175017  18.4763667  37.6074264
 103.3644287  18.0470348  38.4894558 104.1531146  17.0780840  40.2415130
 104.9724035  17.5724919  40.2649967 104.4267953  16.1612809  40.2132698
 101.9181992  24.0499344  34.6914530 101.7836460  23.2899745  34.1252528
 101.5014055  24.7740244  34.2243319 105.0751118  24.9468661  34.9032973
 104.9583502  25.8914093  34.8011663 104.2543564  24.6442222  35.2918772
  99.4066060  11.4118974  40.9407327 100.0524923  10.9017928  41.4294552
  99.1983211  12.1487656  41.5150752 111.9319452  18.4799822  46.4399468
 112.8010612  18.6540474  46.0786103 111.4526204  19.2994239  46.3175197
 106.1005632  25.5996923  38.1188901 107.0032879  25.6320533  38.4355396
 105.8743002  24.6697374  38.1335237 107.8559234  24.3527909  34.7798980
 106.9054865  24.3529771  34.6663352 108.1591720  23.6060644  34.2635015
 120.4001634  30.1415876  35.7806267 120.0620146  30.0256940  34.8926802
 121.2691402  29.7407041  35.7607273 116.2588450  31.9951352  31.7703158
 115.6953315  31.9041289  31.0019446 116.1440845  31.1751257  32.2505650
 120.8821417  31.2950727  41.7392473 120.8710058  30.9003526  40.8672976
 121.0442057  30.5616800  42.3326244 113.8052882  33.4902544  34.6087378
 114.5974174  33.1493368  34.1933678 114.0449532  33.5997519  35.5289532
 115.7643636  32.7511457  27.4804757 116.5374512  32.2040444  27.3417633
 116.1169035  33.6155706  27.6919219 117.6028678  34.0787839  40.6871656
 117.3118544  34.9833470  40.5718323 118.2385663  34.1204367  41.4015726
 118.5284885  31.4564688  37.2773016 119.1248457  31.2320710  36.5629979
 118.5859857  30.7149433  37.8798464 117.8206202  30.8132229  27.3147582
 117.7042460  30.1377132  27.9828666 117.9308462  30.3264603  26.4979735
 120.1637743  30.2742376  31.0194271 119.7995950  29.7472997  31.7307193
 121.0204859  29.8840845  30.8460757 116.0131045  30.2163052  33.7158155
 115.0881541  30.0839266  33.9235846 116.2615458  30.9957271  34.2128097
 113.3739856  29.8596325  34.5501944 113.5032237  30.1130804  35.4641355
 112.6937307  30.4524033  34.2306599 117.5439343  40.5293575  30.6492418
 117.4663373  41.4801400  30.7280898 116.9400987  40.1839448  31.3067344
 120.0356573  27.7021441  43.3053785 119.2589907  28.2615361  43.2956649
 120.6747136  28.1878224  43.8268655 118.2902945  30.5106894  42.8671752
 119.0317630  31.0491938  42.5906575 117.5839931  31.1373183  43.0243304
 120.1189355  27.5908641  38.8377470 120.9650550  28.0148055  38.9812119
 120.0587993  26.9342266  39.5316033 119.6415061  32.9511633  32.4846287
 120.1053407  33.2299336  31.6950910 119.3771859  32.0495078  32.3019378
 116.5339142  32.4983115  35.4226051 117.1040499  32.9270383  34.7843535
 117.1247254  32.2165699  36.1210236 118.5783947  29.0734786  29.2935852
 119.2807991  29.5255829  29.7609779 118.2464576  28.4318604  29.9215746
 117.0264309  27.6646542  43.6687062 116.3962969  28.3462823  43.9022459
 116.9200397  27.5529624  42.7240200 112.3209281  27.3318338  34.5952986
 111.5308335  27.5875867  34.1193097 112.8120529  28.1466676  34.7005026
 114.2724027  27.6962917  31.5536463 113.4755190  27.8081612  32.0719958
 114.0449619  28.0349570  30.6877353 120.1029694  34.2207621  39.5018977
 120.1674127  34.6828028  40.3377149 119.3940618  33.5904986  39.6301287
 110.6046984  27.5848829  37.0267977 110.8555023  28.4695839  37.2925553
 111.1406533  27.4053430  36.2543069 119.8177712  35.8875728  29.3697958
 119.6823387  36.7327264  29.7982805 120.3587525  36.0895006  28.6063891
 116.3045052  21.9667308  46.0312313 115.9111997  21.4133507  46.7059957
 117.1211192  22.2777886  46.4218830 113.2707109  33.4051166  29.9425883
 113.7831630  34.1994416  30.0931447 113.9229822  32.7077457  29.8759484
 115.0801994  36.5216922  32.0248636 115.2568622  37.4434887  31.8369620
 115.8758828  36.2075342  32.4543016 119.2213013  23.3825187  43.6232569
 119.9622726  23.9832340  43.5437032 119.4530935  22.6402825  43.0650612
 114.3654351  28.5681554  41.9010799 114.2507866  27.6666812  42.2017898
 113.5098868  28.8145251  41.5495616 116.2033310  38.0395096  38.0258978
 116.7540735  37.9112160  37.2535972 115.3644785  38.3389985  37.6753871
 120.0000481  34.3046224  42.3703209 120.5328817  33.5434512  42.1402517
 119.4714562  34.0119876  43.1127364 111.2356026  31.7339820  30.7185453
 112.0731248  32.1436829  30.5019161 111.4134294  30.7939263  30.6885647
 118.4909602  21.8649675  34.8712266 119.3562599  21.6692484  34.5118156
 118.5587111  21.6360027  35.7981623 121.3653193  33.4332217  29.8822021
 120.8374555  32.6984976  29.5695259 120.8640696  34.2106893  29.6361990
 116.0971921  24.0951883  32.2428633 116.6715673  23.8727064  31.5101826
 116.6842903  24.1640577  32.9957234 111.2582197  29.0730536  31.3896187
 111.0606597  28.4799896  30.6647253 110.7028861  28.7682746  32.1072125
 119.2378921  28.9653642  33.5090780 119.2927531  28.0127479  33.4333256
 118.4270123  29.1213081  33.9932078 117.1771281  27.5830702  31.2681159
 116.3639146  27.8824873  31.6746351 117.6730275  27.1886391  31.9855641
 119.3279859  37.5788459  33.2015423 119.2856038  37.8049305  32.2723955
 120.2442558  37.3451834  33.3501225 116.6685356  25.1549058  36.8842394
 117.3084735  25.0137817  36.1865357 115.8362886  24.8683571  36.5080996
 117.4445660  34.4551488  32.9977386 118.2386258  33.9601808  32.7959961
 116.7337352  33.9269351  32.6345092 113.7528423  28.5994570  29.0737139
 112.8226011  28.5379025  29.2907101 113.8485895  28.0770522  28.2773780
 113.6713972  25.1249383  31.6615380 113.9320789  26.0394716  31.5524541
 114.4931144  24.6573825  31.8111993 115.1438897  26.5387140  38.8314205
 115.8161951  26.3304502  38.1826854 114.3168684  26.3409226  38.3919437
 120.0216936  35.0280510  36.6775223 119.8828021  34.6599294  37.5501161
 119.2331532  35.5428149  36.5059181 120.6165088  40.1289606  28.0200760
 120.7916843  39.6577650  28.8346382 119.9297876  40.7555373  28.2482020
 121.5722151  34.4062113  34.0664061 121.2371983  34.3662883  34.9621711
 121.0726096  33.7406829  33.5934471 115.5466395  29.8129743  39.5916642
 115.4086193  29.0809981  40.1928181 116.4571318  29.7238643  39.3100830
 118.1748695  29.5249702  39.0800322 118.8848314  28.8842894  39.0386940
 118.1318003  29.7762597  40.0026503 116.8877629  26.5114920  40.8995961
 116.3514986  26.0605658  41.5517558 116.2994338  26.6460829  40.1566426
 115.1826173  43.2778969  34.7940620 115.4222771  43.9097493  35.4719638
 114.3395369  42.9267009  35.0805979 107.8182028  30.7580731  33.5563932
 108.5053068  30.4442461  32.9684947 107.6630157  31.6622096  33.2831183
 112.6216751  25.6470928  37.9848956 112.5374939  25.0396597  37.2499366
 111.7999457  26.1379946  37.9858452 119.6954035  39.0858092  37.1982124
 119.6224206  39.8913063  37.7101428 119.2531428  39.2850057  36.3730145
 119.4843814  38.3229862  30.7084945 118.7011336  38.8651542  30.8023170
 120.1836559  38.8403841  31.1079187 119.3775433  26.2741874  33.0790835
 119.0073221  25.7212914  33.7671741 119.8734526  25.6700008  32.5265835
 117.2064632  36.7339369  40.1745853 117.9074091  37.3675852  40.3275248
 116.7359747  37.0754101  39.4141493 112.8032350  36.2675724  37.1076956
 113.3885787  35.5219412  37.2404860 112.6057188  36.5779681  37.9913620
 115.6571005  39.3026972  32.1239398 114.9881380  39.7873099  31.6403438
 115.5183875  39.5496192  33.0382777 107.3950005  28.8381324  35.8281399
 107.4334104  28.3044915  36.6218517 106.8890297  28.3116530  35.2092376
 119.7976274  41.3370715  38.7222057 120.3494582  41.5002337  39.4871142
 120.1382467  41.9275153  38.0502082 114.7740767  23.6845865  39.3243941
 114.8382093  24.5460696  38.9121339 114.7107887  23.0719867  38.5916300
 114.2493039  25.7568997  42.9716976 114.8765078  25.3746075  43.5854500
 113.3920958  25.5383199  43.3372668 111.0258582  27.5645427  28.9035331
 111.3212023  26.6556105  28.8502384 110.1246618  27.5433166  28.5816333
 114.5552829  25.6401423  34.8862879 113.8339415  26.2537391  34.7470352
 115.3446085  26.1759188  34.8079525 117.3579143  22.9755850  41.1603531
 117.8813544  23.2218146  41.9229840 117.1391476  23.8075884  40.7406668
 112.7546424  25.2459524  29.0274656 112.4259130  24.3656903  28.8449762
 113.1085794  25.1907193  29.9151045 115.8688247  25.5332494  29.3950133
 116.2084319  26.0618415  28.6728742 116.3160367  25.8712900  30.1708700
 118.5631688  23.9169545  38.8453201 118.2228508  23.1177358  39.2473881
 117.8570694  24.2171256  38.2730035 119.2148159  21.0018857  37.2980524
 120.0374229  20.5279335  37.1759415 119.4586223  21.7809341  37.7979211
 116.7386738  27.6937978  35.1072503 116.5931319  28.0078281  35.9996785
 116.2611942  28.3122878  34.5543402 118.5983121  24.6840526  35.1553393
 118.5844690  23.7881619  34.8185691 119.3155549  24.6911189  35.7891679
 120.4509252  25.1177866  37.2006520 120.1927030  26.0394937  37.1990851
 119.9194292  24.7208300  37.8906984 111.2132400  30.2343322  38.0460164
 110.6685868  31.0103130  38.1780439 112.0911750  30.5814127  37.8879286
 111.9998422  29.3613218  40.9390321 111.2580158  29.5095854  41.5254952
 111.6791167  29.6221484  40.0757071 119.9442085  38.9029197  40.7370711
 120.2529211  38.6578343  41.6093411 120.7417567  39.1075835  40.2489581
 119.9662697  41.0567106  32.9676088 119.5267687  40.5643485  33.6608944
 120.7170814  40.5140074  32.7268163 112.4455036  37.2478647  32.9700716
 113.2713056  36.9482419  32.5899359 112.0949088  36.4786270  33.4190504
 117.4136569  36.6005115  35.0398389 116.7916578  35.9375820  34.7400617
 118.0841436  36.6266247  34.3572037 110.6463641  35.1664974  33.9289649
 109.8095549  34.7387148  33.7473651 110.6187286  35.3597417  34.8660441
 117.4861097  25.0786903  44.6330895 117.5349252  25.9549026  44.2508665
 118.0283611  24.5364296  44.0602539 116.9750076  35.1509039  28.5156850
 117.1238196  35.8344503  27.8623523 117.7816519  35.1314129  29.0306306
 119.7160385  25.8318276  41.3877254 118.8463694  26.1251842  41.1159843
 119.9519865  26.4158721  42.1084518 114.7302709  31.1774216  29.5217919
 114.4848751  30.2736546  29.7198129 114.8998624  31.1791367  28.5797397
 113.9998357  26.9102574  27.0204080 113.3067601  26.9846929  26.3644116
 113.7550108  26.1462918  27.5425597 120.4745482  37.6457169  25.9868597
 119.9019449  38.2647356  25.5339069 121.0478275  38.1956531  26.5208519
 109.9613138  28.2274322  33.7138581 109.6415922  27.3739630  33.4212955
 109.4146566  28.4422900  34.4696549 113.7393045  30.9436763  37.4308088
 113.9579055  31.8753871  37.4496122 114.1518819  30.5844737  38.2162892
 118.6120910  26.5169968  46.8210837 118.5117637  27.4664325  46.7522928
 118.3942452  26.1888207  45.9486907 109.8301398  31.8477233  35.6831703
 109.1364869  31.4331186  35.1701657 110.5774389  31.8897770  35.0865122
 118.4752181  29.9467107  45.6375899 117.9919262  30.7467467  45.8439788
 118.5613120  29.9575052  44.6843343 111.7438140  31.7795487  33.5597718
 111.7208828  31.8783174  32.6079601 112.0538777  32.6260638  33.8814884
 114.4025518  33.8371642  37.6744332 115.3568772  33.8055584  37.6074264
 114.2038042  33.3762266  38.4894558 114.9924900  32.4072758  40.2415130
 115.8117789  32.9016837  40.2649967 115.2661708  31.4904726  40.2132698
 112.7575747  39.3791262  34.6914530 112.6230215  38.6191662  34.1252528
 112.3407809  40.1032161  34.2243319 115.9144873  40.2760579  34.9032973
 115.7977257  41.2206011  34.8011663 115.0937319  39.9734140  35.2918772
 110.2459814  26.7410892  40.9407327 110.8918678  26.2309846  41.4294552
 110.0376965  27.4779574  41.5150752 116.9399387  40.9288840  38.1188901
 117.8426633  40.9612451  38.4355396 116.7136757  39.9989291  38.1335237
 118.6952989  39.6819827  34.7798980 117.7448620  39.6821689  34.6663352
 118.9985475  38.9352562  34.2635015 114.5857305  23.8878509  45.0382341
 115.4488767  23.5315314  45.2485666 114.0122716  23.5492404  45.7257746
 118.6575783  46.0872649  33.5563932 119.3446823  45.7734379  32.9684947
 118.5023912  46.9914013  33.2831183 118.2343759  44.1673242  35.8281399
 118.2727859  43.6336833  36.6218517 117.7284052  43.6408448  35.2092376
 121.4857395  50.4956891  33.9289649 120.6489304  50.0679066  33.7473651
 121.4581041  50.6889335  34.8660441 120.8006892  43.5566239  33.7138581
 120.4809676  42.7031548  33.4212955 120.2540320  43.7714818  34.4696549
 120.6695152  47.1769151  35.6831703 119.9758624  46.7623104  35.1701657
 121.4168143  47.2189687  35.0865122   3.1842565  55.2901857 105.4581838
   2.5104264  55.5933554 106.0666795   3.5708387  56.0930937 105.1087295
   7.1499306  52.8687340 106.7321661   7.8450211  53.4894033 106.9508975
   7.4922456  52.0182692 107.0074039   1.2414175  52.9749092 105.6396754
   0.6688142  53.5939279 105.1867226   1.8146968  53.5248454 106.1736676
   4.4611434  53.2586242 106.7705337   5.3942108  53.1931804 106.9738212
   4.3734647  54.0942509 106.3119869   7.0899451  52.5752113 103.7309284
   7.0113083  52.2411976 104.6245042   7.9109118  53.0673881 103.7300757
   4.6603403  49.8920108 103.3519263   5.3639253  50.0970111 103.9676918
   3.9366052  50.4596870 103.6168346   6.5690100  50.3302637 105.4017723
   7.4035704  49.8983836 105.2195197   6.4074443  50.1584651 106.3294617
  15.1974375  60.8472288 115.4972899  15.8352785  60.7279036 114.7936239
  15.0795218  61.7953132 115.5560852   7.8650897  62.6535193 111.4231315
   7.3015762  62.5625130 110.6547603   7.7503292  61.8335097 111.9033808
  13.4450456  66.3206161 106.7345780  12.7938436  66.9060241 106.3479794
  14.2394819  66.8512355 106.7940817   7.3706083  63.4095298 107.1332914
   8.1436959  62.8624285 106.9945790   7.7231482  64.2739547 107.3447376
   9.7072361  59.5687964 104.7651364   9.9597882  59.0469485 104.0034827
   8.7696920  59.4054109 104.8678048  14.7515644  58.5723742 112.5726107
  15.5378733  58.1543165 112.2216524  15.0154348  59.4769834 112.7407756
  14.9225721  64.0096593 107.2714764  14.2871554  64.0831219 107.9835669
  14.5923128  64.5990191 106.5933843  20.1524071  58.5098975 113.4759086
  20.8849243  57.9398192 113.7096915  19.3963427  58.1220576 113.9165592
   9.4268650  61.4716070 106.9675739   9.3104908  60.7960973 107.6356823
   9.5370910  60.9848444 106.1507892  11.7700191  60.9326217 110.6722428
  11.4058398  60.4056838 111.3835350  12.6267307  60.5424686 110.4988914
  11.4105678  55.9616117 105.6683777  11.5780080  56.8296353 106.0354248
  11.2202847  56.1243398 104.7445066  11.3894899  58.4173774 106.6530444
  11.2694524  58.8630825 107.4915924  10.6947487  58.7659092 106.0943982
   9.1501791  71.1877416 110.3020575   9.0725820  72.1385241 110.3809056
   8.5463434  70.8423288 110.9595501  17.0879965  58.8895247 107.4810778
  17.9997821  59.1222634 107.3058475  16.5789612  59.4732291 106.9185856
  15.6949547  63.8721066 114.8724359  15.0658409  64.0366780 114.1700427
  15.3075209  64.2862675 115.6435323  19.5738779  64.8075504 112.2268723
  18.8889817  65.1874405 111.6765756  19.6582628  65.4170830 112.9600671
  11.2477509  63.6095474 112.1374444  11.7115854  63.8883177 111.3479067
  10.9834307  62.7078918 111.9547535  10.1846395  59.7318626 108.9464009
  10.8870438  60.1839670 109.4137936   9.8527023  59.0902445 109.5743903
  17.9435538  65.3307418 116.9986424  18.7652982  64.9287605 116.7169106
  17.9397941  65.2275652 117.9502540  26.0341532  61.6746167 113.3471395
  25.2805240  61.1053565 113.1915400  26.1689073  61.6408831 114.2942030
  11.4240160  66.5459569 109.0226115  11.2885834  67.3911105 109.4510963
  11.9649972  66.7478846 108.2592049   4.8769557  64.0635007 109.5954040
   5.3894078  64.8578257 109.7459604   5.5292270  63.3661297 109.5287641
   6.6864442  67.1800763 111.6776793   6.8631070  68.1018728 111.4897777
   7.4821275  66.8659182 112.1071173   2.8418474  62.3923661 110.3713610
   3.6793696  62.8020670 110.1547318   3.0196741  61.4523103 110.3413804
  14.7382906  60.0598742 106.0597443  14.2229529  60.8303346 106.2985831
  14.4660214  59.3863878 106.6830505  12.3230017  54.9048443 111.1182682
  11.4671613  54.5155293 110.9388320  12.7356969  54.9840403 110.2582467
  19.7117180  62.8131096 107.9950617  18.9346623  62.4742256 107.5505779
  20.3908661  62.8183720 107.3205582  14.5269209  57.9325834 107.8857224
  14.2219345  58.2471983 108.7367368  15.4799651  58.0107254 107.9284557
  12.9715641  64.0916057 109.5350178  12.4437002  63.3568817 109.2223416
  12.4703144  64.8690734 109.2890147  17.9508487  62.2865078 114.6517225
  17.2932161  62.9764339 114.7397353  18.7548886  62.6761510 114.9951211
  16.7613946  60.6409450 112.7021166  17.2745827  61.2739442 113.2042876
  17.4115170  60.0410646 112.3364527   8.0303956  56.7840185 105.9152675
   7.1941268  57.1214871 106.2361950   7.8908725  56.6489164 104.9779812
  11.1168241  61.9096267 102.5385151  10.2095303  61.6785521 102.7376300
  11.6139273  61.1133887 102.7259133  14.0236320  70.6193775 105.4581838
  13.3498019  70.9225471 106.0666795  14.4102142  71.4222855 105.1087295
  14.0229824  59.5150322 110.0782187  14.7701643  60.0271719 109.7689309
  14.2921414  59.1934374 110.9386581  12.2956474  62.0108862 107.0609142
  11.3867694  61.7267895 107.1581611  12.3251558  62.4307941 106.2012448
  17.5275742  65.6215452 110.8300309  17.0738069  64.7806362 110.8865500
  16.8969709  66.2576850 111.1675089  16.4708661  56.5507438 112.0600977
  15.7331418  56.0384824 112.3911219  16.7235435  56.1107819 111.2484253
  15.9708681  67.4591949 111.7650127  16.2631656  68.0197006 111.0462493
  16.4807302  67.7520510 112.5203286  10.8441369  59.6237483 113.1618937
  10.8989978  58.6711319 113.0861414  10.0332571  59.7796922 113.6460235
  11.9932562  63.5517606 104.3997220  11.5551992  62.8353465 103.9402857
  12.7343003  63.7793721 103.8382312   8.7833728  58.2414543 110.9209316
   7.9701594  58.5408713 111.3274508   9.2792723  57.8470231 111.6383798
  10.9342306  68.2372300 112.8543580  10.8918485  68.4633146 111.9252112
  11.8505005  68.0035674 113.0029382  20.1105677  61.8274803 110.4573539
  19.9723576  62.0176399 109.5294728  19.7541896  62.5894186 110.9141590
  20.1375057  63.8951330 115.4684810  20.5711563  63.8026619 116.3167864
  20.8506637  63.8708831 114.8304826   9.0508107  65.1135329 112.6505543
   9.8448706  64.6185649 112.4488118   8.3399800  64.5853192 112.2873249
   5.3590871  59.2578410 108.7265296   4.4288459  59.1962866 108.9435258
   5.4548343  58.7354363 107.9301937  20.9990606  63.9375031 118.0017696
  21.1926496  64.8420841 118.2476971  20.8991224  63.4782450 118.8356281
  12.2227535  70.7873447 107.6728917  12.3979291  70.3161490 108.4874539
  11.5360323  71.4139213 107.9010178  13.1784598  65.0645953 113.7192218
  12.8434431  65.0246723 114.6149868  12.6788544  64.3990669 113.2462628
  16.1143790  62.4101988 103.9929278  15.4972961  61.6848816 103.8962330
  15.6460278  63.1711348 103.6496352   7.9042336  56.6287412 103.1150582
   7.0271802  56.5076213 102.7512829   8.3800089  55.8373490 102.8629471
  11.0906262  68.9813702 110.3613103  10.3073784  69.5235383 110.4551327
  11.7899007  69.4987682 110.7607344  22.2532669  60.4948697 114.6465599
  22.2422546  61.3773413 114.2759533  21.3850049  60.1420248 114.4520136
  15.4832693  63.5480019 110.5785731  14.5488971  63.6681481 110.4090436
  15.6609361  62.6452486 110.3145741  18.8705244  59.3897338 111.1135765
  19.3365696  60.2225330 111.0396068  19.3212745  58.9242320 111.8181024
  16.9381475  65.7341160 108.1121917  17.2141319  65.6197754 109.0215792
  16.0685974  65.3358644 108.0734091  13.5735539  69.9827510 111.7554731
  13.7557934  69.1649166 112.2182483  14.3968525  70.1995203 111.3179621
  13.9077705  68.9095696 109.0169780  14.4365471  68.3988150 108.4039942
  14.1705924  68.5938226 109.8815313   2.6321030  58.2229267 108.5563488
   2.9274471  57.3139946 108.5030541   1.7309065  58.2017007 108.2344490
  14.5407108  69.9436531 115.3613896  14.4158248  69.1426271 114.8524842
  15.1986200  70.4382725 114.8727866  16.6042017  67.7445551 116.9893446
  15.6572352  67.6250903 116.9171773  16.9524790  66.8568049 117.0719708
  13.6088450  67.5398268 113.1897798  13.4613413  66.6114975 113.3705368
  14.4341944  67.5618358 112.7054874   7.4750694  56.1916335 109.0478291
   7.8146767  56.7202256 108.3256899   7.9222815  56.5296741 109.8236857
  17.2122572  68.3626826 114.2762671  18.1369119  68.1569688 114.1387122
  17.0437875  68.1143227 115.1852013   9.4618842  54.6890956 107.2471583
  10.1827204  55.0672209 106.7435300   8.8384146  55.4079833 107.3506561
  13.6049964  55.3936105 108.1829916  13.8213579  56.2760743 107.8818744
  13.1244032  55.0022319 107.4535558  17.0017888  68.8812494 109.6324763
  17.1754766  68.3158916 108.8798615  17.4946779  69.6813389 109.4504253
  22.8557279  61.6448917 111.2515062  23.2988425  60.8956242 110.8534186
  21.9783790  61.6359053 110.8688794  17.9893061  68.1979258 106.7321661
  18.6843965  68.8185951 106.9508975  18.3316211  67.3474609 107.0074039
  19.8884484  65.6478964 108.2608992  20.4135808  65.9866236 107.5358312
  19.8006836  64.7125979 108.0772126   8.5812524  65.8092879 108.1685007
   8.7300644  66.4928344 107.5151680   9.3878967  65.7897969 108.6834463
  22.3990144  63.1154155 113.6437510  23.2337035  63.5543959 113.8075070
  22.5349273  62.6392808 112.8245756   6.3365157  61.8358057 109.1746076
   6.0911199  60.9320387 109.3726286   6.5061071  61.8375207 108.2325554
   5.6060804  57.5686415 106.6732237   4.9130049  57.6430770 106.0172273
   5.3612556  56.8046758 107.1953754  12.0807929  68.3041010 105.6396754
  11.5081896  68.9231197 105.1867226  12.6540723  68.8540372 106.1736676
  15.3005189  68.5878160 106.7705337  16.2335862  68.5223722 106.9738212
  15.2128402  69.4234427 106.3119869  17.9293206  67.9044030 103.7309284
  17.8506837  67.5703894 104.6245042  18.7502872  68.3965798 103.7300757
  20.6271397  60.7705770 116.9385603  20.5947717  59.8321770 117.1245287
  21.2372020  60.8489806 116.2051428  12.4654728  59.6401823 102.9812807
  13.4113832  59.5108031 103.0501225  12.0868973  58.9016485 103.4582235
  26.4447947  61.8321776 116.0791640  27.1751335  61.5707065 116.6399343
  25.8354892  61.0950498 116.1193708  24.5263244  59.9729639 116.6766091
  23.7996407  59.8385604 116.0682582  24.1110531  60.2806468 117.4822809
  10.6497645  57.5651799 102.9167692   9.7429100  57.2684912 102.9930406
  10.9273626  57.2681617 102.0501978  12.2659710  52.1088689 109.0711933
  11.4560439  51.7635774 109.4467180  12.9544127  51.7996232 109.6599545
   9.4196429  54.4238734 103.0579671  10.2815593  54.7493633 103.3175489
   9.6046774  53.6370230 102.5452737  17.5729066  53.2967261 110.2014894
  16.9927735  53.9552065 109.8192947  17.3064999  52.4744605 109.7902312
  16.3553944  55.4567351 109.2571243  15.4679799  55.7417002 109.0391437
  16.7707933  55.2961114 108.4098520  19.7068480  55.4813872 112.9725582
  20.4828870  55.9710324 113.2450199  18.9816614  55.9071926 113.4297451
  22.1441039  56.1941491 114.0299522  22.7385529  55.9537227 113.3192831
  22.2167622  55.4748622 114.6573059  15.4997157  65.2212026 103.3519263
  16.2033007  65.4262028 103.9676918  14.7759806  65.7888788 103.6168346
  16.3294968  60.9721887 109.4721533  16.2730169  61.4290438 108.6329165
  16.8823310  60.2112572 109.2944376  20.1399774  56.7611619 110.2971652
  19.8836708  56.3608255 111.1279860  19.5152642  57.4755413 110.1721791
  24.4512111  59.5007692 112.8042944  23.8911669  59.5700881 113.5774506
  23.8455615  59.3248677 112.0842440  17.4083855  65.6594555 105.4017723
  18.2429459  65.2275753 105.2195197  17.2468198  65.4876569 106.3294617
  17.0629747  62.1626668 106.7674062  17.0078551  61.9970940 105.8262506
  16.4375802  62.8702701 106.9236252  10.3725872  51.6634777 106.3459380
  10.3604542  52.6076617 106.5027651  11.2649294  51.4804923 106.0518842
  26.0368130  76.1764206 115.4972899  26.6746540  76.0570953 114.7936239
  25.9188973  77.1245050 115.5560852  22.8457836  76.1291634 115.4334424
  22.5076348  76.0132699 114.5454959  23.7147604  75.7282799 115.4135430
  18.7044652  77.9827111 111.4231315  18.1409517  77.8917047 110.6547603
  18.5897047  77.1627015 111.9033808  24.2844211  81.6498078 106.7345780
  23.6332190  82.2352159 106.3479794  25.0788573  82.1804273 106.7940817
  18.2099838  78.7387215 107.1332914  18.9830714  78.1916202 106.9945790
  18.5625237  79.6031465 107.3447376  20.9741087  77.4440446 116.9301173
  21.5704659  77.2196469 116.2158136  21.0316059  76.7025192 117.5326621
  20.5466116  74.8979882 104.7651364  20.7991636  74.3761403 104.0034827
  19.6090675  74.7346027 104.8678048  25.5909398  73.9015660 112.5726107
  26.3772488  73.4835083 112.2216524  25.8548103  74.8061752 112.7407756
  25.7619476  79.3388510 107.2714764  25.1265309  79.4123137 107.9835669
  25.4316882  79.9282109 106.5933843  30.9917825  73.8390893 113.4759086
  31.7242997  73.2690110 113.7096915  30.2357181  73.4512494 113.9165592
  20.2662404  76.8007987 106.9675739  20.1498662  76.1252891 107.6356823
  20.3764664  76.3140361 106.1507892  22.6093945  76.2618135 110.6722428
  22.2452152  75.7348756 111.3835350  23.4661061  75.8716604 110.4988914
  28.5143246  67.5512467 117.9353695  28.1826571  68.4207878 117.7114910
  27.9188859  67.2348751 118.6147725  22.2499432  71.2908034 105.6683777
  22.4173835  72.1588271 106.0354248  22.0596601  71.4535316 104.7445066
  25.0074765  79.7525013 117.3349607  24.7075488  80.6550052 117.2265415
  24.6625825  79.4857196 118.1870760  18.4587247  76.2038810 113.3686312
  17.5337743  76.0715024 113.5764003  18.7071660  76.9833029 113.8656254
  28.4071909  72.2707553 115.0147045  27.4988786  72.2022962 114.7205806
  28.3559505  72.7479498 115.8428870  22.2288653  73.7465692 106.6530444
  22.1088278  74.1922743 107.4915924  21.5341241  74.0951009 106.0943982
  19.9895545  86.5169334 110.3020575  19.9119575  87.4677159 110.3809056
  19.3857189  86.1715206 110.9595501  30.2733556  70.4723992 116.7924919
  29.6307936  70.7656525 116.1464713  29.7688484  70.3576912 117.5978115
  27.9273719  74.2187165 107.4810778  28.8391575  74.4514552 107.3058475
  27.4183366  74.8024209 106.9185856  22.5645557  73.5784400 118.4905627
  23.4106752  74.0023813 118.6340276  22.5044195  72.9218024 119.1844190
  26.5343302  79.2012983 114.8724359  25.9052164  79.3658698 114.1700427
  26.1468964  79.6154593 115.6435323  30.4132533  80.1367421 112.2268723
  29.7283572  80.5166323 111.6765756  30.4976383  80.7462748 112.9600671
  25.7145002  71.2388768 120.1486801  25.4705934  71.9930828 119.6121077
  25.9904933  71.6174116 120.9834048  27.6683465  77.7827380 118.8264067
  27.8800360  78.4259140 118.1498448  27.6213213  76.9489697 118.3585997
  25.2709694  70.3945201 115.7300639  24.4094173  70.6926454 116.0217376
  25.2972129  70.6115600 114.7981671  22.0871263  78.9387391 112.1374444
  22.5509609  79.2175094 111.3479067  21.8228061  78.0370836 111.9547535
  18.9795344  78.4858873 115.0754208  19.5496702  78.9146141 114.4371692
  19.5703456  78.2041458 115.7738393  21.0240149  75.0610544 108.9464009
  21.7264193  75.5131588 109.4137936  20.6920778  74.4194363 109.5743903
  14.7665483  73.3194097 114.2481143  13.9764537  73.5751625 113.7721254
  15.2576731  74.1342434 114.3533184  28.7829293  80.6599336 116.9986424
  29.6046737  80.2579523 116.7169106  28.7791696  80.5567570 117.9502540
  16.7180229  73.6838676 111.2064620  15.9211392  73.7957370 111.7248115
  16.4905821  74.0225328 110.3405510  36.8735286  77.0038084 113.3471395
  36.1198994  76.4345482 113.1915400  37.0082827  76.9700749 114.2942030
  22.2633914  81.8751486 109.0226115  22.1279589  82.7203022 109.4510963
  22.8043727  82.0770764 108.2592049  15.7163311  79.3926925 109.5954040
  16.2287832  80.1870175 109.7459604  16.3686024  78.6953215 109.5287641
  17.5258196  82.5092681 111.6776793  17.7024824  83.4310646 111.4897777
  18.3215030  82.1951100 112.1071173  25.6126378  65.3982048 117.5525008
  25.2690647  66.2883690 117.4764119  25.9805340  65.2083706 116.6894593
  13.6812228  77.7215579 110.3713610  14.5187450  78.1312587 110.1547318
  13.8590496  76.7815021 110.3413804  25.5776660  75.3890659 106.0597443
  25.0623284  76.1595264 106.2985831  25.3053969  74.7155796 106.6830505
  23.1623771  70.2340360 111.1182682  22.3065368  69.8447211 110.9388320
  23.5750723  70.3132321 110.2582467  24.6922918  67.7686704 115.5174241
  24.1887714  67.7316839 114.7042047  24.9853525  68.6779446 115.5770898
  20.9365804  67.8525433 114.5240423  21.8018801  67.6568242 114.1646313
  21.0043313  67.6235785 115.4509780  30.5510934  78.1423014 107.9950617
  29.7740377  77.8034174 107.5505779  31.2302415  78.1475637 107.3205582
  25.3662964  73.2617752 107.8857224  25.0613099  73.5763901 108.7367368
  26.3193406  73.3399171 107.9284557  23.8109395  79.4207975 109.5350178
  23.2830757  78.6860734 109.2223416  23.3096898  80.1982651 109.2890147
  28.7902241  77.6156995 114.6517225  28.1325916  78.3056257 114.7397353
  29.5942641  78.0053427 114.9951211  18.5428123  70.0827641 111.8956790
  19.1171875  69.8602823 111.1629983  19.1299105  70.1516336 112.6485391
  27.6007700  75.9701368 112.7021166  28.1139582  76.6031360 113.2042876
  28.2508924  75.3702564 112.3364527  18.8697710  72.1132102 105.9152675
  18.0335022  72.4506789 106.2361950  18.7302480  71.9781082 104.9779812
  20.8450791  66.9568890 110.6231859  20.1915203  66.6417907 109.9988474
  20.8031265  66.3344631 111.3491682  21.9561996  77.2388185 102.5385151
  21.0489057  77.0077439 102.7376300  22.4533028  76.4425804 102.7259133
  24.8630074  85.9485692 105.4581838  24.1891773  86.2517389 106.0666795
  25.2495896  86.7514773 105.1087295  24.0788531  73.4450824 114.9479507
  23.1611092  73.6665771 114.7901195  24.4948675  73.5197134 114.0891214
  24.8623579  74.8442239 110.0782187  25.6095398  75.3563637 109.7689309
  25.1315168  74.5226292 110.9386581  23.1350229  77.3400780 107.0609142
  22.2261448  77.0559813 107.1581611  23.1645313  77.7599859 106.2012448
  28.3669496  80.9507370 110.8300309  27.9131823  80.1098279 110.8865500
  27.7363463  81.5868768 111.1675089  27.3102416  71.8799356 112.0600977
  26.5725173  71.3676742 112.3911219  27.5629189  71.4399737 111.2484253
  26.8102436  82.7883866 111.7650127  27.1025410  83.3488923 111.0462493
  27.3201056  83.0812427 112.5203286  27.4114043  64.6575608 112.6542746
  27.7172920  63.7972971 112.3668661  28.1366648  65.2493228 112.4541740
  13.7038399  75.0606294 111.0424344  13.5062799  74.4675655 110.3175410
  13.1485063  74.7558504 111.7600283  21.6835123  74.9529401 113.1618937
  21.7383733  74.0003237 113.0861414  20.8726325  75.1088840 113.6460235
  22.8326317  78.8809524 104.3997220  22.3945747  78.1645383 103.9402857
  23.5736758  79.1085639 103.8382312  19.6227483  73.5706460 110.9209316
  18.8095348  73.8700631 111.3274508  20.1186477  73.1762149 111.6383798
  21.7736061  83.5664217 112.8543580  21.7312240  83.7925064 111.9252112
  22.6898760  83.3327592 113.0029382  25.2201695  74.0348285 119.7524210
  25.5751082  74.2619758 120.6118675  25.8673826  74.3666662 119.1301465
  30.9499432  77.1566721 110.4573539  30.8117330  77.3468317 109.5294728
  30.5935650  77.9186104 110.9141590  19.1141558  71.1424816 116.5370551
  19.7540937  71.0013575 115.8393514  18.2819088  70.8559329 116.1609153
  30.9768811  79.2243248 115.4684810  31.4105318  79.1318537 116.3167864
  31.6900392  79.2000748 114.8304826  19.8901862  80.4427246 112.6505543
  20.6842460  79.9477566 112.4488118  19.1793554  79.9145109 112.2873249
  16.1984625  74.5870328 108.7265296  15.2682213  74.5254784 108.9435258
  16.2942097  74.0646281 107.9301937  16.1170174  71.1125141 111.3143538
  16.3776991  72.0270474 111.2052698  16.9387346  70.6449583 111.4640150
  31.8384361  79.2666948 118.0017696  32.0320251  80.1712759 118.2476971
  31.7384979  78.8074367 118.8356281  23.4920671  69.1524839 120.5008023
  22.8448587  69.8514789 120.4072499  24.2621687  69.5860983 120.8684271
  23.6684806  76.9905604 118.5604843  24.5976866  77.1416763 118.3873810
  23.2475836  77.0789625 117.7053489  23.0621290  86.1165365 107.6728917
  23.2373045  85.6453408 108.4874539  22.3754078  86.7431131 107.9010178
  24.0178353  80.3937871 113.7192218  23.6828185  80.3538641 114.6149868
  23.5182298  79.7282587 113.2462628  26.9537544  77.7393905 103.9929278
  26.3366715  77.0140733 103.8962330  26.4854033  78.5003266 103.6496352
  18.7436090  71.9579330 103.1150582  17.8665557  71.8368130 102.7512829
  19.2193843  71.1665408 102.8629471  28.6109083  80.4132398 119.8849038
  27.7235862  80.0758319 120.0075437  29.1807634  79.6815429 120.1217803
  21.9300016  84.3105620 110.3613103  21.1467538  84.8527300 110.4551327
  22.6292762  84.8279600 110.7607344  25.2396666  70.1200249 113.0047308
  25.7365366  69.3670212 112.6848378  24.4683648  70.1564566 112.4390517
  33.0926424  75.8240615 114.6465599  33.0816300  76.7065330 114.2759533
  32.2243803  75.4712166 114.4520136  26.3226447  78.8771937 110.5785731
  25.3882726  78.9973399 110.4090436  26.5003116  77.9744403 110.3145741
  21.8231635  72.2617632 112.7318992  21.4529423  71.7088673 113.4199898
  22.3190728  71.6575766 112.1793993  29.7098998  74.7189256 111.1135765
  30.1759451  75.5517248 111.0396068  30.1606499  74.2534238 111.8181024
  27.7775230  81.0633077 108.1121917  28.0535074  80.9489672 109.0215792
  26.9079728  80.6650562 108.0734091  27.6815661  67.0869843 115.1526667
  26.7678741  67.3174070 115.3208874  28.1108763  67.1708287 116.0040699
  27.4522120  75.2759735 117.6526561  26.7993570  75.5235642 116.9979014
  27.8302500  74.4623873 117.3189038  24.4129294  85.3119428 111.7554731
  24.5951688  84.4941084 112.2182483  25.2362280  85.5287120 111.3179621
  24.7471459  84.2387613 109.0169780  25.2759226  83.7280068 108.4039942
  25.0099679  83.9230143 109.8815313  17.2196969  69.6721623 118.9772099
  17.2838295  70.5336454 118.5649496  17.1564089  69.0595625 118.2444457
  13.4714784  73.5521185 108.5563488  13.7668225  72.6431863 108.5030541
  12.5702820  73.5308924 108.2344490  25.3800863  85.2728449 115.3613896
  25.2552002  84.4718189 114.8524842  26.0379954  85.7674642 114.8727866
  17.0009031  71.6277181 114.5391036  16.2795617  72.2413149 114.3998510
  17.7902287  72.1634946 114.4607682  27.4435771  83.0737469 116.9893446
  26.4966107  82.9542820 116.9171773  27.7918544  82.1859967 117.0719708
  19.8035345  68.9631608 120.8131688  20.3269746  69.2093904 121.5757997
  19.5847678  69.7951643 120.3934825  15.2002626  71.2335283 108.6802813
  14.8715332  70.3532661 108.4977919  15.5541996  71.1782951 109.5679202
  24.4482205  82.8690185 113.1897798  24.3007167  81.9406893 113.3705368
  25.2735698  82.8910276 112.7054874  18.3144449  71.5208252 109.0478291
  18.6540521  72.0494174 108.3256899  18.7616569  71.8588658 109.8236857
  28.0516326  83.6918744 114.2762671  28.9762874  83.4861605 114.1387122
  27.8831630  83.4435145 115.1852013  21.0087890  69.9045303 118.4981359
  20.6684710  69.1053116 118.9002038  20.3026896  70.2047014 117.9258192
  21.6604362  66.9894615 116.9508682  22.4830431  66.5155094 116.8287572
  21.9042425  67.7685099 117.4507368  20.3012596  70.0182874 107.2471583
  21.0220959  70.3964127 106.7435300  19.6777900  70.7371751 107.3506561
  24.4443719  70.7228023 108.1829916  24.6607333  71.6052661 107.8818744
  23.9637786  70.3314236 107.4535558  19.1842940  73.6813736 114.7600660
  19.0387521  73.9954039 115.6524942  18.7068144  74.2998636 114.2071559
  21.0439323  70.6716284 114.8081550  21.0300892  69.7757377 114.4713848
  21.7611751  70.6786948 115.4419836  22.8965454  71.1053624 116.8534677
  22.6383232  72.0270695 116.8519008  22.3650494  70.7084059 117.5435141
  27.8411643  84.2104411 109.6324763  28.0148520  83.6450834 108.8798615
  28.3340534  85.0105306 109.4504253  20.4476219  69.5530664 110.0769120
  20.5692130  68.6247311 110.2760007  20.1578261  69.5669350 109.1647435
  23.3167410  67.2385575 113.2135840  23.3389106  67.3024908 112.2587819
  23.7335469  66.3990083 113.4076346  33.6951034  76.9740834 111.2515062
  34.1382180  76.2248160 110.8534186  32.8177544  76.9650971 110.8688794
  28.8286815  83.5271176 106.7321661  29.5237720  84.1477869 106.9508975
  29.1709965  82.6766527 107.0074039  30.7278238  80.9770881 108.2608992
  31.2529562  81.3158154 107.5358312  30.6400591  80.0417897 108.0772126
  30.5370019  78.4596251 120.8792918  30.5868024  78.2946259 121.8208441
  30.4283943  77.5923510 120.4890799  19.4206278  81.1384797 108.1685007
  19.5694398  81.8220261 107.5151680  20.2272722  81.1189887 108.6834463
  27.8273782  74.4427179 122.1952225  28.7283645  74.3033644 121.9036223
  27.9021756  74.6081634 123.1350402  22.1616587  71.8194034 121.0405411
  21.2919897  72.1127600 120.7688000  22.3976067  72.4034479 121.7612675
  32.0388216  80.8793193 121.1234940  31.7473025  81.2423173 121.9598401
  31.4260347  80.1660201 120.9448272  33.2383899  78.4446073 113.6437510
  34.0730790  78.8835877 113.8075070  33.3743027  77.9684726 112.8245756
  30.2875404  76.0025808 119.5914998  30.7629526  76.1953454 118.7833849
  29.3640970  76.0584993 119.3458381  17.1758911  77.1649975 109.1746076
  16.9304953  76.2612305 109.3726286  17.3454826  77.1667125 108.2325554
  24.8655621  68.0373651 118.5570832  25.3837565  68.7734678 118.2317320
  24.5110754  68.3437644 119.3917591  16.4454559  72.8978332 106.6732237
  15.7523804  72.9722687 106.0172273  16.2006310  72.1338676 107.1953754
  25.1168215  64.4573934 114.0771728  25.3969969  63.7897123 114.7032155
  25.9018822  64.6503029 113.5646392  22.9201684  83.6332928 105.6396754
  22.3475651  84.2523115 105.1867226  23.4934477  84.1832289 106.1736676
  28.9877073  72.8791568 117.8243303  29.9394496  72.9789665 117.8455527
  28.8180524  72.0869836 118.3341388  27.0091453  69.9647151 118.0102704
  26.4141385  70.2452164 117.3149193  26.7241150  70.4541052 118.7819445
  26.1398943  83.9170078 106.7705337  27.0729617  83.8515639 106.9738212
  26.0522156  84.7526345 106.3119869  28.7686960  83.2335948 103.7309284
  28.6900592  82.8995812 104.6245042  29.5896627  83.7257716 103.7300757
  31.4665151  76.0997687 116.9385603  31.4341471  75.1613688 117.1245287
  32.0765775  76.1781724 116.2051428  23.3048482  74.9693740 102.9812807
  24.2507587  74.8399948 103.0501225  22.9262727  74.2308402 103.4582235
  31.6159640  72.8908731 116.9843886  31.0998688  72.1067187 116.7973815
  32.4999588  72.5627447 117.1490406  29.2770367  66.6349746 112.9439699
  29.0795188  66.3264834 113.8283031  29.8870072  67.3611385 113.0737629
  37.2841701  77.1613694 116.0791640  38.0145090  76.8998982 116.6399343
  36.6748647  76.4242416 116.1193708  35.3656998  75.3021557 116.6766091
  34.6390162  75.1677522 116.0682582  34.9504285  75.6098385 117.4822809
  21.4891399  72.8943717 102.9167692  20.5822855  72.5976829 102.9930406
  21.7667380  72.5973535 102.0501978  23.1053465  67.4380606 109.0711933
  22.2954193  67.0927691 109.4467180  23.7937882  67.1288150 109.6599545
  25.0344013  66.5158653 110.6936230  25.5875052  66.9354107 111.3526253
  25.2714100  65.5894401 110.7359186  20.2590184  69.7530652 103.0579671
  21.1209348  70.0785550 103.3175489  20.4440528  68.9662148 102.5452737
  28.4122820  68.6259178 110.2014894  27.8321489  69.2843982 109.8192947
  28.1458753  67.8036523 109.7902312  26.8626387  68.0264236 112.4036215
  27.3626165  68.1380771 111.5950534  27.5061995  67.7225289 113.0437023
  27.1947698  70.7859269 109.2571243  26.3073553  71.0708919 109.0391437
  27.6101687  70.6253032 108.4098520  30.5462235  70.8105790 112.9725582
  31.3222625  71.3002242 113.2450199  29.8210369  71.2363844 113.4297451
  32.9834793  71.5233409 114.0299522  33.5779284  71.2829145 113.3192831
  33.0561377  70.8040539 114.6573059  26.3390912  80.5503943 103.3519263
  27.0426762  80.7553946 103.9676918  25.6153561  81.1180705 103.6168346
  27.1688722  76.3013805 109.4721533  27.1123924  76.7582356 108.6329165
  27.7217065  75.5404489 109.2944376  30.9793528  72.0903537 110.2971652
  30.7230462  71.6900172 111.1279860  30.3546396  72.8047330 110.1721791
  35.2905866  74.8299610 112.8042944  34.7305424  74.8992799 113.5774506
  34.6849369  74.6540594 112.0842440  28.2477609  80.9886473 105.4017723
  29.0823213  80.5567671 105.2195197  28.0861952  80.8168486 106.3294617
  27.9023501  77.4918586 106.7674062  27.8472305  77.3262857 105.8262506
  27.2769557  78.1994619 106.9236252  21.2119627  66.9926695 106.3459380
  21.1998297  67.9368535 106.5027651  22.1043049  66.8096840 106.0518842
  25.0271746  63.5869472 110.6005317  24.2604142  63.0327958 110.7462000
  25.4382451  63.6591340 111.4619469  36.8761884  91.5056124 115.4972899
  37.5140294  91.3862871 114.7936239  36.7582727  92.4536968 115.5560852
  33.6851591  91.4583552 115.4334424  33.3470102  91.3424617 114.5454959
  34.5541359  91.0574717 115.4135430  29.5438406  93.3119028 111.4231315
  28.9803271  93.2208965 110.6547603  29.4290801  92.4918933 111.9033808
  35.1237965  96.9789996 106.7345780  34.4725945  97.5644076 106.3479794
  35.9182328  97.5096191 106.7940817  29.0493592  94.0679133 107.1332914
  29.8224468  93.5208120 106.9945790  29.4018991  94.9323382 107.3447376
  31.8134842  92.7732364 116.9301173  32.4098414  92.5488386 116.2158136
  31.8709813  92.0317109 117.5326621  31.3859870  90.2271799 104.7651364
  31.6385391  89.7053320 104.0034827  30.4484429  90.0637945 104.8678048
  36.4303153  89.2307578 112.5726107  37.2166242  88.8127001 112.2216524
  36.6941857  90.1353670 112.7407756  36.6013230  94.6680428 107.2714764
  35.9659063  94.7415054 107.9835669  36.2710637  95.2574027 106.5933843
  41.8311580  89.1682811 113.4759086  42.5636752  88.5982028 113.7096915
  41.0750936  88.7804411 113.9165592  31.1056159  92.1299905 106.9675739
  30.9892417  91.4544809 107.6356823  31.2158419  91.6432279 106.1507892
  33.4487700  91.5910052 110.6722428  33.0845907  91.0640673 111.3835350
  34.3054816  91.2008521 110.4988914  39.3537000  82.8804385 117.9353695
  39.0220325  83.7499796 117.7114910  38.7582614  82.5640669 118.6147725
  33.0893187  86.6199952 105.6683777  33.2567589  87.4880188 106.0354248
  32.8990356  86.7827234 104.7445066  35.8468520  95.0816931 117.3349607
  35.5469243  95.9841970 117.2265415  35.5019579  94.8149114 118.1870760
  29.2981001  91.5330728 113.3686312  28.3731498  91.4006942 113.5764003
  29.5465415  92.3124947 113.8656254  39.2465664  87.5999471 115.0147045
  38.3382541  87.5314879 114.7205806  39.1953259  88.0771416 115.8428870
  33.0682408  89.0757609 106.6530444  32.9482033  89.5214660 107.4915924
  32.3734996  89.4242927 106.0943982  30.8289300 101.8461251 110.3020575
  30.7513329 102.7969076 110.3809056  30.2250943 101.5007124 110.9595501
  41.1127310  85.8015909 116.7924919  40.4701690  86.0948443 116.1464713
  40.6082239  85.6868830 117.5978115  38.7667474  89.5479083 107.4810778
  39.6785330  89.7806469 107.3058475  38.2577121  90.1316127 106.9185856
  33.4039311  88.9076317 118.4905627  34.2500507  89.3315731 118.6340276
  33.3437949  88.2509942 119.1844190  37.3737056  94.5304901 114.8724359
  36.7445918  94.6950615 114.1700427  36.9862718  94.9446511 115.6435323
  41.2526288  95.4659339 112.2268723  40.5677326  95.8458240 111.6765756
  41.3370137  96.0754666 112.9600671  36.5538757  86.5680686 120.1486801
  36.3099689  87.3222746 119.6121077  36.8298687  86.9466033 120.9834048
  38.5077219  93.1119298 118.8264067  38.7194115  93.7551058 118.1498448
  38.4606968  92.2781615 118.3585997  36.1103448  85.7237119 115.7300639
  35.2487927  86.0218372 116.0217376  36.1365883  85.9407518 114.7981671
  32.9265018  94.2679309 112.1374444  33.3903363  94.5467012 111.3479067
  32.6621816  93.3662754 111.9547535  29.8189099  93.8150791 115.0754208
  30.3890456  94.2438059 114.4371692  30.4097211  93.5333375 115.7738393
  31.8633904  90.3902462 108.9464009  32.5657947  90.8423505 109.4137936
  31.5314532  89.7486280 109.5743903  25.6059238  88.6486014 114.2481143
  24.8158292  88.9043543 113.7721254  26.0970485  89.4634352 114.3533184
  39.6223047  95.9891253 116.9986424  40.4440491  95.5871441 116.7169106
  39.6185450  95.8859488 117.9502540  27.5573983  89.0130593 111.2064620
  26.7605147  89.1249288 111.7248115  27.3299575  89.3517246 110.3405510
  47.7129040  92.3330002 113.3471395  46.9592749  91.7637400 113.1915400
  47.8476582  92.2992666 114.2942030  33.1027669  97.2043404 109.0226115
  32.9673343  98.0494940 109.4510963  33.6437481  97.4062682 108.2592049
  26.5557066  94.7218842 109.5954040  27.0681587  95.5162092 109.7459604
  27.2079779  94.0245133 109.5287641  28.3651951  97.8384598 111.6776793
  28.5418579  98.7602563 111.4897777  29.1608784  97.5243018 112.1071173
  36.4520132  80.7273966 117.5525008  36.1084402  81.6175608 117.4764119
  36.8199095  80.5375624 116.6894593  24.5205983  93.0507497 110.3713610
  25.3581205  93.4604505 110.1547318  24.6984250  92.1106939 110.3413804
  36.4170415  90.7182577 106.0597443  35.9017038  91.4887182 106.2985831
  36.1447723  90.0447713 106.6830505  34.0017526  85.5632278 111.1182682
  33.1459122  85.1739128 110.9388320  34.4144478  85.6424239 110.2582467
  35.5316673  83.0978621 115.5174241  35.0281468  83.0608756 114.7042047
  35.8247279  84.0071364 115.5770898  31.7759558  83.1817351 114.5240423
  32.6412555  82.9860160 114.1646313  31.8437067  82.9527703 115.4509780
  41.3904689  93.4714932 107.9950617  40.6134132  93.1326091 107.5505779
  42.0696170  93.4767555 107.3205582  36.2056718  88.5909669 107.8857224
  35.9006854  88.9055818 108.7367368  37.1587160  88.6691089 107.9284557
  34.6503150  94.7499893 109.5350178  34.1224511  94.0152652 109.2223416
  34.1490653  95.5274569 109.2890147  39.6295996  92.9448913 114.6517225
  38.9719670  93.6348174 114.7397353  40.4336395  93.3345345 114.9951211
  29.3821877  85.4119559 111.8956790  29.9565629  85.1894740 111.1629983
  29.9692860  85.4808253 112.6485391  38.4401455  91.2993286 112.7021166
  38.9533336  91.9323278 113.2042876  39.0902679  90.6994481 112.3364527
  29.7091465  87.4424020 105.9152675  28.8728777  87.7798706 106.2361950
  29.5696234  87.3073000 104.9779812  31.6844545  82.2860808 110.6231859
  31.0308958  81.9709825 109.9988474  31.6425019  81.6636548 111.3491682
  32.7955750  92.5680103 102.5385151  31.8882812  92.3369356 102.7376300
  33.2926782  91.7717722 102.7259133  35.7023829 101.2777610 105.4581838
  35.0285528 101.5809307 106.0666795  36.0889651 102.0806690 105.1087295
  34.9182286  88.7742741 114.9479507  34.0004847  88.9957688 114.7901195
  35.3342429  88.8489052 114.0891214  35.7017333  90.1734157 110.0782187
  36.4489152  90.6855554 109.7689309  35.9708923  89.8518210 110.9386581
  33.9743983  92.6692698 107.0609142  33.0655203  92.3851731 107.1581611
  34.0039067  93.0891776 106.2012448  39.2063251  96.2799287 110.8300309
  38.7525578  95.4390197 110.8865500  38.5757218  96.9160686 111.1675089
  38.1496170  87.2091273 112.0600977  37.4118927  86.6968659 112.3911219
  38.4022944  86.7691655 111.2484253  37.6496190  98.1175784 111.7650127
  37.9419165  98.6780841 111.0462493  38.1594811  98.4104345 112.5203286
  38.2507798  79.9867525 112.6542746  38.5566675  79.1264889 112.3668661
  38.9760403  80.5785145 112.4541740  24.5432154  90.3898212 111.0424344
  24.3456554  89.7967573 110.3175410  23.9878818  90.0850422 111.7600283
  32.5228878  90.2821318 113.1618937  32.5777487  89.3295155 113.0861414
  31.7120080  90.4380757 113.6460235  33.6720071  94.2101441 104.3997220
  33.2339501  93.4937300 103.9402857  34.4130512  94.4377556 103.8382312
  30.4621237  88.8998378 110.9209316  29.6489103  89.1992549 111.3274508
  30.9580232  88.5054067 111.6383798  32.6129815  98.8956135 112.8543580
  32.5705994  99.1216981 111.9252112  33.5292514  98.6619510 113.0029382
  36.0595449  89.3640203 119.7524210  36.4144837  89.5911676 120.6118675
  36.7067580  89.6958579 119.1301465  41.7893186  92.4858638 110.4573539
  41.6511085  92.6760234 109.5294728  41.4329405  93.2478021 110.9141590
  29.9535312  86.4716734 116.5370551  30.5934692  86.3305493 115.8393514
  29.1212843  86.1851247 116.1609153  41.8162566  94.5535165 115.4684810
  42.2499072  94.4610455 116.3167864  42.5294146  94.5292666 114.8304826
  30.7295616  95.7719164 112.6505543  31.5236215  95.2769484 112.4488118
  30.0187308  95.2437027 112.2873249  27.0378380  89.9162246 108.7265296
  26.1075968  89.8546701 108.9435258  27.1335852  89.3938198 107.9301937
  26.9563929  86.4417059 111.3143538  27.2170746  87.3562392 111.2052698
  27.7781101  85.9741501 111.4640150  42.6778115  94.5958866 118.0017696
  42.8714005  95.5004677 118.2476971  42.5778733  94.1366285 118.8356281
  34.3314426  84.4816757 120.5008023  33.6842341  85.1806706 120.4072499
  35.1015441  84.9152901 120.8684271  34.5078560  92.3197522 118.5604843
  35.4370620  92.4708681 118.3873810  34.0869590  92.4081542 117.7053489
  33.9015044 101.4457282 107.6728917  34.0766800 100.9745326 108.4874539
  33.2147832 102.0723049 107.9010178  34.8572107  95.7229789 113.7192218
  34.5221940  95.6830559 114.6149868  34.3576053  95.0574505 113.2462628
  37.7931299  93.0685823 103.9929278  37.1760470  92.3432651 103.8962330
  37.3247787  93.8295183 103.6496352  29.5829845  87.2871247 103.1150582
  28.7059311  87.1660048 102.7512829  30.0587598  86.4957326 102.8629471
  39.4502838  95.7424315 119.8849038  38.5629617  95.4050237 120.0075437
  40.0201389  95.0107347 120.1217803  32.7693771  99.6397538 110.3613103
  31.9861293 100.1819218 110.4551327  33.4686516 100.1571517 110.7607344
  36.0790421  85.4492167 113.0047308  36.5759120  84.6962129 112.6848378
  35.3077402  85.4856484 112.4390517  43.9320178  91.1532533 114.6465599
  43.9210055  92.0357248 114.2759533  43.0637558  90.8004083 114.4520136
  37.1620202  94.2063854 110.5785731  36.2276480  94.3265317 110.4090436
  37.3396870  93.3036321 110.3145741  32.6625390  87.5909550 112.7318992
  32.2923177  87.0380591 113.4199898  33.1584482  86.9867684 112.1793993
  40.5492753  90.0481174 111.1135765  41.0153205  90.8809165 111.0396068
  41.0000253  89.5826155 111.8181024  38.6168984  96.3924995 108.1121917
  38.8928828  96.2781590 109.0215792  37.7473483  95.9942480 108.0734091
  38.5209416  82.4161761 115.1526667  37.6072496  82.6465987 115.3208874
  38.9502517  82.5000205 116.0040699  38.2915874  90.6051653 117.6526561
  37.6387324  90.8527560 116.9979014  38.6696254  89.7915791 117.3189038
  35.2523048 100.6411346 111.7554731  35.4345443  99.8233002 112.2182483
  36.0756034 100.8579038 111.3179621  35.5865214  99.5679531 109.0169780
  36.1152980  99.0571985 108.4039942  35.8493433  99.2522061 109.8815313
  28.0590723  85.0013541 118.9772099  28.1232050  85.8628372 118.5649496
  27.9957844  84.3887543 118.2444457  24.3108539  88.8813103 108.5563488
  24.6061980  87.9723781 108.5030541  23.4096574  88.8600842 108.2344490
  36.2194617 100.6020367 115.3613896  36.0945757  99.8010106 114.8524842
  36.8773709 101.0966560 114.8727866  27.8402786  86.9569099 114.5391036
  27.1189371  87.5705067 114.3998510  28.6296041  87.4926864 114.4607682
  38.2829526  98.4029387 116.9893446  37.3359861  98.2834738 116.9171773
  38.6312299  97.5151885 117.0719708  30.6429099  84.2923526 120.8131688
  31.1663501  84.5385822 121.5757997  30.4241432  85.1243560 120.3934825
  26.0396380  86.5627200 108.6802813  25.7109086  85.6824579 108.4977919
  26.3935751  86.5074869 109.5679202  35.2875959  98.1982103 113.1897798
  35.1400922  97.2698810 113.3705368  36.1129453  98.2202194 112.7054874
  29.1538203  86.8500170 109.0478291  29.4934276  87.3786091 108.3256899
  29.6010324  87.1880576 109.8236857  38.8910081  99.0210662 114.2762671
  39.8156628  98.8153523 114.1387122  38.7225384  98.7727063 115.1852013
  31.8481644  85.2337221 118.4981359  31.5078465  84.4345034 118.9002038
  31.1420650  85.5338932 117.9258192  32.4998116  82.3186533 116.9508682
  33.3224185  81.8447011 116.8287572  32.7436180  83.0977017 117.4507368
  31.1406351  85.3474792 107.2471583  31.8614713  85.7256044 106.7435300
  30.5171655  86.0663668 107.3506561  35.2837473  86.0519941 108.1829916
  35.5001088  86.9344578 107.8818744  34.8031541  85.6606154 107.4535558
  30.0236695  89.0105654 114.7600660  29.8781276  89.3245957 115.6524942
  29.5461898  89.6290554 114.2071559  31.8833078  86.0008202 114.8081550
  31.8694646  85.1049295 114.4713848  32.6005506  86.0078866 115.4419836
  33.7359208  86.4345542 116.8534677  33.4776986  87.3562613 116.8519008
  33.2044249  86.0375977 117.5435141  38.6805397  99.5396329 109.6324763
  38.8542275  98.9742752 108.8798615  39.1734288 100.3397224 109.4504253
  31.2869974  84.8822582 110.0769120  31.4085885  83.9539228 110.2760007
  30.9972016  84.8961268 109.1647435  34.1561164  82.5677493 113.2135840
  34.1782861  82.6316826 112.2587819  34.5729223  81.7282001 113.4076346
  44.5344788  92.3032752 111.2515062  44.9775934  91.5540077 110.8534186
  43.6571299  92.2942888 110.8688794  39.6680570  98.8563094 106.7321661
  40.3631474  99.4769786 106.9508975  40.0103720  98.0058445 107.0074039
  41.5671993  96.3062799 108.2608992  42.0923317  96.6450072 107.5358312
  41.4794345  95.3709814 108.0772126  41.3763774  93.7888169 120.8792918
  41.4261779  93.6238177 121.8208441  41.2677697  92.9215428 120.4890799
  30.2600033  96.4676715 108.1685007  30.4088153  97.1512179 107.5151680
  31.0666476  96.4481805 108.6834463  38.6667536  89.7719097 122.1952225
  39.5677399  89.6325562 121.9036223  38.7415511  89.9373552 123.1350402
  33.0010342  87.1485952 121.0405411  32.1313651  87.4419518 120.7688000
  33.2369822  87.7326397 121.7612675  42.8781971  96.2085111 121.1234940
  42.5866779  96.5715091 121.9598401  42.2654102  95.4952119 120.9448272
  44.0777653  93.7737990 113.6437510  44.9124544  94.2127794 113.8075070
  44.2136782  93.2976644 112.8245756  41.1269159  91.3317725 119.5914998
  41.6023281  91.5245372 118.7833849  40.2034724  91.3876911 119.3458381
  28.0152666  92.4941892 109.1746076  27.7698707  91.5904222 109.3726286
  28.1848580  92.4959043 108.2325554  35.7049375  83.3665569 118.5570832
  36.2231319  84.1026596 118.2317320  35.3504508  83.6729562 119.3917591
  27.2848313  88.2270250 106.6732237  26.5917558  88.3014605 106.0172273
  27.0400065  87.4630594 107.1953754  35.9561970  79.7865851 114.0771728
  36.2363723  79.1189040 114.7032155  36.7412577  79.9794947 113.5646392
  33.7595438  98.9624845 105.6396754  33.1869405  99.5815032 105.1867226
  34.3328232  99.5124207 106.1736676  39.8270828  88.2083485 117.8243303
  40.7788251  88.3081583 117.8455527  39.6574278  87.4161754 118.3341388
  37.8485207  85.2939069 118.0102704  37.2535140  85.5744081 117.3149193
  37.5634904  85.7832969 118.7819445  36.9792698  99.2461995 106.7705337
  37.9123371  99.1807557 106.9738212  36.8915911 100.0818262 106.3119869
  39.6080715  98.5627866 103.7309284  39.5294346  98.2287729 104.6245042
  40.4290381  99.0549634 103.7300757  42.3058906  91.4289605 116.9385603
  42.2735226  90.4905606 117.1245287  42.9159529  91.5073642 116.2051428
  34.1442237  90.2985658 102.9812807  35.0901341  90.1691866 103.0501225
  33.7656482  89.5600320 103.4582235  42.4553394  88.2200648 116.9843886
  41.9392443  87.4359105 116.7973815  43.3393343  87.8919365 117.1490406
  40.1164121  81.9641664 112.9439699  39.9188942  81.6556752 113.8283031
  40.7263827  82.6903303 113.0737629  48.1235456  92.4905612 116.0791640
  48.8538844  92.2290900 116.6399343  47.5142401  91.7534334 116.1193708
  46.2050753  90.6313474 116.6766091  45.4783916  90.4969439 116.0682582
  45.7898040  90.9390303 117.4822809  32.3285154  88.2235634 102.9167692
  31.4216609  87.9268747 102.9930406  32.6061135  87.9265452 102.0501978
  33.9447219  82.7672524 109.0711933  33.1347948  82.4219609 109.4467180
  34.6331636  82.4580068 109.6599545  35.8737768  81.8450571 110.6936230
  36.4268806  82.2646024 111.3526253  36.1107854  80.9186319 110.7359186
  31.0983938  85.0822570 103.0579671  31.9603102  85.4077468 103.3175489
  31.2834283  84.2954065 102.5452737  39.2516575  83.9551096 110.2014894
  38.6715244  84.6135900 109.8192947  38.9852508  83.1328441 109.7902312
  37.7020141  83.3556154 112.4036215  38.2019920  83.4672688 111.5950534
  38.3455749  83.0517207 113.0437023  38.0341453  86.1151186 109.2571243
  37.1467308  86.4000837 109.0391437  38.4495442  85.9544950 108.4098520
  41.3855989  86.1397707 112.9725582  42.1616379  86.6294160 113.2450199
  40.6604123  86.5655762 113.4297451  43.8228548  86.8525327 114.0299522
  44.4173038  86.6121063 113.3192831  43.8955131  86.1332457 114.6573059
  37.1784666  95.8795861 103.3519263  37.8820516  96.0845864 103.9676918
  36.4547315  96.4472623 103.6168346  38.0082477  91.6305722 109.4721533
  37.9517678  92.0874274 108.6329165  38.5610819  90.8696407 109.2944376
  41.8187283  87.4195454 110.2971652  41.5624217  87.0192090 111.1279860
  41.1940151  88.1339248 110.1721791  46.1299620  90.1591527 112.8042944
  45.5699178  90.2284717 113.5774506  45.5243124  89.9832512 112.0842440
  39.0871364  96.3178390 105.4017723  39.9216968  95.8859589 105.2195197
  38.9255707  96.1460404 106.3294617  38.7417256  92.8210504 106.7674062
  38.6866060  92.6554775 105.8262506  38.1163311  93.5286536 106.9236252
  32.0513381  82.3218613 106.3459380  32.0392051  83.2660453 106.5027651
  32.9436803  82.1388758 106.0518842  35.8665501  78.9161389 110.6005317
  35.0997897  78.3619876 110.7462000  36.2776206  78.9883258 111.4619469
  40.3832161 108.6410946 111.4231315  39.8197026 108.5500883 110.6547603
  40.2684556 107.8210850 111.9033808  45.9631720 112.3081914 106.7345780
  45.3119699 112.8935994 106.3479794  46.7576082 112.8388109 106.7940817
  39.8887347 109.3971051 107.1332914  40.6618223 108.8500038 106.9945790
  40.2412746 110.2615300 107.3447376  42.2253624 105.5563717 104.7651364
  42.4779145 105.0345238 104.0034827  41.2878184 105.3929862 104.8678048
  47.2696907 104.5599495 112.5726107  48.0559997 104.1418918 112.2216524
  47.5335612 105.4645587 112.7407756  47.4406985 109.9972346 107.2714764
  46.8052818 110.0706972 107.9835669  47.1104391 110.5865944 106.5933843
  41.9449913 107.4591823 106.9675739  41.8286171 106.7836726 107.6356823
  42.0552173 106.9724197 106.1507892  44.2881454 106.9201970 110.6722428
  43.9239661 106.3932591 111.3835350  45.1448570 106.5300439 110.4988914
  43.9286941 101.9491870 105.6683777  44.0961343 102.8172106 106.0354248
  43.7384110 102.1119151 104.7445066  40.1374756 106.8622645 113.3686312
  39.2125252 106.7298859 113.5764003  40.3859169 107.6416865 113.8656254
  43.9076162 104.4049527 106.6530444  43.7875787 104.8506578 107.4915924
  43.2128750 104.7534845 106.0943982  49.6061228 104.8771000 107.4810778
  50.5179084 105.1098387 107.3058475  49.0970875 105.4608045 106.9185856
  46.9497203 101.0529036 115.7300639  46.0881682 101.3510290 116.0217376
  46.9759638 101.2699435 114.7981671  43.7658772 109.5971227 112.1374444
  44.2297118 109.8758930 111.3479067  43.5015570 108.6954671 111.9547535
  42.7027658 105.7194379 108.9464009  43.4051702 106.1715423 109.4137936
  42.3708287 105.0778198 109.5743903  36.4452992 103.9777932 114.2481143
  35.6552046 104.2335460 113.7721254  36.9364240 104.7926270 114.3533184
  38.3967738 104.3422511 111.2064620  37.5998901 104.4541205 111.7248115
  38.1693330 104.6809163 110.3405510  43.9421423 112.5335322 109.0226115
  43.8067098 113.3786858 109.4510963  44.4831236 112.7354599 108.2592049
  37.3950820 110.0510760 109.5954040  37.9075341 110.8454010 109.7459604
  38.0473533 109.3537050 109.5287641  39.2045705 113.1676516 111.6776793
  39.3812333 114.0894481 111.4897777  40.0002539 112.8534935 112.1071173
  47.2913887  96.0565884 117.5525008  46.9478156  96.9467525 117.4764119
  47.6592849  95.8667541 116.6894593  35.3599737 108.3799414 110.3713610
  36.1974959 108.7896423 110.1547318  35.5378005 107.4398856 110.3413804
  47.2564169 106.0474495 106.0597443  46.7410793 106.8179099 106.2985831
  46.9841478 105.3739631 106.6830505  44.8411280 100.8924196 111.1182682
  43.9852877 100.5031046 110.9388320  45.2538232 100.9716156 110.2582467
  46.3710427  98.4270539 115.5174241  45.8675223  98.3900674 114.7042047
  46.6641034  99.3363282 115.5770898  42.6153313  98.5109269 114.5240423
  43.4806310  98.3152077 114.1646313  42.6830822  98.2819620 115.4509780
  52.2298443 108.8006849 107.9950617  51.4527886 108.4618009 107.5505779
  52.9089924 108.8059473 107.3205582  47.0450472 103.9201587 107.8857224
  46.7400608 104.2347736 108.7367368  47.9980915 103.9983007 107.9284557
  45.4896904 110.0791810 109.5350178  44.9618266 109.3444570 109.2223416
  44.9884407 110.8566487 109.2890147  40.2215632 100.7411477 111.8956790
  40.7959384 100.5186658 111.1629983  40.8086614 100.8100171 112.6485391
  40.5485219 102.7715938 105.9152675  39.7122531 103.1090624 106.2361950
  40.4089989 102.6364917 104.9779812  42.5238300  97.6152725 110.6231859
  41.8702712  97.3001743 109.9988474  42.4818774  96.9928466 111.3491682
  43.6349505 107.8972021 102.5385151  42.7276566 107.6661274 102.7376300
  44.1320537 107.1009640 102.7259133  46.5417583 116.6069528 105.4581838
  45.8679282 116.9101224 106.0666795  46.9283405 117.4098608 105.1087295
  45.7576040 104.1034659 114.9479507  44.8398601 104.3249606 114.7901195
  46.1736184 104.1780969 114.0891214  46.5411088 105.5026075 110.0782187
  47.2882907 106.0147472 109.7689309  46.8102677 105.1810127 110.9386581
  44.8137738 107.9984615 107.0609142  43.9048957 107.7143648 107.1581611
  44.8432822 108.4183694 106.2012448  48.9889925 102.5383191 112.0600977
  48.2512682 102.0260577 112.3911219  49.2416698 102.0983573 111.2484253
  49.0901552  95.3159443 112.6542746  49.3960429  94.4556806 112.3668661
  49.8154157  95.9077063 112.4541740  35.3825908 105.7190129 111.0424344
  35.1850308 105.1259490 110.3175410  34.8272572 105.4142340 111.7600283
  43.3622632 105.6113236 113.1618937  43.4171242 104.6587072 113.0861414
  42.5513834 105.7672675 113.6460235  44.5113826 109.5393359 104.3997220
  44.0733256 108.8229218 103.9402857  45.2524267 109.7669474 103.8382312
  41.3014992 104.2290296 110.9209316  40.4882857 104.5284466 111.3274508
  41.7973986 103.8345984 111.6383798  52.6286941 107.8150556 110.4573539
  52.4904839 108.0052152 109.5294728  52.2723159 108.5769939 110.9141590
  40.7929067 101.8008651 116.5370551  41.4328446 101.6597410 115.8393514
  39.9606597 101.5143165 116.1609153  41.5689371 111.1011082 112.6505543
  42.3629969 110.6061402 112.4488118  40.8581063 110.5728945 112.2873249
  37.8772134 105.2454163 108.7265296  36.9469722 105.1838619 108.9435258
  37.9729606 104.7230116 107.9301937  37.7957683 101.7708976 111.3143538
  38.0564500 102.6854309 111.2052698  38.6174855 101.3033419 111.4640150
  44.7408799 116.7749200 107.6728917  44.9160554 116.3037243 108.4874539
  44.0541587 117.4014966 107.9010178  48.6325053 108.3977741 103.9929278
  48.0154224 107.6724569 103.8962330  48.1641542 109.1587101 103.6496352
  40.4223599 102.6163165 103.1150582  39.5453066 102.4951966 102.7512829
  40.8981352 101.8249243 102.8629471  46.9184175 100.7784085 113.0047308
  47.4152875 100.0254047 112.6848378  46.1471157 100.8148401 112.4390517
  48.0013956 109.5355772 110.5785731  47.0670235 109.6557234 110.4090436
  48.1790625 108.6328239 110.3145741  43.5019144 102.9201468 112.7318992
  43.1316932 102.3672508 113.4199898  43.9978237 102.3159601 112.1793993
  51.3886507 105.3773091 111.1135765  51.8546960 106.2101083 111.0396068
  51.8394008 104.9118073 111.8181024  49.4562739 111.7216913 108.1121917
  49.7322582 111.6073507 109.0215792  48.5867237 111.3234397 108.0734091
  49.3603170  97.7453678 115.1526667  48.4466250  97.9757905 115.3208874
  49.7896272  97.8292122 116.0040699  46.4258968 114.8971449 109.0169780
  46.9546735 114.3863903 108.4039942  46.6887188 114.5813979 109.8815313
  38.8984478 100.3305459 118.9772099  38.9625804 101.1920289 118.5649496
  38.8351598  99.7179460 118.2444457  35.1502293 104.2105020 108.5563488
  35.4455734 103.3015699 108.5030541  34.2490329 104.1892760 108.2344490
  38.6796540 102.2861017 114.5391036  37.9583126 102.8996985 114.3998510
  39.4689796 102.8218782 114.4607682  36.8790135 101.8919118 108.6802813
  36.5502841 101.0116497 108.4977919  37.2329505 101.8366787 109.5679202
  39.9931958 102.1792088 109.0478291  40.3328030 102.7078009 108.3256899
  40.4404078 102.5172494 109.8236857  42.6875399 100.5629138 118.4981359
  42.3472219  99.7636951 118.9002038  41.9814405 100.8630849 117.9258192
  43.3391871  97.6478451 116.9508682  44.1617940  97.1738929 116.8287572
  43.5829934  98.4268935 117.4507368  41.9800105 100.6766709 107.2471583
  42.7008468 101.0547962 106.7435300  41.3565409 101.3955586 107.3506561
  46.1231228 101.3811858 108.1829916  46.3394842 102.2636496 107.8818744
  45.6425295 100.9898072 107.4535558  40.8630449 104.3397571 114.7600660
  40.7175030 104.6537875 115.6524942  40.3855653 104.9582472 114.2071559
  42.7226832 101.3300119 114.8081550  42.7088401 100.4341213 114.4713848
  43.4399260 101.3370783 115.4419836  44.5752963 101.7637460 116.8534677
  44.3170741 102.6854530 116.8519008  44.0438003 101.3667894 117.5435141
  42.1263728 100.2114500 110.0769120  42.2479639  99.2831146 110.2760007
  41.8365770 100.2253186 109.1647435  44.9954918  97.8969410 113.2135840
  45.0176615  97.9608743 112.2587819  45.4122977  97.0573919 113.4076346
  50.5074324 114.1855011 106.7321661  51.2025229 114.8061704 106.9508975
  50.8497474 113.3350362 107.0074039  52.4065747 111.6354717 108.2608992
  52.9317071 111.9741989 107.5358312  52.3188100 110.7001732 108.0772126
  41.0993787 111.7968632 108.1685007  41.2481907 112.4804097 107.5151680
  41.9060231 111.7773722 108.6834463  38.8546420 107.8233810 109.1746076
  38.6092462 106.9196140 109.3726286  39.0242335 107.8250961 108.2325554
  38.1242068 103.5562168 106.6732237  37.4311313 103.6306523 106.0172273
  37.8793819 102.7922511 107.1953754  46.7955724  95.1157769 114.0771728
  47.0757478  94.4480958 114.7032155  47.5806331  95.3086865 113.5646392
  44.5989193 114.2916763 105.6396754  44.0263160 114.9106950 105.1867226
  45.1721986 114.8416125 106.1736676  47.8186452 114.5753913 106.7705337
  48.7517126 114.5099475 106.9738212  47.7309665 115.4110180 106.3119869
  50.4474469 113.8919783 103.7309284  50.3688101 113.5579647 104.6245042
  51.2684136 114.3841551 103.7300757  44.9835991 105.6277576 102.9812807
  45.9295096 105.4983784 103.0501225  44.6050236 104.8892238 103.4582235
  50.9557876  97.2933582 112.9439699  50.7582697  96.9848670 113.8283031
  51.5657581  98.0195221 113.0737629  43.1678908 103.5527552 102.9167692
  42.2610364 103.2560665 102.9930406  43.4454889 103.2557370 102.0501978
  44.7840974  98.0964442 109.0711933  43.9741702  97.7511527 109.4467180
  45.4725391  97.7871985 109.6599545  46.7131522  97.1742489 110.6936230
  47.2662561  97.5937942 111.3526253  46.9501609  96.2478237 110.7359186
  41.9377693 100.4114487 103.0579671  42.7996857 100.7369386 103.3175489
  42.1228037  99.6245983 102.5452737  50.0910329  99.2843014 110.2014894
  49.5108998  99.9427818 109.8192947  49.8246262  98.4620358 109.7902312
  48.5413896  98.6848071 112.4036215  49.0413674  98.7964606 111.5950534
  49.1849504  98.3809124 113.0437023  48.8735207 101.4443104 109.2571243
  47.9861062 101.7292755 109.0391437  49.2889196 101.2836867 108.4098520
  52.2249743 101.4689625 112.9725582  53.0010134 101.9586078 113.2450199
  51.4997878 101.8947679 113.4297451  48.0178421 111.2087779 103.3519263
  48.7214271 111.4137781 103.9676918  47.2941070 111.7764541 103.6168346
  48.8476231 106.9597640 109.4721533  48.7911432 107.4166191 108.6329165
  49.4004574 106.1988325 109.2944376  52.6581037 102.7487372 110.2971652
  52.4017971 102.3484008 111.1279860  52.0333905 103.4631166 110.1721791
  49.9265118 111.6470308 105.4017723  50.7610722 111.2151506 105.2195197
  49.7649461 111.4752322 106.3294617  49.5811010 108.1502421 106.7674062
  49.5259814 107.9846693 105.8262506  48.9557066 108.8578454 106.9236252
  42.8907136  97.6510530 106.3459380  42.8785806  98.5952370 106.5027651
  43.7830558  97.4680676 106.0518842  46.7059255  94.2453307 110.6005317
  45.9391651  93.6911794 110.7462000  47.1169960  94.3175176 111.4619469
  51.3878974 118.1007855 105.9152675  50.5516286 118.4382542 106.2361950
  51.2483743 117.9656835 104.9779812  51.2617354 117.9455083 103.1150582
  50.3846820 117.8243883 102.7512829  51.7375107 117.1541161 102.8629471
  48.9635822 118.8854085 106.6732237  48.2705067 118.9598440 106.0172273
  48.7187574 118.1214429 107.1953754  54.0072663 118.8819470 102.9167692
  53.1004118 118.5852582 102.9930406  54.2848644 118.5849288 102.0501978
  52.7771447 115.7406405 103.0579671  53.6390611 116.0661303 103.3175489
  52.9621792 114.9537901 102.5452737  53.7300890 112.9802448 106.3459380
  53.7179560 113.9244288 106.5027651  54.6224312 112.7972593 106.0518842
   3.1842567  32.2963980  92.1827144   2.5104265  32.5995676  92.7912102
   3.5708389  33.0993060  91.8332601   7.1499307  29.8749463  93.4566967
   7.8450212  30.4956156  93.6754282   7.4922458  29.0244814  93.7319345
   1.2414176  29.9811215  92.3642061   0.6688143  30.6001402  91.9112533
   1.8146970  30.5310576  92.8981983   4.4611436  30.2648365  93.4950643
   5.3942109  30.1993927  93.6983519   4.3734648  31.1004632  93.0365176
   7.0899452  29.5814235  90.4554591   7.0113084  29.2474099  91.3490349
   7.9109119  30.0736003  90.4546063   4.6603404  26.8982231  90.0764569
   5.3639254  27.1032233  90.6922225   3.9366053  27.4658993  90.3413653
   6.5690102  27.3364760  92.1263029   7.4035705  26.9045958  91.9440504
   6.4074444  27.1646774  93.0539924  15.1974377  37.8534411 102.2218206
  15.8352787  37.7341158 101.5181546  15.0795220  38.8015255 102.2806158
   7.8650899  39.6597315  98.1476622   7.3015764  39.5687252  97.3792909
   7.7503294  38.8397220  98.6279114  13.4450457  43.3268283  93.4591087
  12.7938437  43.9122364  93.0725100  14.2394820  43.8574478  93.5186124
   7.3706084  40.4157420  93.8578221   8.1436960  39.8686407  93.7191097
   7.7231483  41.2801670  94.0692682   9.7072362  36.5750086  91.4896671
   9.9597883  36.0531608  90.7280134   8.7696921  36.4116232  91.5923354
  14.7515645  35.5785865  99.2971414  15.5378734  35.1605288  98.9461831
  15.0154349  36.4831957  99.4653062  14.9225722  41.0158715  93.9960071
  14.2871555  41.0893342  94.7080976  14.5923129  41.6052314  93.3179150
  20.1524072  35.5161098 100.2004393  20.8849244  34.9460315 100.4342222
  19.3963428  35.1282698 100.6410898   9.4268651  38.4778192  93.6921046
   9.3104909  37.8023096  94.3602130   9.5370911  37.9910566  92.8753199
  11.7700192  37.9388340  97.3967735  11.4058399  37.4118960  98.1080657
  12.6267308  37.5486809  97.2234220  11.4105679  32.9678239  92.3929084
  11.5780081  33.8358476  92.7599555  11.2202848  33.1305521  91.4690373
  11.3894900  35.4235897  93.3775750  11.2694525  35.8692947  94.2161231
  10.6947488  35.7721214  92.8189289   9.1501792  48.1939538  97.0265882
   9.0725822  49.1447364  97.1054362   8.5463435  47.8485411  97.6840808
  17.0879966  35.8957370  94.2056084  17.9997822  36.1284757  94.0303782
  16.5789613  36.4794414  93.6431163  15.6949548  40.8783188 101.5969666
  15.0658411  41.0428902 100.8945734  15.3075210  41.2924798 102.3680630
  19.5738780  41.8137626  98.9514030  18.8889818  42.1936528  98.4011063
  19.6582629  42.4232953  99.6845977  11.2477510  40.6157596  98.8619751
  11.7115856  40.8945299  98.0724373  10.9834308  39.7141041  98.6792842
  10.1846396  36.7380749  95.6709316  10.8870440  37.1901792  96.1383242
   9.8527025  36.0964568  96.2989209  17.9435540  42.3369541 103.7231731
  18.7652983  41.9349728 103.4414412  17.9397943  42.2337775 104.6747846
  26.0341533  38.6808289 100.0716702  25.2805241  38.1115687  99.9160706
  26.1689074  38.6470954 101.0187337  11.4240161  43.5521691  95.7471421
  11.2885836  44.3973227  96.1756269  11.9649973  43.7540969  94.9837355
   4.8769558  41.0697129  96.3199346   5.3894079  41.8640380  96.4704911
   5.5292271  40.3723420  96.2532948   6.6864443  44.1862886  98.4022100
   6.8631071  45.1080850  98.2143084   7.4821276  43.8721305  98.8316479
   7.8095758  45.7041060 104.4032442   8.3603184  45.5758123 103.6309436
   6.9707234  46.0035949 104.0527335   2.8418475  39.3985784  97.0958917
   3.6793697  39.8082792  96.8792625   3.0196743  38.4585226  97.0659111
  14.7382907  37.0660864  92.7842750  14.2229531  37.8365469  93.0231137
  14.4660216  36.3926001  93.4075811  12.3230018  31.9110565  97.8427988
  11.4671614  31.5217416  97.6633627  12.7356970  31.9902526  96.9827774
  19.7117181  39.8193219  94.7195923  18.9346624  39.4804379  94.2751085
  20.3908662  39.8245842  94.0450888  14.5269210  34.9387956  94.6102531
  14.2219346  35.2534106  95.4612674  15.4799652  35.0169376  94.6529864
  12.9715642  41.0978180  96.2595485  12.4437004  40.3630939  95.9468723
  12.4703145  41.8752856  96.0135453  17.9508488  39.2927200 101.3762531
  17.2932163  39.9826462 101.4642660  18.7548887  39.6823632 101.7196518
  16.7613947  37.6471573  99.4266473  17.2745829  38.2801565  99.9288183
  17.4115171  37.0472768  99.0609833   8.0303957  33.7902307  92.6397982
   7.1941269  34.1276994  92.9607257   7.8908726  33.6551287  91.7025119
  11.1168242  38.9158390  89.2630458  10.2095304  38.6847644  89.4621607
  11.6139274  38.1196009  89.4504440  14.0236321  47.6255897  92.1827144
  13.3498020  47.9287594  92.7912102  14.4102143  48.4284978  91.8332601
  14.0229826  36.5212444  96.8027494  14.7701645  37.0333841  96.4934616
  14.2921415  36.1996497  97.6631887  12.2956476  39.0170985  93.7854448
  11.3867695  38.7330018  93.8826918  12.3251560  39.4370064  92.9257755
  17.5275743  42.6277574  97.5545616  17.0738070  41.7868484  97.6110806
  16.8969710  43.2638973  97.8920396  16.4708663  33.5569560  98.7846283
  15.7331420  33.0446947  99.1156526  16.7235436  33.1169942  97.9729560
  15.9708682  44.4654071  98.4895434  16.2631657  45.0259128  97.7707800
  16.4807303  44.7582632  99.2448593  10.8441370  36.6299606  99.8864244
  10.8989980  35.6773442  99.8106720  10.0332572  36.7859045 100.3705542
  11.9932564  40.5579729  91.1242527  11.5551993  39.8415588  90.6648164
  12.7343004  40.7855843  90.5627618   8.7833730  35.2476665  97.6454622
   7.9701595  35.5470836  98.0519815   9.2792724  34.8532354  98.3629105
  10.9342308  45.2434422  99.5788887  10.8918486  45.4695269  98.6497419
  11.8505006  45.0097797  99.7274688  20.1105678  38.8336926  97.1818845
  19.9723577  39.0238522  96.2540035  19.7541897  39.5956308  97.6386896
  20.1375058  40.9013453 102.1930117  20.5711565  40.8088742 103.0413171
  20.8506639  40.8770953 101.5550133   9.0508108  42.1197451  99.3750850
   9.8448707  41.6247771  99.1733425   8.3399801  41.5915314  99.0118555
  13.8702953  44.5015547 103.7263217  13.9239975  45.0706483 104.4940933
  13.0017734  44.6717432 103.3617255   5.3590872  36.2640533  95.4510603
   4.4288460  36.2024988  95.6680565   5.4548344  35.7416486  94.6547244
  20.9990608  40.9437153 104.7263002  21.1926498  41.8482964 104.9722277
  20.8991226  40.4844572 105.5601587  11.6279384  42.6926473 103.0548687
  11.4890470  42.3245258 103.9274625  10.8393981  43.2074113 102.8832645
  12.2227536  47.7935570  94.3974223  12.3979292  47.3223613  95.2119846
  11.5360324  48.4201336  94.6255484  13.1784600  42.0708076 100.4437525
  12.8434432  42.0308846 101.3395175  12.6788545  41.4052792  99.9707935
  16.1143791  39.4164110  90.7174584  15.4972962  38.6910938  90.6207637
  15.6460280  40.1773471  90.3741659   6.7888622  50.9424932 101.1714084
   7.0285220  51.5743457 101.8493102   5.9457818  50.5912972 101.4579443
   7.9042337  33.6349535  89.8395889   7.0271803  33.5138335  89.4758135
   8.3800090  32.8435613  89.5874777  11.3016483  46.7504055 103.5755588
  11.2286655  47.5559026 104.0874892  10.8593877  46.9496021 102.7503609
  11.0906263  45.9875825  97.0858409  10.3073785  46.5297505  97.1796634
  11.7899008  46.5049805  97.4852650  22.2532671  37.5010820 101.3710906
  22.2422547  38.3835535 101.0004839  21.3850050  37.1482371 101.1765443
  13.7615167  46.6490889 105.7313746  14.4743139  47.2838354 105.6589648
  13.2705196  46.7454755 104.9153748  15.4832694  40.5542142  97.3031038
  14.5488973  40.6743604  97.1335742  15.6609362  39.6514608  97.0391048
  18.8705245  36.3959461  97.8381072  19.3365697  37.2287452  97.7641375
  19.3212746  35.9304442  98.5426331  16.9381476  42.7403282  94.8367224
  17.2141320  42.6259877  95.7461098  16.0685975  42.3420767  94.7979397
  13.5735540  46.9889633  98.4800038  13.7557935  46.1711289  98.9427790
  14.3968526  47.2057325  98.0424928  13.9077706  45.9157818  95.7415086
  14.4365472  45.4050273  95.1285248  14.1705925  45.6000348  96.6060619
   7.2633454  46.9672935  98.5012862   6.5943829  47.4519062  98.0176902
   7.1246324  47.2142155  99.4156241  11.4038722  49.0016678 105.0995521
  11.9557030  49.1648300 105.8644606  11.7444916  49.5921116 104.4275545
   2.6321031  35.2291390  95.2808794   2.9274472  34.3202068  95.2275848
   1.7309067  35.2079129  94.9589797  14.5407110  46.9498654 102.0859203
  14.4158249  46.1488394 101.5770148  15.1986201  47.4444847 101.5973173
  16.6042018  44.7507674 103.7138753  15.6572354  44.6313025 103.6417079
  16.9524791  43.8630172 103.7965014  13.6088451  44.5460390  99.9143105
  13.4613414  43.6177098 100.0950675  14.4341945  44.5680481  99.4300180
   7.4750696  33.1978457  95.7723597   7.8146768  33.7264379  95.0502206
   7.9222816  33.5358863  96.5482164  17.2122573  45.3688949 101.0007978
  18.1369121  45.1631810 100.8632429  17.0437877  45.1205350 101.9097319
   9.4618843  31.6953079  93.9716890  10.1827205  32.0734332  93.4680607
   8.8384147  32.4141956  94.0751868  13.6049966  32.3998228  94.9075222
  13.8213580  33.2822866  94.6064050  13.1244033  32.0084441  94.1780864
  17.0017889  45.8874616  96.3570069  17.1754767  45.3221039  95.6043922
  17.4946781  46.6875511  96.1749559  22.8557281  38.6511039  97.9760369
  23.2988427  37.9018364  97.5779492  21.9783791  38.6421176  97.5934101
  17.9893062  45.2041381  93.4566967  18.6843967  45.8248073  93.6754282
  18.3316212  44.3536732  93.7319345  19.8884485  42.6541086  94.9854298
  20.4135809  42.9928359  94.2603618  19.8006838  41.7188102  94.8017433
  11.5725146  48.7213070  99.3449551  11.1330136  48.2289448 100.0382408
  12.3233263  48.1786037  99.1041627   4.0517485  44.9124610  99.3474180
   4.8775505  44.6128382  98.9672823   3.7011537  44.1432233  99.7963968
   9.0199018  44.2651079 101.4171853   8.3979027  43.6021784 101.1174081
   9.6903885  44.2912211 100.7345501   8.5812525  42.8155002  94.8930314
   8.7300645  43.4990466  94.2396986   9.3878968  42.7960092  95.4079769
  22.3990145  40.1216278 100.3682817  23.2337037  40.5606082 100.5320377
  22.5349274  39.6454931  99.5491062   6.3365158  38.8420180  95.8991383
   6.0911200  37.9382510  96.0971593   6.5061072  38.8437330  94.9570861
   5.6060805  34.5748537  93.3977544   4.9130050  34.6492892  92.7417580
   5.3612557  33.8108881  93.9199061  12.0807930  45.3103132  92.3642061
  11.5081897  45.9293320  91.9112533  12.6540724  45.8602494  92.8981983
  15.3005190  45.5940283  93.4950643  16.2335863  45.5285844  93.6983519
  15.2128403  46.4296549  93.0365176  17.9293207  44.9106153  90.4554591
  17.8506838  44.5766017  91.3490349  18.7502874  45.4027921  90.4546063
  20.6271398  37.7767892 103.6630910  20.5947718  36.8383893 103.8490593
  21.2372022  37.8551929 102.9296734  12.4654729  36.6463945  89.7058114
  13.4113834  36.5170153  89.7746532  12.0868974  35.9078607  90.1827542
  26.4447948  38.8383899 102.8036946  27.1751336  38.5769187 103.3644650
  25.8354893  38.1012621 102.8439014  24.5263245  36.9791762 103.4011398
  23.7996409  36.8447727 102.7927889  24.1110532  37.2868590 104.2068116
  10.6497646  34.5713922  89.6412999   9.7429101  34.2747034  89.7175712
  10.9273627  34.2743740  88.7747285  12.2659712  29.1150811  95.7957240
  11.4560440  28.7697896  96.1712486  12.9544129  28.8058355  96.3844852
   9.4196431  31.4300857  89.7824978  10.2815595  31.7555755  90.0420795
   9.6046775  30.6432353  89.2698044  17.5729067  30.3029383  96.9260201
  16.9927736  30.9614187  96.5438253  17.3065000  29.4806728  96.5147618
  16.3553945  32.4629474  95.9816549  15.4679800  32.7479124  95.7636744
  16.7707934  32.3023237  95.1343826  19.7068481  32.4875995  99.6970888
  20.4828871  32.9772447  99.9695505  18.9816615  32.9134049 100.1542758
  22.1441040  33.2003614 100.7544829  22.7385531  32.9599350 100.0438137
  22.2167624  32.4810744 101.3818365   4.3638196  47.0437225 101.0687994
   4.2292664  46.2837626 100.5025992   3.9470258  47.7678125 100.6016783
  15.4997159  42.2274148  90.0764569  16.2033009  42.4324151  90.6922225
  14.7759807  42.7950910  90.3413653  16.3294969  37.9784010  96.1966839
  16.2730170  38.4352561  95.3574472  16.8823311  37.2174694  96.0189682
  20.1399775  33.7673741  97.0216959  19.8836709  33.3670377  97.8525167
  19.5152643  34.4817535  96.8967098  24.4512113  36.5069815  99.5288250
  23.8911671  36.5763004 100.3019812  23.8455616  36.3310799  98.8087747
   7.5207321  47.9406542 101.2806437   7.4039706  48.8851974 101.1785127
   6.6999768  47.6380103 101.6692236  17.4083856  42.6656678  92.1263029
  18.2429460  42.2337876  91.9440504  17.2468199  42.4938691  93.0539924
  17.0629748  39.1688791  93.4919369  17.0078552  39.0033062  92.5507813
  16.4375803  39.8764824  93.6481558  10.3725874  28.6696900  93.0704687
  10.3604543  29.6138740  93.2272958  11.2649296  28.4867045  92.7764148
   8.5461836  48.5934804 104.4962365   9.4489082  48.6258414 104.8128860
   8.3199206  47.6635255 104.5108701  10.3015438  47.3465790 101.1572444
   9.3511069  47.3467652 101.0436816  10.6047924  46.5998525 100.6408478
  26.0368131  53.1826329 102.2218206  26.6746541  53.0633076 101.5181546
  25.9188974  54.1307173 102.2806158  22.8457837  53.1353757 102.1579731
  22.5076349  53.0194821 101.2700266  23.7147606  52.7344922 102.1380737
  18.7044653  54.9889233  98.1476622  18.1409518  54.8979170  97.3792909
  18.5897048  54.1689138  98.6279114  23.3277620  54.2888608 108.1165936
  23.3166261  53.8941407 107.2446440  23.4898260  53.5554681 108.7099708
  16.2509085  56.4840425 100.9860842  17.0430377  56.1431249 100.5707141
  16.4905735  56.5935400 101.9062995  24.2844212  58.6560201  93.4591087
  23.6332192  59.2414281  93.0725100  25.0788575  59.1866396  93.5186124
  18.2099839  55.7449338  93.8578221  18.9830715  55.1978325  93.7191097
  18.5625238  56.6093587  94.0692682  20.0484882  57.0725720 107.0645120
  19.7574747  57.9771351 106.9491787  20.6841866  57.1142248 107.7789190
  20.9741088  54.4502569 103.6546480  21.5704661  54.2258591 102.9403443
  21.0316060  53.7087314 104.2571928  20.5466117  51.9042004  91.4896671
  20.7991637  51.3823525  90.7280134  19.6090676  51.7408150  91.5923354
  25.5909400  50.9077782  99.2971414  26.3772489  50.4897206  98.9461831
  25.8548104  51.8123875  99.4653062  25.7619477  56.3450633  93.9960071
  25.1265310  56.4185259  94.7080976  25.4316883  56.9344232  93.3179150
  20.2662406  53.8070110  93.6921046  20.1498664  53.1315013  94.3602130
  20.3764665  53.3202484  92.8753199  22.6093946  53.2680257  97.3967735
  22.2452154  52.7410878  98.1080657  23.4661062  52.8778726  97.2234220
  28.5143247  44.5574590 104.6599001  28.1826572  45.4270001 104.4360216
  27.9188860  44.2410874 105.3393032  22.2499433  48.2970157  92.3929084
  22.4173836  49.1650393  92.7599555  22.0596602  48.4597439  91.4690373
  25.0074767  56.7587136 104.0594914  24.7075490  57.6612175 103.9510721
  24.6625826  56.4919319 104.9116067  18.4587248  53.2100933 100.0931618
  17.5337745  53.0777147 100.3009310  18.7071661  53.9895152 100.5901561
  28.4071910  49.2769676 101.7392351  27.4988788  49.2085084 101.4451112
  28.3559506  49.7541621 102.5674177  22.2288654  50.7527814  93.3775750
  22.1088279  51.1984865  94.2161231  21.5341243  51.1013132  92.8189289
  15.8196059  52.8534206 100.9275407  15.9488440  53.1068685 101.8414819
  15.1393510  53.4461914 100.6080062  19.9895546  63.5231456  97.0265882
  19.9119576  64.4739281  97.1054362  19.3857190  63.1777329  97.6840808
  22.4812776  50.6959322 109.6827249  21.7046110  51.2553242 109.6730113
  23.1203339  51.1816105 110.2042119  30.2733557  47.4786114 103.5170225
  29.6307937  47.7718648 102.8710020  29.7688485  47.3639035 104.3223422
  27.9273720  51.2249288  94.2056084  28.8391577  51.4576674  94.0303782
  27.4183368  51.8086332  93.6431163  20.7359148  53.5044775 109.2445216
  21.4773833  54.0429819 108.9680039  20.0296134  54.1311064 109.4016767
  26.2114488  55.6473915 107.8417377  26.6197844  55.2056326 107.0972009
  25.4891750  55.0726543 108.0951570  22.5645558  50.5846522 105.2150934
  23.4106753  51.0085936 105.3585583  22.5044196  49.9280146 105.9089497
  26.5343303  56.2075106 101.5969666  25.9052165  56.3720820 100.8945734
  26.1468965  56.6216716 102.3680630  30.4132535  57.1429544  98.9514030
  29.7283573  57.5228445  98.4011063  30.4976384  57.7524871  99.6845977
  25.7145003  48.2450891 106.8732108  25.4705935  48.9992951 106.3366383
  25.9904934  48.6236238 107.7079355  27.6683466  54.7889503 105.5509373
  27.8800362  55.4321263 104.8743754  27.6213215  53.9551819 105.0831303
  25.2709695  47.4007324 102.4545945  24.4094174  47.6988577 102.7462683
  25.2972130  47.6177722 101.5226978  22.0871265  55.9449514  98.8619751
  22.5509610  56.2237217  98.0724373  21.8228063  55.0432959  98.6792842
  18.9795346  55.4920996 101.7999514  19.5496703  55.9208264 101.1616999
  19.5703458  55.2103580 102.4983700  21.0240151  52.0672666  95.6709316
  21.7264194  52.5193710  96.1383242  20.6920779  51.4256485  96.2989209
  19.4720512  50.6584423 110.0460526  18.8419173  51.3400704 110.2795922
  19.3656600  50.5467505 109.1013664  14.7665485  50.3256219 100.9726450
  13.9764539  50.5813748 100.4966560  15.2576732  51.1404557 101.0778490
  28.7829294  57.6661458 103.7231731  29.6046738  57.2641646 103.4414412
  28.7791697  57.5629692 104.6747846  16.7180230  50.6900798  97.9309926
  15.9211393  50.8019493  98.4493422  16.4905822  51.0287451  97.0650817
  22.5485898  57.2145502 105.8792441  22.6130330  57.6765909 106.7150613
  21.8396822  56.5842867 106.0074751  13.0503188  50.5786710 103.4041440
  13.3011226  51.4633719 103.6699016  13.5862736  50.3991311 102.6316532
  22.2633915  58.8813609  95.7471421  22.1279590  59.7265145  96.1756269
  22.8043728  59.0832887  94.9837355  15.7163313  56.3989047  96.3199346
  16.2287833  57.1932297  96.4704911  16.3686026  55.7015338  96.2532948
  17.5258197  59.5154803  98.4022100  17.7024826  60.4372768  98.2143084
  18.3215031  59.2013223  98.8316479  21.6669216  46.3763068 110.0006033
  22.4078929  46.9770221 109.9210496  21.8987139  45.6340706 109.4424076
  16.8110554  51.5619435 108.2784263  16.6964069  50.6604693 108.5791362
  15.9555072  51.8083132 107.9269079  23.8902392  59.5037176 109.8771763
  23.4466246  58.7173554 109.5592668  24.5519605  59.6916326 109.2115654
  18.6489513  61.0332977 104.4032442  19.1996938  60.9050041 103.6309436
  17.8100989  61.3327866 104.0527335  25.9883630  59.7839976 107.9053165
  25.9702105  60.6048857 107.4133434  26.9103550  59.6594051 108.1303306
  22.4456684  57.2984105 108.7476673  22.9785021  56.5372393 108.5175981
  21.9170765  57.0057757 109.4900828  25.6126379  42.4044171 104.2770315
  25.2690648  43.2945813 104.2009425  25.9805341  42.2145829 103.4139900
  13.6812229  54.7277701  97.0958917  14.5187451  55.1374710  96.8792625
  13.8590497  53.7877144  97.0659111  25.5776662  52.3952782  92.7842750
  25.0623285  53.1657387  93.0231137  25.3053970  51.7217918  93.4075811
  23.1623773  47.2402483  97.8427988  22.3065369  46.8509333  97.6633627
  23.5750724  47.3194444  96.9827774  24.6922919  44.7748826 102.2419548
  24.1887715  44.7378961 101.4287353  24.9853526  45.6841569 102.3016205
  20.9365805  44.8587556 101.2485730  21.8018802  44.6630365 100.8891619
  21.0043314  44.6297908 102.1755087  25.3662965  50.2679874  94.6102531
  25.0613100  50.5826023  95.4612674  26.3193407  50.3461294  94.6529864
  23.8109397  56.4270097  96.2595485  23.2830758  55.6922857  95.9468723
  23.3096899  57.2044774  96.0135453  28.7902243  54.6219118 101.3762531
  28.1325917  55.3118379 101.4642660  29.5942642  55.0115550 101.7196518
  18.5428124  47.0889764  98.6202097  19.1171876  46.8664945  97.8875290
  19.1299107  47.1578458  99.3730698  27.6007701  52.9763491  99.4266473
  28.1139583  53.6093482  99.9288183  28.2508925  52.3764686  99.0609833
  18.8697711  49.1194225  92.6397982  18.0335024  49.4568911  92.9607257
  18.7302481  48.9843205  91.7025119  20.8450792  43.9631013  97.3477166
  20.1915204  43.6480030  96.7233781  20.8031266  43.3406753  98.0736989
  21.9561997  54.2450308  89.2630458  21.0489059  54.0139561  89.4621607
  22.4533029  53.4487927  89.4504440  24.8630076  62.9547815  92.1827144
  24.1891774  63.2579512  92.7912102  25.2495898  63.7576895  91.8332601
  24.0788532  50.4512946 101.6724814  23.1611094  50.6727893 101.5146502
  24.4948676  50.5259257 100.8136521  24.8623580  51.8504362  96.8027494
  25.6095399  52.3625759  96.4934616  25.1315170  51.5288415  97.6631887
  23.1350230  54.3462903  93.7854448  22.2261450  54.0621935  93.8826918
  23.1645314  54.7661981  92.9257755  28.3669498  57.9569492  97.5545616
  27.9131825  57.1160402  97.6110806  27.7363464  58.5930890  97.8920396
  27.3102417  48.8861478  98.7846283  26.5725174  48.3738864  99.1156526
  27.5629191  48.4461860  97.9729560  26.8102437  59.7945989  98.4895434
  27.1025411  60.3551046  97.7707800  27.3201057  60.0874550  99.2448593
  27.4114045  41.6637730  99.3788052  27.7172921  40.8035094  99.0913968
  28.1366649  42.2555350  99.1787046  13.7038401  52.0668417  97.7669650
  13.5062800  51.4737777  97.0420717  13.1485065  51.7620627  98.4845589
  21.6835124  51.9591523  99.8864244  21.7383734  51.0065360  99.8106720
  20.8726326  52.1150962 100.3705542  22.8326318  55.8871646  91.1242527
  22.3945748  55.1707505  90.6648164  23.5736759  56.1147761  90.5627618
  19.6227484  50.5768583  97.6454622  18.8095350  50.8762754  98.0519815
  20.1186478  50.1824272  98.3629105  21.7736062  60.5726340  99.5788887
  21.7312241  60.7987186  98.6497419  22.6898761  60.3389714  99.7274688
  25.2201696  51.0410407 106.4769516  25.5751084  51.2681881 107.3363982
  25.8673827  51.3728784 105.8546772  19.1141559  48.1486938 103.2615857
  19.7540938  48.0075698 102.5638821  18.2819090  47.8621452 102.8854459
  30.9768812  56.2305370 102.1930117  31.4105319  56.1380659 103.0413171
  31.6900393  56.2062871 101.5550133  19.8901863  57.4489369  99.3750850
  20.6842461  56.9539689  99.1733425  19.1793555  56.9207232  99.0118555
  24.7096707  59.8307464 103.7263217  24.7633730  60.3998401 104.4940933
  23.8411489  60.0009349 103.3617255  16.1984626  51.5932451  95.4510603
  15.2682214  51.5316906  95.6680565  16.2942098  51.0708403  94.6547244
  16.1170175  48.1187263  98.0388844  16.3776993  49.0332597  97.9298005
  16.9387348  47.6511706  98.1885457  17.5895101  49.5325021 105.2087669
  18.2618154  49.3242383 104.5600318  16.7624887  49.3347107 104.7692901
  31.8384362  56.2729071 104.7263002  32.0320252  57.1774881 104.9722277
  31.7384980  55.8136490 105.5601587  23.4920673  46.1586962 107.2253330
  22.8448588  46.8576911 107.1317806  24.2621688  46.5923105 107.5929578
  26.8999471  56.4235814 110.3003883  26.7484977  56.1946365 109.3833967
  26.8904150  57.3806415 110.3135228  23.6684807  53.9967726 105.2850149
  24.5976867  54.1478886 105.1119117  23.2475837  54.0851747 104.4298796
  22.4673139  58.0218391 103.0548687  22.3284225  57.6537175 103.9274625
  21.6787735  58.5366030 102.8832645  23.0621291  63.1227487  94.3974223
  23.2373047  62.6515531  95.2119846  22.3754079  63.7493254  94.6255484
  24.0178354  57.3999994 100.4437525  23.6828187  57.3600764 101.3395175
  23.5182300  56.7344710  99.9707935  17.9922598  52.8067624 105.9690106
  17.8542396  52.0747862 106.5701645  18.9027521  52.7176524 105.6874294
  20.6204899  52.5187583 105.4573786  21.3304517  51.8780775 105.4160404
  20.5774207  52.7700478 106.3799966  28.6091677  59.4554936 108.3780365
  28.5504223  58.7714156 107.7110948  29.0111196  60.1973926 107.9260991
  19.3333833  49.5052801 107.2769425  18.7971190  49.0543539 107.9291021
  18.7450541  49.6398710 106.5339889  17.6282376  66.2716850 101.1714084
  17.8678974  66.9035374 101.8493102  16.7851573  65.9204890 101.4579443
  18.7436092  48.9641452  89.8395889  17.8665558  48.8430253  89.4758135
  19.2193845  48.1727531  89.5874777  28.6109085  57.4194520 106.6094344
  27.7235863  57.0820442 106.7320743  29.1807636  56.6877551 106.8463110
  10.2638232  53.7518612  99.9337396  10.9509272  53.4380342  99.3458411
  10.1086360  54.6559977  99.6604647  15.0672954  48.6408809 104.3622419
  14.9831143  48.0334478 103.6272829  14.2455660  49.1317827 104.3631916
  22.1410238  62.0795973 103.5755588  22.0680409  62.8850944 104.0874892
  21.6987631  62.2787938 102.7503609  21.9300018  61.3167743  97.0858409
  21.1467539  61.8589423  97.1796634  22.6292763  61.8341722  97.4852650
  25.2396668  47.1262372  99.7292615  25.7365367  46.3732334  99.4093685
  24.4683649  47.1626689  99.1635824  33.0926425  52.8302738 101.3710906
  33.0816301  53.7127453 101.0004839  32.2243805  52.4774288 101.1765443
  24.6008922  61.9782807 105.7313746  25.3136894  62.6130271 105.6589648
  24.1098950  62.0746673 104.9153748  26.3226448  55.8834059  97.3031038
  25.3882727  56.0035522  97.1335742  26.5003117  54.9806526  97.0391048
  21.8231636  49.2679755  99.4564299  21.4529424  48.7150795 100.1445205
  22.3190729  48.6637889  98.9039299  19.6520835  59.7277250 106.5519317
  20.3530295  60.3613733 106.7048711  19.1815950  60.0691982 105.7914956
  27.6815663  44.0931966 101.8771973  26.7678742  44.3236192 102.0454180
  28.1108764  44.1770410 102.7286006  27.4522121  52.2821858 104.3771867
  26.7993571  52.5297765 103.7224320  27.8302501  51.4685996 104.0434345
  24.4129295  62.3181551  98.4800038  24.5951689  61.5003207  98.9427790
  25.2362281  62.5349243  98.0424928  24.7471460  61.2449736  95.7415086
  25.2759227  60.7342190  95.1285248  25.0099680  60.9292266  96.6060619
  23.5009694  53.0241669 110.8637905  22.8250331  52.9235798 111.5340280
  24.3237328  52.8680882 111.3273902  15.2488553  59.2613605 103.4850420
  15.8341990  58.5157293 103.6178324  15.0513392  59.5717562 104.3687084
  18.1027208  62.2964853  98.5012862  17.4337584  62.7810980  98.0176902
  17.9640078  62.5434073  99.4156241   9.8406208  51.8319205 102.2054863
   9.8790307  51.2982796 102.9991981   9.3346501  51.3054411 101.5865840
  22.2432477  64.3308596 105.0995521  22.7950785  64.4940218 105.8644606
  22.5838670  64.9213034 104.4275545  17.2196970  46.6783746 105.7017405
  17.2838297  47.5398577 105.2894803  17.1564090  46.0657747 104.9689764
  27.0943351  59.1569854 110.9544175  27.6383255  59.7699812 110.4599130
  26.5130196  59.7149432 111.4711188  13.4714785  50.5583307  95.2808794
  13.7668226  49.6493986  95.2275848  12.5702821  50.5371047  94.9589797
  25.3800864  62.2790572 102.0859203  25.2552004  61.4780311 101.5770148
  26.0379955  62.7736765 101.5973173  17.0009032  48.6339304 101.2636343
  16.2795618  49.2475272 101.1243816  17.7902288  49.1697069 101.1852989
  19.8035346  45.9693731 107.5376995  20.3269748  46.2156027 108.3003304
  19.5847679  46.8013765 107.1180132  15.2002627  48.2397405  95.4048119
  14.8715333  47.3594784  95.2223225  15.5541998  48.1845074  96.2924509
  24.4482206  59.8752308  99.9143105  24.3007168  58.9469015 100.0950675
  25.2735699  59.8972399  99.4300180  18.3144450  48.5270375  95.7723597
  18.6540523  49.0556296  95.0502206  18.7616571  48.8650781  96.5482164
  28.0516328  60.6980867 101.0007978  28.9762875  60.4923728 100.8632429
  27.8831631  60.4497268 101.9097319  21.0087891  46.9107426 105.2226665
  20.6684711  46.1115239 105.6247345  20.3026897  47.2109136 104.6503498
  21.6604363  43.9956738 103.6753988  22.4830432  43.5217216 103.5532879
  21.9042426  44.7747222 104.1752675  20.3012597  47.0244997  93.9716890
  21.0220960  47.4026249  93.4680607  19.6777901  47.7433873  94.0751868
  24.4443720  47.7290145  94.9075222  24.6607335  48.6114783  94.6064050
  23.9637787  47.3376359  94.1780864  19.1842942  50.6875859 101.4845967
  19.0387522  51.0016162 102.3770248  18.7068145  51.3060759 100.9316865
  21.0439324  47.6778407 101.5326856  21.0300893  46.7819500 101.1959154
  21.7611753  47.6849070 102.1665142  22.8965455  48.1115747 103.5779984
  22.6383233  49.0332818 103.5764314  22.3650496  47.7146181 104.2680448
  27.8411644  61.2166534  96.3570069  28.0148521  60.6512957  95.6043922
  28.3340535  62.0167429  96.1749559  13.6588604  53.2281203 104.4233628
  13.1142072  54.0041011 104.5553902  14.5367954  53.5752008 104.2652749
  20.4476220  46.5592787  96.8014427  20.5692132  45.6309433  97.0005314
  20.1578263  46.5731473  95.8892742  23.3167411  44.2447697  99.9381146
  23.3389108  44.3087031  98.9833126  23.7335470  43.4052206 100.1321653
  14.4454626  52.3551099 107.3163785  13.7036362  52.5033735 107.9028415
  14.1247370  52.6159365 106.4530534  22.3898288  61.8967078 107.1144175
  22.6985415  61.6516224 107.9866874  23.1873770  62.1013716 106.6263045
  22.4118900  64.0504987  99.3449551  21.9723891  63.5581366 100.0382408
  23.1627017  63.5077955  99.1041627  14.8911239  60.2416528  99.3474180
  15.7169259  59.9420300  98.9672823  14.5405291  59.4724151  99.7963968
  19.8592772  59.5942996 101.4171853  19.2372782  58.9313701 101.1174081
  20.5297639  59.6204128 100.7345501  13.0919844  58.1602855 100.3063113
  12.2551753  57.7325029 100.1247114  13.0643490  58.3535298 101.2433904
  30.4172146  58.6165908 110.2905496  29.6267689  58.5990046 109.7509996
  30.1805500  59.1554201 111.0454533  30.5370021  55.4658374 107.6038225
  30.5868026  55.3008381 108.5453748  30.4283944  54.5985633 107.2136106
  19.4206279  58.1446920  94.8930314  19.5694400  58.8282384  94.2396986
  20.2272723  58.1252010  95.4079769  27.8273783  51.4489302 108.9197531
  28.7283646  51.3095767 108.6281529  27.9021758  51.6143757 109.8595709
  22.1616588  48.8256157 107.7650718  21.2919898  49.1189723 107.4933306
  22.3976069  49.4096602 108.4857981  32.0388217  57.8855315 107.8480246
  31.7473026  58.2485296 108.6843707  31.4260349  57.1722324 107.6693578
  30.2875406  53.0087930 106.3160304  30.7629527  53.2015576 105.5079156
  29.3640971  53.0647116 106.0703688  17.1758912  54.1712097  95.8991383
  16.9304954  53.2674427  96.0971593  17.3454827  54.1729248  94.9570861
  24.8655622  45.0435774 105.2816138  25.3837566  45.7796801 104.9562627
  24.5110755  45.3499767 106.1162897  16.4454560  49.9040455  93.3977544
  15.7523805  49.9784810  92.7417580  16.2006312  49.1400799  93.9199061
  25.1168216  41.4636056 100.8017035  25.3969970  40.7959245 101.4277461
  25.9018823  41.6565152 100.2891699  22.9201685  60.6395050  92.3642061
  22.3475652  61.2585237  91.9112533  23.4934479  61.1894412  92.8981983
  28.9877075  49.8853690 104.5488610  29.9394498  49.9851788 104.5700834
  28.8180525  49.0931959 105.0586694  27.0091454  46.9709273 104.7348011
  26.4141386  47.2514286 104.0394499  26.7241151  47.4603174 105.5064752
  26.1398945  60.9232200  93.4950643  27.0729618  60.8577762  93.6983519
  26.0522157  61.7588467  93.0365176  28.7686961  60.2398071  90.4554591
  28.6900593  59.9057934  91.3490349  29.5896628  60.7319839  90.4546063
  31.4665152  53.1059810 103.6630910  31.4341473  52.1675811 103.8490593
  32.0765776  53.1843847 102.9296734  23.3048483  51.9755863  89.7058114
  24.2507588  51.8462071  89.7746532  22.9262728  51.2370525  90.1827542
  31.6159641  49.8970853 103.7089193  31.0998690  49.1129310 103.5219122
  32.4999590  49.5689570 103.8735712  29.2770368  43.6411869  99.6685005
  29.0795189  43.3326957 100.5528337  29.8870073  44.3673508  99.7982935
  35.3656999  52.3083679 103.4011398  34.6390163  52.1739644 102.7927889
  34.9504286  52.6160508 104.2068116  23.1887176  56.0273609 111.1658771
  24.1090185  56.2052208 111.3598817  23.1536759  55.0829654 111.0138470
  21.4891401  49.9005839  89.6412999  20.5822856  49.6038952  89.7175712
  21.7667382  49.6035657  88.7747285  12.4069341  51.2212203 100.0912045
  12.0872125  50.3677511  99.7986419  11.8602769  51.4360781 100.8470013
  16.1849248  53.9374644 103.8081552  16.4035258  54.8691751 103.8269586
  16.5975022  53.5782618 104.5936356  23.1053466  44.4442729  95.7957240
  22.2954195  44.0989814  96.1712486  23.7937883  44.1350273  96.3844852
  25.0344015  43.5220776  97.4181537  25.5875053  43.9416229  98.0771560
  25.2714101  42.5956524  97.4604493  20.2590185  46.7592774  89.7824978
  21.1209349  47.0847673  90.0420795  20.4440529  45.9724270  89.2698044
  12.2757601  54.8415114 102.0605167  11.5821072  54.4269067 101.5475121
  13.0230592  54.8835651 101.4638586  28.4122822  45.6321301  96.9260201
  27.8321491  46.2906105  96.5438253  28.1458754  44.8098646  96.5147618
  26.8626388  45.0326359  99.1281521  27.3626166  45.1442893  98.3195840
  27.5061996  44.7287411  99.7682330  20.9208384  52.9404988 112.0149362
  20.4375466  53.7405348 112.2213251  21.0069323  52.9512933 111.0616806
  14.1894343  54.7733368  99.9371182  14.1665032  54.8721055  98.9853065
  14.4994980  55.6198519 100.2588348  16.8481721  56.8309523 104.0517796
  17.8024975  56.7993465 103.9847728  16.6494245  56.3700147 104.8668022
  17.4381103  55.4010639 106.6188594  18.2573992  55.8954718 106.6423431
  17.7117911  54.4842607 106.5906161  27.1947700  47.7921391  95.9816549
  26.3073555  48.0771042  95.7636744  27.6101689  47.6315155  95.1343826
  15.2031950  62.3729142 101.0687994  15.0686418  61.6129543 100.5025992
  14.7864012  63.0970042 100.6016783  27.1688723  53.3075927  96.1966839
  27.1123925  53.7644479  95.3574472  27.7217066  52.5466612  96.0189682
  18.3601076  63.2698459 101.2806437  18.2433460  64.2143892 101.1785127
  17.5393522  62.9672021 101.6692236  27.9023503  54.4980709  93.4919369
  27.8472306  54.3324980  92.5507813  27.2769558  55.2056741  93.6481558
  12.6916018  49.7348773 107.3180791  13.3374881  49.2247727 107.8068016
  12.4833169  50.4717455 107.8924216  25.2169410  56.8029620 112.8172931
  26.0860569  56.9770273 112.4559566  24.7376161  57.6224037 112.6948661
  21.2119628  43.9988818  93.0704687  21.1998298  44.9430657  93.2272958
  22.1043050  43.8158963  92.7764148  19.3855590  63.9226721 104.4962365
  20.2882837  63.9550332 104.8128860  19.1592960  62.9927172 104.5108701
  21.1409192  62.6757708 101.1572444  20.1904823  62.6759570 101.0436816
  21.4441678  61.9290442 100.6408478  25.0271748  40.5931594  97.3250624
  24.2604143  40.0390081  97.4707306  25.4382453  40.6653463  98.1864775
  27.0902840  71.8132342 100.9860842  27.8824131  71.4723167 100.5707141
  27.3299490  71.9227317 101.9062995  26.6589814  68.1826124 100.9275407
  26.7882195  68.4360603 101.8414819  25.9787265  68.7753832 100.6080062
  33.3206531  66.0251239 109.6827249  32.5439865  66.5845159 109.6730113
  33.9597094  66.5108022 110.2042119  31.5752903  68.8336693 109.2445216
  32.3167587  69.3721737 108.9680039  30.8689888  69.4602981 109.4016767
  36.5538758  63.5742808 106.8732108  36.3099690  64.3284869 106.3366383
  36.8298688  63.9528156 107.7079355  30.3114267  65.9876341 110.0460526
  29.6812927  66.6692622 110.2795922  30.2050355  65.8759422 109.1013664
  25.6059239  65.6548137 100.9726450  24.8158293  65.9105665 100.4966560
  26.0970487  66.4696475 101.0778490  23.8896942  65.9078627 103.4041440
  24.1404981  66.7925637 103.6699016  24.4256491  65.7283229 102.6316532
  29.5895009  60.2897107 112.4085777  29.1961955  59.7363305 113.0833421
  30.4061150  60.6007685 112.7992294  28.3651952  74.8446721  98.4022100
  28.5418580  75.7664686  98.2143084  29.1608785  74.5305140  98.8316479
  32.5062970  61.7054986 110.0006033  33.2472684  62.3062139 109.9210496
  32.7380893  60.9632623 109.4424076  27.6504308  66.8911353 108.2784263
  27.5357824  65.9896610 108.5791362  26.7948826  67.1375050 107.9269079
  33.2850438  72.6276023 108.7476673  33.8178775  71.8664311 108.5175981
  32.7564520  72.3349674 109.4900828  24.5205984  70.0569619  97.0958917
  25.3581206  70.4666627  96.8792625  24.6984252  69.1169061  97.0659111
  24.5432155  67.3960334  97.7669650  24.3456555  66.8029695  97.0420717
  23.9878819  67.0912545  98.4845589  27.0378381  66.9224368  95.4510603
  26.1075969  66.8608824  95.6680565  27.1335853  66.4000321  94.6547244
  26.9563930  63.4479181  98.0388844  27.2170747  64.3624514  97.9298005
  27.7781102  62.9803624  98.1885457  28.4288855  64.8616938 105.2087669
  29.1011909  64.6534300 104.5600318  27.6018642  64.6639024 104.7692901
  34.3314427  61.4878879 107.2253330  33.6842342  62.1868829 107.1317806
  35.1015443  61.9215023 107.5929578  28.8316352  68.1359541 105.9690106
  28.6936150  67.4039780 106.5701645  29.7421276  68.0468441 105.6874294
  30.1727587  64.8344719 107.2769425  29.6364944  64.3835457 107.9291021
  29.5844296  64.9690627 106.5339889  28.4676131  81.6008768 101.1714084
  28.7072729  82.2327292 101.8493102  27.6245327  81.2496808 101.4579443
  29.5829846  64.2933370  89.8395889  28.7059312  64.1722171  89.4758135
  30.0587599  63.5019448  89.5874777  21.1031986  69.0810530  99.9337396
  21.7903026  68.7672260  99.3458411  20.9480115  69.9851894  99.6604647
  25.9066708  63.9700726 104.3622419  25.8224897  63.3626396 103.6272829
  25.0849415  64.4609745 104.3631916  34.3403449  68.3533586 110.8637905
  33.6644086  68.2527716 111.5340280  35.1631082  68.1972800 111.3273902
  26.0882308  74.5905523 103.4850420  26.6735744  73.8449211 103.6178324
  25.8907146  74.9009479 104.3687084  20.6799962  67.1611123 102.2054863
  20.7184062  66.6274714 102.9991981  20.1740255  66.6346329 101.5865840
  27.5342997  64.0798796 109.3490439  28.1615036  63.6975873 109.9627964
  26.6770916  63.8612998 109.7146132  24.3108540  65.8875225  95.2808794
  24.6061981  64.9785904  95.2275848  23.4096576  65.8662965  94.9589797
  30.6429100  61.2985648 107.5376995  31.1663502  61.5447945 108.3003304
  30.4241434  62.1305683 107.1180132  26.0396381  63.5689323  95.4048119
  25.7109088  62.6886702  95.2223225  26.3935752  63.5136992  96.2924509
  24.4982358  68.5573121 104.4233628  23.9535826  69.3332929 104.5553902
  25.3761708  68.9043925 104.2652749  25.2848380  67.6843017 107.3163785
  24.5430116  67.8325652 107.9028415  24.9641124  67.9451283 106.4530534
  25.7304994  75.5708446  99.3474180  26.5563014  75.2712218  98.9672823
  25.3799046  74.8016068  99.7963968  23.9313599  73.4894772 100.3063113
  23.0945507  73.0616947 100.1247114  23.9037244  73.6827216 101.2433904
  30.7711054  63.4016702 111.0104359  30.8199210  64.2778825 110.6282129
  31.3133569  62.8594095 110.4376002  33.0010343  64.1548074 107.7650718
  32.1313652  64.4481640 107.4933306  33.2369823  64.7388519 108.4857981
  35.7049377  60.3727691 105.2816138  36.2231321  61.1088718 104.9562627
  35.3504509  60.6791685 106.1162897  27.2848314  65.2332373  93.3977544
  26.5917559  65.3076728  92.7417580  27.0400066  64.4692716  93.9199061
  34.0280930  71.3565527 111.1658771  34.9483940  71.5344126 111.3598817
  33.9930513  70.4121572 111.0138470  23.2463095  66.5504120 100.0912045
  22.9265880  65.6969429  99.7986419  22.6996524  66.7652698 100.8470013
  27.0243003  69.2666561 103.8081552  27.2429013  70.1983669 103.8269586
  27.4368777  68.9074536 104.5936356  31.8970868  64.8399767 113.1984301
  31.7967595  65.7894124 113.1296392  31.6792410  64.5118006 112.3260371
  31.0983940  62.0884692  89.7824978  31.9603104  62.4139590  90.0420795
  31.2834284  61.3016188  89.2698044  23.1151355  70.1707032 102.0605167
  22.4214827  69.7560985 101.5475121  23.8624346  70.2127568 101.4638586
  31.7602138  68.2696906 112.0149362  31.2769220  69.0697266 112.2213251
  31.8463077  68.2804851 111.0616806  25.0288098  70.1025286  99.9371182
  25.0058786  70.2012973  98.9853065  25.3388734  70.9490436 100.2588348
  27.6875476  72.1601441 104.0517796  28.6418729  72.1285383 103.9847728
  27.4887999  71.6992064 104.8668022  28.2774858  70.7302557 106.6188594
  29.0967747  71.2246635 106.6423431  28.5511666  69.8134525 106.5906161
  26.0425705  77.7021060 101.0687994  25.9080173  76.9421461 100.5025992
  25.6257767  78.4261960 100.6016783  29.1994830  78.5990377 101.2806437
  29.0827215  79.5435810 101.1785127  28.3787277  78.2963939 101.6692236
  23.5309772  65.0640691 107.3180791  24.1768636  64.5539645 107.8068016
  23.3226923  65.8009372 107.8924216  36.0563164  72.1321538 112.8172931
  36.9254324  72.3062190 112.4559566  35.5769916  72.9515955 112.6948661
  30.2249345  79.2518639 104.4962365  31.1276591  79.2842249 104.8128860
  29.9986715  78.3219090 104.5108701  27.8707263  62.2108308 111.4155805
  28.7338725  61.8545112 111.6259130  27.2972674  61.8722202 112.1031209
  47.7155640  83.8410164 102.2218206  48.3534050  83.7216911 101.5181546
  47.5976483  84.7891008 102.2806158  44.5245346  83.7937592 102.1579731
  44.1863858  83.6778657 101.2700266  45.3935115  83.3928757 102.1380737
  40.3832162  85.6473069  98.1476622  39.8197027  85.5563005  97.3792909
  40.2684557  84.8272973  98.6279114  45.0065129  84.9472444 108.1165936
  44.9953770  84.5525242 107.2446440  45.1685769  84.2138516 108.7099708
  37.9296594  87.1424260 100.9860842  38.7217886  86.8015085 100.5707141
  38.1693244  87.2519235 101.9062995  45.9631721  89.3144036  93.4591087
  45.3119701  89.8998117  93.0725100  46.7576084  89.8450231  93.5186124
  39.8887348  86.4033173  93.8578221  40.6618224  85.8562160  93.7191097
  40.2412747  87.2677423  94.0692682  41.7272390  87.7309556 107.0645120
  41.4362256  88.6355186 106.9491787  42.3629375  87.7726083 107.7789190
  42.6528597  85.1086404 103.6546480  43.2492170  84.8842427 102.9403443
  42.7103569  84.3671150 104.2571928  42.2253626  82.5625839  91.4896671
  42.4779146  82.0407361  90.7280134  41.2878185  82.3991985  91.5923354
  47.2696909  81.5661618  99.2971414  48.0559998  81.1481041  98.9461831
  47.5335613  82.4707710  99.4653062  47.4406986  87.0034468  93.9960071
  46.8052819  87.0769095  94.7080976  47.1104392  87.5928067  93.3179150
  52.6705336  81.5036851 100.2004393  53.4030508  80.9336068 100.4342222
  51.9144691  81.1158451 100.6410898  41.9449914  84.4653945  93.6921046
  41.8286173  83.7898849  94.3602130  42.0552174  83.9786319  92.8753199
  44.2881455  83.9264093  97.3967735  43.9239663  83.3994714  98.1080657
  45.1448571  83.5362562  97.2234220  50.1930756  75.2158425 104.6599001
  49.8614081  76.0853836 104.4360216  49.5976369  74.8994709 105.3393032
  43.9286942  78.9553992  92.3929084  44.0961345  79.8234229  92.7599555
  43.7384111  79.1181274  91.4690373  46.6862276  87.4170971 104.0594914
  46.3862999  88.3196010 103.9510721  46.3413335  87.1503154 104.9116067
  40.1374757  83.8684768 100.0931618  39.2125254  83.7360982 100.3009310
  40.3859170  84.6478987 100.5901561  50.0859419  79.9353511 101.7392351
  49.1776297  79.8668920 101.4451112  50.0347015  80.4125456 102.5674177
  43.9076163  81.4111650  93.3775750  43.7875788  81.8568700  94.2161231
  43.2128752  81.7596967  92.8189289  37.4983568  83.5118042 100.9275407
  37.6275949  83.7652520 101.8414819  36.8181019  84.1045750 100.6080062
  41.6683055  94.1815291  97.0265882  41.5907085  95.1323117  97.1054362
  41.0644699  93.8361164  97.6840808  44.1600285  81.3543157 109.6827249
  43.3833619  81.9137077 109.6730113  44.7990848  81.8399940 110.2042119
  51.9521066  78.1369950 103.5170225  51.3095446  78.4302483 102.8710020
  51.4475994  78.0222870 104.3223422  49.6061229  81.8833123  94.2056084
  50.5179086  82.1160510  94.0303782  49.0970877  82.4670167  93.6431163
  42.4146657  84.1628610 109.2445216  43.1561342  84.7013654 108.9680039
  41.7083643  84.7894899 109.4016767  47.8901997  86.3057751 107.8417377
  48.2985353  85.8640161 107.0972009  47.1679259  85.7310378 108.0951570
  44.2433067  81.2430357 105.2150934  45.0894262  81.6669771 105.3585583
  44.1831705  80.5863982 105.9089497  48.2130812  86.8658941 101.5969666
  47.5839674  87.0304655 100.8945734  47.8256474  87.2800551 102.3680630
  52.0920044  87.8013379  98.9514030  51.4071082  88.1812281  98.4011063
  52.1763893  88.4108706  99.6845977  47.3932512  78.9034726 106.8732108
  47.1493444  79.6576786 106.3366383  47.6692443  79.2820073 107.7079355
  49.3470975  85.4473338 105.5509373  49.5587870  86.0905098 104.8743754
  49.3000723  84.6135655 105.0831303  43.7658774  86.6033349  98.8619751
  44.2297119  86.8821052  98.0724373  43.5015572  85.7016794  98.6792842
  40.6582855  86.1504831 101.7999514  41.2284212  86.5792099 101.1616999
  41.2490967  85.8687416 102.4983700  42.7027660  82.7256502  95.6709316
  43.4051703  83.1777545  96.1383242  42.3708288  82.0840321  96.2989209
  41.1508021  81.3168258 110.0460526  40.5206682  81.9984539 110.2795922
  41.0444109  81.2051340 109.1013664  50.4616803  88.3245294 103.7231731
  51.2834247  87.9225481 103.4414412  50.4579206  88.2213528 104.6747846
  38.3967739  81.3484634  97.9309926  37.5998902  81.4603328  98.4493422
  38.1693331  81.6871286  97.0650817  44.2273407  87.8729337 105.8792441
  44.2917839  88.3349744 106.7150613  43.5184331  87.2426702 106.0074751
  58.5522796  84.6684042 100.0716702  57.7986505  84.0991440  99.9160706
  58.6870337  84.6346707 101.0187337  43.9421424  89.5397444  95.7471421
  43.8067099  90.3848980  96.1756269  44.4831237  89.7416722  94.9837355
  37.3950822  87.0572882  96.3199346  37.9075342  87.8516133  96.4704911
  38.0473535  86.3599173  96.2532948  39.2045706  90.1738639  98.4022100
  39.3812335  91.0956603  98.2143084  40.0002540  89.8597058  98.8316479
  43.3456725  77.0346903 110.0006033  44.0866438  77.6354057 109.9210496
  43.5774648  76.2924541 109.4424076  38.4898063  82.2203271 108.2784263
  38.3751578  81.3188528 108.5791362  37.6342581  82.4666967 107.9269079
  45.5689901  90.1621011 109.8771763  45.1253755  89.3757390 109.5592668
  46.2307114  90.3500161 109.2115654  40.3277022  91.6916813 104.4032442
  40.8784447  91.5633876 103.6309436  39.4888498  91.9911702 104.0527335
  47.6671139  90.4423811 107.9053165  47.6489614  91.2632692 107.4133434
  48.5891059  90.3177886 108.1303306  44.1244193  87.9567940 108.7476673
  44.6572530  87.1956229 108.5175981  43.5958274  87.6641592 109.4900828
  35.3599738  85.3861537  97.0958917  36.1974960  85.7958545  96.8792625
  35.5378006  84.4460979  97.0659111  47.2564171  83.0536617  92.7842750
  46.7410794  83.8241222  93.0231137  46.9841479  82.3801754  93.4075811
  52.2298445  85.8068972  94.7195923  51.4527887  85.4680132  94.2751085
  52.9089926  85.8121595  94.0450888  47.0450474  80.9263710  94.6102531
  46.7400609  81.2409859  95.4612674  47.9980916  81.0045129  94.6529864
  45.4896906  87.0853933  96.2595485  44.9618267  86.3506692  95.9468723
  44.9884408  87.8628609  96.0135453  50.4689752  85.2802953 101.3762531
  49.8113426  85.9702215 101.4642660  51.2730151  85.6699385 101.7196518
  49.2795210  83.6347326  99.4266473  49.7927092  84.2677318  99.9288183
  49.9296434  83.0348522  99.0609833  40.5485220  79.7778060  92.6397982
  39.7122533  80.1152747  92.9607257  40.4089990  79.6427040  91.7025119
  43.6349506  84.9034143  89.2630458  42.7276568  84.6723397  89.4621607
  44.1320538  84.1071762  89.4504440  46.5417585  93.6131650  92.1827144
  45.8679283  93.9163347  92.7912102  46.9283407  94.4160731  91.8332601
  46.5411089  82.5088197  96.8027494  47.2882908  83.0209594  96.4934616
  46.8102679  82.1872250  97.6631887  44.8137739  85.0046738  93.7854448
  43.9048958  84.7205771  93.8826918  44.8432823  85.4245817  92.9257755
  50.0457007  88.6153327  97.5545616  49.5919334  87.7744237  97.6110806
  49.4150973  89.2514726  97.8920396  48.9889926  79.5445314  98.7846283
  48.2512683  79.0322700  99.1156526  49.2416700  79.1045695  97.9729560
  48.4889946  90.4529824  98.4895434  48.7812920  91.0134881  97.7707800
  48.9988566  90.7458385  99.2448593  44.5113827  86.5455482  91.1242527
  44.0733257  85.8291341  90.6648164  45.2524268  86.7731596  90.5627618
  41.3014993  81.2352418  97.6454622  40.4882859  81.5346589  98.0519815
  41.7973987  80.8408107  98.3629105  43.4523571  91.2310175  99.5788887
  43.4099750  91.4571022  98.6497419  44.3686270  90.9973550  99.7274688
  46.8989205  81.6994243 106.4769516  47.2538593  81.9265716 107.3363982
  47.5461336  82.0312620 105.8546772  52.6286942  84.8212679  97.1818845
  52.4904840  85.0114275  96.2540035  52.2723161  85.5832061  97.6386896
  52.6556321  86.8889206 102.1930117  53.0892828  86.7964495 103.0413171
  53.3687902  86.8646706 101.5550133  41.5689372  88.1073204  99.3750850
  42.3629970  87.6123524  99.1733425  40.8581064  87.5791067  99.0118555
  46.3884216  90.4891300 103.7263217  46.4421239  91.0582236 104.4940933
  45.5198998  90.6593185 103.3617255  37.8772135  82.2516286  95.4510603
  36.9469723  82.1900741  95.6680565  37.9729607  81.7292239  94.6547244
  53.5171871  86.9312906 104.7263002  53.7107761  87.8358717 104.9722277
  53.4172489  86.4720325 105.5601587  48.5786980  87.0819649 110.3003883
  48.4272486  86.8530201 109.3833967  48.5691659  88.0390251 110.3135228
  45.3472316  84.6551562 105.2850149  46.2764376  84.8062721 105.1119117
  44.9263346  84.7435583 104.4298796  44.1460648  88.6802226 103.0548687
  44.0071734  88.3121011 103.9274625  43.3575244  89.1949866 102.8832645
  44.7408800  93.7811323  94.3974223  44.9160555  93.3099366  95.2119846
  44.0541588  94.4077089  94.6255484  45.6965863  88.0583829 100.4437525
  45.3615696  88.0184599 101.3395175  45.1969809  87.3928545  99.9707935
  39.6710107  83.4651459 105.9690106  39.5329905  82.7331698 106.5701645
  40.5815030  83.3760359 105.6874294  48.6325055  85.4039863  90.7174584
  48.0154225  84.6786691  90.6207637  48.1641543  86.1649224  90.3741659
  42.2992408  83.1771418 105.4573786  43.0092026  82.5364610 105.4160404
  42.2561716  83.4284313 106.3799966  50.2879186  90.1138772 108.3780365
  50.2291732  89.4297992 107.7110948  50.6898705  90.8557762 107.9260991
  41.0121342  80.1636636 107.2769425  40.4758699  79.7127375 107.9291021
  40.4238050  80.2982545 106.5339889  39.3069885  96.9300685 101.1714084
  39.5466483  97.5619210 101.8493102  38.4639082  96.5788725 101.4579443
  40.4223601  79.6225288  89.8395889  39.5453067  79.5014088  89.4758135
  40.8981354  78.8311366  89.5874777  50.2896594  88.0778356 106.6094344
  49.4023372  87.7404277 106.7320743  50.8595145  87.3461387 106.8463110
  31.9425741  84.4102447  99.9337396  32.6296781  84.0964177  99.3458411
  31.7873869  85.3143812  99.6604647  43.8197747  92.7379808 103.5755588
  43.7467918  93.5434779 104.0874892  43.3775140  92.9371774 102.7503609
  43.6087527  91.9751578  97.0858409  42.8255048  92.5173258  97.1796634
  44.3080272  92.4925558  97.4852650  54.7713934  83.4886573 101.3710906
  54.7603810  84.3711288 101.0004839  53.9031314  83.1358124 101.1765443
  46.2796430  92.6366642 105.7313746  46.9924403  93.2714107 105.6589648
  45.7886459  92.7330508 104.9153748  48.0013957  86.5417895  97.3031038
  47.0670236  86.6619357  97.1335742  48.1790626  85.6390361  97.0391048
  51.3886509  82.3835214  97.8381072  51.8546961  83.2163206  97.7641375
  51.8394009  81.9180195  98.5426331  41.3308344  90.3861085 106.5519317
  42.0317804  91.0197568 106.7048711  40.8603459  90.7275817 105.7914956
  49.4562740  88.7279035  94.8367224  49.7322584  88.6135630  95.7461098
  48.5867239  88.3296520  94.7979397  49.1309630  82.9405693 104.3771867
  48.4781080  83.1881600 103.7224320  49.5090010  82.1269831 104.0434345
  46.0916804  92.9765386  98.4800038  46.2739198  92.1587042  98.9427790
  46.9149790  93.1933078  98.0424928  46.4258969  91.9033571  95.7415086
  46.9546736  91.3926026  95.1285248  46.6887189  91.5876101  96.6060619
  45.1797203  83.6825504 110.8637905  44.5037840  83.5819633 111.5340280
  46.0024837  83.5264718 111.3273902  36.9276062  89.9197440 103.4850420
  37.5129499  89.1741128 103.6178324  36.7300901  90.2301397 104.3687084
  39.7814717  92.9548688  98.5012862  39.1125093  93.4394815  98.0176902
  39.6427587  93.2017908  99.4156241  31.5193717  82.4903041 102.2054863
  31.5577816  81.9566631 102.9991981  31.0134010  81.9638246 101.5865840
  43.9219986  94.9892431 105.0995521  44.4738294  95.1524053 105.8644606
  44.2626179  95.5796869 104.4275545  38.3736752  79.4090714 109.3490439
  39.0008790  79.0267791 109.9627964  37.5164670  79.1904916 109.7146132
  48.7730860  89.8153689 110.9544175  49.3170764  90.4283647 110.4599130
  48.1917705  90.3733267 111.4711188  47.0588373  92.9374407 102.0859203
  46.9339513  92.1364147 101.5770148  47.7167464  93.4320600 101.5973173
  49.1223282  90.7383427 103.7138753  48.1753617  90.6188778 103.6417079
  49.4706055  89.8505925 103.7965014  46.1269715  90.5336143  99.9143105
  45.9794677  89.6052851 100.0950675  46.9523208  90.5556234  99.4300180
  39.9931959  79.1854210  95.7723597  40.3328032  79.7140132  95.0502206
  40.4404080  79.5234616  96.5482164  49.7303837  91.3564702 101.0007978
  50.6550384  91.1507563 100.8632429  49.5619140  91.1081103 101.9097319
  46.1231229  78.3873981  94.9075222  46.3394844  79.2698619  94.6064050
  45.6425296  77.9960194  94.1780864  49.5199153  91.8750369  96.3570069
  49.6936030  91.3096792  95.6043922  50.0128044  92.6751264  96.1749559
  35.3376113  83.8865038 104.4233628  34.7929581  84.6624846 104.5553902
  36.2155463  84.2335843 104.2652749  55.3738544  84.6386792  97.9760369
  55.8169690  83.8894118  97.5779492  54.4965054  84.6296929  97.5934101
  50.5074325  91.1917134  93.4566967  51.2025230  91.8123826  93.6754282
  50.8497476  90.3412485  93.7319345  36.1242135  83.0134935 107.3163785
  35.3823871  83.1617570 107.9028415  35.8034879  83.2743200 106.4530534
  52.4065749  88.6416839  94.9854298  52.9317073  88.9804112  94.2603618
  52.3188101  87.7063855  94.8017433  44.0685797  92.5550913 107.1144175
  44.3772924  92.3100060 107.9866874  44.8661279  92.7597551 106.6263045
  44.0906409  94.7088823  99.3449551  43.6511400  94.2165201 100.0382408
  44.8414526  94.1661790  99.1041627  36.5698748  90.9000363  99.3474180
  37.3956768  90.6004135  98.9672823  36.2192800  90.1307986  99.7963968
  41.5380281  90.2526832 101.4171853  40.9160291  89.5897537 101.1174081
  42.2085148  90.2787964 100.7345501  34.7707353  88.8186690 100.3063113
  33.9339262  88.3908864 100.1247114  34.7430999  89.0119133 101.2433904
  41.6104809  78.7308620 111.0104359  41.6592964  79.6070743 110.6282129
  42.1527323  78.1886013 110.4376002  52.0959655  89.2749743 110.2905496
  51.3055198  89.2573882 109.7509996  51.8593009  89.8138037 111.0454533
  52.2157530  86.1242209 107.6038225  52.2655535  85.9592217 108.5453748
  52.1071453  85.2569468 107.2136106  41.0993788  88.8030755  94.8930314
  41.2481909  89.4866219  94.2396986  41.9060232  88.7835845  95.4079769
  49.5061292  82.1073137 108.9197531  50.4071155  81.9679602 108.6281529
  49.5809267  82.2727592 109.8595709  43.8404097  79.4839992 107.7650718
  42.9707407  79.7773558 107.4933306  44.0763578  80.0680437 108.4857981
  53.7175726  88.5439151 107.8480246  53.4260535  88.9069131 108.6843707
  53.1047858  87.8306159 107.6693578  54.9171409  86.1092031 100.3682817
  55.7518300  86.5481835 100.5320377  55.0530538  85.6330684  99.5491062
  51.9662915  83.6671765 106.3160304  52.4417036  83.8599412 105.5079156
  51.0428480  83.7230951 106.0703688  38.8546421  84.8295933  95.8991383
  38.6092463  83.9258263  96.0971593  39.0242336  84.8313083  94.9570861
  44.5989194  91.2978885  92.3642061  44.0263161  91.9169073  91.9112533
  45.1721988  91.8478247  92.8981983  50.6664584  80.5437526 104.5488610
  51.6182007  80.6435623 104.5700834  50.4968034  79.7515794 105.0586694
  48.6878963  77.6293109 104.7348011  48.0928895  77.9098121 104.0394499
  48.4028660  78.1187010 105.5064752  47.8186454  91.5816036  93.4950643
  48.7517127  91.5161597  93.6983519  47.7309666  92.4172302  93.0365176
  50.4474470  90.8981906  90.4554591  50.3688102  90.5641770  91.3490349
  51.2684137  91.3903674  90.4546063  53.1452661  83.7643645 103.6630910
  53.1128982  82.8259646 103.8490593  53.7553285  83.8427682 102.9296734
  44.9835992  82.6339698  89.7058114  45.9295097  82.5045906  89.7746532
  44.6050237  81.8954360  90.1827542  53.2947150  80.5554689 103.7089193
  52.7786199  79.7713145 103.5219122  54.1787098  80.2273405 103.8735712
  58.9629211  84.8259652 102.8036946  59.6932600  84.5644940 103.3644650
  58.3536157  84.0888374 102.8439014  57.0444508  82.9667515 103.4011398
  56.3177672  82.8323480 102.7927889  56.6291795  83.2744343 104.2068116
  44.8674685  86.6857444 111.1658771  45.7877694  86.8636043 111.3598817
  44.8324268  85.7413490 111.0138470  43.1678909  80.5589675  89.6412999
  42.2610365  80.2622787  89.7175712  43.4454890  80.2619493  88.7747285
  37.8636757  84.5958479 103.8081552  38.0822767  85.5275587 103.8269586
  38.2762531  84.2366453 104.5936356  42.7364623  80.1691685 113.1984301
  42.6361350  81.1186042 113.1296392  42.5186165  79.8409924 112.3260371
  41.9377694  77.4176610  89.7824978  42.7996858  77.7431508  90.0420795
  42.1228038  76.6308106  89.2698044  33.9545110  85.4998950 102.0605167
  33.2608581  85.0852902 101.5475121  34.7018101  85.5419486 101.4638586
  42.5995893  83.5988824 112.0149362  42.1162974  84.3989184 112.2213251
  42.6856832  83.6096768 111.0616806  35.8681852  85.4317203  99.9371182
  35.8452541  85.5304891  98.9853065  36.1782489  86.2782354 100.2588348
  38.5269230  87.4893358 104.0517796  39.4812484  87.4577301 103.9847728
  38.3281754  87.0283982 104.8668022  39.1168612  86.0594474 106.6188594
  39.9361501  86.5538553 106.6423431  39.3905420  85.1426443 106.5906161
  52.2249745  78.4751748  99.6970888  53.0010135  78.9648200  99.9695505
  51.4997879  78.9009802 100.1542758  54.6622303  79.1879367 100.7544829
  55.2566794  78.9475103 100.0438137  54.7348887  78.4686497 101.3818365
  36.8819459  93.0312978 101.0687994  36.7473927  92.2713379 100.5025992
  36.4651521  93.7553878 100.6016783  48.0178422  88.2149901  90.0764569
  48.7214272  88.4199904  90.6922225  47.2941071  88.7826663  90.3413653
  48.8476232  83.9659763  96.1966839  48.7911434  84.4228314  95.3574472
  49.4004575  83.2050447  96.0189682  52.6581038  79.7549494  97.0216959
  52.4017972  79.3546130  97.8525167  52.0333906  80.4693288  96.8967098
  56.9693376  82.4945568  99.5288250  56.4092934  82.5638757 100.3019812
  56.3636879  82.3186552  98.8087747  40.0388585  93.9282295 101.2806437
  39.9220969  94.8727727 101.1785127  39.2181031  93.6255856 101.6692236
  49.9265119  88.6532431  92.1263029  50.7610723  88.2213629  91.9440504
  49.7649462  88.4814444  93.0539924  49.5811012  85.1564544  93.4919369
  49.5259815  84.9908815  92.5507813  48.9557067  85.8640577  93.6481558
  34.3703527  80.3932608 107.3180791  35.0162390  79.8831562 107.8068016
  34.1620678  81.1301290 107.8924216  46.8956919  87.4613456 112.8172931
  47.7648078  87.6354108 112.4559566  46.4163670  88.2807873 112.6948661
  41.0643099  94.5810557 104.4962365  41.9670346  94.6134167 104.8128860
  40.8380469  93.6511008 104.5108701  42.8196701  93.3341543 101.1572444
  41.8692332  93.3343405 101.0436816  43.1229187  92.5874278 100.6408478
  58.5549395  99.1702082 102.2218206  59.1927805  99.0508829 101.5181546
  58.4370237 100.1182926 102.2806158  55.3639101  99.1229510 102.1579731
  55.0257612  99.0070574 101.2700266  56.2328869  98.7220675 102.1380737
  51.2225917 100.9764986  98.1476622  50.6590782 100.8854923  97.3792909
  51.1078312 100.1564891  98.6279114  55.8458884 100.2764361 108.1165936
  55.8347525  99.8817160 107.2446440  56.0079523  99.5430434 108.7099708
  48.7690348 102.4716178 100.9860842  49.5611640 102.1307002 100.5707141
  49.0086999 102.5811153 101.9062995  56.8025475 104.6435954  93.4591087
  56.1513455 105.2290034  93.0725100  57.5969838 105.1742149  93.5186124
  50.7281102 101.7325091  93.8578221  51.5011978 101.1854078  93.7191097
  51.0806501 102.5969340  94.0692682  52.5666145 103.0601473 107.0645120
  52.2756011 103.9647104 106.9491787  53.2023129 103.1018001 107.7789190
  53.4922352 100.4378322 103.6546480  54.0885924 100.2134344 102.9403443
  53.5497323  99.6963067 104.2571928  53.0647380  97.8917757  91.4896671
  53.3172901  97.3699278  90.7280134  52.1271939  97.7283903  91.5923354
  58.1090663  96.8953536  99.2971414  58.8953752  96.4772959  98.9461831
  58.3729367  97.7999628  99.4653062  58.2800740 102.3326386  93.9960071
  57.6446573 102.4061012  94.7080976  57.9498147 102.9219985  93.3179150
  63.5099090  96.8328769 100.2004393  64.2424262  96.2627986 100.4342222
  62.7538446  96.4450369 100.6410898  52.7843669  99.7945863  93.6921046
  52.6679927  99.1190766  94.3602130  52.8945929  99.3078237  92.8753199
  55.1275210  99.2556010  97.3967735  54.7633417  98.7286631  98.1080657
  55.9842326  98.8654479  97.2234220  61.0324511  90.5450343 104.6599001
  60.7007835  91.4145754 104.4360216  60.4370124  90.2286627 105.3393032
  54.7680697  94.2845910  92.3929084  54.9355099  95.1526146  92.7599555
  54.5777866  94.4473192  91.4690373  57.5256030 102.7462889 104.0594914
  57.2256753 103.6487928 103.9510721  57.1807090 102.4795072 104.9116067
  50.9768512  99.1976686 100.0931618  50.0519008  99.0652900 100.3009310
  51.2252925  99.9770905 100.5901561  60.9253174  95.2645429 101.7392351
  60.0170051  95.1960837 101.4451112  60.8740770  95.7417374 102.5674177
  54.7469918  96.7403567  93.3775750  54.6269543  97.1860618  94.2161231
  54.0522506  97.0888885  92.8189289  48.3377323  98.8409959 100.9275407
  48.4669704  99.0944438 101.8414819  47.6574774  99.4337667 100.6080062
  52.5076810 109.5107209  97.0265882  52.4300840 110.4615034  97.1054362
  51.9038453 109.1653082  97.6840808  54.9994040  96.6835075 109.6827249
  54.2227374  97.2428995 109.6730113  55.6384603  97.1691858 110.2042119
  62.7914820  93.4661867 103.5170225  62.1489201  93.7594401 102.8710020
  62.2869749  93.3514788 104.3223422  60.4454984  97.2125041  94.2056084
  61.3572840  97.4452427  94.0303782  59.9364631  97.7962085  93.6431163
  53.2540412  99.4920528 109.2445216  53.9955096 100.0305572 108.9680039
  52.5477397 100.1186817 109.4016767  58.7295752 101.6349668 107.8417377
  59.1379108 101.1932079 107.0972009  58.0073013 101.0602296 108.0951570
  55.0826822  96.5722275 105.2150934  55.9288017  96.9961689 105.3585583
  55.0225459  95.9155899 105.9089497  59.0524566 102.1950859 101.5969666
  58.4233429 102.3596573 100.8945734  58.6650228 102.6092469 102.3680630
  62.9313798 103.1305297  98.9514030  62.2464836 103.5104198  98.4011063
  63.0157647 103.7400624  99.6845977  58.2326267  94.2326644 106.8732108
  57.9887199  94.9868704 106.3366383  58.5086197  94.6111991 107.7079355
  60.1864730 100.7765256 105.5509373  60.3981625 101.4197016 104.8743754
  60.1394478  99.9427572 105.0831303  57.7890959  93.3883077 102.4545945
  56.9275438  93.6864330 102.7462683  57.8153393  93.6053475 101.5226978
  54.6052528 101.9325267  98.8619751  55.0690874 102.2112970  98.0724373
  54.3409326 101.0308712  98.6792842  51.4976609 101.4796749 101.7999514
  52.0677966 101.9084017 101.1616999  52.0884721 101.1979333 102.4983700
  53.5421414  98.0548419  95.6709316  54.2445458  98.5069463  96.1383242
  53.2102043  97.4132238  96.2989209  51.9901776  96.6460176 110.0460526
  51.3600436  97.3276457 110.2795922  51.8837864  96.5343258 109.1013664
  47.2846748  96.3131972 100.9726450  46.4945802  96.5689501 100.4966560
  47.7757995  97.1280310 101.0778490  61.3010558 103.6537211 103.7231731
  62.1228001 103.2517399 103.4414412  61.2972961 103.5505445 104.6747846
  49.2361494  96.6776551  97.9309926  48.4392657  96.7895246  98.4493422
  49.0087086  97.0163204  97.0650817  55.0667161 103.2021255 105.8792441
  55.1311594 103.6641662 106.7150613  54.3578085 102.5718620 106.0074751
  45.5684451  96.5662463 103.4041440  45.8192490  97.4509473 103.6699016
  46.1044000  96.3867064 102.6316532  69.3916551  99.9975960 100.0716702
  68.6380259  99.4283358  99.9160706  69.5264092  99.9638624 101.0187337
  54.7815179 104.8689362  95.7471421  54.6460854 105.7140898  96.1756269
  55.3224991 105.0708640  94.9837355  51.2682518  90.9480942 112.4085777
  50.8749464  90.3947141 113.0833421  52.0848659  91.2591520 112.7992294
  48.2344576 102.3864800  96.3199346  48.7469097 103.1808050  96.4704911
  48.8867289 101.6891091  96.2532948  50.0439461 105.5030556  98.4022100
  50.2206089 106.4248521  98.2143084  50.8396294 105.1888976  98.8316479
  54.1850479  92.3638821 110.0006033  54.9260193  92.9645974 109.9210496
  54.4168402  91.6216459 109.4424076  49.3291817  97.5495188 108.2784263
  49.2145333  96.6480446 108.5791362  48.4736335  97.7958885 107.9269079
  56.4083655 105.4912929 109.8771763  55.9647509 104.7049307 109.5592668
  57.0700869 105.6792079 109.2115654  51.1670776 107.0208730 104.4032442
  51.7178201 106.8925794 103.6309436  50.3282252 107.3203619 104.0527335
  58.5064893 105.7715729 107.9053165  58.4883369 106.5924610 107.4133434
  59.4284813 105.6469804 108.1303306  54.9637947 103.2859858 108.7476673
  55.4966284 102.5248146 108.5175981  54.4352028 102.9933510 109.4900828
  58.1307642  88.3919924 104.2770315  57.7871912  89.2821566 104.2009425
  58.4986605  88.2021582 103.4139900  46.1993493 100.7153454  97.0958917
  47.0368715 101.1250463  96.8792625  46.3771761  99.7752897  97.0659111
  58.0957925  98.3828535  92.7842750  57.5804549  99.1533140  93.0231137
  57.8235234  97.7093671  93.4075811  55.6805036  93.2278236  97.8427988
  54.8246632  92.8385086  97.6633627  56.0931988  93.3070197  96.9827774
  57.2104183  90.7624579 102.2419548  56.7068978  90.7254714 101.4287353
  57.5034790  91.6717322 102.3016205  53.4547069  90.8463309 101.2485730
  54.3200065  90.6506118 100.8891619  53.5224578  90.6173661 102.1755087
  63.0692199 101.1360890  94.7195923  62.2921642 100.7972049  94.2751085
  63.7483680 101.1413513  94.0450888  57.8844228  96.2555627  94.6102531
  57.5794364  96.5701776  95.4612674  58.8374670  96.3337047  94.6529864
  56.3290660 102.4145851  96.2595485  55.8012022 101.6798610  95.9468723
  55.8278163 103.1920527  96.0135453  61.3083506 100.6094871 101.3762531
  60.6507181 101.2994132 101.4642660  62.1123905 100.9991303 101.7196518
  51.0609388  93.0765517  98.6202097  51.6353140  92.8540698  97.8875290
  51.6480370  93.1454211  99.3730698  60.1188965  98.9639244  99.4266473
  60.6320847  99.5969236  99.9288183  60.7690189  98.3640439  99.0609833
  51.3878975  95.1069978  92.6397982  50.5516287  95.4444664  92.9607257
  51.2483744  94.9718958  91.7025119  53.3632055  89.9506766  97.3477166
  52.7096468  89.6355783  96.7233781  53.3212530  89.3282506  98.0736989
  54.4743260 100.2326061  89.2630458  53.5670322 100.0015314  89.4621607
  54.9714292  99.4363680  89.4504440  57.3811339 108.9423568  92.1827144
  56.7073038 109.2455265  92.7912102  57.7677161 109.7452648  91.8332601
  56.5969796  96.4388699 101.6724814  55.6792357  96.6603646 101.5146502
  57.0129939  96.5135010 100.8136521  57.3804844  97.8380115  96.8027494
  58.1276662  98.3501512  96.4934616  57.6496433  97.5164168  97.6631887
  55.6531494 100.3338656  93.7854448  54.7442713 100.0497688  93.8826918
  55.6826578 100.7537734  92.9257755  60.8850761 103.9445245  97.5545616
  60.4313088 103.1036155  97.6110806  60.2544728 104.5806644  97.8920396
  59.8283681  94.8737231  98.7846283  59.0906437  94.3614617  99.1156526
  60.0810454  94.4337613  97.9729560  59.3283700 105.7821742  98.4895434
  59.6206675 106.3426799  97.7707800  59.8382321 106.0750303  99.2448593
  59.9295308  87.6513483  99.3788052  60.2354185  86.7910847  99.0913968
  60.6547913  88.2431103  99.1787046  46.2219664  98.0544170  97.7669650
  46.0244064  97.4613530  97.0420717  45.6666328  97.7496380  98.4845589
  54.2016388  97.9467276  99.8864244  54.2564998  96.9941113  99.8106720
  53.3907590  98.1026715 100.3705542  55.3507582 101.8747399  91.1242527
  54.9127011 101.1583258  90.6648164  56.0918022 102.1023514  90.5627618
  52.1408748  96.5644336  97.6454622  51.3276613  96.8638507  98.0519815
  52.6367742  96.1700025  98.3629105  54.2917326 106.5602093  99.5788887
  54.2493504 106.7862939  98.6497419  55.2080024 106.3265468  99.7274688
  57.7382959  97.0286160 106.4769516  58.0932347  97.2557634 107.3363982
  58.3855091  97.3604537 105.8546772  63.4680696 100.1504596  97.1818845
  63.3298595 100.3406192  96.2540035  63.1116915 100.9123979  97.6386896
  51.6322822  94.1362692 103.2615857  52.2722202  93.9951451 102.5638821
  50.8000353  93.8497205 102.8854459  63.4950076 102.2181123 102.1930117
  63.9286583 102.1256412 103.0413171  64.2081657 102.1938624 101.5550133
  52.4083126 103.4365122  99.3750850  53.2023725 102.9415442  99.1733425
  51.6974819 102.9082985  99.0118555  57.2277971 105.8183217 103.7263217
  57.2814993 106.3874154 104.4940933  56.3592752 105.9885103 103.3617255
  48.7165890  97.5808204  95.4510603  47.7863478  97.5192659  95.6680565
  48.8123362  97.0584156  94.6547244  48.6351439  94.1063017  98.0388844
  48.8958256  95.0208350  97.9298005  49.4568611  93.6387459  98.1885457
  50.1076364  95.5200774 105.2087669  50.7799418  95.3118136 104.5600318
  49.2806151  95.3222860 104.7692901  64.3565625 102.2604824 104.7263002
  64.5501516 103.1650635 104.9722277  64.2566244 101.8012243 105.5601587
  56.0101936  92.1462715 107.2253330  55.3629851  92.8452664 107.1317806
  56.7802952  92.5798859 107.5929578  59.4180734 102.4111567 110.3003883
  59.2666241 102.1822118 109.3833967  59.4085414 103.3682168 110.3135228
  56.1866071  99.9843480 105.2850149  57.1158131 100.1354639 105.1119117
  55.7657101 100.0727500 104.4298796  54.9854402 104.0094144 103.0548687
  54.8465488 103.6412928 103.9274625  54.1968999 104.5241783 102.8832645
  55.5802554 109.1103240  94.3974223  55.7554310 108.6391284  95.2119846
  54.8935342 109.7369007  94.6255484  56.5359617 103.3875747 100.4437525
  56.2009450 103.3476517 101.3395175  56.0363563 102.7220463  99.9707935
  50.5103861  98.7943377 105.9690106  50.3723659  98.0623615 106.5701645
  51.4208785  98.7052277 105.6874294  59.4718809 100.7331781  90.7174584
  58.8547980 100.0078609  90.6207637  59.0035298 101.4941141  90.3741659
  53.1386162  98.5063336 105.4573786  53.8485781  97.8656528 105.4160404
  53.0955470  98.7576231 106.3799966  61.1272941 105.4430689 108.3780365
  61.0685487 104.7589909 107.7110948  61.5292459 106.1849679 107.9260991
  51.8515096  95.4928554 107.2769425  51.3152453  95.0419292 107.9291021
  51.2631805  95.6274463 106.5339889  50.1463640 112.2592603 101.1714084
  50.3860238 112.8911127 101.8493102  49.3032836 111.9080643 101.4579443
  51.2617355  94.9517205  89.8395889  50.3846821  94.8306006  89.4758135
  51.7375108  94.1603284  89.5874777  61.1290348 103.4070273 106.6094344
  60.2417127 103.0696195 106.7320743  61.6988899 102.6753304 106.8463110
  42.7819495  99.7394365  99.9337396  43.4690535  99.4256095  99.3458411
  42.6267624 100.6435730  99.6604647  47.5854217  94.6284562 104.3622419
  47.5012406  94.0210231 103.6272829  46.7636924  95.1193580 104.3631916
  54.6591501 108.0671726 103.5755588  54.5861673 108.8726697 104.0874892
  54.2168895 108.2663691 102.7503609  54.4481281 107.3043496  97.0858409
  53.6648803 107.8465176  97.1796634  55.1474026 107.8217475  97.4852650
  57.7577931  93.1138125  99.7292615  58.2546631  92.3608087  99.4093685
  56.9864913  93.1502442  99.1635824  65.6107689  98.8178491 101.3710906
  65.5997565  99.7003206 101.0004839  64.7425068  98.4650041 101.1765443
  57.1190185 107.9658560 105.7313746  57.8318157 108.6006024 105.6589648
  56.6280214 108.0622426 104.9153748  58.8407712 101.8709812  97.3031038
  57.9063991 101.9911275  97.1335742  59.0184380 100.9682279  97.0391048
  54.3412900  95.2555508  99.4564299  53.9710687  94.7026548 100.1445205
  54.8371992  94.6513642  98.9039299  62.2280263  97.7127132  97.8381072
  62.6940715  98.5455123  97.7641375  62.6787764  97.2472113  98.5426331
  52.1702099 105.7153003 106.5519317  52.8711558 106.3489486 106.7048711
  51.6997213 106.0567735 105.7914956  60.2956494 104.0570953  94.8367224
  60.5716338 103.9427547  95.7461098  59.4260993 103.6588438  94.7979397
  60.1996926  90.0807719 101.8771973  59.2860006  90.3111945 102.0454180
  60.6290027  90.1646163 102.7286006  59.9703384  98.2697611 104.3771867
  59.3174835  98.5173518 103.7224320  60.3483764  97.4561749 104.0434345
  56.9310558 108.3057304  98.4800038  57.1132953 107.4878960  98.9427790
  57.7543544 108.5224996  98.0424928  57.2652724 107.2325489  95.7415086
  57.7940490 106.7217943  95.1285248  57.5280943 106.9168019  96.6060619
  56.0190957  99.0117422 110.8637905  55.3431595  98.9111551 111.5340280
  56.8418591  98.8556635 111.3273902  47.7669817 105.2489358 103.4850420
  48.3523253 104.5033046 103.6178324  47.5694655 105.5593315 104.3687084
  50.6208472 108.2840606  98.5012862  49.9518847 108.7686733  98.0176902
  50.4821341 108.5309826  99.4156241  42.3587471  97.8194958 102.2054863
  42.3971571  97.2858549 102.9991981  41.8527764  97.2930164 101.5865840
  54.7613740 110.3184349 105.0995521  55.3132048 110.4815971 105.8644606
  55.1019934 110.9088787 104.4275545  49.7378234  92.6659499 105.7017405
  49.8019560  93.5274330 105.2894803  49.6745354  92.0533501 104.9689764
  49.2130506  94.7382631 109.3490439  49.8402545  94.3559709 109.9627964
  48.3558425  94.5196833 109.7146132  45.9896049  96.5459061  95.2808794
  46.2849490  95.6369739  95.2275848  45.0884085  96.5246800  94.9589797
  57.8982128 108.2666325 102.0859203  57.7733267 107.4656064 101.5770148
  58.5561219 108.7612518 101.5973173  49.5190296  94.6215057 101.2636343
  48.7976882  95.2351025 101.1243816  50.3083552  95.1572822 101.1852989
  59.9617036 106.0675345 103.7138753  59.0147372 105.9480696 103.6417079
  60.3099809 105.1797843 103.7965014  52.3216609  91.9569484 107.5376995
  52.8451011  92.2031780 108.3003304  52.1028943  92.7889518 107.1180132
  47.7183890  94.2273158  95.4048119  47.3896597  93.3470537  95.2223225
  48.0723261  94.1720827  96.2924509  56.9663469 105.8628061  99.9143105
  56.8188432 104.9344768 100.0950675  57.7916963 105.8848152  99.4300180
  50.8325714  94.5146128  95.7723597  51.1721786  95.0432049  95.0502206
  51.2797834  94.8526534  96.5482164  60.5697591 106.6856620 101.0007978
  61.4944139 106.4799481 100.8632429  60.4012895 106.4373021 101.9097319
  53.5269154  92.8983179 105.2226665  53.1865975  92.0990992 105.6247345
  52.8208161  93.1984890 104.6503498  54.1785626  89.9832491 103.6753988
  55.0011696  89.5092969 103.5532879  54.4223690  90.7622975 104.1752675
  52.8193861  93.0120750  93.9716890  53.5402223  93.3902002  93.4680607
  52.1959165  93.7309626  94.0751868  56.9624984  93.7165899  94.9075222
  57.1788598  94.5990536  94.6064050  56.4819051  93.3252112  94.1780864
  51.7024205  96.6751612 101.4845967  51.5568786  96.9891915 102.3770248
  51.2249409  97.2936512 100.9316865  53.5620588  93.6654160 101.5326856
  53.5482157  92.7695253 101.1959154  54.2793016  93.6724823 102.1665142
  55.4146719  94.0991500 103.5779984  55.1564496  95.0208571 103.5764314
  54.8831759  93.7021934 104.2680448  60.3592907 107.2042287  96.3570069
  60.5329785 106.6388710  95.6043922  60.8521799 108.0043182  96.1749559
  46.1769867  99.2156956 104.4233628  45.6323335  99.9916764 104.5553902
  47.0549217  99.5627761 104.2652749  52.9657484  92.5468540  96.8014427
  53.0873395  91.6185186  97.0005314  52.6759526  92.5607226  95.8892742
  55.8348674  90.2323450  99.9381146  55.8570371  90.2962784  98.9833126
  56.2516733  89.3927959 100.1321653  66.2132299  99.9678710  97.9760369
  66.6563445  99.2186035  97.5779492  65.3358809  99.9588846  97.5934101
  61.3468080 106.5209051  93.4566967  62.0418984 107.1415744  93.6754282
  61.6891230 105.6704403  93.7319345  46.9635889  98.3426852 107.3163785
  46.2217625  98.4909488 107.9028415  46.6428633  98.6035118 106.4530534
  63.2459503 103.9708757  94.9854298  63.7710827 104.3096030  94.2603618
  63.1581856 103.0355772  94.8017433  54.9079552 107.8842831 107.1144175
  55.2166678 107.6391977 107.9866874  55.7055034 108.0889469 106.6263045
  54.9300164 110.0380740  99.3449551  54.4905154 109.5457119 100.0382408
  55.6808281 109.4953708  99.1041627  47.4092503 106.2292281  99.3474180
  48.2350523 105.9296053  98.9672823  47.0586555 105.4599904  99.7963968
  52.3774036 105.5818749 101.4171853  51.7554045 104.9189454 101.1174081
  53.0478903 105.6079881 100.7345501  45.6101108 104.1478608 100.3063113
  44.7733016 103.7200782 100.1247114  45.5824753 104.3411051 101.2433904
  52.4498563  94.0600537 111.0104359  52.4986719  94.9362660 110.6282129
  52.9921078  93.5177930 110.4376002  63.0551284 101.4534127 107.6038225
  63.1049289 101.2884134 108.5453748  62.9465207 100.5861386 107.2136106
  51.9387543 104.1322673  94.8930314  52.0875663 104.8158137  94.2396986
  52.7453986 104.1127763  95.4079769  60.3455047  97.4365055 108.9197531
  61.2464909  97.2971520 108.6281529  60.4203021  97.6019510 109.8595709
  54.6797852  94.8131910 107.7650718  53.8101161  95.1065476 107.4933306
  54.9157332  95.3972355 108.4857981  64.5569481 103.8731069 107.8480246
  64.2654289 104.2361049 108.6843707  63.9441612 103.1598077 107.6693578
  65.7565163 101.4383948 100.3682817  66.5912055 101.8773752 100.5320377
  65.8924292 100.9622602  99.5491062  62.8056669  98.9963683 106.3160304
  63.2810791  99.1891329 105.5079156  61.8822235  99.0522869 106.0703688
  49.6940176 100.1587850  95.8991383  49.4486218  99.2550180  96.0971593
  49.8636090 100.1605001  94.9570861  57.3836886  91.0311527 105.2816138
  57.9018830  91.7672554 104.9562627  57.0292018  91.3375520 106.1162897
  48.9635823  95.8916208  93.3977544  48.2705068  95.9660563  92.7417580
  48.7187575  95.1276552  93.9199061  57.6349480  87.4511809 100.8017035
  57.9151234  86.7834998 101.4277461  58.4200087  87.6440905 100.2891699
  55.4382948 106.6270803  92.3642061  54.8656915 107.2460990  91.9112533
  56.0115742 107.1770165  92.8981983  61.5058338  95.8729443 104.5488610
  62.4575761  95.9727541 104.5700834  61.3361789  95.0807712 105.0586694
  59.5272718  92.9585026 104.7348011  58.9322650  93.2390039 104.0394499
  59.2422414  93.4478927 105.5064752  58.6580208 106.9107953  93.4950643
  59.5910881 106.8453515  93.6983519  58.5703421 107.7464220  93.0365176
  61.2868225 106.2273824  90.4554591  61.2081856 105.8933687  91.3490349
  62.1077892 106.7195592  90.4546063  63.9846416  99.0935563 103.6630910
  63.9522736  98.1551564 103.8490593  64.5947040  99.1719600 102.9296734
  55.8229747  97.9631616  89.7058114  56.7688852  97.8337824  89.7746532
  55.4443992  97.2246278  90.1827542  64.1340904  95.8846606 103.7089193
  63.6179953  95.1005063 103.5219122  65.0180853  95.5565323 103.8735712
  61.7951631  89.6287622  99.6685005  61.5976453  89.3202710 100.5528337
  62.4051337  90.3549261  99.7982935  69.8022966 100.1551570 102.8036946
  70.5326354  99.8936858 103.3644650  69.1929911  99.4180292 102.8439014
  67.8838263  98.2959432 103.4011398  67.1571427  98.1615397 102.7927889
  67.4685550  98.6036261 104.2068116  55.7068439 102.0149362 111.1658771
  56.6271449 102.1927961 111.3598817  55.6718022 101.0705407 111.0138470
  54.0072664  95.8881592  89.6412999  53.1004119  95.5914705  89.7175712
  54.2848645  95.5911410  88.7747285  44.9250604  97.2087956 100.0912045
  44.6053389  96.3553264  99.7986419  44.3784033  97.4236534 100.8470013
  48.7030512  99.9250397 103.8081552  48.9216522 100.8567505 103.8269586
  49.1156286  99.5658371 104.5936356  55.6234730  90.4318482  95.7957240
  54.8135458  90.0865567  96.1712486  56.3119147  90.1226026  96.3844852
  57.5525278  89.5096529  97.4181537  58.1056317  89.9291982  98.0771560
  57.7895364  88.5832277  97.4604493  53.5758377  95.4983602 113.1984301
  53.4755104  96.4477959 113.1296392  53.3579919  95.1701841 112.3260371
  52.7771449  92.7468528  89.7824978  53.6390613  93.0723426  90.0420795
  52.9621793  91.9600023  89.2698044  44.7938864 100.8290867 102.0605167
  44.1002336 100.4144820 101.5475121  45.5411855 100.8711404 101.4638586
  60.9304085  91.6197054  96.9260201  60.3502754  92.2781858  96.5438253
  60.6640018  90.7974399  96.5147618  59.3807651  91.0202112  99.1281521
  59.8807430  91.1318646  98.3195840  60.0243259  90.7163165  99.7682330
  53.4389647  98.9280741 112.0149362  52.9556729  99.7281101 112.2213251
  53.5250586  98.9388686 111.0616806  46.7075607 100.7609121  99.9371182
  46.6846295 100.8596808  98.9853065  47.0176243 101.6074272 100.2588348
  49.3662985 102.8185276 104.0517796  50.3206238 102.7869218 103.9847728
  49.1675508 102.3575900 104.8668022  49.9562367 101.3886392 106.6188594
  50.7755256 101.8830471 106.6423431  50.2299175 100.4718360 106.5906161
  59.7128963  93.7797144  95.9816549  58.8254818  94.0646795  95.7636744
  60.1282952  93.6190908  95.1343826  63.0643499  93.8043665  99.6970888
  63.8403889  94.2940118  99.9695505  62.3391633  94.2301720 100.1542758
  65.5016058  94.5171285 100.7544829  66.0960549  94.2767021 100.0438137
  65.5742642  93.7978415 101.3818365  47.7213214 108.3604895 101.0687994
  47.5867681 107.6005296 100.5025992  47.3045276 109.0845795 100.6016783
  58.8572177 103.5441819  90.0764569  59.5608027 103.7491822  90.6922225
  58.1334825 104.1118581  90.3413653  59.6869987  99.2951680  96.1966839
  59.6305188  99.7520232  95.3574472  60.2398329  98.5342365  96.0189682
  63.4974793  95.0841412  97.0216959  63.2411727  94.6838048  97.8525167
  62.8727661  95.7985206  96.8967098  67.8087131  97.8237485  99.5288250
  67.2486689  97.8930675 100.3019812  67.2030634  97.6478470  98.8087747
  50.8782339 109.2574213 101.2806437  50.7614724 110.2019645 101.1785127
  50.0574786 108.9547774 101.6692236  60.7658874 103.9824348  92.1263029
  61.6004478 103.5505547  91.9440504  60.6043217 103.8106362  93.0539924
  60.4204766 100.4856462  93.4919369  60.3653570 100.3200733  92.5507813
  59.7950821 101.1932494  93.6481558  45.2097281  95.7224526 107.3180791
  45.8556145  95.2123480 107.8068016  45.0014432  96.4593208 107.8924216
  53.7300892  89.9864571  93.0704687  53.7179561  90.9306410  93.2272958
  54.6224313  89.8034716  92.7764148  51.9036854 109.9102474 104.4962365
  52.8064100 109.9426085 104.8128860  51.6774224 108.9802925 104.5108701
  53.6590456 108.6633461 101.1572444  52.7086087 108.6635323 101.0436816
  53.9622942 107.9166196 100.6408478  57.5453011  86.5807347  97.3250624
  56.7785407  86.0265834  97.4707306  57.9563716  86.6529216  98.1864775
  49.5494772  92.8692143 111.4155805  50.4126234  92.5128948 111.6259130
  48.9760183  92.5306038 112.1031209  62.0619671 116.3056904  98.1476622
  61.4984536 116.2146841  97.3792909  61.9472066 115.4856808  98.6279114
  59.6084103 117.8008095 100.9860842  60.4005395 117.4598920 100.5707141
  59.8480753 117.9103071 101.9062995  67.6419230 119.9727872  93.4591087
  66.9907210 120.5581952  93.0725100  68.4363593 120.5034066  93.5186124
  61.5674857 117.0617009  93.8578221  62.3405733 116.5145996  93.7191097
  61.9200256 117.9261258  94.0692682  63.9041135 113.2209675  91.4896671
  64.1566655 112.6991196  90.7280134  62.9665694 113.0575820  91.5923354
  68.9484418 112.2245453  99.2971414  69.7347507 111.8064876  98.9461831
  69.2123122 113.1291545  99.4653062  69.1194495 117.6618303  93.9960071
  68.4840328 117.7352930  94.7080976  68.7891901 118.2511902  93.3179150
  63.6237423 115.1237781  93.6921046  63.5073682 114.4482684  94.3602130
  63.7339683 114.6370155  92.8753199  65.9668964 114.5847928  97.3967735
  65.6027172 114.0578549  98.1080657  66.8236080 114.1946397  97.2234220
  65.6074451 109.6137828  92.3929084  65.7748854 110.4818064  92.7599555
  65.4171620 109.7765109  91.4690373  61.8162266 114.5268603 100.0931618
  60.8912763 114.3944817 100.3009310  62.0646679 115.3062823 100.5901561
  65.5863672 112.0695485  93.3775750  65.4663297 112.5152536  94.2161231
  64.8916261 112.4180803  92.8189289  59.1771077 114.1701877 100.9275407
  59.3063458 114.4236356 101.8414819  58.4968528 114.7629585 100.6080062
  71.2848738 112.5416958  94.2056084  72.1966595 112.7744345  94.0303782
  70.7758385 113.1254002  93.6431163  68.6284713 108.7174994 102.4545945
  67.7669192 109.0156248 102.7462683  68.6547148 108.9345393 101.5226978
  65.4446283 117.2617185  98.8619751  65.9084628 117.5404888  98.0724373
  65.1803081 116.3600629  98.6792842  64.3815169 113.3840337  95.6709316
  65.0839212 113.8361381  96.1383242  64.0495797 112.7424156  96.2989209
  58.1240503 111.6423890 100.9726450  57.3339557 111.8981418 100.4966560
  58.6151750 112.4572228 101.0778490  60.0755248 112.0068469  97.9309926
  59.2786411 112.1187163  98.4493422  59.8480840 112.3455121  97.0650817
  56.4078206 111.8954380 103.4041440  56.6586244 112.7801390 103.6699016
  56.9437754 111.7158982 102.6316532  65.6208933 120.1981280  95.7471421
  65.4854608 121.0432816  96.1756269  66.1618746 120.4000557  94.9837355
  59.0738331 117.7156718  96.3199346  59.5862851 118.5099968  96.4704911
  59.7261043 117.0183008  96.2532948  60.8833215 120.8322474  98.4022100
  61.0599844 121.7540439  98.2143084  61.6790049 120.5180893  98.8316479
  68.9701397 103.7211842 104.2770315  68.6265666 104.6113483 104.2009425
  69.3380359 103.5313499 103.4139900  57.0387247 116.0445372  97.0958917
  57.8762469 116.4542380  96.8792625  57.2165515 115.1044814  97.0659111
  68.9351680 113.7120453  92.7842750  68.4198303 114.4825057  93.0231137
  68.6628988 113.0385589  93.4075811  66.5198791 108.5570154  97.8427988
  65.6640387 108.1677004  97.6633627  66.9325742 108.6362114  96.9827774
  68.0497937 106.0916497 102.2419548  67.5462733 106.0546632 101.4287353
  68.3428544 107.0009240 102.3016205  64.2940823 106.1755227 101.2485730
  65.1593820 105.9798035 100.8891619  64.3618332 105.9465578 102.1755087
  73.9085954 116.4652807  94.7195923  73.1315396 116.1263967  94.2751085
  74.5877435 116.4705431  94.0450888  68.7237983 111.5847545  94.6102531
  68.4188118 111.8993694  95.4612674  69.6768425 111.6628965  94.6529864
  67.1684415 117.7437768  96.2595485  66.6405776 117.0090528  95.9468723
  66.6671917 118.5212445  96.0135453  61.9003142 108.4057434  98.6202097
  62.4746894 108.1832616  97.8875290  62.4874125 108.4746129  99.3730698
  62.2272729 110.4361896  92.6397982  61.3910042 110.7736582  92.9607257
  62.0877499 110.3010875  91.7025119  64.2025810 105.2798683  97.3477166
  63.5490222 104.9647701  96.7233781  64.1606284 104.6574424  98.0736989
  65.3137015 115.5617978  89.2630458  64.4064076 115.3307232  89.4621607
  65.8108047 114.7655598  89.4504440  68.2205094 124.2715486  92.1827144
  67.5466792 124.5747182  92.7912102  68.6070916 125.0744566  91.8332601
  67.4363550 111.7680617 101.6724814  66.5186112 111.9895564 101.5146502
  67.8523694 111.8426927 100.8136521  68.2198598 113.1672033  96.8027494
  68.9670417 113.6793430  96.4934616  68.4890188 112.8456085  97.6631887
  66.4925248 115.6630573  93.7854448  65.5836467 115.3789606  93.8826918
  66.5220332 116.0829652  92.9257755  70.6677435 110.2029149  98.7846283
  69.9300192 109.6906535  99.1156526  70.9204209 109.7629530  97.9729560
  70.7689062 102.9805401  99.3788052  71.0747939 102.1202764  99.0913968
  71.4941667 103.5723021  99.1787046  57.0613419 113.3836087  97.7669650
  56.8637818 112.7905448  97.0420717  56.5060083 113.0788298  98.4845589
  65.0410142 113.2759194  99.8864244  65.0958752 112.3233030  99.8106720
  64.2301344 113.4318633 100.3705542  66.1901336 117.2039317  91.1242527
  65.7520766 116.4875176  90.6648164  66.9311777 117.4315432  90.5627618
  62.9802502 111.8936254  97.6454622  62.1670368 112.1930424  98.0519815
  63.4761496 111.4991942  98.3629105  74.3074451 115.4796514  97.1818845
  74.1692349 115.6698110  96.2540035  73.9510670 116.2415897  97.6386896
  62.4716577 109.4654609 103.2615857  63.1115956 109.3243368 102.5638821
  61.6394107 109.1789123 102.8854459  63.2476881 118.7657040  99.3750850
  64.0417479 118.2707360  99.1733425  62.5368573 118.2374903  99.0118555
  59.5559644 112.9100121  95.4510603  58.6257232 112.8484577  95.6680565
  59.6517116 112.3876074  94.6547244  59.4745193 109.4354934  98.0388844
  59.7352011 110.3500267  97.9298005  60.2962366 108.9679377  98.1885457
  60.9470119 110.8492691 105.2087669  61.6193172 110.6410053 104.5600318
  60.1199905 110.6514777 104.7692901  66.4196309 124.4395158  94.3974223
  66.5948064 123.9683201  95.2119846  65.7329097 125.0660924  94.6255484
  70.3112564 116.0623699  90.7174584  69.6941734 115.3370527  90.6207637
  69.8429052 116.8233059  90.3741659  62.1011110 110.2809123  89.8395889
  61.2240576 110.1597924  89.4758135  62.5768863 109.4895201  89.5874777
  53.6213250 115.0686283  99.9337396  54.3084289 114.7548013  99.3458411
  53.4661378 115.9727647  99.6604647  58.4247972 109.9576479 104.3622419
  58.3406161 109.3502149 103.6272829  57.6030678 110.4485498 104.3631916
  68.5971686 108.4430043  99.7292615  69.0940385 107.6900005  99.4093685
  67.8258667 108.4794359  99.1635824  69.6801466 117.2001730  97.3031038
  68.7457745 117.3203192  97.1335742  69.8578135 116.2974197  97.0391048
  65.1806654 110.5847426  99.4564299  64.8104442 110.0318466 100.1445205
  65.6765747 109.9805559  98.9039299  73.0674018 113.0419049  97.8381072
  73.5334470 113.8747041  97.7641375  73.5181518 112.5764031  98.5426331
  71.1350249 119.3862871  94.8367224  71.4110093 119.2719465  95.7461098
  70.2654748 118.9880355  94.7979397  71.0390680 105.4099636 101.8771973
  70.1253760 105.6403863 102.0454180  71.4683782 105.4938080 102.7286006
  68.1046478 122.5617407  95.7415086  68.6334245 122.0509861  95.1285248
  68.3674698 122.2459937  96.6060619  53.1981226 113.1486876 102.2054863
  53.2365325 112.6150467 102.9991981  52.6921519 112.6222082 101.5865840
  60.5771988 107.9951417 105.7017405  60.6413315 108.8566247 105.2894803
  60.5139108 107.3825418 104.9689764  56.8289803 111.8750978  95.2808794
  57.1243244 110.9661657  95.2275848  55.9277839 111.8538718  94.9589797
  60.3584050 109.9506975 101.2636343  59.6370636 110.5642942 101.1243816
  61.1477306 110.4864740 101.1852989  58.5577645 109.5565076  95.4048119
  58.2290351 108.6762455  95.2223225  58.9117016 109.5012745  96.2924509
  61.6719468 109.8438046  95.7723597  62.0115541 110.3723967  95.0502206
  62.1191589 110.1818452  96.5482164  64.3662909 108.2275096 105.2226665
  64.0259729 107.4282909 105.6247345  63.6601915 108.5276807 104.6503498
  65.0179381 105.3124409 103.6753988  65.8405450 104.8384887 103.5532879
  65.2617444 106.0914893 104.1752675  63.6587615 108.3412667  93.9716890
  64.3795978 108.7193920  93.4680607  63.0352919 109.0601544  94.0751868
  67.8018738 109.0457816  94.9075222  68.0182353 109.9282454  94.6064050
  67.3212805 108.6544030  94.1780864  62.5417960 112.0043529 101.4845967
  62.3962540 112.3183832 102.3770248  62.0643163 112.6228430 100.9316865
  64.4014342 108.9946077 101.5326856  64.3875911 108.0987171 101.1959154
  65.1186771 109.0016741 102.1665142  66.2540473 109.4283418 103.5779984
  65.9958251 110.3500488 103.5764314  65.7225513 109.0313852 104.2680448
  57.0163622 114.5448874 104.4233628  56.4717090 115.3208682 104.5553902
  57.8942972 114.8919678 104.2652749  63.8051238 107.8760458  96.8014427
  63.9267150 106.9477104  97.0005314  63.5153281 107.8899144  95.8892742
  66.6742429 105.5615368  99.9381146  66.6964126 105.6254701  98.9833126
  67.0910488 104.7219877 100.1321653  72.1861834 121.8500969  93.4566967
  72.8812739 122.4707662  93.6754282  72.5284985 120.9996320  93.7319345
  74.0853257 119.3000675  94.9854298  74.6104582 119.6387947  94.2603618
  73.9975610 118.3647690  94.8017433  58.2486257 121.5584199  99.3474180
  59.0744277 121.2587971  98.9672823  57.8980309 120.7891821  99.7963968
  56.4494862 119.4770525 100.3063113  55.6126771 119.0492700 100.1247114
  56.4218508 119.6702969 101.2433904  62.7781297 119.4614590  94.8930314
  62.9269418 120.1450055  94.2396986  63.5847741 119.4419680  95.4079769
  60.5333930 115.4879768  95.8991383  60.2879972 114.5842098  96.0971593
  60.7029845 115.4896918  94.9570861  59.8029578 111.2208126  93.3977544
  59.1098823 111.2952481  92.7417580  59.5581330 110.4568469  93.9199061
  68.4743234 102.7803727 100.8017035  68.7544988 102.1126916 101.4277461
  69.2593841 102.9732823 100.2891699  66.2776703 121.9562721  92.3642061
  65.7050670 122.5752908  91.9112533  66.8509496 122.5062083  92.8981983
  69.4973963 122.2399871  93.4950643  70.4304636 122.1745433  93.6983519
  69.4097175 123.0756138  93.0365176  72.1261979 121.5565741  90.4554591
  72.0475611 121.2225605  91.3490349  72.9471646 122.0487509  90.4546063
  66.6623501 113.2923534  89.7058114  67.6082606 113.1629742  89.7746532
  66.2837746 112.5538195  90.1827542  72.6345386 104.9579540  99.6685005
  72.4370207 104.6494628 100.5528337  73.2445091 105.6841179  99.7982935
  64.8466418 111.2173510  89.6412999  63.9397874 110.9206623  89.7175712
  65.1242399 110.9203328  88.7747285  55.7644359 112.5379873 100.0912045
  55.4447143 111.6845182  99.7986419  55.2177787 112.7528452 100.8470013
  66.4628484 105.7610400  95.7957240  65.6529213 105.4157485  96.1712486
  67.1512901 105.4517943  96.3844852  68.3919032 104.8388446  97.4181537
  68.9450071 105.2583900  98.0771560  68.6289119 103.9124195  97.4604493
  63.6165203 108.0760445  89.7824978  64.4784367 108.4015344  90.0420795
  63.8015547 107.2891941  89.2698044  55.6332619 116.1582785 102.0605167
  54.9396090 115.7436738 101.5475121  56.3805610 116.2003321 101.4638586
  71.7697840 106.9488972  96.9260201  71.1896509 107.6073776  96.5438253
  71.5033772 106.1266316  96.5147618  70.2201406 106.3494029  99.1281521
  70.7201184 106.4610564  98.3195840  70.8637014 106.0455082  99.7682330
  57.5469361 116.0901039  99.9371182  57.5240049 116.1888726  98.9853065
  57.8569998 116.9366189 100.2588348  70.5522718 109.1089062  95.9816549
  69.6648573 109.3938713  95.7636744  70.9676707 108.9482825  95.1343826
  73.9037254 109.1335583  99.6970888  74.6797644 109.6232035  99.9695505
  73.1785388 109.5593637 100.1542758  69.6965931 118.8733737  90.0764569
  70.4001781 119.0783739  90.6922225  68.9728580 119.4410499  90.3413653
  70.5263741 114.6243598  96.1966839  70.4698943 115.0812149  95.3574472
  71.0792084 113.8634283  96.0189682  74.3368547 110.4133330  97.0216959
  74.0805481 110.0129965  97.8525167  73.7121415 111.1277124  96.8967098
  71.6052628 119.3116266  92.1263029  72.4398232 118.8797464  91.9440504
  71.4436971 119.1398280  93.0539924  71.2598521 115.8148379  93.4919369
  71.2047324 115.6492651  92.5507813  70.6344576 116.5224412  93.6481558
  56.0491036 111.0516444 107.3180791  56.6949899 110.5415398 107.8068016
  55.8408187 111.7885125 107.8924216  64.5694646 105.3156488  93.0704687
  64.5573316 106.2598328  93.2272958  65.4618068 105.1326634  92.7764148
  68.3846766 101.9099265  97.3250624  67.6179161 101.3557752  97.4707306
  68.7957471 101.9821134  98.1864775  73.0666484 125.7653813  92.6397982
  72.2303796 126.1028500  92.9607257  72.9271253 125.6302793  91.7025119
  72.9404864 125.6101041  89.8395889  72.0634330 125.4889841  89.4758135
  73.4162617 124.8187119  89.5874777  70.6423332 126.5500043  93.3977544
  69.9492577 126.6244398  92.7417580  70.3975084 125.7860387  93.9199061
  75.6860173 126.5465428  89.6412999  74.7791628 126.2498540  89.7175712
  75.9636154 126.2495246  88.7747285  74.4558958 123.4052363  89.7824978
  75.3178122 123.7307261  90.0420795  74.6409302 122.6183859  89.2698044
  75.4088401 120.6448406  93.0704687  75.3967070 121.5890246  93.2272958
  76.3011822 120.4618551  92.7764148  15.1974378  14.8596534  88.9463513
  15.8352788  14.7403281  88.2426853  15.0795221  15.8077378  89.0051465
   7.8650900  16.6659438  84.8721928   7.3015765  16.5749375  84.1038216
   7.7503295  15.8459343  85.3524421  13.4450459  20.3330406  80.1836393
  12.7938438  20.9184486  79.7970407  14.2394821  20.8636601  80.2431431
   7.3706086  17.4219543  80.5823528   8.1436962  16.8748530  80.4436403
   7.7231485  18.2863792  80.7937989   9.7072364  13.5812209  78.2141977
   9.9597884  13.0593730  77.4525440   8.7696923  13.4178354  78.3168661
  14.7515646  12.5847987  86.0216721  15.5378736  12.1667411  85.6707138
  15.0154351  13.4894080  86.1898369  14.9225724  18.0220838  80.7205378
  14.2871557  18.0955464  81.4326282  14.5923130  18.6114437  80.0424457
  20.1524073  12.5223221  86.9249699  20.8849245  11.9522437  87.1587529
  19.3963429  12.1344821  87.3656205   9.4268652  15.4840315  80.4166352
   9.3104910  14.8085218  81.0847437   9.5370912  14.9972689  79.5998505
  11.7700193  14.9450462  84.1213042  11.4058400  14.4181083  84.8325963
  12.6267309  14.5548931  83.9479527  11.3894901  12.4298019  80.1021057
  11.2694526  12.8755070  80.9406537  10.6947489  12.7783337  79.5434595
   9.1501793  25.2001661  83.7511188   9.0725823  26.1509486  83.8299669
   8.5463437  24.8547534  84.4086115  17.0879967  12.9019492  80.9301391
  17.9997823  13.1346879  80.7549089  16.5789614  13.4856537  80.3676470
  15.6949550  17.8845311  88.3214973  15.0658412  18.0491025  87.6191040
  15.3075212  18.2986920  89.0925937  19.5738781  18.8199749  85.6759336
  18.8889820  19.1998650  85.1256370  19.6582631  19.4295075  86.4091284
  11.2477511  17.6219719  85.5865058  11.7115857  17.9007422  84.7969680
  10.9834310  16.7203164  85.4038148  10.1846397  13.7442871  82.3954623
  10.8870441  14.1963915  82.8628549   9.8527026  13.1026690  83.0234516
  17.9435541  19.3431663  90.4477037  18.7652985  18.9411850  90.1659719
  17.9397944  19.2399897  91.3993153  26.0341534  15.6870412  86.7962009
  25.2805242  15.1177810  86.6406013  26.1689075  15.6533076  87.7432643
  11.4240162  20.5583814  82.4716728  11.2885837  21.4035350  82.9001576
  11.9649975  20.7603092  81.7082662   4.8769559  18.0759252  83.0444653
   5.3894080  18.8702502  83.1950218   5.5292272  17.3785542  82.9778255
   6.6864444  21.1925008  85.1267406   6.8631073  22.1142973  84.9388390
   7.4821278  20.8783428  85.5561786   7.8095760  22.7103182  91.1277749
   8.3603185  22.5820245  90.3554743   6.9707236  23.0098071  90.7772641
  14.7382908  14.0722987  79.5088057  14.2229532  14.8427592  79.7476444
  14.4660217  13.3988123  80.1321118  19.7117183  16.8255342  81.4441230
  18.9346625  16.4866501  80.9996392  20.3908663  16.8307965  80.7696195
  14.5269212  11.9450079  81.3347838  14.2219347  12.2596228  82.1857981
  15.4799654  12.0231499  81.3775171  12.9715643  18.1040302  82.9840792
  12.4437005  17.3693062  82.6714029  12.4703146  18.8814979  82.7380760
  17.9508489  16.2989323  88.1007838  17.2932164  16.9888584  88.1887967
  18.7548889  16.6885755  88.4441824  16.7613948  14.6533696  86.1511780
  17.2745830  15.2863687  86.6533489  17.4115172  14.0534891  85.7855140
  11.1168244  15.9220513  75.9875765  10.2095305  15.6909766  76.1866914
  11.6139276  15.1258132  76.1749746  14.0236322  24.6318020  78.9072451
  13.3498021  24.9349717  79.5157409  14.4102144  25.4347100  78.5577908
  14.0229827  13.5274567  83.5272801  14.7701646  14.0395964  83.2179923
  14.2921416  13.2058620  84.3877194  12.2956477  16.0233108  80.5099755
  11.3867696  15.7392140  80.6072225  12.3251561  16.4432186  79.6503062
  17.5275744  19.6339697  84.2790922  17.0738072  18.7930607  84.3356113
  16.8969711  20.2701095  84.6165703  16.4708664  10.5631683  85.5091590
  15.7331421  10.0509069  85.8401832  16.7235438  10.1232065  84.6974867
  15.9708684  21.4716194  85.2140741  16.2631658  22.0321251  84.4953106
  16.4807304  21.7644755  85.9693900  10.8441371  13.6361728  86.6109550
  10.8989981  12.6835565  86.5352027  10.0332573  13.7921167  87.0950849
  11.9932565  17.5641851  77.8487833  11.5551995  16.8477710  77.3893471
  12.7343006  17.7917966  77.2872925  10.9342309  22.2496545  86.3034194
  10.8918488  22.4757391  85.3742726  11.8505008  22.0159919  86.4519995
  20.1105680  15.8399048  83.9064152  19.9723578  16.0300644  82.9785341
  19.7541898  16.6018431  84.3632203  20.1375059  17.9075575  88.9175423
  20.5711566  17.8150864  89.7658478  20.8506640  17.8833076  88.2795439
   9.0508110  19.1259574  86.0996156   9.8448708  18.6309894  85.8978731
   8.3399802  18.5977437  85.7363862  13.8702954  21.5077669  90.4508524
  13.9239976  22.0768606  91.2186240  13.0017735  21.6779554  90.0862561
  20.9990609  17.9499276  91.4508309  21.1926499  18.8545086  91.6967584
  20.8991227  17.4906695  92.2846894  11.6279386  19.6988596  89.7793994
  11.4890471  19.3307380  90.6519932  10.8393982  20.2136235  89.6077951
  12.2227538  24.7997692  81.1219530  12.3979293  24.3285735  81.9365153
  11.5360326  25.4263458  81.3500791  13.1784601  19.0770199  87.1682831
  12.8434433  19.0370968  88.0640481  12.6788546  18.4114914  86.6953242
  16.1143792  16.4226233  77.4419891  15.4972963  15.6973061  77.3452944
  15.6460281  17.1835593  77.0986965   6.7888623  27.9487055  87.8959390
   7.0285221  28.5805579  88.5738409   5.9457819  27.5975095  88.1824750
  11.3016485  23.7566177  90.3000894  11.2286656  24.5621149  90.8120199
  10.8593878  23.9558143  89.4748916  11.0906264  22.9937948  83.8103716
  10.3073786  23.5359628  83.9041940  11.7899010  23.5111927  84.2097957
  22.2532672  14.5072943  88.0956213  22.2422548  15.3897658  87.7250146
  21.3850051  14.1544493  87.9010750  13.7615168  23.6553012  92.4559053
  14.4743140  24.2900476  92.3834954  13.2705197  23.7516878  91.6399055
  15.4832695  17.5604264  84.0276345  14.5488974  17.6805727  83.8581049
  15.6609364  16.6576731  83.7636354  18.8705247  13.4021583  84.5626379
  19.3365699  14.2349575  84.4886681  19.3212747  12.9366565  85.2671637
  16.9381478  19.7465405  81.5612531  17.2141322  19.6321999  82.4706405
  16.0685976  19.3482890  81.5224704  13.5735542  23.9951756  85.2045344
  13.7557936  23.1773412  85.6673097  14.3968528  24.2119448  84.7670234
  13.9077707  22.9219941  82.4660393  14.4365474  22.4112395  81.8530555
  14.1705927  22.6062471  83.3305926   7.2633455  23.9735057  85.2258169
   6.5943830  24.4581185  84.7422209   7.1246325  24.2204278  86.1401547
  11.4038724  26.0078801  91.8240827  11.9557032  26.1710422  92.5889912
  11.7444917  26.5983239  91.1520852  14.5407111  23.9560776  88.8104509
  14.4158250  23.1550516  88.3015455  15.1986202  24.4506970  88.3218479
  16.6042019  21.7569797  90.4384059  15.6572355  21.6375148  90.3662386
  16.9524792  20.8692295  90.5210321  13.6088453  21.5522513  86.6388412
  13.4613415  20.6239220  86.8195982  14.4341946  21.5742603  86.1545487
  17.2122574  22.3751071  87.7253284  18.1369122  22.1693933  87.5877736
  17.0437878  22.1267473  88.6342626  17.0017891  22.8936739  83.0815376
  17.1754768  22.3283161  82.3289228  17.4946782  23.6937634  82.8994866
  22.8557282  15.6573162  84.7005676  23.2988428  14.9080487  84.3024799
  21.9783792  15.6483298  84.3179408  17.9893063  22.2103503  80.1812274
  18.6843968  22.8310196  80.3999589  18.3316213  21.3598855  80.4564652
  19.8884486  19.6603209  81.7099605  20.4135810  19.9990482  80.9848925
  19.8006839  18.7250224  81.5262740  11.5725147  25.7275192  86.0694858
  11.1330137  25.2351571  86.7627715  12.3233264  25.1848160  85.8286933
   4.0517486  21.9186733  86.0719486   4.8775506  21.6190505  85.6918130
   3.7011538  21.1494355  86.5209275   9.0199019  21.2713201  88.1417160
   8.3979028  20.6083906  87.8419388   9.6903886  21.2974333  87.4590808
   8.5812526  19.8217125  81.6175620   8.7300646  20.5052589  80.9642293
   9.3878970  19.8022215  82.1325076  22.3990147  17.1278400  87.0928123
  23.2337038  17.5668204  87.2565684  22.5349275  16.6517053  86.2736369
   6.3365159  15.8482302  82.6236689   6.0911201  14.9444632  82.8216899
   6.5061074  15.8499453  81.6816167  12.0807932  22.3165255  79.0887368
  11.5081899  22.9355442  78.6357840  12.6540725  22.8664617  79.6227290
  15.3005191  22.6002405  80.2195950  16.2335865  22.5347967  80.4228826
  15.2128404  23.4358672  79.7610483  17.9293208  21.9168276  77.1799898
  17.8506840  21.5828139  78.0735655  18.7502875  22.4090043  77.1791370
  20.6271399  14.7830015  90.3876216  20.5947719  13.8446016  90.5735900
  21.2372023  14.8614052  89.6542041  12.4654730  13.6526068  76.4303420
  13.4113835  13.5232276  76.4991838  12.0868975  12.9140730  76.9072848
  26.4447949  15.8446022  89.5282253  27.1751338  15.5831310  90.0889956
  25.8354895  15.1074744  89.5684321  24.5263246  13.9853884  90.1256704
  23.7996410  13.8509849  89.5173196  24.1110533  14.2930713  90.9313422
  17.5729068   7.3091506  83.6505508  16.9927737   7.9676310  83.2683560
  17.3065001   6.4868850  83.2392925  16.3553946   9.4691596  82.7061856
  15.4679801   9.7541247  82.4882051  16.7707935   9.3085360  81.8589133
  19.7068483   9.4938117  86.4216195  20.4828873   9.9834570  86.6940812
  18.9816617   9.9196171  86.8788065  22.1441041  10.2065736  87.4790136
  22.7385532   9.9661472  86.7683444  22.2167625   9.4872867  88.1063672
   4.3638197  24.0499347  87.7933301   4.2292665  23.2899748  87.2271299
   3.9470259  24.7740247  87.3262089  15.4997160  19.2336271  76.8009876
  16.2033010  19.4386273  77.4167531  14.7759809  19.8013033  77.0658959
  16.3294970  14.9846132  82.9212146  16.2730172  15.4414684  82.0819778
  16.8823313  14.2236817  82.7434989  20.1399776  10.7735864  83.7462266
  19.8836710  10.3732500  84.5770473  19.5152644  11.4879658  83.6212405
  24.4512114  13.5131937  86.2533557  23.8911672  13.5825127  87.0265119
  23.8455617  13.3372922  85.5333053   7.5207323  24.9468664  88.0051743
   7.4039707  25.8914097  87.9030433   6.6999769  24.6442226  88.3937542
  17.4083857  19.6718800  78.8508336  18.2429461  19.2399999  78.6685811
  17.2468200  19.5000814  79.7785230  17.0629749  16.1750913  80.2164675
  17.0078553  16.0095185  79.2753119  16.4375805  16.8826946  80.3726865
   8.5461837  25.5996926  91.2207672   9.4489084  25.6320537  91.5374167
   8.3199207  24.6697377  91.2354007  10.3015439  24.3527913  87.8817750
   9.3511070  24.3529774  87.7682123  10.6047925  23.6060647  87.3653785
  26.0368132  30.1888451  88.9463513  26.6746542  30.0695199  88.2426853
  25.9188975  31.1369295  89.0051465  22.8457839  30.1415879  88.8825037
  22.5076350  30.0256944  87.9945572  23.7147607  29.7407044  88.8626043
  18.7044654  31.9951356  84.8721928  18.1409519  31.9041293  84.1038216
  18.5897049  31.1751260  85.3524421  23.3277622  31.2950731  94.8411243
  23.3166262  30.9003529  93.9691747  23.4898261  30.5616804  95.4345014
  16.2509086  33.4902547  87.7106149  17.0430378  33.1493372  87.2952448
  16.4905736  33.5997522  88.6308302  24.2844213  35.6622323  80.1836393
  23.6332193  36.2476404  79.7970407  25.0788576  36.1928518  80.2431431
  18.2099840  32.7511461  80.5823528  18.9830716  32.2040448  80.4436403
  18.5625239  33.6155710  80.7937989  20.0484883  34.0787843  93.7890427
  19.7574749  34.9833474  93.6737093  20.6841867  34.1204370  94.5034496
  20.9741090  31.4564691  90.3791787  21.5704662  31.2320714  89.6648749
  21.0316061  30.7149437  90.9817234  20.5466118  28.9104127  78.2141977
  20.7991639  28.3885648  77.4525440  19.6090677  28.7470272  78.3168661
  25.5909401  27.9139905  86.0216721  26.3772490  27.4959328  85.6707138
  25.8548105  28.8185997  86.1898369  25.7619478  33.3512755  80.7205378
  25.1265311  33.4247382  81.4326282  25.4316885  33.9406354  80.0424457
  30.9917828  27.8515138  86.9249699  31.7243000  27.2814355  87.1587529
  30.2357184  27.4636739  87.3656205  20.2662407  30.8132233  80.4166352
  20.1498665  30.1377136  81.0847437  20.3764667  30.3264607  79.5998505
  22.6093948  30.2742380  84.1213042  22.2452155  29.7473001  84.8325963
  23.4661064  29.8840849  83.9479527  28.5143248  21.5636712  91.3844308
  28.1826573  22.4332123  91.1605523  27.9188862  21.2472996  92.0638338
  22.2499435  25.3032279  79.1174390  22.4173837  26.1712516  79.4844861
  22.0596604  25.4659561  78.1935679  25.0074768  33.7649258  90.7840221
  24.7075491  34.6674297  90.6756028  24.6625827  33.4981442  91.6361373
  18.4587249  30.2163055  86.8176925  17.5337746  30.0839269  87.0254617
  18.7071663  30.9957274  87.3146867  28.4071912  26.2831799  88.4637658
  27.4988789  26.2147207  88.1696419  28.3559507  26.7603743  89.2919483
  22.2288656  27.7589937  80.1021057  22.1088281  28.2046988  80.9406537
  21.5341244  28.1075255  79.5434595  15.8196060  29.8596329  87.6520714
  15.9488442  30.1130808  88.5660126  15.1393512  30.4524037  87.3325369
  19.9895548  40.5293579  83.7511188  19.9119577  41.4801404  83.8299669
  19.3857191  40.1839451  84.4086115  22.4812777  27.7021444  96.4072555
  21.7046111  28.2615364  96.3975420  23.1203340  28.1878227  96.9287425
  30.2733558  24.4848237  90.2415532  29.6307938  24.7780770  89.5955326
  29.7688487  24.3701157  91.0468728  27.9273722  28.2311410  80.9301391
  28.8391578  28.4638797  80.7549089  27.4183369  28.8148454  80.3676470
  20.7359150  30.5106898  95.9690522  21.4773834  31.0491941  95.6925346
  20.0296135  31.1373186  96.1262074  26.2114489  32.6536038  94.5662684
  26.6197845  32.2118448  93.8217316  25.4891751  32.0788665  94.8196877
  22.5645559  27.5908645  91.9396241  23.4106755  28.0148058  92.0830890
  22.5044197  26.9342269  92.6334804  26.5343304  33.2137229  88.3214973
  25.9052166  33.3782943  87.6191040  26.1468966  33.6278838  89.0925937
  30.4132536  34.1491666  85.6759336  29.7283574  34.5290568  85.1256370
  30.4976385  34.7586993  86.4091284  25.7145005  25.2513013  93.5977414
  25.4705937  26.0055074  93.0611690  25.9904935  25.6298361  94.4324661
  27.6683468  31.7951625  92.2754680  27.8800363  32.4383385  91.5989061
  27.6213216  30.9613942  91.8076610  25.2709696  24.4069446  89.1791252
  24.4094176  24.7050700  89.4707990  25.2972131  24.6239845  88.2472285
  22.0871266  32.9511637  85.5865058  22.5509611  33.2299340  84.7969680
  21.8228064  32.0495081  85.4038148  18.9795347  32.4983118  88.5244821
  19.5496704  32.9270387  87.8862305  19.5703459  32.2165703  89.2229007
  21.0240152  29.0734789  82.3954623  21.7264195  29.5255833  82.8628549
  20.6920780  28.4318608  83.0234516  19.4720513  27.6646546  96.7705832
  18.8419174  28.3462827  97.0041229  19.3656601  27.5529627  95.8258970
  14.7665486  27.3318342  87.6971756  13.9764540  27.5875870  87.2211867
  15.2576733  28.1466680  87.8023797  28.7829295  34.6723581  90.4477037
  29.6046739  34.2703768  90.1659719  28.7791698  34.5691815  91.3993153
  16.7180231  27.6962921  84.6555233  15.9211395  27.8081615  85.1738729
  16.4905823  28.0349573  83.7896124  22.5485899  34.2207624  92.6037748
  22.6130331  34.6828031  93.4395919  21.8396823  33.5904989  92.7320058
  13.0503189  27.5848832  90.1286747  13.3011227  28.4695842  90.3944323
  13.5862737  27.4053434  89.3561839  36.8735289  31.0162329  86.7962009
  36.1198997  30.4469727  86.6406013  37.0082830  30.9824994  87.7432643
  22.2633917  35.8875732  82.4716728  22.1279591  36.7327267  82.9001576
  22.8043729  36.0895009  81.7082662  15.7163314  33.4051170  83.0444653
  16.2287835  34.1994420  83.1950218  16.3686027  32.7077460  82.9778255
  17.5258199  36.5216926  85.1267406  17.7024827  37.4434891  84.9388390
  18.3215032  36.2075345  85.5561786  21.6669217  23.3825191  96.7251340
  22.4078931  23.9832344  96.6455802  21.8987140  22.6402828  96.1669382
  16.8110555  28.5681558  95.0029569  16.6964070  27.6666815  95.3036668
  15.9555073  28.8145255  94.6514386  23.8902393  36.5099298  96.6017070
  23.4466247  35.7235677  96.2837975  24.5519607  36.6978449  95.9360961
  18.6489514  38.0395100  91.1277749  19.1996939  37.9112163  90.3554743
  17.8100990  38.3389989  90.7772641  25.9883631  36.7902098  94.6298471
  25.9702106  37.6110979  94.1378741  26.9103551  36.6656173  94.8548612
  22.4456685  34.3046228  95.4721980  22.9785022  33.5434516  95.2421288
  21.9170766  34.0119879  96.2146134  25.6126380  19.4106294  91.0015621
  25.2690650  20.3007935  90.9254732  25.9805343  19.2207951  90.1385206
  13.6812231  31.7339824  83.8204224  14.5187453  32.1436832  83.6037931
  13.8590498  30.7939266  83.7904417  25.5776663  29.4014905  79.5088057
  25.0623286  30.1719509  79.7476444  25.3053971  28.7280041  80.1321118
  23.1623774  24.2464605  84.5673295  22.3065370  23.8571456  84.3878934
  23.5750726  24.3256566  83.7073080  24.6922921  21.7810949  88.9664855
  24.1887716  21.7441084  88.1532660  24.9853527  22.6903691  89.0261511
  20.9365806  21.8649678  87.9731036  21.8018803  21.6692487  87.6136926
  21.0043315  21.6360030  88.9000393  30.5510937  32.1547259  81.4441230
  29.7740380  31.8158419  80.9996392  31.2302418  32.1599882  80.7696195
  25.3662966  27.2741997  81.3347838  25.0613102  27.5888146  82.1857981
  26.3193408  27.3523417  81.3775171  23.8109398  33.4332220  82.9840792
  23.2830759  32.6984980  82.6714029  23.3096901  34.2106896  82.7380760
  28.7902244  31.6281241  88.1007838  28.1325918  32.3180502  88.1887967
  29.5942643  32.0177673  88.4441824  18.5428125  24.0951886  85.3447403
  19.1171877  23.8727068  84.6120596  19.1299108  24.1640581  86.0976005
  27.6007703  29.9825613  86.1511780  28.1139584  30.6155605  86.6533489
  28.2508927  29.3826809  85.7855140  18.8697713  26.1256347  79.3643289
  18.0335025  26.4631034  79.6852563  18.7302482  25.9905327  78.4270425
  20.8450793  20.9693135  84.0722473  20.1915206  20.6542152  83.4479087
  20.8031267  20.3468876  84.7982296  21.9561998  31.2512430  75.9875765
  21.0489060  31.0201684  76.1866914  22.4533030  30.4550050  76.1749746
  24.8630077  39.9609938  78.9072451  24.1891776  40.2641634  79.5157409
  25.2495899  40.7639018  78.5577908  24.0788534  27.4575069  88.3970120
  23.1611095  27.6790016  88.2391808  24.4948677  27.5321379  87.5381828
  24.8623581  28.8566484  83.5272801  25.6095400  29.3687882  83.2179923
  25.1315171  28.5350537  84.3877194  23.1350231  31.3525025  80.5099755
  22.2261451  31.0684058  80.6072225  23.1645315  31.7724104  79.6503062
  28.3669499  34.9631615  84.2790922  27.9131826  34.1222525  84.3356113
  27.7363466  35.5993013  84.6165703  27.3102418  25.8923601  85.5091590
  26.5725175  25.3800987  85.8401832  27.5629192  25.4523982  84.6974867
  26.8102438  36.8008111  85.2140741  27.1025413  37.3613169  84.4953106
  27.3201059  37.0936672  85.9693900  27.4114046  18.6699853  86.1033359
  27.7172923  17.8097216  85.8159274  28.1366651  19.2617473  85.9032353
  13.7038402  29.0730539  84.4914957  13.5062802  28.4799900  83.7666024
  13.1485066  28.7682750  85.2090896  21.6835126  28.9653646  86.6109550
  21.7383735  28.0127482  86.5352027  20.8726328  29.1213085  87.0950849
  22.8326319  32.8933769  77.8487833  22.3945749  32.1769628  77.3893471
  23.5736760  33.1209884  77.2872925  19.6227485  27.5830706  84.3699929
  18.8095351  27.8824876  84.7765121  20.1186480  27.1886394  85.0874411
  21.7736063  37.5788462  86.3034194  21.7312242  37.8049309  85.3742726
  22.6898762  37.3451837  86.4519995  25.2201697  28.0472530  93.2014823
  25.5751085  28.2744003  94.0609289  25.8673828  28.3790907  92.5792078
  30.9499434  31.1690966  83.9064152  30.8117333  31.3592562  82.9785341
  30.5935653  31.9310349  84.3632203  19.1141560  25.1549061  89.9861164
  19.7540940  25.0137820  89.2884127  18.2819091  24.8683574  89.6099766
  30.9768814  33.2367493  88.9175423  31.4105320  33.1442782  89.7658478
  31.6900394  33.2124993  88.2795439  19.8901864  34.4551491  86.0996156
  20.6842463  33.9601812  85.8978731  19.1793557  33.9269355  85.7363862
  24.7096709  36.8369587  90.4508524  24.7633731  37.4060523  91.2186240
  23.8411490  37.0071472  90.0862561  16.1984628  28.5994573  82.1755909
  15.2682216  28.5379029  82.3925871  16.2942100  28.0770526  81.3792550
  16.1170177  25.1249386  84.7634151  16.3776994  26.0394719  84.6543311
  16.9387349  24.6573829  84.9130764  17.5895102  26.5387143  91.9332975
  18.2618155  26.3304505  91.2845624  16.7624888  26.3409229  91.4938208
  31.8384363  33.2791194  91.4508309  32.0320253  34.1837004  91.6967584
  31.7384981  32.8198613  92.2846894  23.4920674  23.1649084  93.9498636
  22.8448589  23.8639034  93.8563113  24.2621689  23.5985228  94.3174884
  26.8999472  33.4297936  97.0249189  26.7484978  33.2008488  96.1079273
  26.8904151  34.3868538  97.0380535  23.6684808  31.0029849  92.0095456
  24.5976868  31.1541009  91.8364423  23.2475838  31.0913870  91.1544102
  22.4673140  35.0280513  89.7793994  22.3284226  34.6599298  90.6519932
  21.6787736  35.5428153  89.6077951  23.0621292  40.1289610  81.1219530
  23.2373048  39.6577653  81.9365153  22.3754080  40.7555376  81.3500791
  24.0178355  34.4062116  87.1682831  23.6828188  34.3662886  88.0640481
  23.5182301  33.7406832  86.6953242  17.9922599  29.8129746  92.6935413
  17.8542397  29.0809985  93.2946952  18.9027523  29.7238646  92.4119600
  26.9537547  31.7518151  77.4419891  26.3366718  31.0264979  77.3452944
  26.4854035  32.5127511  77.0986965  20.6204900  29.5249706  92.1819092
  21.3304518  28.8842898  92.1405711  20.5774208  29.7762600  93.1045273
  28.6091679  36.4617059  95.1025671  28.5504225  35.7776279  94.4356254
  29.0111197  37.2036049  94.6506297  19.3333834  26.5114923  94.0014732
  18.7971191  26.0605662  94.6536328  18.7450542  26.6460832  93.2585196
  17.6282377  43.2778973  87.8959390  17.8678976  43.9097497  88.5738409
  16.7851574  42.9267013  88.1824750  18.7436093  25.9703575  76.5641195
  17.8665559  25.8492376  76.2003442  19.2193846  25.1789653  76.3120084
  28.6109086  34.4256643  93.3339651  27.7235865  34.0882565  93.4566050
  29.1807637  33.6939674  93.5708416  10.2638233  30.7580735  86.6582702
  10.9509273  30.4442465  86.0703718  10.1086362  31.6622099  86.3849954
  15.0672955  25.6470931  91.0867726  14.9831144  25.0396601  90.3518136
  14.2455662  26.1379949  91.0877222  22.1410239  39.0858095  90.3000894
  22.0680411  39.8913067  90.8120199  21.6987632  39.2850061  89.4748916
  21.9300019  38.3229865  83.8103716  21.1467541  38.8651545  83.9041940
  22.6292764  38.8403845  84.2097957  25.2396669  24.1324495  86.4537921
  25.7365369  23.3794457  86.1338991  24.4683650  24.1688811  85.8881131
  33.0926426  29.8364860  88.0956213  33.0816303  30.7189576  87.7250146
  32.2243806  29.4836411  87.9010750  24.6008923  38.9844929  92.4559053
  25.3136895  39.6192394  92.3834954  24.1098951  39.0808795  91.6399055
  26.3226450  32.8896182  84.0276345  25.3882728  33.0097644  83.8581049
  26.5003118  31.9868649  83.7636354  21.8231638  26.2741878  86.1809606
  21.4529425  25.7212918  86.8690511  22.3190730  25.6700011  85.6284606
  29.7099001  28.7313501  84.5626379  30.1759453  29.5641493  84.4886681
  30.1606502  28.2658483  85.2671637  19.6520836  36.7339373  93.2764624
  20.3530296  37.3675856  93.4294018  19.1815951  37.0754104  92.5160263
  27.7775232  35.0757322  81.5612531  28.0535076  34.9613917  82.4706405
  26.9079731  34.6774807  81.5224704  27.6815664  21.0994088  88.6017280
  26.7678744  21.3298315  88.7699487  28.1108765  21.1832532  89.4531312
  27.4522122  29.2883980  91.1017174  26.7993572  29.5359888  90.4469627
  27.8302502  28.4748118  90.7679651  24.4129296  39.3243673  85.2045344
  24.5951691  38.5065329  85.6673097  25.2362282  39.5411366  84.7670234
  24.7471462  38.2511858  82.4660393  25.2759228  37.7404313  81.8530555
  25.0099681  37.9354389  83.3305926  23.5009695  30.0303791  97.5883211
  22.8250332  29.9297920  98.2585586  24.3237329  29.8743005  98.0519208
  15.2488554  36.2675728  90.2095726  15.8341991  35.5219416  90.3423631
  15.0513393  36.5779684  91.0932390  18.1027210  39.3026975  85.2258169
  17.4337585  39.7873103  84.7422209  17.9640079  39.5496196  86.1401547
   9.8406209  28.8381328  88.9300170   9.8790309  28.3044919  89.7237288
   9.3346502  28.3116533  88.3111147  22.2432478  41.3370719  91.8240827
  22.7950786  41.5002340  92.5889912  22.5838672  41.9275156  91.1520852
  17.2196971  23.6845868  92.4262712  17.2838298  24.5460699  92.0140110
  17.1564092  23.0719870  91.6935070  27.0943352  36.1631976  97.6789482
  27.6383256  36.7761934  97.1844436  26.5130197  36.7211555  98.1956495
  13.4714787  27.5645430  82.0054101  13.7668228  26.6556108  81.9521155
  12.5702822  27.5433170  81.6835103  25.3800865  39.2852694  88.8104509
  25.2552005  38.4842434  88.3015455  26.0379957  39.7798888  88.3218479
  17.0009034  25.6401427  87.9881650  16.2795619  26.2537394  87.8489123
  17.7902289  26.1759191  87.9098295  27.4435774  37.0861714  90.4384059
  26.4966109  36.9667065  90.3662386  27.7918547  36.1984212  90.5210321
  19.8035347  22.9755853  94.2622301  20.3269749  23.2218150  95.0248611
  19.5847680  23.8075888  93.8425439  15.2002628  25.2459528  82.1293426
  14.8715334  24.3656907  81.9468532  15.5541999  25.1907196  83.0169815
  24.4482207  36.8814430  86.6388412  24.3007170  35.9531138  86.8195982
  25.2735701  36.9034521  86.1545487  18.3144451  25.5332498  82.4968904
  18.6540524  26.0618419  81.7747512  18.7616572  25.8712904  83.2727470
  28.0516329  37.7042989  87.7253284  28.9762876  37.4985851  87.5877736
  27.8831632  37.4559390  88.6342626  21.0087892  23.9169548  91.9471972
  20.6684713  23.1177361  92.3492652  20.3026899  24.2171259  91.3748805
  21.6604364  21.0018861  90.3999295  22.4830433  20.5279339  90.2778185
  21.9042428  21.7809344  90.8997981  20.3012599  24.0307119  80.6962197
  21.0220961  24.4088372  80.1925913  19.6777903  24.7495996  80.7997174
  24.4443721  24.7352268  81.6320529  24.6607336  25.6176906  81.3309357
  23.9637789  24.3438481  80.9026171  19.1842943  27.6937981  88.2091273
  19.0387524  28.0078284  89.1015555  18.7068146  28.3122882  87.6562172
  21.0439326  24.6840529  88.2572163  21.0300894  23.7881623  87.9204461
  21.7611754  24.6911193  88.8910449  22.8965456  25.1177870  90.3025290
  22.6383234  26.0394940  90.3009621  22.3650497  24.7208304  90.9925755
  27.8411645  38.2228657  83.0815376  28.0148523  37.6575079  82.3289228
  28.3340536  39.0229552  82.8994866  13.6588605  30.2343326  91.1478935
  13.1142073  31.0103134  91.2799209  14.5367955  30.5814130  90.9898056
  20.4476222  23.5654910  83.5259733  20.5692133  22.6371556  83.7250621
  20.1578264  23.5793596  82.6138049  23.3167412  21.2509820  86.6626453
  23.3389109  21.3149153  85.7078433  23.7335471  20.4114329  86.8566959
  33.6951036  30.9865080  84.7005676  34.1382182  30.2372405  84.3024799
  32.8177547  30.9775216  84.3179408  28.8286818  37.5395421  80.1812274
  29.5237722  38.1602114  80.3999589  29.1709968  36.6890772  80.4564652
  14.4454627  29.3613222  94.0409092  13.7036363  29.5095857  94.6273722
  14.1247371  29.6221488  93.1775841  30.7278241  34.9895127  81.7099605
  31.2529565  35.3282399  80.9848925  30.6400593  34.0542142  81.5262740
  22.3898289  38.9029200  93.8389482  22.6985416  38.6578347  94.7112181
  23.1873772  39.1075839  93.3508352  22.4118902  41.0567110  86.0694858
  21.9723892  40.5643489  86.7627715  23.1627018  40.5140078  85.8286933
  14.8911241  37.2478651  86.0719486  15.7169260  36.9482423  85.6918130
  14.5405293  36.4786273  86.5209275  19.8592774  36.6005119  88.1417160
  19.2372783  35.9375824  87.8419388  20.5297641  36.6266251  87.4590808
  13.0919846  35.1664977  87.0308420  12.2551754  34.7387152  86.8492421
  13.0643491  35.3597421  87.9679211  30.4172147  35.6228030  97.0150803
  29.6267691  35.6052169  96.4755302  30.1805501  36.1616324  97.7699839
  30.5370022  32.4720497  94.3283531  30.5868027  32.3070504  95.2699054
  30.4283945  31.6047756  93.9381412  19.4206281  35.1509042  81.6175620
  19.5694401  35.8344507  80.9642293  20.2272724  35.1314132  82.1325076
  27.8273784  28.4551425  95.6442838  28.7283647  28.3157889  95.3526836
  27.9021759  28.6205879  96.5841016  22.1616590  25.8318279  94.4896024
  21.2919899  26.1251845  94.2178613  22.3976070  26.4158724  95.2103288
  32.0388219  34.8917438  94.5725553  31.7473027  35.2547419  95.4089014
  31.4260350  34.1784446  94.3938885  33.2383901  32.4570318  87.0928123
  34.0730792  32.8960122  87.2565684  33.3743030  31.9808971  86.2736369
  30.2875407  30.0150053  93.0405611  30.7629529  30.2077699  92.2324462
  29.3640972  30.0709239  92.7948995  17.1758914  31.1774220  82.6236689
  16.9304956  30.2736550  82.8216899  17.3454828  31.1791370  81.6816167
  24.8655623  22.0497896  92.0061445  25.3837567  22.7858923  91.6807933
  24.5110756  22.3561890  92.8408204  16.4454561  26.9102577  80.1222851
  15.7523806  26.9846932  79.4662887  16.2006313  26.1462921  80.6444368
  25.1168218  18.4698179  87.5262341  25.3969971  17.8021368  88.1522768
  25.9018825  18.6627274  87.0137005  22.9201686  37.6457173  79.0887368
  22.3475653  38.2647360  78.6357840  23.4934480  38.1956534  79.6227290
  28.9877076  26.8915813  91.2733917  29.9394499  26.9913910  91.2946141
  28.8180526  26.0994081  91.7832001  27.0091455  23.9771396  91.4593317
  26.4141388  24.2576409  90.7639806  26.7241152  24.4665297  92.2310059
  26.1398946  37.9294323  80.2195950  27.0729619  37.8639885  80.4228826
  26.0522159  38.7650590  79.7610483  28.7686963  37.2460193  77.1799898
  28.6900594  36.9120057  78.0735655  29.5896629  37.7381961  77.1791370
  31.4665154  30.1121933  90.3876216  31.4341474  29.1737933  90.5735900
  32.0765777  30.1905969  89.6542041  23.3048485  28.9817985  76.4303420
  24.2507589  28.8524194  76.4991838  22.9262730  28.2432647  76.9072848
  31.6159642  26.9032976  90.4334499  31.0998691  26.1191433  90.2464428
  32.4999591  26.5751693  90.5981019  29.2770369  20.6473992  86.3930312
  29.0795190  20.3389080  87.2773644  29.8870075  21.3735630  86.5228242
  37.2841704  31.1737939  89.5282253  38.0145092  30.9123227  90.0889956
  36.6748649  30.4366661  89.5684321  35.3657001  29.3145802  90.1256704
  34.6390164  29.1801767  89.5173196  34.9504288  29.6222631  90.9313422
  23.1887177  33.0335732  97.8904077  24.1090187  33.2114331  98.0844124
  23.1536760  32.0891777  97.7383776  21.4891402  26.9067962  76.3658305
  20.5822857  26.6101075  76.4421019  21.7667383  26.6097780  75.4992592
  12.4069342  28.2274325  86.8157352  12.0872126  27.3739633  86.5231726
  11.8602770  28.4422903  87.5715319  16.1849250  30.9436766  90.5326858
  16.4035259  31.8753874  90.5514892  16.5975024  30.5844741  91.3181662
  23.1053467  21.4504852  82.5202547  22.2954196  21.1051937  82.8957793
  23.7937884  21.1412395  83.1090158  25.0344016  20.5282898  84.1426843
  25.5875054  20.9478352  84.8016866  25.2714102  19.6018646  84.1849799
  20.2590186  23.7654897  76.5070285  21.1209350  24.0909795  76.7666102
  20.4440531  22.9786393  75.9943350  12.2757602  31.8477237  88.7850473
  11.5821074  31.4331190  88.2720428  13.0230593  31.8897773  88.1883892
  28.4122823  22.6383424  83.6505508  27.8321492  23.2968228  83.2683560
  28.1458756  21.8160768  83.2392925  26.8626389  22.0388481  85.8526828
  27.3626168  22.1505016  85.0441147  27.5061997  21.7349534  86.4927636
  20.9208385  29.9467111  98.7394669  20.4375467  30.7467471  98.9458558
  21.0069324  29.9575056  97.7862113  14.1894345  31.7795491  86.6616488
  14.1665033  31.8783178  85.7098371  14.4994981  32.6260641  86.9833654
  16.8481723  33.8371646  90.7763103  17.8024976  33.8055588  90.7093034
  16.6494246  33.3762269  91.5913329  17.4381105  32.4072762  93.3433900
  18.2573994  32.9016840  93.3668738  17.7117912  31.4904730  93.3151468
  27.1947701  24.7983514  82.7061856  26.3073556  25.0833165  82.4882051
  27.6101690  24.6377277  81.8589133  30.5462237  24.8230035  86.4216195
  31.3222627  25.3126487  86.6940812  29.8210371  25.2488089  86.8788065
  32.9834796  25.5357654  87.4790136  33.5779286  25.2953390  86.7683444
  33.0561379  24.8164785  88.1063672  15.2031951  39.3791265  87.7933301
  15.0686419  38.6191666  87.2271299  14.7864014  40.1032165  87.3262089
  26.3390914  34.5628189  76.8009876  27.0426764  34.7678191  77.4167531
  25.6153563  35.1304950  77.0658959  27.1688725  30.3138050  82.9212146
  27.1123926  30.7706601  82.0819778  27.7217067  29.5528734  82.7434989
  30.9793531  26.1027782  83.7462266  30.7230465  25.7024417  84.5770473
  30.3546399  26.8171576  83.6212405  35.2905868  28.8423855  86.2533557
  34.7305426  28.9117044  87.0265119  34.6849372  28.6664840  85.5333053
  18.3601077  40.2760582  88.0051743  18.2433461  41.2206015  87.9030433
  17.5393523  39.9734144  88.3937542  28.2477612  35.0010718  78.8508336
  29.0823216  34.5691916  78.6685811  28.0861955  34.8292731  79.7785230
  27.9023504  31.5042831  80.2164675  27.8472308  31.3387103  79.2753119
  27.2769559  32.2118864  80.3726865  12.6916019  26.7410895  94.0426097
  13.3374883  26.2309849  94.5313323  12.4833170  27.4779577  94.6169523
  25.2169411  33.8091743  99.5418238  26.0860571  33.9832395  99.1804873
  24.7376163  34.6286160  99.4193967  21.2119629  21.0050940  79.7949994
  21.1998299  21.9492780  79.9518264  22.1043051  20.8221086  79.5009455
  19.3855591  40.9288844  91.2207672  20.2882838  40.9612454  91.5374167
  19.1592961  39.9989295  91.2354007  21.1409193  39.6819831  87.8817750
  20.1904824  39.6821692  87.7682123  21.4441680  38.9352565  87.3653785
  25.0271749  17.5993717  84.0495930  24.2604145  17.0452203  84.1952613
  25.4382454  17.6715586  84.9110082  36.8761887  45.5180369  88.9463513
  37.5140297  45.3987116  88.2426853  36.7582730  46.4661213  89.0051465
  33.6851593  45.4707797  88.8825037  33.3470105  45.3548862  87.9945572
  34.5541361  45.0698962  88.8626043  29.5438409  47.3243273  84.8721928
  28.9803274  47.2333210  84.1038216  29.4290804  46.5043178  85.3524421
  34.1671376  46.6242649  94.8411243  34.1560017  46.2295447  93.9691747
  34.3292016  45.8908721  95.4345014  27.0902841  48.8194465  87.7106149
  27.8824133  48.4785290  87.2952448  27.3299491  48.9289440  88.6308302
  35.1237968  50.9914241  80.1836393  34.4725947  51.5768322  79.7970407
  35.9182330  51.5220436  80.2431431  29.0493595  48.0803378  80.5823528
  29.8224471  47.5332365  80.4436403  29.4018994  48.9447628  80.7937989
  31.8134844  46.7856609  90.3791787  32.4098416  46.5612631  89.6648749
  31.8709816  46.0441355  90.9817234  31.3859873  44.2396044  78.2141977
  31.6385393  43.7177566  77.4525440  30.4484432  44.0762190  78.3168661
  36.4303155  43.2431823  86.0216721  37.2166245  42.8251246  85.6707138
  36.6941860  44.1477915  86.1898369  36.6013233  48.6804673  80.7205378
  35.9659066  48.7539300  81.4326282  36.2710639  49.2698272  80.0424457
  41.8311582  43.1807056  86.9249699  42.5636754  42.6106273  87.1587529
  41.0750938  42.7928656  87.3656205  31.1056161  46.1424150  80.4166352
  30.9892419  45.4669054  81.0847437  31.2158421  45.6556524  79.5998505
  33.4487702  45.6034297  84.1213042  33.0845909  45.0764918  84.8325963
  34.3054818  45.2132767  83.9479527  39.3537003  36.8928630  91.3844308
  39.0220328  37.7624041  91.1605523  38.7582616  36.5764914  92.0638338
  33.0893189  40.6324197  79.1174390  33.2567592  41.5004434  79.4844861
  32.8990358  40.7951479  78.1935679  29.2981004  45.5454973  86.8176925
  28.3731500  45.4131187  87.0254617  29.5465417  46.3249192  87.3146867
  39.2465666  41.6123716  88.4637658  38.3382543  41.5439125  88.1696419
  39.1953262  42.0895661  89.2919483  33.0682410  43.0881855  80.1021057
  32.9482035  43.5338905  80.9406537  32.3734998  43.4367172  79.5434595
  26.6589815  45.1888246  87.6520714  26.7882196  45.4422725  88.5660126
  25.9787266  45.7815954  87.3325369  30.8289302  55.8585496  83.7511188
  30.7513332  56.8093321  83.8299669  30.2250946  55.5131369  84.4086115
  33.3206532  43.0313362  96.4072555  32.5439866  43.5907282  96.3975420
  33.9597095  43.5170145  96.9287425  41.1127313  39.8140155  90.2415532
  40.4701693  40.1072688  89.5955326  40.6082241  39.6993075  91.0468728
  38.7667476  43.5603328  80.9301391  39.6785332  43.7930715  80.7549089
  38.2577123  44.1440372  80.3676470  31.5752904  45.8398815  95.9690522
  32.3167589  46.3783859  95.6925346  30.8689890  46.4665104  96.1262074
  33.4039314  42.9200562  91.9396241  34.2500509  43.3439976  92.0830890
  33.3437952  42.2634187  92.6334804  41.2526290  49.4783584  85.6759336
  40.5677329  49.8582485  85.1256370  41.3370140  50.0878911  86.4091284
  36.5538759  40.5804931  93.5977414  36.3099691  41.3346991  93.0611690
  36.8298690  40.9590278  94.4324661  36.1103451  39.7361364  89.1791252
  35.2487930  40.0342617  89.4707990  36.1365886  39.9531763  88.2472285
  32.9265020  48.2803554  85.5865058  33.3903366  48.5591257  84.7969680
  32.6621818  47.3786999  85.4038148  29.8189101  47.8275036  88.5244821
  30.3890459  48.2562304  87.8862305  30.4097213  47.5457621  89.2229007
  31.8633906  44.4026707  82.3954623  32.5657950  44.8547750  82.8628549
  31.5314535  43.7610526  83.0234516  30.3114268  42.9938463  96.7705832
  29.6812929  43.6754744  97.0041229  30.2050356  42.8821545  95.8258970
  25.6059240  42.6610259  87.6971756  24.8158294  42.9167788  87.2211867
  26.0970488  43.4758597  87.8023797  27.5573986  43.0254839  84.6555233
  26.7605149  43.1373533  85.1738729  27.3299578  43.3641491  83.7896124
  23.8896943  42.9140750  90.1286747  24.1404982  43.7987760  90.3944323
  24.4256492  42.7345351  89.3561839  33.1027671  51.2167649  82.4716728
  32.9673346  52.0619185  82.9001576  33.6437484  51.4186927  81.7082662
  29.5895011  37.2959229  99.1331083  29.1961956  36.7425428  99.8078727
  30.4061151  37.6069808  99.5237601  26.5557068  48.7343087  83.0444653
  27.0681589  49.5286338  83.1950218  27.2079781  48.0369378  82.9778255
  28.3651953  51.8508844  85.1267406  28.5418581  52.7726808  84.9388390
  29.1608787  51.5367263  85.5561786  32.5062972  38.7117108  96.7251340
  33.2472685  39.3124261  96.6455802  32.7380895  37.9694746  96.1669382
  27.6504310  43.8973476  95.0029569  27.5357825  42.9958733  95.3036668
  26.7948827  44.1437172  94.6514386  36.4520135  34.7398211  91.0015621
  36.1084404  35.6299853  90.9254732  36.8199097  34.5499869  90.1385206
  24.5205985  47.0631742  83.8204224  25.3581207  47.4728750  83.6037931
  24.6984253  46.1231184  83.7904417  36.4170417  44.7306822  79.5088057
  35.9017041  45.5011427  79.7476444  36.1447726  44.0571959  80.1321118
  34.0017528  39.5756523  84.5673295  33.1459125  39.1863374  84.3878934
  34.4144480  39.6548484  83.7073080  35.5316675  37.1102866  88.9664855
  35.0281471  37.0733002  88.1532660  35.8247282  38.0195609  89.0261511
  31.7759561  37.1941596  87.9731036  32.6412558  36.9984405  87.6136926
  31.8437070  36.9651948  88.9000393  36.2056721  42.6033914  81.3347838
  35.9006856  42.9180064  82.1857981  37.1587163  42.6815334  81.3775171
  34.6503152  48.7624138  82.9840792  34.1224514  48.0276897  82.6714029
  34.1490655  49.5398814  82.7380760  29.3821880  39.4243804  85.3447403
  29.9565632  39.2018986  84.6120596  29.9692862  39.4932499  86.0976005
  38.4401457  45.3117531  86.1511780  38.9533339  45.9447523  86.6533489
  39.0902681  44.7118726  85.7855140  29.7091467  41.4548265  79.3643289
  28.8728779  41.7922952  79.6852563  29.5696237  41.3197245  78.4270425
  31.6844548  36.2985053  84.0722473  31.0308960  35.9834070  83.4479087
  31.6425022  35.6760793  84.7982296  32.7955753  46.5804348  75.9875765
  31.8882814  46.3493601  76.1866914  33.2926785  45.7841967  76.1749746
  34.9182288  42.7866986  88.3970120  34.0004849  43.0081933  88.2391808
  35.3342432  42.8613297  87.5381828  35.7017336  44.1858402  83.5272801
  36.4489155  44.6979799  83.2179923  35.9708925  43.8642455  84.3877194
  33.9743986  46.6816943  80.5099755  33.0655205  46.3975976  80.6072225
  34.0039070  47.1016021  79.6503062  39.2063253  50.2923532  84.2790922
  38.7525581  49.4514442  84.3356113  38.5757220  50.9284931  84.6165703
  38.1496173  41.2215518  85.5091590  37.4118930  40.7092905  85.8401832
  38.4022946  40.7815900  84.6974867  37.6496193  52.1300029  85.2140741
  37.9419167  52.6905086  84.4953106  38.1594813  52.4228590  85.9693900
  38.2507800  33.9991770  86.1033359  38.5566677  33.1389134  85.8159274
  38.9760405  34.5909391  85.9032353  24.5432156  44.4022457  84.4914957
  24.3456556  43.8091818  83.7666024  23.9878820  44.0974667  85.2090896
  32.5228880  44.2945563  86.6109550  32.5777490  43.3419400  86.5352027
  31.7120082  44.4505003  87.0950849  33.6720074  48.2225687  77.8487833
  33.2339504  47.5061545  77.3893471  34.4130515  48.4501801  77.2872925
  30.4621240  42.9122623  84.3699929  29.6489105  43.2116794  84.7765121
  30.9580234  42.5178312  85.0874411  36.0595452  43.3764448  93.2014823
  36.4144839  43.6035921  94.0609289  36.7067583  43.7082824  92.5792078
  41.7893189  46.4982884  83.9064152  41.6511087  46.6884480  82.9785341
  41.4329407  47.2602266  84.3632203  29.9535315  40.4840979  89.9861164
  30.5934694  40.3429738  89.2884127  29.1212845  40.1975492  89.6099766
  30.7295619  49.7843409  86.0996156  31.5236217  49.2893729  85.8978731
  30.0187311  49.2561272  85.7363862  27.0378382  43.9286491  82.1755909
  26.1075970  43.8670946  82.3925871  27.1335854  43.4062444  81.3792550
  26.9563931  40.4541304  84.7634151  27.2170748  41.3686637  84.6543311
  27.7781103  39.9865746  84.9130764  28.4288856  41.8679061  91.9332975
  29.1011910  41.6596423  91.2845624  27.6018643  41.6701147  91.4938208
  34.3314428  38.4941002  93.9498636  33.6842344  39.1930951  93.8563113
  35.1015444  38.9277146  94.3174884  37.7393226  48.7589854  97.0249189
  37.5878733  48.5300406  96.1079273  37.7297906  49.7160455  97.0380535
  34.5078563  46.3321767  92.0095456  35.4370623  46.4832926  91.8364423
  34.0869593  46.4205788  91.1544102  28.8316354  45.1421664  92.6935413
  28.6936152  44.4101903  93.2946952  29.7421277  45.0530564  92.4119600
  37.7931301  47.0810068  77.4419891  37.1760472  46.3556896  77.3452944
  37.3247790  47.8419428  77.0986965  31.4598654  44.8541623  92.1819092
  32.1698273  44.2134815  92.1405711  31.4167963  45.1054518  93.1045273
  30.1727588  41.8406841  94.0014732  29.6364945  41.3897580  94.6536328
  29.5844297  41.9752750  93.2585196  28.4676132  58.6070890  87.8959390
  28.7072730  59.2389415  88.5738409  27.6245328  58.2558930  88.1824750
  29.5829847  41.2995493  76.5641195  28.7059314  41.1784293  76.2003442
  30.0587600  40.5081571  76.3120084  21.1031987  46.0872652  86.6582702
  21.7903027  45.7734382  86.0703718  20.9480116  46.9914017  86.3849954
  25.9066710  40.9762849  91.0867726  25.8224898  40.3688518  90.3518136
  25.0849416  41.4671867  91.0877222  32.7693773  53.6521783  83.8103716
  31.9861295  54.1943463  83.9041940  33.4686519  54.1695763  84.2097957
  36.0790423  39.4616412  86.4537921  36.5759123  38.7086375  86.1338991
  35.3077405  39.4980729  85.8881131  37.1620204  48.2188100  84.0276345
  36.2276483  48.3389562  83.8581049  37.3396873  47.3160566  83.7636354
  32.6625392  41.6033795  86.1809606  32.2923180  41.0504836  86.8690511
  33.1584485  40.9991929  85.6284606  40.5492756  44.0605419  84.5626379
  41.0153208  44.8933410  84.4886681  41.0000256  43.5950400  85.2671637
  38.5209418  36.4286006  88.6017280  37.6072498  36.6590233  88.7699487
  38.9502520  36.5124450  89.4531312  38.2915877  44.6175898  91.1017174
  37.6387327  44.8651805  90.4469627  38.6696257  43.8040036  90.7679651
  34.3403450  45.3595709  97.5883211  33.6644087  45.2589838  98.2585586
  35.1631084  45.2034923  98.0519208  26.0882309  51.5967645  90.2095726
  26.6735746  50.8511333  90.3423631  25.8907147  51.9071602  91.0932390
  28.9420964  54.6318893  85.2258169  28.2731339  55.1165020  84.7422209
  28.8033834  54.8788113  86.1401547  20.6799964  44.1673246  88.9300170
  20.7184063  43.6336836  89.7237288  20.1740256  43.6408451  88.3111147
  28.0590726  39.0137786  92.4262712  28.1232052  39.8752617  92.0140110
  27.9957846  38.4011788  91.6935070  27.5342998  41.0860919  96.0735746
  28.1615037  40.7037996  96.6873270  26.6770917  40.8675121  96.4391439
  24.3108541  42.8937348  82.0054101  24.6061982  41.9848026  81.9521155
  23.4096577  42.8725087  81.6835103  27.8402788  40.9693344  87.9881650
  27.1189374  41.5829312  87.8489123  28.6296044  41.5051109  87.9098295
  30.6429102  38.3047771  94.2622301  31.1663503  38.5510067  95.0248611
  30.4241435  39.1367806  93.8425439  26.0396383  40.5751445  82.1293426
  25.7109089  39.6948824  81.9468532  26.3935753  40.5199114  83.0169815
  29.1538206  40.8624415  82.4968904  29.4934278  41.3910336  81.7747512
  29.6010326  41.2004821  83.2727470  31.8481647  39.2461466  91.9471972
  31.5078467  38.4469279  92.3492652  31.1420653  39.5463177  91.3748805
  32.4998119  36.3310778  90.3999295  33.3224188  35.8571257  90.2778185
  32.7436182  37.1101262  90.8997981  31.1406353  39.3599037  80.6962197
  31.8614716  39.7380290  80.1925913  30.5171657  40.0787914  80.7997174
  35.2837476  40.0644186  81.6320529  35.5001090  40.9468824  81.3309357
  34.8031543  39.6730399  80.9026171  30.0236697  43.0229899  88.2091273
  29.8781278  43.3370202  89.1015555  29.5461901  43.6414799  87.6562172
  31.8833080  40.0132447  88.2572163  31.8694649  39.1173540  87.9204461
  32.6005508  40.0203111  88.8910449  33.7359211  40.4469787  90.3025290
  33.4776989  41.3686858  90.3009621  33.2044251  40.0500222  90.9925755
  24.4982359  45.5635243  91.1478935  23.9535828  46.3395051  91.2799209
  25.3761709  45.9106048  90.9898056  31.2869976  38.8946827  83.5259733
  31.4085887  37.9663473  83.7250621  30.9972018  38.9085513  82.6138049
  34.1561167  36.5801738  86.6626453  34.1782863  36.6441071  85.7078433
  34.5729226  35.7406246  86.8566959  44.5344791  46.3156997  84.7005676
  44.9775937  45.5664322  84.3024799  43.6571301  46.3067134  84.3179408
  25.2848381  44.6905140  94.0409092  24.5430117  44.8387775  94.6273722
  24.9641126  44.9513405  93.1775841  25.7304995  52.5770568  86.0719486
  26.5563015  52.2774340  85.6918130  25.3799047  51.8078191  86.5209275
  23.9313600  50.4956895  87.0308420  23.0945508  50.0679069  86.8492421
  23.9037245  50.6889338  87.9679211  30.7711056  40.4078825  97.7349666
  30.8199211  41.2840947  97.3527435  31.3133570  39.8656218  97.1621309
  30.2600035  50.4800960  81.6175620  30.4088155  51.1636424  80.9642293
  31.0666479  50.4606050  82.1325076  38.6667539  43.7843342  95.6442838
  39.5677402  43.6449807  95.3526836  38.7415513  43.9497797  96.5841016
  33.0010344  41.1610197  94.4896024  32.1313654  41.4543763  94.2178613
  33.2369824  41.7450642  95.2103288  28.0152668  46.5066138  82.6236689
  27.7698710  45.6028468  82.8216899  28.1848583  46.5083288  81.6816167
  35.7049378  37.3789814  92.0061445  36.2231322  38.1150841  91.6807933
  35.3504511  37.6853807  92.8408204  27.2848316  42.2394495  80.1222851
  26.5917561  42.3138850  79.4662887  27.0400067  41.4754839  80.6444368
  35.9561972  33.7990096  87.5262341  36.2363726  33.1313286  88.1522768
  36.7412579  33.9919192  87.0137005  33.7595441  52.9749090  79.0887368
  33.1869408  53.5939278  78.6357840  34.3328234  53.5248452  79.6227290
  39.8270830  42.2207730  91.2733917  40.7788253  42.3205828  91.2946141
  39.6574281  41.4285999  91.7832001  37.8485210  39.3063314  91.4593317
  37.2535142  39.5868326  90.7639806  37.5634907  39.7957215  92.2310059
  34.1442239  44.3109903  76.4303420  35.0901344  44.1816111  76.4991838
  33.7656484  43.5724565  76.9072848  42.4553397  42.2324894  90.4334499
  41.9392445  41.4483350  90.2464428  43.3393345  41.9043610  90.5981019
  40.1164124  35.9765909  86.3930312  39.9188945  35.6680997  87.2773644
  40.7263829  36.7027548  86.5228242  32.3285156  42.2359880  76.3658305
  31.4216612  41.9392992  76.4421019  32.6061137  41.9389698  75.4992592
  23.2463097  43.5566243  86.8157352  22.9265881  42.7031551  86.5231726
  22.6996525  43.7714821  87.5715319  27.0243004  46.2728684  90.5326858
  27.2429014  47.2045792  90.5514892  27.4368778  45.9136658  91.3181662
  33.9447222  36.7796769  82.5202547  33.1347950  36.4343854  82.8957793
  34.6331639  36.4704313  83.1090158  35.8737770  35.8574816  84.1426843
  36.4268809  36.2770269  84.8016866  36.1107857  34.9310564  84.1849799
  31.8970869  41.8461890  99.9229607  31.7967596  42.7956247  99.8541698
  31.6792412  41.5180129  99.0505677  31.0983941  39.0946815  76.5070285
  31.9603105  39.4201713  76.7666102  31.2834285  38.3078311  75.9943350
  23.1151357  47.1769154  88.7850473  22.4214828  46.7623107  88.2720428
  23.8624348  47.2189691  88.1883892  39.2516577  37.9675341  83.6505508
  38.6715246  38.6260145  83.2683560  38.9852510  37.1452686  83.2392925
  37.7020144  37.3680399  85.8526828  38.2019922  37.4796933  85.0441147
  38.3455752  37.0641452  86.4927636  31.7602140  45.2759029  98.7394669
  31.2769221  46.0759389  98.9458558  31.8463079  45.2866973  97.7862113
  25.0288099  47.1087408  86.6616488  25.0058787  47.2075095  85.7098371
  25.3388736  47.9552559  86.9833654  27.6875477  49.1663563  90.7763103
  28.6418731  49.1347506  90.7093034  27.4888001  48.7054187  91.5913329
  28.2774859  47.7364679  93.3433900  29.0967748  48.2308758  93.3668738
  28.5511667  46.8196647  93.3151468  38.0341455  40.1275432  82.7061856
  37.1467310  40.4125082  82.4882051  38.4495444  39.9669195  81.8589133
  41.3855992  40.1521953  86.4216195  42.1616382  40.6418405  86.6940812
  40.6604126  40.5780007  86.8788065  43.8228550  40.8649572  87.4790136
  44.4173041  40.6245308  86.7683444  43.8955134  40.1456702  88.1063672
  37.1784669  49.8920106  76.8009876  37.8820519  50.0970109  77.4167531
  36.4547318  50.4596868  77.0658959  38.0082479  45.6429968  82.9212146
  37.9517681  46.0998519  82.0819778  38.5610822  44.8820652  82.7434989
  41.8187285  41.4319699  83.7462266  41.5624219  41.0316335  84.5770473
  41.1940153  42.1463493  83.6212405  46.1299623  44.1715773  86.2533557
  45.5699181  44.2408962  87.0265119  45.5243126  43.9956757  85.5333053
  38.7417258  46.8334749  80.2164675  38.6866062  46.6679020  79.2753119
  38.1163314  47.5410782  80.3726865  23.5309773  42.0702813  94.0426097
  24.1768637  41.5601767  94.5313323  23.3226925  42.8071495  94.6169523
  32.0513384  36.3342858  79.7949994  32.0392054  37.2784698  79.9518264
  32.9436806  36.1513003  79.5009455  35.8665503  32.9285634  84.0495930
  35.0997899  32.3744121  84.1952613  36.2776208  33.0007503  84.9110082
  27.8707264  39.2170430  98.1401112  28.7338726  38.8607235  98.3504436
  27.2972675  38.8784325  98.8276516  50.1930757  52.2220548  91.3844308
  49.8614082  53.0915959  91.1605523  49.5976371  51.9056832  92.0638338
  50.0859421  56.9415634  88.4637658  49.1776298  56.8731042  88.1696419
  50.0347016  57.4187579  89.2919483  51.9521067  55.1432072  90.2415532
  51.3095447  55.4364605  89.5955326  51.4475996  55.0284993  91.0468728
  58.5522798  61.6746165  86.7962009  57.7986506  61.1053563  86.6406013
  58.6870339  61.6408829  87.7432643  42.6153315  52.5233514  87.9731036
  43.4806312  52.3276322  87.6136926  42.6830824  52.2943866  88.9000393
  49.0901555  49.3283688  86.1033359  49.3960432  48.4681052  85.8159274
  49.8154160  49.9201308  85.9032353  46.8989206  58.7056365  93.2014823
  47.2538594  58.9327839  94.0609289  47.5461337  59.0374742  92.5792078
  53.5171872  63.9375029  91.4508309  53.7107762  64.8420839  91.6967584
  53.4172490  63.4782448  92.2846894  48.5786981  64.0881772  97.0249189
  48.4272487  63.8592323  96.1079273  48.5691660  65.0452373  97.0380535
  50.2879188  67.1200894  95.1025671  50.2291734  66.4360114  94.4356254
  50.6898706  67.8619884  94.6506297  31.9425742  61.4164570  86.6582702
  32.6296782  61.1026300  86.0703718  31.7873871  62.3205935  86.3849954
  49.3603173  51.7577923  88.6017280  48.4466253  51.9882150  88.7699487
  49.7896274  51.8416368  89.4531312  48.7730861  66.8215811  97.6789482
  49.3170765  67.4345770  97.1844436  48.1917706  67.3795390  98.1956495
  44.9954921  51.9093655  86.6626453  45.0176618  51.9732988  85.7078433
  45.4122980  51.0698164  86.8566959  52.0959656  66.2811866  97.0150803
  51.3055200  66.2636004  96.4755302  51.8593010  66.8200159  97.7699839
  52.2157531  63.1304332  94.3283531  52.2655536  62.9654339  95.2699054
  52.1071454  62.2631591  93.9381412  49.5061293  59.1135260  95.6442838
  50.4071156  58.9741725  95.3526836  49.5809268  59.2789715  96.5841016
  53.7175728  65.5501273  94.5725553  53.4260536  65.9131254  95.4089014
  53.1047859  64.8368282  94.3938885  51.9662916  60.6733888  93.0405611
  52.4417038  60.8661534  92.2324462  51.0428481  60.7293074  92.7948995
  50.6664585  57.5499648  91.2733917  51.6182008  57.6497746  91.2946141
  50.4968035  56.7577917  91.7832001  58.9629213  61.8321775  89.5282253
  59.6932601  61.5707063  90.0889956  58.3536158  61.0950497  89.5684321
  57.0444510  59.9729637  90.1256704  56.3177673  59.8385602  89.5173196
  56.6291797  60.2806466  90.9313422  46.7131525  51.1866734  84.1426843
  47.2662563  51.6062187  84.8016866  46.9501611  50.2602482  84.1849799
  33.9545111  62.5061072  88.7850473  33.2608583  62.0915025  88.2720428
  34.7018102  62.5481609  88.1883892  56.9693377  59.5007690  86.2533557
  56.4092935  59.5700880  87.0265119  56.3636881  59.3248675  85.5333053
  46.7059258  48.2577552  84.0495930  45.9391654  47.7036039  84.1952613
  47.1169963  48.3299421  84.9110082  55.8458885  77.2826484  94.8411243
  55.8347526  76.8879282  93.9691747  56.0079525  76.5492557  95.4345014
  52.5666146  80.0663596  93.7890427  52.2756012  80.9709227  93.6737093
  53.2023131  80.1080124  94.5034496  61.0324512  67.5512465  91.3844308
  60.7007837  68.4207876  91.1605523  60.4370125  67.2348749  92.0638338
  57.5256031  79.7525011  90.7840221  57.2256754  80.6550050  90.6756028
  57.1807091  79.4857195  91.6361373  60.9253175  72.2707552  88.4637658
  60.0170052  72.2022960  88.1696419  60.8740771  72.7479497  89.2919483
  52.5076811  86.5169332  83.7511188  52.4300841  87.4677157  83.8299669
  51.9038455  86.1715204  84.4086115  54.9994041  73.6897197  96.4072555
  54.2227375  74.2491117  96.3975420  55.6384604  74.1753980  96.9287425
  62.7914822  70.4723990  90.2415532  62.1489202  70.7656523  89.5955326
  62.2869750  70.3576910  91.0468728  58.7295753  78.6411791  94.5662684
  59.1379109  78.1994202  93.8217316  58.0073014  78.0664419  94.8196877
  59.0524567  79.2012982  88.3214973  58.4233430  79.3658696  87.6191040
  58.6650230  79.6154591  89.0925937  58.2326268  71.2388766  93.5977414
  57.9887200  71.9930827  93.0611690  58.5086199  71.6174114  94.4324661
  60.1864731  77.7827379  92.2754680  60.3981626  78.4259138  91.5989061
  60.1394479  76.9489695  91.8076610  61.3010559  80.6599334  90.4477037
  62.1228003  80.2579521  90.1659719  61.2972962  80.5567568  91.3993153
  55.0667162  80.2083377  92.6037748  55.1311595  80.6703784  93.4395919
  54.3578086  79.5780742  92.7320058  54.7815180  81.8751485  82.4716728
  54.6460855  82.7203020  82.9001576  55.3224993  82.0770762  81.7082662
  51.2682520  67.9543065  99.1331083  50.8749465  67.4009263  99.8078727
  52.0848660  68.2653643  99.5237601  50.0439462  82.5092679  85.1267406
  50.2206090  83.4310644  84.9388390  50.8396296  82.1951098  85.5561786
  54.1850481  69.3700944  96.7251340  54.9260194  69.9708097  96.6455802
  54.4168403  68.6278581  96.1669382  56.4083656  82.4975051  96.6017070
  55.9647511  81.7111430  96.2837975  57.0700870  82.6854202  95.9360961
  51.1670778  84.0270853  91.1277749  51.7178203  83.8987916  90.3554743
  50.3282253  84.3265742  90.7772641  58.5064894  82.7777851  94.6298471
  58.4883370  83.5986732  94.1378741  59.4284815  82.6531926  94.8548612
  54.9637949  80.2921981  95.4721980  55.4966285  79.5310269  95.2421288
  54.4352030  79.9995632  96.2146134  58.1307644  65.3982047  91.0015621
  57.7871913  66.2883688  90.9254732  58.4986606  65.2083704  90.1385206
  59.9295309  64.6575606  86.1033359  60.2354186  63.7972969  85.8159274
  60.6547914  65.2493226  85.9032353  54.2917327  83.5664216  86.3034194
  54.2493506  83.7925062  85.3742726  55.2080026  83.3327590  86.4519995
  57.7382961  74.0348283  93.2014823  58.0932348  74.2619756  94.0609289
  58.3855092  74.3666660  92.5792078  63.4950077  79.2243246  88.9175423
  63.9286584  79.1318535  89.7658478  64.2081658  79.2000746  88.2795439
  57.2277972  82.8245340  90.4508524  57.2814994  83.3936276  91.2186240
  56.3592753  82.9947225  90.0862561  64.3565627  79.2666947  91.4508309
  64.5501517  80.1712757  91.6967584  64.2566245  78.8074366  92.2846894
  56.0101937  69.1524837  93.9498636  55.3629852  69.8514787  93.8563113
  56.7802953  69.5860981  94.3174884  59.4180735  79.4173689  97.0249189
  59.2666242  79.1884241  96.1079273  59.4085415  80.3744291  97.0380535
  54.9854404  81.0156267  89.7793994  54.8465489  80.6475051  90.6519932
  54.1969000  81.5303906  89.6077951  55.5802556  86.1165363  81.1219530
  55.7554311  85.6453406  81.9365153  54.8935344  86.7431129  81.3500791
  56.5359619  80.3937869  87.1682831  56.2009451  80.3538639  88.0640481
  56.0363564  79.7282585  86.6953242  61.1272942  82.4492812  95.1025671
  61.0685488  81.7652032  94.4356254  61.5292460  83.1911802  94.6506297
  50.1463641  89.2654726  87.8959390  50.3860239  89.8973250  88.5738409
  49.3032837  88.9142766  88.1824750  61.1290349  80.4132396  93.3339651
  60.2417128  80.0758318  93.4566050  61.6988900  79.6815427  93.5708416
  54.6591503  85.0733848  90.3000894  54.5861674  85.8788820  90.8120199
  54.2168896  85.2725814  89.4748916  54.4481282  84.3105618  83.8103716
  53.6648804  84.8527298  83.9041940  55.1474028  84.8279598  84.2097957
  57.1190186  84.9720682  92.4559053  57.8318158  85.6068147  92.3834954
  56.6280215  85.0684548  91.6399055  52.1702100  82.7215126  93.2764624
  52.8711559  83.3551609  93.4294018  51.6997215  83.0629857  92.5160263
  60.1996927  67.0869841  88.6017280  59.2860007  67.3174068  88.7699487
  60.6290029  67.1708285  89.4531312  59.9703386  75.2759733  91.1017174
  59.3174836  75.5235641  90.4469627  60.3483766  74.4623871  90.7679651
  56.9310560  85.3119426  85.2045344  57.1132954  84.4941082  85.6673097
  57.7543546  85.5287119  84.7670234  57.2652725  84.2387611  82.4660393
  57.7940492  83.7280066  81.8530555  57.5280945  83.9230142  83.3305926
  56.0190959  76.0179544  97.5883211  55.3431596  75.9173674  98.2585586
  56.8418593  75.8618758  98.0519208  47.7669818  82.2551481  90.2095726
  48.3523255  81.5095169  90.3423631  47.5694656  82.5655437  91.0932390
  50.6208473  85.2902728  85.2258169  49.9518848  85.7748856  84.7422209
  50.4821343  85.5371949  86.1401547  54.7613742  87.3246472  91.8240827
  55.3132050  87.4878093  92.5889912  55.1019935  87.9150909  91.1520852
  59.6124616  82.1507729  97.6789482  60.1564520  82.7637687  97.1844436
  59.0311461  82.7087308  98.1956495  57.8982129  85.2728447  88.8104509
  57.7733268  84.4718187  88.3015455  58.5561220  85.7674641  88.3218479
  59.9617037  83.0737467  90.4384059  59.0147373  82.9542818  90.3662386
  60.3099810  82.1859965  90.5210321  52.3216611  68.9631606  94.2622301
  52.8451012  69.2093903  95.0248611  52.1028944  69.7951641  93.8425439
  56.9663471  82.8690183  86.6388412  56.8188433  81.9406891  86.8195982
  57.7916964  82.8910274  86.1545487  53.5269156  69.9045301  91.9471972
  53.1865976  69.1053114  92.3492652  52.8208162  70.2047012  91.3748805
  54.1785628  66.9894614  90.3999295  55.0011697  66.5155092  90.2778185
  54.4223691  67.7685097  90.8997981  54.9079553  84.8904953  93.8389482
  55.2166679  84.6454100  94.7112181  55.7055035  85.0951592  93.3508352
  54.9300165  87.0442863  86.0694858  54.4905155  86.5519242  86.7627715
  55.6808282  86.5015831  85.8286933  47.4092504  83.2354404  86.0719486
  48.2350524  82.9358176  85.6918130  47.0586556  82.4662026  86.5209275
  52.3774037  82.5880872  88.1417160  51.7554046  81.9251577  87.8419388
  53.0478904  82.6142004  87.4590808  45.6101109  81.1540730  87.0308420
  44.7733017  80.7262905  86.8492421  45.5824754  81.3473174  87.9679211
  52.4498565  71.0662660  97.7349666  52.4986720  71.9424783  97.3527435
  52.9921079  70.5240053  97.1621309  62.9353410  81.6103783  97.0150803
  62.1448954  81.5927922  96.4755302  62.6986765  82.1492077  97.7699839
  63.0551285  78.4596250  94.3283531  63.1049290  78.2946257  95.2699054
  62.9465209  77.5923509  93.9381412  51.9387544  81.1384795  81.6175620
  52.0875664  81.8220260  80.9642293  52.7453988  81.1189885  82.1325076
  60.3455048  74.4427178  95.6442838  61.2464911  74.3033642  95.3526836
  60.4203022  74.6081632  96.5841016  54.6797853  71.8194032  94.4896024
  53.8101162  72.1127598  94.2178613  54.9157333  72.4034477  95.2103288
  64.5569482  80.8793191  94.5725553  64.2654291  81.2423172  95.4089014
  63.9441613  80.1660199  94.3938885  62.8056670  76.0025806  93.0405611
  63.2810792  76.1953452  92.2324462  61.8822236  76.0584992  92.7948995
  57.3836887  68.0373649  92.0061445  57.9018831  68.7734676  91.6807933
  57.0292020  68.3437643  92.8408204  61.5058339  72.8791566  91.2733917
  62.4575762  72.9789664  91.2946141  61.3361790  72.0869834  91.7832001
  59.5272719  69.9647149  91.4593317  58.9322651  70.2452162  90.7639806
  59.2422416  70.4541050  92.2310059  63.9846417  76.0997686  90.3876216
  63.9522737  75.1613686  90.5735900  64.5947041  76.1781722  89.6542041
  64.1340906  72.8908729  90.4334499  63.6179954  72.1067186  90.2464428
  65.0180854  72.5627446  90.5981019  61.7951633  66.6349745  86.3930312
  61.5976454  66.3264833  87.2773644  62.4051338  67.3611383  86.5228242
  69.8022967  77.1613692  89.5282253  70.5326356  76.8998980  90.0889956
  69.1929913  76.4242414  89.5684321  55.7068441  79.0211485  97.8904077
  56.6271450  79.1990084  98.0844124  55.6718024  78.0767530  97.7383776
  53.5758378  72.5045725  99.9229607  53.4755105  73.4540082  99.8541698
  53.3579921  72.1763964  99.0505677  60.9304086  68.6259177  83.6505508
  60.3502755  69.2843981  83.2683560  60.6640019  67.8036521  83.2392925
  59.3807653  68.0264234  85.8526828  59.8807431  68.1380769  85.0441147
  60.0243261  67.7225287  86.4927636  53.4389649  75.9342864  98.7394669
  52.9556730  76.7343224  98.9458558  53.5250588  75.9450809  97.7862113
  59.7128964  70.7859267  82.7061856  58.8254819  71.0708918  82.4882051
  60.1282953  70.6253030  81.8589133  63.0643500  70.8105788  86.4216195
  63.8403891  71.3002240  86.6940812  62.3391635  71.2363842  86.8788065
  47.7213215  85.3667018  87.7933301  47.5867683  84.6067419  87.2271299
  47.3045277  86.0907918  87.3262089  50.8782341  86.2636335  88.0051743
  50.7614725  87.2081768  87.9030433  50.0574787  85.9609897  88.3937542
  57.7350675  79.7967496  99.5418238  58.6041834  79.9708148  99.1804873
  57.2557426  80.6161913  99.4193967  51.9036855  86.9164597  91.2207672
  52.8064102  86.9488207  91.5374167  51.6774225  85.9865048  91.2354007
  53.6590457  85.6695584  87.8817750  52.7086088  85.6697445  87.7682123
  53.9622943  84.9228318  87.3653785  69.3943150  91.5056122  88.9463513
  70.0321560  91.3862869  88.2426853  69.2763993  92.4536966  89.0051465
  66.2032857  91.4583550  88.8825037  65.8651368  91.3424615  87.9945572
  67.0722625  91.0574715  88.8626043  62.0619672  93.3119026  84.8721928
  61.4984537  93.2208963  84.1038216  61.9472067  92.4918931  85.3524421
  66.6852640  92.6118402  94.8411243  66.6741280  92.2171200  93.9691747
  66.8473279  91.8784474  95.4345014  59.6084104  94.8070218  87.7106149
  60.4005396  94.4661043  87.2952448  59.8480754  94.9165193  88.6308302
  67.6419231  96.9789994  80.1836393  66.9907211  97.5644075  79.7970407
  68.4363594  97.5096189  80.2431431  61.5674858  94.0679131  80.5823528
  62.3405734  93.5208118  80.4436403  61.9200257  94.9323381  80.7937989
  63.4059901  95.3955514  93.7890427  63.1149767  96.3001144  93.6737093
  64.0416885  95.4372041  94.5034496  64.3316108  92.7732362  90.3791787
  64.9279680  92.5488384  89.6648749  64.3891079  92.0317108  90.9817234
  63.9041136  90.2271797  78.2141977  64.1566657  89.7053319  77.4525440
  62.9665695  90.0637943  78.3168661  68.9484419  89.2307576  86.0216721
  69.7347508  88.8126999  85.6707138  69.2123123  90.1353668  86.1898369
  69.1194496  94.6680426  80.7205378  68.4840329  94.7415053  81.4326282
  68.7891903  95.2574025  80.0424457  74.3492846  89.1682809  86.9249699
  75.0818018  88.5982026  87.1587529  73.5932202  88.7804409  87.3656205
  63.6237425  92.1299903  80.4166352  63.5073683  91.4544807  81.0847437
  63.7339685  91.6432277  79.5998505  65.9668966  91.5910050  84.1213042
  65.6027173  91.0640671  84.8325963  66.8236082  91.2008520  83.9479527
  71.8718266  82.8804383  91.3844308  71.5401591  83.7499794  91.1605523
  71.2763880  82.5640667  92.0638338  68.3649786  95.0816929  90.7840221
  68.0650509  95.9841968  90.6756028  68.0200845  94.8149112  91.6361373
  61.8162267  91.5330726  86.8176925  60.8912764  91.4006940  87.0254617
  62.0646681  92.3124945  87.3146867  71.7646930  87.5999469  88.4637658
  70.8563807  87.5314878  88.1696419  71.7134525  88.0771414  89.2919483
  65.5863674  89.0757608  80.1021057  65.4663299  89.5214658  80.9406537
  64.8916262  89.4242925  79.5434595  59.1771078  91.1763999  87.6520714
  59.3063460  91.4298478  88.5660126  58.4968530  91.7691707  87.3325369
  63.3470566 101.8461249  83.7511188  63.2694595 102.7969075  83.8299669
  62.7432209 101.5007122  84.4086115  65.8387795  89.0189115  96.4072555
  65.0621129  89.5783035  96.3975420  66.4778358  89.5045898  96.9287425
  73.6308576  85.8015908  90.2415532  72.9882956  86.0948441  89.5955326
  73.1263505  85.6868828  91.0468728  71.2848740  89.5479081  80.9301391
  72.1966596  89.7806468  80.7549089  70.7758387  90.1316125  80.3676470
  64.0934168  91.8274568  95.9690522  64.8348852  92.3659612  95.6925346
  63.3871153  92.4540857  96.1262074  69.5689507  93.9703709  94.5662684
  69.9772863  93.5286119  93.8217316  68.8466769  93.3956336  94.8196877
  65.9220577  88.9076315  91.9396241  66.7681773  89.3315729  92.0830890
  65.8619215  88.2509940  92.6334804  69.8918322  94.5304899  88.3214973
  69.2627184  94.6950613  87.6191040  69.5043984  94.9446509  89.0925937
  73.7707554  95.4659337  85.6759336  73.0858592  95.8458239  85.1256370
  73.8551403  96.0754664  86.4091284  69.0720023  86.5680684  93.5977414
  68.8280955  87.3222744  93.0611690  69.3479953  86.9466031  94.4324661
  71.0258485  93.1119296  92.2754680  71.2375381  93.7551056  91.5989061
  70.9788234  92.2781613  91.8076610  68.6284714  85.7237117  89.1791252
  67.7669193  86.0218370  89.4707990  68.6547149  85.9407516  88.2472285
  65.4446284  94.2679307  85.5865058  65.9084629  94.5467010  84.7969680
  65.1803082  93.3662752  85.4038148  62.3370365  93.8150789  88.5244821
  62.9071722  94.2438057  87.8862305  62.9278477  93.5333374  89.2229007
  64.3815170  90.3902460  82.3954623  65.0839213  90.8423503  82.8628549
  64.0495798  89.7486279  83.0234516  62.8295531  88.9814216  96.7705832
  62.1994192  89.6630497  97.0041229  62.7231619  88.8697298  95.8258970
  58.1240504  88.6486012  87.6971756  57.3339558  88.9043541  87.2211867
  58.6151751  89.4634350  87.8023797  72.1404313  95.9891252  90.4477037
  72.9621757  95.5871439  90.1659719  72.1366716  95.8859486  91.3993153
  60.0755249  89.0130592  84.6555233  59.2786413  89.1249286  85.1738729
  59.8480841  89.3517244  83.7896124  65.9060917  95.5375295  92.6037748
  65.9705349  95.9995702  93.4395919  65.1971841  94.9072660  92.7320058
  56.4078207  88.9016503  90.1286747  56.6586245  89.7863513  90.3944323
  56.9437755  88.7221104  89.3561839  80.2310306  92.3330000  86.7962009
  79.4774015  91.7637398  86.6406013  80.3657848  92.2992665  87.7432643
  65.6208935  97.2043402  82.4716728  65.4854609  98.0494938  82.9001576
  66.1618747  97.4062680  81.7082662  62.1076274  83.2834982  99.1331083
  61.7143220  82.7301181  99.8078727  62.9242414  83.5945561  99.5237601
  59.0738332  94.7218840  83.0444653  59.5862852  95.5162091  83.1950218
  59.7261045  94.0245131  82.9778255  60.8833217  97.8384597  85.1267406
  61.0599845  98.7602561  84.9388390  61.6790050  97.5243016  85.5561786
  65.0244235  84.6992861  96.7251340  65.7653949  85.3000014  96.6455802
  65.2562158  83.9570499  96.1669382  60.1685573  89.8849229  95.0029569
  60.0539088  88.9834486  95.3036668  59.3130091  90.1312925  94.6514386
  67.2477411  97.8266969  96.6017070  66.8041265  97.0403347  96.2837975
  67.9094624  98.0146119  95.9360961  62.0064532  99.3562770  91.1277749
  62.5571957  99.2279834  90.3554743  61.1676008  99.6557660  90.7772641
  69.3458649  98.1069769  94.6298471  69.3277124  98.9278650  94.1378741
  70.2678569  97.9823844  94.8548612  65.8031703  95.6213898  95.4721980
  66.3360040  94.8602186  95.2421288  65.2745784  95.3287550  96.2146134
  68.9701398  80.7273964  91.0015621  68.6265667  81.6175606  90.9254732
  69.3380361  80.5375622  90.1385206  57.0387249  93.0507495  83.8204224
  57.8762471  93.4604503  83.6037931  57.2165516  92.1106937  83.7904417
  68.9351681  90.7182575  79.5088057  68.4198304  91.4887180  79.7476444
  68.6628989  90.0447712  80.1321118  66.5198792  85.5632276  84.5673295
  65.6640388  85.1739127  84.3878934  66.9325744  85.6424237  83.7073080
  68.0497938  83.0978619  88.9664855  67.5462734  83.0608755  88.1532660
  68.3428545  84.0071362  89.0261511  64.2940824  83.1817349  87.9731036
  65.1593821  82.9860158  87.6136926  64.3618333  82.9527701  88.9000393
  73.9085955  93.4714930  81.4441230  73.1315398  93.1326090  80.9996392
  74.5877436  93.4767553  80.7696195  68.7237984  88.5909667  81.3347838
  68.4188120  88.9055817  82.1857981  69.6768426  88.6691087  81.3775171
  67.1684416  94.7499891  82.9840792  66.6405777  94.0152650  82.6714029
  66.6671919  95.5274567  82.7380760  72.1477262  92.9448911  88.1007838
  71.4900936  93.6348173  88.1887967  72.9517661  93.3345343  88.4441824
  70.9582721  91.2993284  86.1511780  71.4714602  91.9323276  86.6533489
  71.6083945  90.6994479  85.7855140  65.3137016  92.5680101  75.9875765
  64.4064078  92.3369355  76.1866914  65.8108048  91.7717720  76.1749746
  68.2205095 101.2777608  78.9072451  67.5466794 101.5809305  79.5157409
  68.6070917 102.0806689  78.5577908  67.4363552  88.7742740  88.3970120
  66.5186113  88.9957687  88.2391808  67.8523695  88.8489050  87.5381828
  68.2198599  90.1734155  83.5272801  68.9670418  90.6855552  83.2179923
  68.4890189  89.8518208  84.3877194  66.4925249  92.6692696  80.5099755
  65.5836469  92.3851729  80.6072225  66.5220333  93.0891774  79.6503062
  71.7244517  96.2799285  84.2790922  71.2706844  95.4390195  84.3356113
  71.0938484  96.9160684  84.6165703  70.6677436  87.2091271  85.5091590
  69.9300193  86.6968658  85.8401832  70.9204210  86.7691653  84.6974867
  70.1677456  98.1175782  85.2140741  70.4600430  98.6780839  84.4953106
  70.6776077  98.4104343  85.9693900  70.7689064  79.9867523  86.1033359
  71.0747941  79.1264887  85.8159274  71.4941669  80.5785144  85.9032353
  57.0613420  90.3898210  84.4914957  56.8637820  89.7967571  83.7666024
  56.5060084  90.0850420  85.2090896  65.0410143  90.2821317  86.6109550
  65.0958753  89.3295153  86.5352027  64.2301346  90.4380756  87.0950849
  66.1901337  94.2101440  77.8487833  65.7520767  93.4937299  77.3893471
  66.9311778  94.4377554  77.2872925  62.9802503  88.8998376  84.3699929
  62.1670369  89.1992547  84.7765121  63.4761498  88.5054065  85.0874411
  65.1311081  98.8956133  86.3034194  65.0887260  99.1216980  85.3742726
  66.0473780  98.6619508  86.4519995  68.5776715  89.3640201  93.2014823
  68.9326103  89.5911674  94.0609289  69.2248846  89.6958578  92.5792078
  74.3074452  92.4858637  83.9064152  74.1692351  92.6760233  82.9785341
  73.9510671  93.2478019  84.3632203  62.4716578  86.4716732  89.9861164
  63.1115957  86.3305491  89.2884127  61.6394109  86.1851245  89.6099766
  74.3343832  94.5535164  88.9175423  74.7680338  94.4610453  89.7658478
  75.0475412  94.5292664  88.2795439  63.2476882  95.7719162  86.0996156
  64.0417481  95.2769482  85.8978731  62.5368574  95.2437025  85.7363862
  68.0671727  98.1537258  90.4508524  68.1208749  98.7228194  91.2186240
  67.1986508  98.3239143  90.0862561  59.5559646  89.9162244  82.1755909
  58.6257234  89.8546699  82.3925871  59.6517118  89.3938197  81.3792550
  59.4745195  86.4417057  84.7634151  59.7352012  87.3562390  84.6543311
  60.2962367  85.9741499  84.9130764  60.9470120  87.8554814  91.9332975
  61.6193173  87.6472176  91.2845624  60.1199906  87.6576900  91.4938208
  75.1959381  94.5958864  91.4508309  75.3895271  95.5004675  91.6967584
  75.0959999  94.1366283  92.2846894  66.8495692  84.4816755  93.9498636
  66.2023607  85.1806705  93.8563113  67.6196707  84.9152899  94.3174884
  70.2574490  94.7465607  97.0249189  70.1059996  94.5176159  96.1079273
  70.2479169  95.7036208  97.0380535  67.0259826  92.3197520  92.0095456
  67.9551886  92.4708679  91.8364423  66.6050856  92.4081541  91.1544102
  65.8248158  96.3448184  89.7793994  65.6859244  95.9766969  90.6519932
  65.0362754  96.8595824  89.6077951  66.4196310 101.4457281  81.1219530
  66.5948066 100.9745324  81.9365153  65.7329098 102.0723047  81.3500791
  67.3753373  95.7229787  87.1682831  67.0403206  95.6830557  88.0640481
  66.8757319  95.0574503  86.6953242  61.3497617  91.1297417  92.6935413
  61.2117415  90.3977656  93.2946952  62.2602541  91.0406317  92.4119600
  70.3112565  93.0685821  77.4419891  69.6941736  92.3432649  77.3452944
  69.8429053  93.8295182  77.0986965  63.9779918  90.8417376  92.1819092
  64.6879536  90.2010568  92.1405711  63.9349226  91.0930271  93.1045273
  71.9666697  97.7784730  95.1025671  71.9079243  97.0943950  94.4356254
  72.3686215  98.5203720  94.6506297  62.6908852  87.8282594  94.0014732
  62.1546209  87.3773333  94.6536328  62.1025560  87.9628503  93.2585196
  60.9857395 104.5946643  87.8959390  61.2253994 105.2265168  88.5738409
  60.1426592 104.2434683  88.1824750  71.9684104  95.7424314  93.3339651
  71.0810883  95.4050235  93.4566050  72.5382655  95.0107345  93.5708416
  53.6213251  92.0748405  86.6582702  54.3084291  91.7610135  86.0703718
  53.4661380  92.9789770  86.3849954  58.4247973  86.9638602  91.0867726
  58.3406162  86.3564271  90.3518136  57.6030679  87.4547620  91.0877222
  65.4985257 100.4025766  90.3000894  65.4255429 101.2080737  90.8120199
  65.0562650 100.6017732  89.4748916  65.2875037  99.6397536  83.8103716
  64.5042559 100.1819216  83.9041940  65.9867782 100.1571516  84.2097957
  68.5971687  85.4492165  86.4537921  69.0940386  84.6962128  86.1338991
  67.8258668  85.4856482  85.8881131  76.4501444  91.1532531  88.0956213
  76.4391321  92.0357246  87.7250146  75.5818824  90.8004082  87.9010750
  67.9583941 100.3012600  92.4559053  68.6711913 100.9360065  92.3834954
  67.4673969 100.3976466  91.6399055  69.6801468  94.2063853  84.0276345
  68.7457746  94.3265315  83.8581049  69.8578136  93.3036319  83.7636354
  65.1806656  87.5909548  86.1809606  64.8104443  87.0380589  86.8690511
  65.6765748  86.9867682  85.6284606  73.0674019  90.0481172  84.5626379
  73.5334471  90.8809163  84.4886681  73.5181519  89.5826153  85.2671637
  63.0095854  98.0507043  93.2764624  63.7105314  98.6843526  93.4294018
  62.5390969  98.3921775  92.5160263  71.1350250  96.3924993  81.5612531
  71.4110094  96.2781588  82.4706405  70.2654749  95.9942478  81.5224704
  71.0390682  82.4161759  88.6017280  70.1253762  82.6465986  88.7699487
  71.4683783  82.5000203  89.4531312  70.8097140  90.6051651  91.1017174
  70.1568590  90.8527558  90.4469627  71.1877520  89.7915789  90.7679651
  67.7704314 100.6411344  85.2045344  67.9526709  99.8233000  85.6673097
  68.5937300 100.8579036  84.7670234  68.1046480  99.5679529  82.4660393
  68.6334246  99.0571984  81.8530555  68.3674699  99.2522059  83.3305926
  66.8584713  91.3471462  97.5883211  66.1825350  91.2465591  98.2585586
  67.6812347  91.1910676  98.0519208  58.6063572  97.5843398  90.2095726
  59.1917009  96.8387086  90.3423631  58.4088411  97.8947355  91.0932390
  61.4602228 100.6194646  85.2258169  60.7912603 101.1040773  84.7422209
  61.3215097 100.8663866  86.1401547  53.1981227  90.1548999  88.9300170
  53.2365327  89.6212589  89.7237288  52.6921520  89.6284204  88.3111147
  65.6007496 102.6538389  91.8240827  66.1525804 102.8170011  92.5889912
  65.9413690 103.2442827  91.1520852  60.5771989  85.0013539  92.4262712
  60.6413316  85.8628370  92.0140110  60.5139110  84.3887541  91.6935070
  60.0524262  87.0736672  96.0735746  60.6796301  86.6913749  96.6873270
  59.1952181  86.8550874  96.4391439  70.4518370  97.4799647  97.6789482
  70.9958274  98.0929605  97.1844436  69.8705215  98.0379225  98.1956495
  56.8289805  88.8813101  82.0054101  57.1243246  87.9723779  81.9521155
  55.9277840  88.8600840  81.6835103  68.7375883 100.6020365  88.8104509
  68.6127023  99.8010105  88.3015455  69.3954975 101.0966558  88.3218479
  60.3584052  86.9569097  87.9881650  59.6370637  87.5705065  87.8489123
  61.1477307  87.4926862  87.9098295  70.8010792  98.4029385  90.4384059
  69.8541127  98.2834736  90.3662386  71.1493565  97.5151883  90.5210321
  63.1610365  84.2923524  94.2622301  63.6844767  84.5385820  95.0248611
  62.9422698  85.1243559  93.8425439  58.5577646  86.5627198  82.1293426
  58.2290352  85.6824577  81.9468532  58.9117017  86.5074867  83.0169815
  67.8057225  98.1982101  86.6388412  67.6582188  97.2698809  86.8195982
  68.6310719  98.2202192  86.1545487  61.6719469  86.8500168  82.4968904
  62.0115542  87.3786089  81.7747512  62.1191590  87.1880574  83.2727470
  71.4091347  99.0210660  87.7253284  72.3337894  98.8153521  87.5877736
  71.2406650  98.7727061  88.6342626  64.3662910  85.2337219  91.9471972
  64.0259731  84.4345032  92.3492652  63.6601916  85.5338930  91.3748805
  65.0179382  82.3186531  90.3999295  65.8405451  81.8447010  90.2778185
  65.2617446  83.0977015  90.8997981  62.5417961  89.0105652  88.2091273
  62.3962541  89.3245955  89.1015555  62.0643164  89.6290552  87.6562172
  64.4014344  86.0008200  88.2572163  64.3875912  85.1049293  87.9204461
  65.1186772  86.0078864  88.8910449  66.2540474  86.4345540  90.3025290
  65.9958252  87.3562611  90.3009621  65.7225515  86.0375975  90.9925755
  71.1986663  99.5396327  83.0815376  71.3723541  98.9742750  82.3289228
  71.6915554 100.3397222  82.8994866  57.0163623  91.5510996  91.1478935
  56.4717091  92.3270804  91.2799209  57.8942973  91.8981801  90.9898056
  66.6742430  82.5677491  86.6626453  66.6964127  82.6316824  85.7078433
  67.0910489  81.7281999  86.8566959  77.0526054  92.3032750  84.7005676
  77.4957200  91.5540075  84.3024799  76.1752565  92.2942887  84.3179408
  72.1861836  98.8563092  80.1812274  72.8812740  99.4769784  80.3999589
  72.5284986  98.0058443  80.4564652  57.8029645  90.6780893  94.0409092
  57.0611381  90.8263528  94.6273722  57.4822389  90.9389158  93.1775841
  74.0853259  96.3062797  81.7099605  74.6104583  96.6450070  80.9848925
  73.9975611  95.3709813  81.5262740  65.7473307 100.2196871  93.8389482
  66.0560434  99.9746018  94.7112181  66.5448789 100.4243509  93.3508352
  65.7693919 102.3734781  86.0694858  65.3298910 101.8811159  86.7627715
  66.5202036 101.8307748  85.8286933  58.2486258  98.5646321  86.0719486
  59.0744278  98.2650093  85.6918130  57.8980310  97.7953944  86.5209275
  63.2167792  97.9172790  88.1417160  62.5947801  97.2543495  87.8419388
  63.8872659  97.9433922  87.4590808  56.4494864  96.4832648  87.0308420
  55.6126772  96.0554822  86.8492421  56.4218509  96.6765091  87.9679211
  63.2892319  86.3954578  97.7349666  63.3380475  87.2716700  97.3527435
  63.8314833  85.8531971  97.1621309  73.7747165  96.9395701  97.0150803
  72.9842709  96.9219840  96.4755302  73.5380519  97.4783995  97.7699839
  73.8945040  93.7888167  94.3283531  73.9443045  93.6238175  95.2699054
  73.7858963  92.9215426  93.9381412  62.7781299  96.4676713  81.6175620
  62.9269419  97.1512177  80.9642293  63.5847742  96.4481803  82.1325076
  71.1848802  89.7719095  95.6442838  72.0858665  89.6325560  95.3526836
  71.2596777  89.9373550  96.5841016  65.5191608  87.1485950  94.4896024
  64.6494917  87.4419516  94.2178613  65.7551088  87.7326395  95.2103288
  75.3963237  96.2085109  94.5725553  75.1048045  96.5715089  95.4089014
  74.7835368  95.4952117  94.3938885  76.5958919  93.7737989  87.0928123
  77.4305810  94.2127793  87.2565684  76.7318048  93.2976642  86.2736369
  73.6450425  91.3317723  93.0405611  74.1204547  91.5245370  92.2324462
  72.7215990  91.3876909  92.7948995  60.5333932  92.4941891  82.6236689
  60.2879973  91.5904221  82.8216899  60.7029846  92.4959041  81.6816167
  68.2230641  83.3665567  92.0061445  68.7412585  84.1026594  91.6807933
  67.8685774  83.6729560  92.8408204  59.8029579  88.2270248  80.1222851
  59.1098824  88.3014603  79.4662887  59.5581331  87.4630592  80.6444368
  68.4743236  79.7865850  87.5262341  68.7544989  79.1189039  88.1522768
  69.2593843  79.9794945  87.0137005  66.2776704  98.9624843  79.0887368
  65.7050671  99.5815031  78.6357840  66.8509498  99.5124205  79.6227290
  72.3452094  88.2083484  91.2733917  73.2969517  88.3081581  91.2946141
  72.1755544  87.4161752  91.7832001  70.3666473  85.2939067  91.4593317
  69.7716406  85.5744079  90.7639806  70.0816170  85.7832968  92.2310059
  69.4973964  99.2461994  80.2195950  70.4304637  99.1807555  80.4228826
  69.4097177 100.0818260  79.7610483  72.1261981  98.5627864  77.1799898
  72.0475612  98.2287727  78.0735655  72.9471647  99.0549632  77.1791370
  74.8240172  91.4289603  90.3876216  74.7916492  90.4905604  90.5735900
  75.4340795  91.5073640  89.6542041  66.6623503  90.2985656  76.4303420
  67.6082607  90.1691864  76.4991838  66.2837748  89.5600318  76.9072848
  74.9734660  88.2200647  90.4334499  74.4573709  87.4359103  90.2464428
  75.8574609  87.8919363  90.5981019  72.6345387  81.9641662  86.3930312
  72.4370208  81.6556750  87.2773644  73.2445093  82.6903301  86.5228242
  80.6416722  92.4905610  89.5282253  81.3720110  92.2290898  90.0889956
  80.0323667  91.7534332  89.5684321  78.7232019  90.6313473  90.1256704
  77.9965182  90.4969438  89.5173196  78.3079306  90.9390301  90.9313422
  66.5462195  94.3503402  97.8904077  67.4665205  94.5282001  98.0844124
  66.5111778  93.4059448  97.7383776  55.7644360  89.5441996  86.8157352
  55.4447144  88.6907304  86.5231726  55.2177788  89.7590574  87.5715319
  59.5424268  92.2604437  90.5326858  59.7610277  93.1921545  90.5514892
  59.9550041  91.9012411  91.3181662  64.4152133  87.8337643  99.9229607
  64.3148860  88.7832000  99.8541698  64.1973675  87.5055882  99.0505677
  55.6332620  93.1644907  88.7850473  54.9396092  92.7498860  88.2720428
  56.3805611  93.2065444  88.1883892  71.7697841  83.9551094  83.6505508
  71.1896510  84.6135898  83.2683560  71.5033774  83.1328439  83.2392925
  70.2201407  83.3556152  85.8526828  70.7201186  83.4672686  85.0441147
  70.8637015  83.0517205  86.4927636  64.2783403  91.2634782  98.7394669
  63.7950485  92.0635142  98.9458558  64.3644342  91.2742726  97.7862113
  57.5469363  93.0963161  86.6616488  57.5240051  93.1950849  85.7098371
  57.8569999  93.9428312  86.9833654  60.2056741  95.1539316  90.7763103
  61.1599994  95.1223259  90.7093034  60.0069264  94.6929940  91.5913329
  60.7956123  93.7240432  93.3433900  61.6149012  94.2184511  93.3668738
  61.0692930  92.8072400  93.3151468  70.5522719  86.1151185  82.7061856
  69.6648574  86.4000835  82.4882051  70.9676708  85.9544948  81.8589133
  73.9037255  86.1397706  86.4216195  74.6797645  86.6294158  86.6940812
  73.1785389  86.5655760  86.8788065  76.3409814  86.8525325  87.4790136
  76.9354304  86.6121061  86.7683444  76.4136397  86.1332455  88.1063672
  58.5606969 100.6958936  87.7933301  58.4261437  99.9359337  87.2271299
  58.1439032 101.4199836  87.3262089  69.6965932  95.8795859  76.8009876
  70.4001782  96.0845862  77.4167531  68.9728581  96.4472621  77.0658959
  70.5263743  91.6305721  82.9212146  70.4698944  92.0874272  82.0819778
  71.0792085  90.8696405  82.7434989  74.3368549  87.4195452  83.7462266
  74.0805483  87.0192088  84.5770473  73.7121417  88.1339246  83.6212405
  78.6480886  90.1591526  86.2533557  78.0880444  90.2284715  87.0265119
  78.0424390  89.9832510  85.5333053  61.7176095 101.5928253  88.0051743
  61.6008479 102.5373685  87.9030433  60.8968541 101.2901814  88.3937542
  71.6052630  96.3178388  78.8508336  72.4398234  95.8859587  78.6685811
  71.4436973  96.1460402  79.7785230  71.2598522  92.8210502  80.2164675
  71.2047326  92.6554773  79.2753119  70.6344577  93.5286535  80.3726865
  56.0491037  88.0578566  94.0426097  56.6949900  87.5477520  94.5313323
  55.8408188  88.7947248  94.6169523  68.5744429  95.1259414  99.5418238
  69.4435589  95.3000066  99.1804873  68.0951181  95.9453830  99.4193967
  62.7430609 102.2456515  91.2207672  63.6457856 102.2780125  91.5374167
  62.5167979 101.3156966  91.2354007  64.4984211 100.9987501  87.8817750
  63.5479842 100.9989363  87.7682123  64.8016697 100.2520236  87.3653785
  60.3888528  85.2046183  98.1401112  61.2519989  84.8482988  98.3504436
  59.8153939  84.8660078  98.8276516  80.2336905 106.8348040  88.9463513
  80.8715315 106.7154787  88.2426853  80.1157748 107.7828884  89.0051465
  77.0426611 106.7875468  88.8825037  76.7045123 106.6716532  87.9945572
  77.9116379 106.3866633  88.8626043  72.9013427 108.6410944  84.8721928
  72.3378292 108.5500881  84.1038216  72.7865822 107.8210849  85.3524421
  77.5246394 107.9410319  94.8411243  77.5135035 107.5463118  93.9691747
  77.6867034 107.2076392  95.4345014  70.4477859 110.1362136  87.7106149
  71.2399151 109.7952960  87.2952448  70.6874509 110.2457111  88.6308302
  78.4812986 112.3081912  80.1836393  77.8300965 112.8935992  79.7970407
  79.2757348 112.8388107  80.2431431  72.4068613 109.3971049  80.5823528
  73.1799489 108.8500036  80.4436403  72.7594012 110.2615298  80.7937989
  74.2453655 110.7247431  93.7890427  73.9543521 111.6293062  93.6737093
  74.8810640 110.7663959  94.5034496  75.1709862 108.1024280  90.3791787
  75.7673434 107.8780302  89.6648749  75.2284834 107.3609025  90.9817234
  74.7434890 105.5563715  78.2141977  74.9960411 105.0345236  77.4525440
  73.8059450 105.3929861  78.3168661  79.7878173 104.5599493  86.0216721
  80.5741263 104.1418917  85.6707138  80.0516878 105.4645586  86.1898369
  79.9588251 109.9972344  80.7205378  79.3234084 110.0706970  81.4326282
  79.6285657 110.5865943  80.0424457  85.1886600 104.4974727  86.9249699
  85.9211772 103.9273943  87.1587529  84.4325956 104.1096327  87.3656205
  74.4631179 107.4591821  80.4166352  74.3467437 106.7836724  81.0847437
  74.5733439 106.9724195  79.5998505  76.8062720 106.9201968  84.1213042
  76.4420927 106.3932589  84.8325963  77.6629836 106.5300437  83.9479527
  82.7112021  98.2096301  91.3844308  82.3795346  99.0791712  91.1605523
  82.1157634  97.8932585  92.0638338  76.4468207 101.9491868  79.1174390
  76.6142609 102.8172104  79.4844861  76.2565376 102.1119150  78.1935679
  79.2043540 110.4108847  90.7840221  78.9044263 111.3133886  90.6756028
  78.8594600 110.1441030  91.6361373  72.6556022 106.8622644  86.8176925
  71.7306518 106.7298858  87.0254617  72.9040435 107.6416863  87.3146867
  82.6040684 102.9291387  88.4637658  81.6957561 102.8606795  88.1696419
  82.5528280 103.4063332  89.2919483  76.4257428 104.4049525  80.1021057
  76.3057053 104.8506576  80.9406537  75.7310016 104.7534843  79.5434595
  70.0164833 106.5055917  87.6520714  70.1457214 106.7590396  88.5660126
  69.3362284 107.0983625  87.3325369  74.1864320 117.1753167  83.7511188
  74.1088350 118.1260992  83.8299669  73.5825964 116.8299040  84.4086115
  76.6781550 104.3481033  96.4072555  75.9014884 104.9074953  96.3975420
  77.3172113 104.8337816  96.9287425  84.4702330 101.1307825  90.2415532
  83.8276711 101.4240358  89.5955326  83.9657259 101.0160746  91.0468728
  82.1242494 104.8770999  80.9301391  83.0360350 105.1098385  80.7549089
  81.6152141 105.4608043  80.3676470  74.9327922 107.1566486  95.9690522
  75.6742607 107.6951530  95.6925346  74.2264908 107.7832775  96.1262074
  80.4083262 109.2995626  94.5662684  80.8166618 108.8578037  93.8217316
  79.6860523 108.7248254  94.8196877  76.7614332 104.2368233  91.9396241
  77.6075527 104.6607647  92.0830890  76.7012970 103.5801857  92.6334804
  80.7312076 109.8596817  88.3214973  80.1020939 110.0242531  87.6191040
  80.3437739 110.2738427  89.0925937  84.6101308 110.7951255  85.6759336
  83.9252347 111.1750156  85.1256370  84.6945158 111.4046581  86.4091284
  79.9113777 101.8972601  93.5977414  79.6674709 102.6514662  93.0611690
  80.1873708 102.2757949  94.4324661  81.8652240 108.4411214  92.2754680
  82.0769135 109.0842974  91.5989061  81.8181988 107.6073530  91.8076610
  79.4678469 101.0529034  89.1791252  78.6062948 101.3510288  89.4707990
  79.4940904 101.2699433  88.2472285  76.2840038 109.5971225  85.5865058
  76.7478384 109.8758928  84.7969680  76.0196836 108.6954670  85.4038148
  73.1764119 109.1442707  88.5244821  73.7465476 109.5729975  87.8862305
  73.7672231 108.8625291  89.2229007  75.2208924 105.7194377  82.3954623
  75.9232968 106.1715421  82.8628549  74.8889553 105.0778196  83.0234516
  73.6689286 104.3106134  96.7705832  73.0387947 104.9922415  97.0041229
  73.5625374 104.1989216  95.8258970  68.9634258 103.9777930  87.6971756
  68.1733312 104.2335459  87.2211867  69.4545506 104.7926268  87.8023797
  82.9798068 111.3183169  90.4477037  83.8015512 110.9163357  90.1659719
  82.9760471 111.2151403  91.3993153  70.9149004 104.3422509  84.6555233
  70.1180167 104.4541204  85.1738729  70.6874596 104.6809162  83.7896124
  76.7454671 110.8667213  92.6037748  76.8099104 111.3287620  93.4395919
  76.0365595 110.2364577  92.7320058  67.2471961 104.2308421  90.1286747
  67.4980000 105.1155430  90.3944323  67.7831510 104.0513022  89.3561839
  91.0704061 107.6621918  86.7962009  90.3167769 107.0929316  86.6406013
  91.2051602 107.6284582  87.7432643  76.4602689 112.5335320  82.4716728
  76.3248364 113.3786856  82.9001576  77.0012502 112.7354598  81.7082662
  72.9470029  98.6126900  99.1331083  72.5536974  98.0593098  99.8078727
  73.7636169  98.9237478  99.5237601  69.9132086 110.0510758  83.0444653
  70.4256607 110.8454008  83.1950218  70.5654799 109.3537049  82.9778255
  71.7226971 113.1676514  85.1267406  71.8993599 114.0894479  84.9388390
  72.5183805 112.8534934  85.5561786  75.8637990 100.0284779  96.7251340
  76.6047703 100.6291932  96.6455802  76.0955912  99.2862417  96.1669382
  71.0079328 105.2141146  95.0029569  70.8932843 104.3126403  95.3036668
  70.1523845 105.4604843  94.6514386  78.0871165 113.1558887  96.6017070
  77.6435020 112.3695265  96.2837975  78.7488379 113.3438037  95.9360961
  72.8458287 114.6854688  91.1277749  73.3965712 114.5571752  90.3554743
  72.0069762 114.9849577  90.7772641  80.1852403 113.4361686  94.6298471
  80.1670879 114.2570568  94.1378741  81.1072324 113.3115762  94.8548612
  76.6425458 110.9505816  95.4721980  77.1753794 110.1894104  95.2421288
  76.1139539 110.6579468  96.2146134  79.8095153  96.0565882  91.0015621
  79.4659422  96.9467524  90.9254732  80.1774115  95.8667540  90.1385206
  67.8781003 108.3799412  83.8204224  68.7156225 108.7896421  83.6037931
  68.0559271 107.4398855  83.7904417  79.7745435 106.0474493  79.5088057
  79.2592059 106.8179098  79.7476444  79.5022744 105.3739629  80.1321118
  77.3592546 100.8924194  84.5673295  76.5034143 100.5031044  84.3878934
  77.7719498 100.9716155  83.7073080  78.8891693  98.4270537  88.9664855
  78.3856489  98.3900672  88.1532660  79.1822300  99.3363280  89.0261511
  75.1334579  98.5109267  87.9731036  75.9987576  98.3152075  87.6136926
  75.2012088  98.2819619  88.9000393  84.7479709 108.8006848  81.4441230
  83.9709152 108.4618007  80.9996392  85.4271190 108.8059471  80.7696195
  79.5631738 103.9201585  81.3347838  79.2581874 104.2347734  82.1857981
  80.5162181 103.9983005  81.3775171  78.0078170 110.0791808  82.9840792
  77.4799532 109.3444568  82.6714029  77.5065673 110.8566485  82.7380760
  82.9871016 108.2740829  88.1007838  82.3294691 108.9640090  88.1887967
  83.7911416 108.6637261  88.4441824  72.7396898 100.7411475  85.3447403
  73.3140650 100.5186656  84.6120596  73.3267880 100.8100169  86.0976005
  81.7976475 106.6285202  86.1511780  82.3108357 107.2615193  86.6533489
  82.4477699 106.0286397  85.7855140  73.0666485 102.7715936  79.3643289
  72.2303797 103.1090622  79.6852563  72.9271255 102.6364916  78.4270425
  75.0419566  97.6152724  84.0722473  74.3883978  97.3001741  83.4479087
  75.0000040  96.9928464  84.7982296  76.1530771 107.8972019  75.9875765
  75.2457832 107.6661272  76.1866914  76.6501802 107.1009638  76.1749746
  79.0598849 116.6069526  78.9072451  78.3860548 116.9101223  79.5157409
  79.4464671 117.4098606  78.5577908  78.2757306 104.1034657  88.3970120
  77.3579867 104.3249604  88.2391808  78.6917450 104.1780968  87.5381828
  79.0592354 105.5026073  83.5272801  79.8064173 106.0147470  83.2179923
  79.3283943 105.1810126  84.3877194  77.3319004 107.9984614  80.5099755
  76.4230223 107.7143646  80.6072225  77.3614088 108.4183692  79.6503062
  82.5638271 111.6091203  84.2790922  82.1100598 110.7682113  84.3356113
  81.9332238 112.2452601  84.6165703  81.5071191 102.5383189  85.5091590
  80.7693948 102.0260575  85.8401832  81.7597964 102.0983571  84.6974867
  81.0071211 113.4467700  85.2140741  81.2994185 114.0072757  84.4953106
  81.5169831 113.7396261  85.9693900  81.6082818  95.3159441  86.1033359
  81.9141695  94.4556805  85.8159274  82.3335423  95.9077061  85.9032353
  67.9007174 105.7190128  84.4914957  67.7031574 105.1259488  83.7666024
  67.3453838 105.4142338  85.2090896  75.8803898 105.6113234  86.6109550
  75.9352508 104.6587071  86.5352027  75.0695100 105.7672673  87.0950849
  77.0295092 109.5393357  77.8487833  76.5914522 108.8229216  77.3893471
  77.7705533 109.7669472  77.2872925  73.8196258 104.2290294  84.3699929
  73.0064123 104.5284464  84.7765121  74.3155252 103.8345983  85.0874411
  75.9704836 114.2248051  86.3034194  75.9281015 114.4508897  85.3742726
  76.8867535 113.9911425  86.4519995  79.4170470 104.6932118  93.2014823
  79.7719857 104.9203592  94.0609289  80.0642601 105.0250495  92.5792078
  85.1468207 107.8150554  83.9064152  85.0086105 108.0052150  82.9785341
  84.7904425 108.5769937  84.3632203  73.3110333 101.8008649  89.9861164
  73.9509712 101.6597409  89.2884127  72.4787863 101.5143163  89.6099766
  85.1737586 109.8827081  88.9175423  85.6074093 109.7902370  89.7658478
  85.8869167 109.8584582  88.2795439  74.0870637 111.1011080  86.0996156
  74.8811235 110.6061400  85.8978731  73.3762329 110.5728943  85.7363862
  78.9065481 113.4829175  90.4508524  78.9602503 114.0520112  91.2186240
  78.0380262 113.6531060  90.0862561  70.3953400 105.2454162  82.1755909
  69.4650988 105.1838617  82.3925871  70.4910872 104.7230114  81.3792550
  70.3138949 101.7708974  84.7634151  70.5745766 102.6854308  84.6543311
  71.1356121 101.3033417  84.9130764  71.7863874 103.1846732  91.9332975
  72.4586928 102.9764094  91.2845624  70.9593661 102.9868818  91.4938208
  86.0353136 109.9250782  91.4508309  86.2289026 110.8296592  91.6967584
  85.9353754 109.4658201  92.2846894  77.6889446  99.8108673  93.9498636
  77.0417361 100.5098622  93.8563113  78.4590462 100.2444816  94.3174884
  81.0968244 110.0757525  97.0249189  80.9453751 109.8468076  96.1079273
  81.0872924 111.0328126  97.0380535  77.8653581 107.6489437  92.0095456
  78.7945641 107.8000597  91.8364423  77.4444611 107.7373458  91.1544102
  76.6641913 111.6740102  89.7793994  76.5252998 111.3058886  90.6519932
  75.8756509 112.1887741  89.6077951  77.2590065 116.7749198  81.1219530
  77.4341820 116.3037242  81.9365153  76.5722853 117.4014965  81.3500791
  78.2147128 111.0521705  87.1682831  77.8796960 111.0122475  88.0640481
  77.7151073 110.3866420  86.6953242  72.1891372 106.4589335  92.6935413
  72.0511170 105.7269573  93.2946952  73.0996295 106.3698235  92.4119600
  81.1506319 108.3977739  77.4419891  80.5335490 107.6724567  77.3452944
  80.6822808 109.1587099  77.0986965  74.8173672 106.1709294  92.1819092
  75.5273291 105.5302486  92.1405711  74.7742980 106.4222189  93.1045273
  82.8060451 113.1076647  95.1025671  82.7472997 112.4235867  94.4356254
  83.2079969 113.8495637  94.6506297  73.5302606 103.1574512  94.0014732
  72.9939963 102.7065250  94.6536328  72.9419315 103.2920421  93.2585196
  71.8251150 119.9238561  87.8959390  72.0647748 120.5557085  88.5738409
  70.9820346 119.5726601  88.1824750  72.9404865 102.6163163  76.5641195
  72.0634332 102.4951964  76.2003442  73.4162618 101.8249242  76.3120084
  82.8077858 111.0716231  93.3339651  81.9204637 110.7342153  93.4566050
  83.3776409 110.3399262  93.5708416  64.4607005 107.4040323  86.6582702
  65.1478045 107.0902053  86.0703718  64.3055134 108.3081688  86.3849954
  69.2641728 102.2930520  91.0867726  69.1799916 101.6856189  90.3518136
  68.4424434 102.7839538  91.0877222  76.3379012 115.7317684  90.3000894
  76.2649183 116.5372655  90.8120199  75.8956405 115.9309649  89.4748916
  76.1268791 114.9689454  83.8103716  75.3436313 115.5111134  83.9041940
  76.8261536 115.4863433  84.2097957  79.4365441 100.7784083  86.4537921
  79.9334141 100.0254045  86.1338991  78.6652423 100.8148400  85.8881131
  87.2895199 106.4824449  88.0956213  87.2785075 107.3649164  87.7250146
  86.4212578 106.1295999  87.9010750  78.7977695 115.6304518  92.4559053
  79.5105667 116.2651982  92.3834954  78.3067724 115.7268384  91.6399055
  80.5195222 109.5355770  84.0276345  79.5851501 109.6557233  83.8581049
  80.6971891 108.6328237  83.7636354  76.0200410 102.9201466  86.1809606
  75.6498198 102.3672506  86.8690511  76.5159503 102.3159600  85.6284606
  83.9067773 105.3773090  84.5626379  84.3728226 106.2101081  84.4886681
  84.3575274 104.9118071  85.2671637  73.8489609 113.3798961  93.2764624
  74.5499068 114.0135444  93.4294018  73.3784724 113.7213693  92.5160263
  81.9744005 111.7216911  81.5612531  82.2503848 111.6073505  82.4706405
  81.1048503 111.3234396  81.5224704  81.8784436  97.7453677  88.6017280
  80.9647516  97.9757903  88.7699487  82.3077538  97.8292121  89.4531312
  81.6490895 105.9343568  91.1017174  80.9962345 106.1819476  90.4469627
  82.0271275 105.1207707  90.7679651  78.6098069 115.9703262  85.2045344
  78.7920463 115.1524918  85.6673097  79.4331055 116.1870954  84.7670234
  78.9440234 114.8971447  82.4660393  79.4728001 114.3863901  81.8530555
  79.2068454 114.5813977  83.3305926  77.6978468 106.6763380  97.5883211
  77.0219105 106.5757509  98.2585586  78.5206102 106.5202593  98.0519208
  69.4457327 112.9135316  90.2095726  70.0310764 112.1679004  90.3423631
  69.2482165 113.2239273  91.0932390  72.2995982 115.9486563  85.2258169
  71.6306357 116.4332691  84.7422209  72.1608852 116.1955784  86.1401547
  64.0374982 105.4840916  88.9300170  64.0759081 104.9504507  89.7237288
  63.5315274 104.9576122  88.3111147  76.4401251 117.9830307  91.8240827
  76.9919559 118.1461928  92.5889912  76.7807444 118.5734745  91.1520852
  71.4165744 100.3305457  92.4262712  71.4807070 101.1920288  92.0140110
  71.3532864  99.7179458  91.6935070  70.8918016 102.4028589  96.0735746
  71.5190055 102.0205667  96.6873270  70.0345935 102.1842791  96.4391439
  67.6683559 104.2105018  82.0054101  67.9637000 103.3015697  81.9521155
  66.7671595 104.1892758  81.6835103  79.5769638 115.9312283  88.8104509
  79.4520777 115.1302022  88.3015455  80.2348729 116.4258476  88.3218479
  71.1977806 102.2861015  87.9881650  70.4764392 102.8996983  87.8489123
  71.9871062 102.8218780  87.9098295  81.6404546 113.7321303  90.4384059
  80.6934882 113.6126654  90.3662386  81.9887319 112.8443801  90.5210321
  74.0004120  99.6215442  94.2622301  74.5238521  99.8677738  95.0248611
  73.7816453 100.4535476  93.8425439  69.3971401 101.8919116  82.1293426
  69.0684107 101.0116495  81.9468532  69.7510771 101.8366785  83.0169815
  78.6450980 113.5274019  86.6388412  78.4975942 112.5990726  86.8195982
  79.4704473 113.5494110  86.1545487  72.5113224 102.1792086  82.4968904
  72.8509296 102.7078007  81.7747512  72.9585344 102.5172492  83.2727470
  82.2485101 114.3502578  87.7253284  83.1731649 114.1445439  87.5877736
  82.0800405 114.1018979  88.6342626  75.2056665 100.5629137  91.9471972
  74.8653485  99.7636950  92.3492652  74.4995671 100.8630847  91.3748805
  75.8573136  97.6478449  90.3999295  76.6799206  97.1738927  90.2778185
  76.1011200  98.4268933  90.8997981  74.4981371 100.6766708  80.6962197
  75.2189733 101.0547960  80.1925913  73.8746675 101.3955584  80.7997174
  78.6412494 101.3811856  81.6320529  78.8576108 102.2636494  81.3309357
  78.1606561 100.9898070  80.9026171  73.3811715 104.3397570  88.2091273
  73.2356296 104.6537873  89.1015555  72.9036919 104.9582470  87.6562172
  75.2408098 101.3300118  88.2572163  75.2269667 100.4341211  87.9204461
  75.9580526 101.3370781  88.8910449  77.0934229 101.7637458  90.3025290
  76.8352007 102.6854529  90.3009621  76.5619269 101.3667892  90.9925755
  82.0380418 114.8688245  83.0815376  82.2117295 114.3034667  82.3289228
  82.5309309 115.6689140  82.8994866  67.8557377 106.8802914  91.1478935
  67.3110845 107.6562722  91.2799209  68.7336727 107.2273719  90.9898056
  74.6444994 100.2114498  83.5259733  74.7660905  99.2831144  83.7250621
  74.3547036 100.2253184  82.6138049  77.5136184  97.8969408  86.6626453
  77.5357881  97.9608741  85.7078433  77.9304243  97.0573917  86.8566959
  87.8919809 107.6324668  84.7005676  88.3350955 106.8831993  84.3024799
  87.0146319 107.6234804  84.3179408  83.0255590 114.1855009  80.1812274
  83.7206495 114.8061702  80.3999589  83.3678740 113.3350361  80.4564652
  68.6423399 106.0072810  94.0409092  67.9005135 106.1555446  94.6273722
  68.3216144 106.2681076  93.1775841  84.9247013 111.6354715  81.7099605
  85.4498337 111.9741988  80.9848925  84.8369366 110.7001730  81.5262740
  76.5867062 115.5488789  93.8389482  76.8954188 115.3037935  94.7112181
  77.3842544 115.7535427  93.3508352  76.6087674 117.7026698  86.0694858
  76.1692664 117.2103077  86.7627715  77.3595791 117.1599666  85.8286933
  69.0880013 113.8938239  86.0719486  69.9138033 113.5942011  85.6918130
  68.7374065 113.1245862  86.5209275  74.0561546 113.2464707  88.1417160
  73.4341555 112.5835412  87.8419388  74.7266413 113.2725839  87.4590808
  67.2888618 111.8124566  87.0308420  66.4520526 111.3846740  86.8492421
  67.2612263 112.0057009  87.9679211  74.1286074 101.7246495  97.7349666
  74.1774229 102.6008618  97.3527435  74.6708588 101.1823888  97.1621309
  84.7338794 109.1180085  94.3283531  84.7836799 108.9530092  95.2699054
  84.6252718 108.2507344  93.9381412  73.6175053 111.7968631  81.6175620
  73.7663173 112.4804095  80.9642293  74.4241496 111.7773721  82.1325076
  82.0242557 105.1011013  95.6442838  82.9252419 104.9617478  95.3526836
  82.0990531 105.2665468  96.5841016  76.3585362 102.4777868  94.4896024
  75.4888671 102.7711434  94.2178613  76.5944842 103.0618313  95.2103288
  86.2356991 111.5377026  94.5725553  85.9441799 111.9007007  95.4089014
  85.6229122 110.8244035  94.3938885  87.4352673 109.1029906  87.0928123
  88.2699565 109.5419710  87.2565684  87.5711802 108.6268559  86.2736369
  84.4844179 106.6609641  93.0405611  84.9598301 106.8537287  92.2324462
  83.5609745 106.7168827  92.7948995  71.3727686 107.8233808  82.6236689
  71.1273728 106.9196138  82.8216899  71.5423601 107.8250959  81.6816167
  79.0624396  98.6957485  92.0061445  79.5806340  99.4318512  91.6807933
  78.7079529  99.0021478  92.8408204  70.6423334 103.5562166  80.1222851
  69.9492578 103.6306521  79.4662887  70.3975085 102.7922509  80.6444368
  79.3136990  95.1157767  87.5262341  79.5938744  94.4480956  88.1522768
  80.0987597  95.3086863  87.0137005  77.1170459 114.2916761  79.0887368
  76.5444426 114.9106948  78.6357840  77.6903252 114.8416123  79.6227290
  83.1845848 103.5375401  91.2733917  84.1363271 103.6373499  91.2946141
  83.0149299 102.7453670  91.7832001  81.2060228 100.6230984  91.4593317
  80.6110160 100.9035997  90.7639806  80.9209925 101.1124885  92.2310059
  80.3367718 114.5753911  80.2195950  81.2698391 114.5099473  80.4228826
  80.2490931 115.4110178  79.7610483  82.9655735 113.8919782  77.1799898
  82.8869367 113.5579645  78.0735655  83.7865402 114.3841549  77.1791370
  85.6633926 106.7581521  90.3876216  85.6310246 105.8197522  90.5735900
  86.2734550 106.8365558  89.6542041  77.5017257 105.6277574  76.4303420
  78.4476362 105.4983782  76.4991838  77.1231502 104.8892236  76.9072848
  85.8128415 103.5492564  90.4334499  85.2967463 102.7651021  90.2464428
  86.6968363 103.2211281  90.5981019  83.4739142  97.2933580  86.3930312
  83.2763963  96.9848668  87.2773644  84.0838847  98.0195219  86.5228242
  91.4810476 107.8197528  89.5282253  92.2113865 107.5582816  90.0889956
  90.8717422 107.0826250  89.5684321  89.5625773 105.9605390  90.1256704
  88.8358937 105.8261355  89.5173196  89.1473060 106.2682219  90.9313422
  77.3855950 109.6795320  97.8904077  78.3058959 109.8573919  98.0844124
  77.3505533 108.7351365  97.7383776  75.6860174 103.5527550  76.3658305
  74.7791630 103.2560663  76.4421019  75.9636155 103.2557368  75.4992592
  66.6038115 104.8733914  86.8157352  66.2840899 104.0199222  86.5231726
  66.0571543 105.0882492  87.5715319  70.3818022 107.5896355  90.5326858
  70.6004032 108.5213462  90.5514892  70.7943796 107.2304329  91.3181662
  77.3022240  98.0964440  82.5202547  76.4922968  97.7511525  82.8957793
  77.9906657  97.7871984  83.1090158  79.2312788  97.1742487  84.1426843
  79.7843827  97.5937940  84.8016866  79.4682875  96.2478235  84.1849799
  75.2545887 103.1629560  99.9229607  75.1542614 104.1123917  99.8541698
  75.0367430 102.8347799  99.0505677  74.4558959 100.4114485  76.5070285
  75.3178123 100.7369384  76.7666102  74.6409303  99.6245981  75.9943350
  66.4726375 108.4936825  88.7850473  65.7789846 108.0790778  88.2720428
  67.2199366 108.5357362  88.1883892  82.6091595  99.2843012  83.6505508
  82.0290264  99.9427816  83.2683560  82.3427528  98.4620357  83.2392925
  81.0595162  98.6848070  85.8526828  81.5594940  98.7964604  85.0441147
  81.7030770  98.3809122  86.4927636  75.1177158 106.5926699  98.7394669
  74.6344239 107.3927059  98.9458558  75.2038097 106.6034644  97.7862113
  68.3863117 108.4255079  86.6616488  68.3633805 108.5242766  85.7098371
  68.6963754 109.2720230  86.9833654  71.0450495 110.4831234  90.7763103
  71.9993749 110.4515176  90.7093034  70.8463019 110.0221858  91.5913329
  71.6349877 109.0532350  93.3433900  72.4542766 109.5476429  93.3668738
  71.9086685 108.1364318  93.3151468  81.3916473 101.4443102  82.7061856
  80.5042328 101.7292753  82.4882051  81.8070462 101.2836866  81.8589133
  84.7431009 101.4689623  86.4216195  85.5191400 101.9586076  86.6940812
  84.0179144 101.8947677  86.8788065  87.1803568 102.1817243  87.4790136
  87.7748059 101.9412978  86.7683444  87.2530152 101.4624373  88.1063672
  69.4000724 116.0250853  87.7933301  69.2655192 115.2651254  87.2271299
  68.9832786 116.7491753  87.3262089  80.5359687 111.2087777  76.8009876
  81.2395537 111.4137779  77.4167531  79.8122336 111.7764539  77.0658959
  81.3657497 106.9597638  82.9212146  81.3092698 107.4166190  82.0819778
  81.9185840 106.1988323  82.7434989  85.1762303 102.7487370  83.7462266
  84.9199237 102.3484006  84.5770473  84.5515171 103.4631164  83.6212405
  89.4874641 105.4883443  86.2533557  88.9274199 105.5576633  87.0265119
  88.8818144 105.3124428  85.5333053  72.5569850 116.9220170  88.0051743
  72.4402234 117.8665603  87.9030433  71.7362296 116.6193732  88.3937542
  82.4446384 111.6470306  78.8508336  83.2791988 111.2151505  78.6685811
  82.2830727 111.4752320  79.7785230  82.0992276 108.1502419  80.2164675
  82.0441080 107.9846691  79.2753119  81.4738332 108.8578452  80.3726865
  66.8884791 103.3870484  94.0426097  67.5343655 102.8769438  94.5313323
  66.6801942 104.1239166  94.6169523  75.4088402  97.6510528  79.7949994
  75.3967072  98.5952368  79.9518264  76.3011824  97.4680674  79.5009455
  73.5824364 117.5748432  91.2207672  74.4851610 117.6072043  91.5374167
  73.3561734 116.6448883  91.2354007  75.3377966 116.3279419  87.8817750
  74.3873597 116.3281281  87.7682123  75.6410452 115.5812153  87.3653785
  79.2240521  94.2453305  84.0495930  78.4572917  93.6911792  84.1952613
  79.6351226  94.3175174  84.9110082  71.2282282 100.5338101  98.1401112
  72.0913744 100.1774906  98.3504436  70.6547693 100.1951996  98.8276516
  83.7407181 123.9702862  84.8721928  83.1772046 123.8792799  84.1038216
  83.6259576 123.1502766  85.3524421  81.2871613 125.4654053  87.7106149
  82.0792905 125.1244878  87.2952448  81.5268263 125.5749028  88.6308302
  83.2462367 124.7262967  80.5823528  84.0193243 124.1791954  80.4436403
  83.5987766 125.5907216  80.7937989  85.5828645 120.8855633  78.2141977
  85.8354166 120.3637154  77.4525440  84.6453204 120.7221778  78.3168661
  90.6271928 119.8891411  86.0216721  91.4135017 119.4710834  85.6707138
  90.8910632 120.7937503  86.1898369  85.3024934 122.7883739  80.4166352
  85.1861192 122.1128642  81.0847437  85.4127194 122.3016113  79.5998505
  87.6456475 122.2493886  84.1213042  87.2814682 121.7224507  84.8325963
  88.5023591 121.8592355  83.9479527  87.2861962 117.2783786  79.1174390
  87.4536364 118.1464022  79.4844861  87.0959131 117.4411067  78.1935679
  83.4949776 122.1914561  86.8176925  82.5700273 122.0590775  87.0254617
  83.7434189 122.9708781  87.3146867  87.2651182 119.7341443  80.1021057
  87.1450808 120.1798494  80.9406537  86.5703771 120.0826761  79.5434595
  80.8558587 121.8347835  87.6520714  80.9850968 122.0882314  88.5660126
  80.1756039 122.4275543  87.3325369  92.9636249 120.2062916  80.9301391
  93.8754105 120.4390303  80.7549089  92.4545896 120.7899960  80.3676470
  90.3072223 116.3820952  89.1791252  89.4456702 116.6802206  89.4707990
  90.3334658 116.5991351  88.2472285  87.1233793 124.9263143  85.5865058
  87.5872138 125.2050846  84.7969680  86.8590591 124.0246587  85.4038148
  86.0602679 121.0486295  82.3954623  86.7626722 121.5007339  82.8628549
  85.7283307 120.4070114  83.0234516  79.8028013 119.3069848  87.6971756
  79.0127067 119.5627376  87.2211867  80.2939260 120.1218186  87.8023797
  81.7542758 119.6714427  84.6555233  80.9573922 119.7833121  85.1738729
  81.5268350 120.0101079  83.7896124  78.0865716 119.5600338  90.1286747
  78.3373754 120.4447348  90.3944323  78.6225264 119.3804940  89.3561839
  80.7525841 125.3802676  83.0444653  81.2650361 126.1745926  83.1950218
  81.4048554 124.6828966  82.9778255  82.5620726 128.4968432  85.1267406
  82.7387354 129.4186397  84.9388390  83.3577559 128.1826851  85.5561786
  90.6488907 111.3857800  91.0015621  90.3053176 112.2759441  90.9254732
  91.0167870 111.1959457  90.1385206  78.7174758 123.7091330  83.8204224
  79.5549980 124.1188338  83.6037931  78.8953025 122.7690772  83.7904417
  90.6139190 121.3766411  79.5088057  90.0985813 122.1471015  79.7476444
  90.3416498 120.7031547  80.1321118  88.1986301 116.2216112  84.5673295
  87.3427897 115.8322962  84.3878934  88.6113253 116.3008072  83.7073080
  89.7285447 113.7562455  88.9664855  89.2250243 113.7192590  88.1532660
  90.0216054 114.6655197  89.0261511  85.9728333 113.8401184  87.9731036
  86.8381330 113.6443993  87.6136926  86.0405842 113.6111536  88.9000393
  90.4025493 119.2493503  81.3347838  90.0975629 119.5639652  82.1857981
  91.3555935 119.3274923  81.3775171  88.8471925 125.4083726  82.9840792
  88.3193286 124.6736486  82.6714029  88.3459428 126.1858402  82.7380760
  83.5790652 116.0703392  85.3447403  84.1534404 115.8478574  84.6120596
  84.1661635 116.1392087  86.0976005  83.9060240 118.1007853  79.3643289
  83.0697552 118.4382540  79.6852563  83.7665009 117.9656833  78.4270425
  85.8813320 112.9444641  84.0722473  85.2277732 112.6293658  83.4479087
  85.8393794 112.3220382  84.7982296  86.9924525 123.2263936  75.9875765
  86.0851587 122.9953190  76.1866914  87.4895557 122.4301556  76.1749746
  89.1151060 119.4326575  88.3970120  88.1973622 119.6541522  88.2391808
  89.5311204 119.5072885  87.5381828  89.8986108 120.8317991  83.5272801
  90.6457927 121.3439388  83.2179923  90.1677698 120.5102043  84.3877194
  88.1712758 123.3276531  80.5099755  87.2623978 123.0435564  80.6072225
  88.2007842 123.7475610  79.6503062  92.3464945 117.8675107  85.5091590
  91.6087702 117.3552493  85.8401832  92.5991719 117.4275488  84.6974867
  92.4476573 110.6451359  86.1033359  92.7535450 109.7848722  85.8159274
  93.1729178 111.2368979  85.9032353  78.7400929 121.0482045  84.4914957
  78.5425329 120.4551406  83.7666024  78.1847593 120.7434256  85.2090896
  86.7197652 120.9405152  86.6109550  86.7746262 119.9878988  86.5352027
  85.9088855 121.0964591  87.0950849  87.8688846 124.8685275  77.8487833
  87.4308276 124.1521134  77.3893471  88.6099287 125.0961390  77.2872925
  84.6590012 119.5582212  84.3699929  83.8457878 119.8576382  84.7765121
  85.1549007 119.1637900  85.0874411  84.1504087 117.1300567  89.9861164
  84.7903466 116.9889326  89.2884127  83.3181618 116.8435081  89.6099766
  84.9264391 126.4302998  86.0996156  85.7204990 125.9353318  85.8978731
  84.2156083 125.9020861  85.7363862  81.2347155 120.5746079  82.1755909
  80.3044743 120.5130535  82.3925871  81.3304627 120.0522032  81.3792550
  81.1532704 117.1000892  84.7634151  81.4139521 118.0146225  84.6543311
  81.9749876 116.6325335  84.9130764  82.6257629 118.5138649  91.9332975
  83.2980682 118.3056011  91.2845624  81.7987415 118.3160735  91.4938208
  91.9900074 123.7269657  77.4419891  91.3729244 123.0016485  77.3452944
  91.5216562 124.4879017  77.0986965  83.7798620 117.9455081  76.5641195
  82.9028086 117.8243882  76.2003442  84.2556373 117.1541159  76.3120084
  75.3000760 122.7332241  86.6582702  75.9871800 122.4193971  86.0703718
  75.1448889 123.6373605  86.3849954  80.1035482 117.6222437  91.0867726
  80.0193671 117.0148107  90.3518136  79.2818188 118.1131455  91.0877222
  90.2759196 116.1076001  86.4537921  90.7727895 115.3545963  86.1338991
  89.5046177 116.1440317  85.8881131  91.3588977 124.8647688  84.0276345
  90.4245255 124.9849150  83.8581049  91.5365645 123.9620155  83.7636354
  86.8594165 118.2493384  86.1809606  86.4891952 117.6964424  86.8690511
  87.3553257 117.6451517  85.6284606  94.7461528 120.7065007  84.5626379
  95.2121980 121.5392999  84.4886681  95.1969028 120.2409989  85.2671637
  92.7178191 113.0745594  88.6017280  91.8041270 113.3049821  88.7699487
  93.1471292 113.1584038  89.4531312  74.8768736 120.8132834  88.9300170
  74.9152836 120.2796425  89.7237288  74.3709029 120.2868039  88.3111147
  82.2559498 115.6597374  92.4262712  82.3200825 116.5212205  92.0140110
  82.1926619 115.0471376  91.6935070  78.5077314 119.5396936  82.0054101
  78.8030755 118.6307615  81.9521155  77.6065349 119.5184676  81.6835103
  82.0371561 117.6152933  87.9881650  81.3158146 118.2288900  87.8489123
  82.8264816 118.1510698  87.9098295  80.2365155 117.2211034  82.1293426
  79.9077861 116.3408413  81.9468532  80.5904526 117.1658702  83.0169815
  83.3506978 117.5084004  82.4968904  83.6903051 118.0369925  81.7747512
  83.7979099 117.8464410  83.2727470  86.0450419 115.8921054  91.9471972
  85.7047240 115.0928867  92.3492652  85.3389425 116.1922765  91.3748805
  86.6966891 112.9770367  90.3999295  87.5192960 112.5030845  90.2778185
  86.9404955 113.7560850  90.8997981  85.3375125 116.0058625  80.6962197
  86.0583488 116.3839878  80.1925913  84.7140430 116.7247502  80.7997174
  89.4806248 116.7103774  81.6320529  89.6969863 117.5928412  81.3309357
  89.0000316 116.3189988  80.9026171  84.2205470 119.6689487  88.2091273
  84.0750050 119.9829790  89.1015555  83.7430673 120.2874388  87.6562172
  86.0801853 116.6592035  88.2572163  86.0663421 115.7633129  87.9204461
  86.7974281 116.6662699  88.8910449  87.9327983 117.0929376  90.3025290
  87.6745761 118.0146446  90.3009621  87.4013024 116.6959810  90.9925755
  78.6951132 122.2094832  91.1478935  78.1504600 122.9854640  91.2799209
  79.5730482 122.5565636  90.9898056  85.4838749 115.5406416  83.5259733
  85.6054660 114.6123062  83.7250621  85.1940791 115.5545102  82.6138049
  88.3529939 113.2261326  86.6626453  88.3751636 113.2900659  85.7078433
  88.7697998 112.3865835  86.8566959  79.9273767 129.2230157  86.0719486
  80.7531787 128.9233929  85.6918130  79.5767819 128.4537779  86.5209275
  78.1282372 127.1416483  87.0308420  77.2914281 126.7138658  86.8492421
  78.1006018 127.3348927  87.9679211  84.4568808 127.1260548  81.6175620
  84.6056928 127.8096013  80.9642293  85.2635251 127.1065638  82.1325076
  82.2121441 123.1525726  82.6236689  81.9667482 122.2488056  82.8216899
  82.3817355 123.1542876  81.6816167  81.4817088 118.8854084  80.1222851
  80.7886333 118.9598439  79.4662887  81.2368840 118.1214427  80.6444368
  90.1530745 110.4449685  87.5262341  90.4332498 109.7772874  88.1522768
  90.9381351 110.6378780  87.0137005  88.3411012 120.9569492  76.4303420
  89.2870116 120.8275700  76.4991838  87.9625257 120.2184153  76.9072848
  94.3132896 112.6225498  86.3930312  94.1157717 112.3140586  87.2773644
  94.9232602 113.3487136  86.5228242  86.5253929 118.8819468  76.3658305
  85.6185384 118.5852581  76.4421019  86.8029910 118.5849286  75.4992592
  77.4431869 120.2025831  86.8157352  77.1234653 119.3491140  86.5231726
  76.8965297 120.4174409  87.5715319  88.1415994 113.4256358  82.5202547
  87.3316723 113.0803443  82.8957793  88.8300411 113.1163901  83.1090158
  90.0706543 112.5034404  84.1426843  90.6237581 112.9229858  84.8016866
  90.3076629 111.5770153  84.1849799  85.2952713 115.7406403  76.5070285
  86.1571877 116.0661301  76.7666102  85.4803057 114.9537899  75.9943350
  77.3120129 123.8228743  88.7850473  76.6183601 123.4082696  88.2720428
  78.0593120 123.8649279  88.1883892  93.4485350 114.6134930  83.6505508
  92.8684019 115.2719734  83.2683560  93.1821282 113.7912274  83.2392925
  91.8988916 114.0139987  85.8526828  92.3988695 114.1256522  85.0441147
  92.5424524 113.7101040  86.4927636  79.2256872 123.7546997  86.6616488
  79.2027560 123.8534684  85.7098371  79.5357508 124.6012147  86.9833654
  92.2310228 116.7735020  82.7061856  91.3436083 117.0584671  82.4882051
  92.6464217 116.6128783  81.8589133  95.5824764 116.7981541  86.4216195
  96.3585154 117.2877993  86.6940812  94.8572898 117.2239595  86.8788065
  92.2051252 122.2889556  82.9212146  92.1486453 122.7458107  82.0819778
  92.7579594 121.5280241  82.7434989  96.0156057 118.0779288  83.7462266
  95.7592992 117.6775923  84.5770473  95.3908926 118.7923082  83.6212405
  92.9386031 123.4794337  80.2164675  92.8834835 123.3138609  79.2753119
  92.3132086 124.1870370  80.3726865  77.7278546 118.7162402  94.0426097
  78.3737409 118.2061356  94.5313323  77.5195697 119.4531083  94.6169523
  86.2482156 112.9802446  79.7949994  86.2360826 113.9244286  79.9518264
  87.1405578 112.7972592  79.5009455  90.0634276 109.5745223  84.0495930
  89.2966672 109.0203710  84.1952613  90.4744981 109.6467092  84.9110082
  26.0368134   7.1950574  75.6708819  26.6746544   7.0757321  74.9672159
  25.9188977   8.1431418  75.7296771  22.8457840   7.1478002  75.6070344
  22.5076351   7.0319067  74.7190879  23.7147608   6.7469167  75.5871350
  18.7044656   9.0013478  71.5967235  18.1409521   8.9103415  70.8283523
  18.5897051   8.1813383  72.0769727  23.3277623   8.3012854  81.5656550
  23.3166264   7.9065652  80.6937053  23.4898262   7.5678926  82.1590321
  16.2509088  10.4964670  74.4351455  17.0430379  10.1555495  74.0197755
  16.4905738  10.6059645  75.3553609  24.2844214  12.6684446  66.9081700
  23.6332194  13.2538526  66.5215714  25.0788577  13.1990641  66.9676737
  18.2099841   9.7573583  67.3068834  18.9830717   9.2102570  67.1681710
  18.5625240  10.6217833  67.5183296  20.0484884  11.0849965  80.5135734
  19.7574750  11.9895596  80.3982400  20.6841868  11.1266493  81.2279803
  20.9741091   8.4626814  77.1037093  21.5704663   8.2382836  76.3894056
  21.0316062   7.7211559  77.7062541  20.5466119   5.9166249  64.9387284
  20.7991640   5.3947771  64.1770747  19.6090678   5.7532395  65.0413968
  25.5909402   4.9202028  72.7462027  26.3772491   4.5021451  72.3952444
  25.8548106   5.8248120  72.9143676  25.7619479  10.3574878  67.4450684
  25.1265312  10.4309504  68.1571589  25.4316886  10.9468477  66.7669763
  30.9917829   4.8577261  73.6495006  31.7243001   4.2876478  73.8832835
  30.2357185   4.4698861  74.0901511  20.2662408   7.8194355  67.1411659
  20.1498666   7.1439259  67.8092743  20.3764668   7.3326729  66.3243812
  22.6093949   7.2804502  70.8458348  22.2452156   6.7535123  71.5571270
  23.4661065   6.8902971  70.6724834  25.0074769  10.7711381  77.5085527
  24.7075492  11.6736420  77.4001334  24.6625829  10.5043564  78.3606680
  18.4587251   7.2225178  73.5422232  17.5337747   7.0901392  73.7499923
  18.7071664   8.0019397  74.0392174  28.4071913   3.2893921  75.1882965
  27.4988790   3.2209330  74.8941725  28.3559509   3.7665866  76.0164790
  22.2288657   4.7652060  66.8266364  22.1088282   5.2109110  67.6651844
  21.5341245   5.1137377  66.2679902  19.9895549  17.5355701  70.4756495
  19.9119579  18.4863526  70.5544975  19.3857193  17.1901574  71.1331421
  22.4812779   4.7083567  83.1317862  21.7046113   5.2677487  83.1220726
  23.1203342   5.1940350  83.6532732  30.2733559   1.4910360  76.9660838
  29.6307940   1.7842893  76.3200633  29.7688488   1.3763280  77.7714035
  27.9273723   5.2373533  67.6546698  28.8391579   5.4700919  67.4794395
  27.4183370   5.8210577  67.0921776  20.7359151   7.5169020  82.6935829
  21.4773835   8.0554064  82.4170652  20.0296136   8.1435309  82.8507381
  26.2114491   9.6598161  81.2907990  26.6197847   9.2180571  80.5462623
  25.4891752   9.0850788  81.5442183  22.5645561   4.5970767  78.6641547
  23.4106756   5.0210181  78.8076196  22.5044198   3.9404392  79.3580110
  26.5343305  10.2199351  75.0460279  25.9052168  10.3845065  74.3436347
  26.1468967  10.6340961  75.8171243  30.4132537  11.1553789  72.4004643
  29.7283575  11.5352690  71.8501676  30.4976386  11.7649116  73.1336591
  25.7145006   2.2575136  80.3222721  25.4705938   3.0117196  79.7856997
  25.9904937   2.6360483  81.1569968  27.6683469   8.8013748  78.9999986
  27.8800364   9.4445508  78.3234368  27.6213217   7.9676065  78.5321917
  25.2709698   1.4131569  75.9036559  24.4094177   1.7112822  76.1953296
  25.2972132   1.6301968  74.9717591  22.0871267   9.9573759  72.3110364
  22.5509613  10.2361462  71.5214987  21.8228065   9.0557204  72.1283455
  18.9795348   9.5045241  75.2490128  19.5496705   9.9332509  74.6107612
  19.5703460   9.2227826  75.9474313  21.0240153   6.0796912  69.1199929
  21.7264197   6.5317955  69.5873856  20.6920782   5.4380731  69.7479823
  28.7829297  11.6785703  77.1722344  29.6046740  11.2765891  76.8905025
  28.7791700  11.5753938  78.1238460  22.5485900  11.2269747  79.3283054
  22.6130333  11.6890154  80.1641226  21.8396824  10.5967112  79.4565364
  36.8735290   8.0224452  73.5207315  36.1198998   7.4531850  73.3651320
  37.0082831   7.9887116  74.4677950  22.2633918  12.8937854  69.1962035
  22.1279593  13.7389390  69.6246882  22.8043730  13.0957132  68.4327968
  15.7163315  10.4113292  69.7689960  16.2287836  11.2056543  69.9195524
  16.3686028   9.7139583  69.7023561  17.5258200  13.5279049  71.8512713
  17.7024828  14.4497013  71.6633697  18.3215033  13.2137468  72.2807093
  23.8902394  13.5161421  83.3262377  23.4466248  12.7297799  83.0083281
  24.5519608  13.7040571  82.6606267  18.6489515  15.0457222  77.8523055
  19.1996941  14.9174286  77.0800049  17.8100991  15.3452111  77.5017948
  25.9883632  13.7964221  81.3543778  25.9702108  14.6173102  80.8624047
  26.9103552  13.6718296  81.5793919  22.4456686  11.3108350  82.1967286
  22.9785023  10.5496638  81.9666594  21.9170768  11.0182002  82.9391441
  25.5776664   6.4077027  66.2333363  25.0623288   7.1781632  66.4721751
  25.3053973   5.7342163  66.8566425  30.5510938   9.1609382  68.1686537
  29.7740381   8.8220541  67.7241699  31.2302419   9.1662005  67.4941502
  25.3662967   4.2804119  68.0593144  25.0613103   4.5950269  68.9103288
  26.3193409   4.3585539  68.1020477  23.8109399  10.4394343  69.7086098
  23.2830761   9.7047102  69.3959336  23.3096902  11.2169019  69.4626067
  28.7902245   8.6343363  74.8253145  28.1325920   9.3242625  74.9133273
  29.5942644   9.0239795  75.1687131  27.6007704   6.9887736  72.8757086
  28.1139586   7.6217728  73.3778796  28.2508928   6.3888931  72.5100446
  21.9561999   8.2574553  62.7121071  21.0489061   8.0263806  62.9112220
  22.4533031   7.4612172  62.8995053  24.8630078  16.9672060  65.6317758
  24.1891777  17.2703757  66.2402715  25.2495900  17.7701140  65.2823215
  24.0788535   4.4637191  75.1215427  23.1611096   4.6852138  74.9637115
  24.4948678   4.5383502  74.2627134  24.8623583   5.8628607  70.2518107
  25.6095402   6.3750004  69.9425229  25.1315172   5.5412660  71.1122501
  23.1350233   8.3587148  67.2345061  22.2261452   8.0746181  67.3317531
  23.1645317   8.7786226  66.3748368  28.3669500  11.9693737  71.0036229
  27.9131827  11.1284647  71.0601420  27.7363467  12.6055136  71.3411009
  27.3102420   2.8985723  72.2336896  26.5725177   2.3863110  72.5647139
  27.5629193   2.4586105  71.4220173  26.8102439  13.8070234  71.9386047
  27.1025414  14.3675291  71.2198413  27.3201060  14.0998795  72.6939206
  21.6835127   5.9715768  73.3354857  21.7383737   5.0189605  73.2597333
  20.8726329   6.1275208  73.8196155  22.8326321   9.8995891  64.5733140
  22.3945750   9.1831750  64.1138777  23.5736761  10.1272006  64.0118231
  21.7736065  14.5850585  73.0279500  21.7312243  14.8111431  72.0988032
  22.6898763  14.3513960  73.1765302  25.2201698   5.0534653  79.9260130
  25.5751086   5.2806126  80.7854595  25.8673830   5.3853029  79.3037385
  30.9499435   8.1753089  70.6309459  30.8117334   8.3654684  69.7030648
  30.5935654   8.9372471  71.0877510  30.9768815  10.2429616  75.6420730
  31.4105322  10.1504905  76.4903784  31.6900396  10.2187116  75.0040746
  19.8901865  11.4613614  72.8241463  20.6842464  10.9663934  72.6224038
  19.1793558  10.9331477  72.4609169  24.7096710  13.8431710  77.1753831
  24.7633732  14.4122646  77.9431547  23.8411491  14.0133595  76.8107868
  31.8384365  10.2853316  78.1753616  32.0320255  11.1899127  78.4212890
  31.7384983   9.8260735  79.0092201  26.8999473  10.4360059  83.7494496
  26.7484980  10.2070611  82.8324580  26.8904153  11.3930660  83.7625841
  23.6684810   8.0091972  78.7340763  24.5976870   8.1603131  78.5609730
  23.2475840   8.0975992  77.8789409  22.4673141  12.0342636  76.5039300
  22.3284227  11.6661420  77.3765238  21.6787738  12.5490276  76.3323258
  23.0621293  17.1351733  67.8464837  23.2373049  16.6639776  68.6610459
  22.3754081  17.7617499  68.0746097  24.0178357  11.4124239  73.8928138
  23.6828189  11.3725009  74.7885788  23.5182302  10.7468955  73.4198548
  17.9922600   6.8191869  79.4180719  17.8542398   6.0872108  80.0192258
  18.9027524   6.7300769  79.1364907  26.9537548   8.7580273  64.1665198
  26.3366719   8.0327101  64.0698250  26.4854037   9.5189633  63.8232272
  20.6204901   6.5311828  78.9064399  21.3304520   5.8905020  78.8651017
  20.5774209   6.7824723  79.8290580  28.6091680  13.4679181  81.8270978
  28.5504226  12.7838402  81.1601561  29.0111198  14.2098171  81.3751604
  17.6282379  20.2841095  74.6204697  17.8678977  20.9159619  75.2983715
  16.7851575  19.9329135  74.9070056  28.6109087  11.4318765  80.0584958
  27.7235866  11.0944687  80.1811357  29.1807638  10.7001797  80.2953723
  22.1410241  16.0920218  77.0246201  22.0680412  16.8975189  77.5365505
  21.6987634  16.2912184  76.1994222  21.9300020  15.3291988  70.5349022
  21.1467542  15.8713668  70.6287247  22.6292765  15.8465967  70.9343264
  25.2396670   1.1386617  73.1783228  25.7365370   0.3856580  72.8584298
  24.4683652   1.1750934  72.6126437  33.0926428   6.8426983  74.8201519
  33.0816304   7.7251698  74.4495452  32.2243807   6.4898534  74.6256056
  24.6008924  15.9907052  79.1804360  25.3136896  16.6254517  79.1080261
  24.1098953  16.0870918  78.3644361  26.3226451   9.8958304  70.7521651
  25.3882730  10.0159767  70.5826356  26.5003119   8.9930771  70.4881661
  29.7099002   5.7375624  71.2871685  30.1759454   6.5703615  71.2131988
  30.1606503   5.2720605  71.9916944  19.6520838  13.7401495  80.0009930
  20.3530297  14.3737978  80.1539325  19.1815953  14.0816227  79.2405570
  27.7775233  12.0819445  68.2857837  28.0535077  11.9676040  69.1951711
  26.9079732  11.6836930  68.2470010  27.4522124   6.2946103  77.8262481
  26.7993574   6.5422010  77.1714933  27.8302503   5.4810241  77.4924958
  24.4129297  16.3305796  71.9290651  24.5951692  15.5127452  72.3918403
  25.2362283  16.5473488  71.4915541  24.7471463  15.2573981  69.1905699
  25.2759229  14.7466436  68.5775862  25.0099682  14.9416511  70.0551233
  23.5009697   7.0365914  84.3128518  22.8250334   6.9360043  84.9830893
  24.3237330   6.8805128  84.7764515  15.2488556  13.2737850  76.9341033
  15.8341992  12.5281538  77.0668937  15.0513394  13.5841807  77.8177697
  18.1027211  16.3089098  71.9503475  17.4337586  16.7935225  71.4667515
  17.9640081  16.5558318  72.8646854  22.2432479  18.3432841  78.5486134
  22.7950787  18.5064463  79.3135219  22.5838673  18.9337279  77.8766159
  27.0943354  13.1694099  84.4034788  27.6383258  13.7824057  83.9089743
  26.5130199  13.7273677  84.9201801  25.3800867  16.2914817  75.5349816
  25.2552006  15.4904557  75.0260761  26.0379958  16.7861010  75.0463786
  27.4435775  14.0923837  77.1629366  26.4966111  13.9729188  77.0907693
  27.7918548  13.2046335  77.2455627  24.4482208  13.8876553  73.3633718
  24.3007171  12.9593260  73.5441288  25.2735702  13.9096644  72.8790794
  28.0516330  14.7105112  74.4498591  28.9762878  14.5047973  74.3123042
  27.8831634  14.4621513  75.3587933  27.8411646  15.2290779  69.8060682
  28.0148524  14.6637202  69.0534535  28.3340538  16.0291674  69.6240172
  33.6951038   7.9927202  71.4250982  34.1382184   7.2434527  71.0270105
  32.8177548   7.9837339  71.0424714  28.8286819  14.5457544  66.9057581
  29.5237724  15.1664236  67.1244895  29.1709969  13.6952895  67.1809959
  30.7278242  11.9957249  68.4344912  31.2529566  12.3344522  67.7094232
  30.6400595  11.0604264  68.2508046  22.3898291  15.9091323  80.5634788
  22.6985417  15.6640470  81.4357488  23.1873773  16.1137961  80.0753658
  22.4118903  18.0629232  72.7940165  21.9723893  17.5705611  73.4873021
  23.1627020  17.5202200  72.5532240  14.8911242  14.2540773  72.7964793
  15.7169262  13.9544545  72.4163436  14.5405294  13.4848396  73.2454581
  19.8592775  13.6067242  74.8662466  19.2372784  12.9437947  74.5664694
  20.5297642  13.6328373  74.1836114  13.0919847  12.1727100  73.7553726
  12.2551755  11.7449274  73.5737728  13.0643492  12.3659543  74.6924518
  30.4172148  12.6290153  83.7396109  29.6267692  12.6114292  83.2000609
  30.1805503  13.1678446  84.4945146  30.5370023   9.4782619  81.0528838
  30.5868028   9.3132627  81.9944361  30.4283947   8.6109878  80.6626719
  19.4206282  12.1571165  68.3420927  19.5694402  12.8406629  67.6887600
  20.2272725  12.1376255  68.8570383  27.8273786   5.4613547  82.3688145
  28.7283648   5.3220012  82.0772143  27.9021760   5.6268002  83.3086322
  32.0388220  11.8979561  81.2970860  31.7473028  12.2609541  82.1334321
  31.4260351  11.1846569  81.1184192  33.2383902   9.4632440  73.8173430
  34.0730794   9.9022245  73.9810990  33.3743031   8.9871094  72.9981676
  30.2875408   7.0212175  79.7650918  30.7629530   7.2139822  78.9569769
  29.3640974   7.0771361  79.5194301  17.1758915   8.1836342  69.3481996
  16.9304957   7.2798672  69.5462206  17.3454829   8.1853493  68.4061474
  22.9201687  14.6519295  65.8132674  22.3475654  15.2709482  65.3603146
  23.4934481  15.2018657  66.3472596  28.9877077   3.8977935  77.9979223
  29.9394500   3.9976033  78.0191447  28.8180528   3.1056204  78.5077308
  27.0091457   0.9833519  78.1838624  26.4141389   1.2638531  77.4885113
  26.7241153   1.4727420  78.9555365  26.1398947  14.9356445  66.9441257
  27.0729620  14.8702007  67.1474132  26.0522160  15.7712712  66.4855789
  28.7686964  14.2522316  63.9045204  28.6900595  13.9182179  64.7980962
  29.5896631  14.7444084  63.9036677  31.4665155   7.1184055  77.1121523
  31.4341475   6.1800056  77.2981207  32.0765779   7.1968092  76.3787348
  23.3048486   5.9880108  63.1548727  24.2507591   5.8586316  63.2237145
  22.9262731   5.2494770  63.6318155  31.6159643   3.9095099  77.1579806
  31.0998692   3.1253555  76.9709735  32.4999592   3.5813815  77.3226325
  37.2841705   8.1800062  76.2527560  38.0145093   7.9185350  76.8135263
  36.6748650   7.4428784  76.2929628  35.3657002   6.3207925  76.8502011
  34.6390166   6.1863889  76.2418502  34.9504289   6.6284753  77.6558729
  23.1887178  10.0397854  84.6149384  24.1090188  10.2176453  84.8089430
  23.1536761   9.0953900  84.4629083  16.1849251   7.9498889  77.2572165
  16.4035261   8.8815997  77.2760199  16.5975025   7.5906863  78.0426969
  28.4122824  -0.3554454  70.3750814  27.8321493   0.3030350  69.9928867
  28.1458757  -1.1777109  69.9638232  20.9208386   6.9529233  85.4639976
  20.4375468   7.7529594  85.6703865  21.0069325   6.9637178  84.5107420
  14.1894346   8.7857613  73.3861795  14.1665034   8.8845300  72.4343678
  14.4994982   9.6322764  73.7078961  16.8481724  10.8433768  77.5008409
  17.8024977  10.8117710  77.4338341  16.6494247  10.3824392  78.3158635
  17.4381106   9.4134884  80.0679207  18.2573995   9.9078963  80.0914044
  17.7117914   8.4966852  80.0396775  27.1947702   1.8045637  69.4307163
  26.3073557   2.0895287  69.2127357  27.6101691   1.6439400  68.5834439
  30.5462238   1.8292157  73.1461502  31.3222628   2.3188610  73.4186119
  29.8210372   2.2550212  73.6033371  32.9834797   2.5419777  74.2035442
  33.5779288   2.3015513  73.4928751  33.0561381   1.8226907  74.8308979
  15.2031953  16.3853388  74.5178607  15.0686421  15.6253789  73.9516605
  14.7864015  17.1094288  74.0507396  26.3390916  11.5690311  63.5255183
  27.0426766  11.7740314  64.1412838  25.6153564  12.1367073  63.7904266
  27.1688726   7.3200172  69.6457453  27.1123927   7.7768724  68.8065085
  27.7217068   6.5590857  69.4680295  30.9793532   3.1089904  70.4707572
  30.7230466   2.7086540  71.3015780  30.3546400   3.8233698  70.3457711
  35.2905870   5.8485978  72.9778864  34.7305428   5.9179167  73.7510426
  34.6849373   5.6726962  72.2578360  18.3601078  17.2822705  74.7297050
  18.2433463  18.2268137  74.6275740  17.5393525  16.9796266  75.1182849
  28.2477613  12.0072840  65.5753643  29.0823217  11.5754039  65.3931117
  28.0861956  11.8354854  66.5030537  27.9023505   8.5104954  66.9409982
  27.8472309   8.3449225  65.9998426  27.2769560   9.2180987  67.0972172
  25.2169412  10.8153866  86.2663545  26.0860572  10.9894518  85.9050180
  24.7376164  11.6348282  86.1439274  19.3855593  17.9350967  77.9452978
  20.2882839  17.9674577  78.2619473  19.1592963  17.0051418  77.9599314
  21.1409195  16.6881953  74.6063057  20.1904826  16.6883815  74.4927429
  21.4441681  15.9414688  74.0899092  36.8761888  22.5242492  75.6708819
  37.5140298  22.4049239  74.9672159  36.7582731  23.4723335  75.7296771
  33.6851594  22.4769920  75.6070344  33.3470106  22.3610984  74.7190879
  34.5541363  22.0761085  75.5871350  29.5438410  24.3305396  71.5967235
  28.9803275  24.2395333  70.8283523  29.4290805  23.5105300  72.0769727
  34.1671377  23.6304771  81.5656550  34.1560018  23.2357570  80.6937053
  34.3292017  22.8970844  82.1590321  27.0902842  25.8256588  74.4351455
  27.8824134  25.4847412  74.0197755  27.3299492  25.9351563  75.3553609
  35.1237969  27.9976364  66.9081700  34.4725949  28.5830444  66.5215714
  35.9182332  28.5282559  66.9676737  29.0493596  25.0865501  67.3068834
  29.8224472  24.5394488  67.1681710  29.4018995  25.9509750  67.5183296
  30.8878639  26.4141883  80.5135734  30.5968505  27.3187514  80.3982400
  31.5235623  26.4558411  81.2279803  31.8134845  23.7918732  77.1037093
  32.4098418  23.5674754  76.3894056  31.8709817  23.0503477  77.7062541
  31.3859874  21.2458167  64.9387284  31.6385394  20.7239688  64.1770747
  30.4484433  21.0824312  65.0413968  36.4303157  20.2493945  72.7462027
  37.2166246  19.8313369  72.3952444  36.6941861  21.1540038  72.9143676
  36.6013234  25.6866796  67.4450684  35.9659067  25.7601422  68.1571589
  36.2710640  26.2760394  66.7669763  41.8311584  20.1869179  73.6495006
  42.5636756  19.6168395  73.8832835  41.0750939  19.7990779  74.0901511
  31.1056163  23.1486273  67.1411659  30.9892421  22.4731176  67.8092743
  31.2158422  22.6618647  66.3243812  33.4487703  22.6096420  70.8458348
  33.0845911  22.0827041  71.5571270  34.3054819  22.2194889  70.6724834
  39.3537004  13.8990753  78.1089614  39.0220329  14.7686164  77.8850829
  38.7582617  13.5827037  78.7883645  33.0893190  17.6386320  65.8419697
  33.2567593  18.5066556  66.2090168  32.8990359  17.8013601  64.9180986
  35.8468524  26.1003299  77.5085527  35.5469247  27.0028337  77.4001334
  35.5019583  25.8335482  78.3606680  29.2981005  22.5517095  73.5422232
  28.3731502  22.4193310  73.7499923  29.5465418  23.3311315  74.0392174
  39.2465667  18.6185839  75.1882965  38.3382545  18.5501247  74.8941725
  39.1953263  19.0957784  76.0164790  33.0682411  20.0943977  66.8266364
  32.9482037  20.5401028  67.6651844  32.3735000  20.4429295  66.2679902
  26.6589816  22.1950369  74.3766021  26.7882197  22.4484848  75.2905432
  25.9787267  22.7878077  74.0570676  30.8289303  32.8647619  70.4756495
  30.7513333  33.8155444  70.5544975  30.2250947  32.5193491  71.1331421
  33.3206533  20.0375484  83.1317862  32.5439867  20.5969405  83.1220726
  33.9597096  20.5232267  83.6532732  41.1127314  16.8202277  76.9660838
  40.4701694  17.1134810  76.3200633  40.6082242  16.7055198  77.7714035
  38.7667477  20.5665450  67.6546698  39.6785334  20.7992837  67.4794395
  38.2577125  21.1502495  67.0921776  31.5752905  22.8460938  82.6935829
  32.3167590  23.3845982  82.4170652  30.8689891  23.4727227  82.8507381
  37.0508245  24.9890078  81.2907990  37.4591601  24.5472489  80.5462623
  36.3285507  24.4142706  81.5442183  33.4039315  19.9262685  78.6641547
  34.2500510  20.3502099  78.8076196  33.3437953  19.2696309  79.3580110
  37.3737060  25.5491269  75.0460279  36.7445922  25.7136983  74.3436347
  36.9862722  25.9632878  75.8171243  41.2526292  26.4845707  72.4004643
  40.5677330  26.8644608  71.8501676  41.3370141  27.0941033  73.1336591
  36.5538761  17.5867053  80.3222721  36.3099692  18.3409114  79.7856997
  36.8298691  17.9652401  81.1569968  38.5077223  24.1305666  78.9999986
  38.7194119  24.7737426  78.3234368  38.4606972  23.2967982  78.5321917
  36.1103452  16.7423486  75.9036559  35.2487931  17.0404740  76.1953296
  36.1365887  16.9593885  74.9717591  32.9265022  25.2865677  72.3110364
  33.3903367  25.5653380  71.5214987  32.6621820  24.3849122  72.1283455
  29.8189103  24.8337159  75.2490128  30.3890460  25.2624427  74.6107612
  30.4097215  24.5519743  75.9474313  31.8633908  21.4088829  69.1199929
  32.5657951  21.8609873  69.5873856  31.5314536  20.7672648  69.7479823
  30.3114269  20.0000586  83.4951139  29.6812930  20.6816867  83.7286536
  30.2050357  19.8883668  82.5504277  25.6059242  19.6672382  74.4217063
  24.8158296  19.9229911  73.9457174  26.0970489  20.4820720  74.5269104
  39.6223051  27.0077621  77.1722344  40.4440495  26.6057808  76.8905025
  39.6185454  26.9045855  78.1238460  27.5573987  20.0316961  71.3800540
  26.7605150  20.1435655  71.8984035  27.3299579  20.3703613  70.5141430
  33.3879655  26.5561664  79.3283054  33.4524087  27.0182072  80.1641226
  32.6790579  25.9259029  79.4565364  23.8896945  19.9202872  76.8532054
  24.1404983  20.8049882  77.1189630  24.4256493  19.7407474  76.0807146
  47.7129044  23.3516370  73.5207315  46.9592753  22.7823768  73.3651320
  47.8476585  23.3179034  74.4677950  33.1027672  28.2229772  69.1962035
  32.9673347  29.0681308  69.6246882  33.6437485  28.4249050  68.4327968
  29.5895012  14.3021352  85.8576390  29.1961958  13.7487550  86.5324034
  30.4061152  14.6131930  86.2482907  26.5557070  25.7405210  69.7689960
  27.0681590  26.5348460  69.9195524  27.2079783  25.0431500  69.7023561
  28.3651954  28.8570966  71.8512713  28.5418583  29.7788931  71.6633697
  29.1608788  28.5429385  72.2807093  32.5062973  15.7179231  83.4496646
  33.2472686  16.3186384  83.3701109  32.7380896  14.9756869  82.8914689
  27.6504311  20.9035598  81.7274876  27.5357826  20.0020855  82.0281975
  26.7948829  21.1499295  81.3759693  34.7296149  28.8453338  83.3262377
  34.2860003  28.0589717  83.0083281  35.3913362  29.0332489  82.6606267
  29.4883270  30.3749140  77.8523055  30.0390695  30.2466203  77.0800049
  28.6494746  30.6744029  77.5017948  36.8277387  29.1256138  81.3543778
  36.8095862  29.9465019  80.8624047  37.7497307  29.0010214  81.5793919
  33.2850441  26.6400268  82.1967286  33.8178778  25.8788556  81.9666594
  32.7564522  26.3473920  82.9391441  36.4520136  11.7460334  77.7260928
  36.1084405  12.6361976  77.6500039  36.8199098  11.5561991  76.8630513
  24.5205986  24.0693864  70.5449530  25.3581208  24.4790873  70.3283238
  24.6984254  23.1293306  70.5149724  36.4170419  21.7368945  66.2333363
  35.9017042  22.5073550  66.4721751  36.1447727  21.0634081  66.8566425
  34.0017530  16.5818646  71.2918602  33.1459126  16.1925496  71.1124240
  34.4144481  16.6610607  70.4318387  35.5316676  14.1164989  75.6910161
  35.0281472  14.0795124  74.8777967  35.8247283  15.0257732  75.7506818
  31.7759562  14.2003719  74.6976343  32.6412559  14.0046527  74.3382233
  31.8437071  13.9714070  75.6245700  41.3904693  24.4901300  68.1686537
  40.6134136  24.1512459  67.7241699  42.0696174  24.4953923  67.4941502
  36.2056722  19.6096037  68.0593144  35.9006857  19.9242186  68.9103288
  37.1587164  19.6877457  68.1020477  34.6503154  25.7686260  69.7086098
  34.1224515  25.0339020  69.3959336  34.1490656  26.5460937  69.4626067
  39.6296000  23.9635281  74.8253145  38.9719674  24.6534542  74.9133273
  40.4336399  24.3531713  75.1687131  29.3821881  16.4305927  72.0692710
  29.9565633  16.2081108  71.3365903  29.9692864  16.4994621  72.8221311
  38.4401458  22.3179654  72.8757086  38.9533340  22.9509645  73.3778796
  39.0902682  21.7180849  72.5100446  29.7091468  18.4610388  66.0888595
  28.8728781  18.7985074  66.4097870  29.5696238  18.3259367  65.1515732
  31.6844549  13.3047176  70.7967779  31.0308961  12.9896193  70.1724394
  31.6425023  12.6822916  71.5227602  32.7955754  23.5866471  62.7121071
  31.8882816  23.3555724  62.9112220  33.2926786  22.7904090  62.8995053
  35.7023833  32.2963978  65.6317758  35.0285531  32.5995675  66.2402715
  36.0889655  33.0993058  65.2823215  34.9182289  19.7929109  75.1215427
  34.0004851  20.0144056  74.9637115  35.3342433  19.8675420  74.2627134
  35.7017337  21.1920525  70.2518107  36.4489156  21.7041922  69.9425229
  35.9708927  20.8704577  71.1122501  33.9743987  23.6879065  67.2345061
  33.0655207  23.4038098  67.3317531  34.0039071  24.1078144  66.3748368
  39.2063255  27.2985655  71.0036229  38.7525582  26.4576565  71.0601420
  38.5757221  27.9347053  71.3411009  38.1496174  18.2277641  72.2336896
  37.4118931  17.7155027  72.5647139  38.4022948  17.7878023  71.4220173
  37.6496194  29.1362152  71.9386047  37.9419168  29.6967209  71.2198413
  38.1594814  29.4290713  72.6939206  38.2507802  11.0053893  72.8278666
  38.5566678  10.1451256  72.5404581  38.9760406  11.5971513  72.6277660
  24.5432158  21.4084580  71.2160264  24.3456557  20.8153940  70.4911330
  23.9878822  21.1036790  71.9336202  32.5228881  21.3007686  73.3354857
  32.5777491  20.3481522  73.2597333  31.7120083  21.4567125  73.8196155
  33.6720075  25.2287809  64.5733140  33.2339505  24.5123668  64.1138777
  34.4130516  25.4563924  64.0118231  30.4621241  19.9184746  71.0945236
  29.6489107  20.2178916  71.5010428  30.9580235  19.5240435  71.8119718
  32.6129819  29.9142503  73.0279500  32.5705998  30.1403349  72.0988032
  33.5292518  29.6805877  73.1765302  36.0595453  20.3826570  79.9260130
  36.4144841  20.6098043  80.7854595  36.7067584  20.7144947  79.3037385
  41.7893190  23.5045006  70.6309459  41.6511088  23.6946602  69.7030648
  41.4329409  24.2664389  71.0877510  29.9535316  17.4903101  76.7106471
  30.5934695  17.3491860  76.0129434  29.1212847  17.2037615  76.3345073
  41.8162569  25.5721533  75.6420730  42.2499076  25.4796822  76.4903784
  42.5294150  25.5479034  75.0040746  30.7295620  26.7905532  72.8241463
  31.5236218  26.2955852  72.6224038  30.0187312  26.2623395  72.4609169
  35.5490464  29.1723627  77.1753831  35.6027487  29.7414564  77.9431547
  34.6805246  29.3425512  76.8107868  27.0378383  20.9348614  68.9001216
  26.1075971  20.8733069  69.1171178  27.1335855  20.4124566  68.1037857
  26.9563932  17.4603426  71.4879457  27.2170750  18.3748760  71.3788618
  27.7781105  16.9927869  71.6376070  28.4288858  18.8741184  78.6578282
  29.1011911  18.6658546  78.0090931  27.6018644  18.6763270  78.2183514
  42.6778119  25.6145234  78.1753616  42.8714009  26.5191044  78.4212890
  42.5778737  25.1552653  79.0092201  34.3314430  15.5003124  80.6743943
  33.6842345  16.1993074  80.5808419  35.1015445  15.9339268  81.0420191
  37.7393228  25.7651977  83.7494496  37.5878734  25.5362528  82.8324580
  37.7297907  26.7222578  83.7625841  34.5078564  23.3383889  78.7340763
  35.4370624  23.4895049  78.5609730  34.0869594  23.4267910  77.8789409
  33.3066896  27.3634554  76.5039300  33.1677982  26.9953338  77.3765238
  32.5181492  27.8782193  76.3323258  33.9015048  32.4643650  67.8464837
  34.0766804  31.9931693  68.6610459  33.2147836  33.0909416  68.0746097
  34.8572111  26.7416156  73.8928138  34.5221944  26.7016926  74.7885788
  34.3576057  26.0760872  73.4198548  28.8316355  22.1483786  79.4180719
  28.6936153  21.4164025  80.0192258  29.7421278  22.0592687  79.1364907
  37.7931303  24.0872191  64.1665198  37.1760473  23.3619019  64.0698250
  37.3247791  24.8481551  63.8232272  31.4598656  21.8603746  78.9064399
  32.1698274  21.2196938  78.8651017  31.4167964  22.1116641  79.8290580
  39.4485434  28.7971099  81.8270978  39.3897980  28.1130319  81.1601561
  39.8504953  29.5390089  81.3751604  30.1727590  18.8468964  80.7260038
  29.6364947  18.3959702  81.3781635  29.5844298  18.9814873  79.9830503
  28.4676133  35.6133013  74.6204697  28.7072731  36.2451537  75.2983715
  27.6245330  35.2621053  74.9070056  29.5829849  18.3057615  63.2886502
  28.7059315  18.1846416  62.9248749  30.0587602  17.5143693  63.0365391
  39.4502842  26.7610683  80.0584958  38.5629620  26.4236605  80.1811357
  40.0201393  26.0293714  80.2953723  21.1031989  23.0934775  73.3828009
  21.7903029  22.7796505  72.7949024  20.9480117  23.9976139  73.1095260
  25.9066711  17.9824971  77.8113033  25.8224900  17.3750641  77.0763443
  25.0849417  18.4733990  77.8122529  32.9803995  31.4212135  77.0246201
  32.9074166  32.2267107  77.5365505  32.5381388  31.6204101  76.1994222
  32.7693775  30.6583905  70.5349022  31.9861297  31.2005586  70.6287247
  33.4686520  31.1757885  70.9343264  36.0790425  16.4678535  73.1783228
  36.5759124  15.7148497  72.8584298  35.3077406  16.5042852  72.6126437
  43.9320182  22.1718900  74.8201519  43.9210058  23.0543616  74.4495452
  43.0637562  21.8190451  74.6256056  35.4402679  31.3198969  79.1804360
  36.1530651  31.9546434  79.1080261  34.9492707  31.4162835  78.3644361
  37.1620205  25.2250222  70.7521651  36.2276484  25.3451685  70.5826356
  37.3396874  24.3222689  70.4881661  32.6625393  18.6095918  72.9054912
  32.2923181  18.0566958  73.5935818  33.1584486  18.0054051  72.3529912
  40.5492757  21.0667541  71.2871685  41.0153209  21.8995533  71.2131988
  41.0000257  20.6012523  71.9916944  30.4914592  29.0693413  80.0009930
  31.1924052  29.7029896  80.1539325  30.0209707  29.4108144  79.2405570
  38.6168988  27.4111363  68.2857837  38.8928832  27.2967957  69.1951711
  37.7473487  27.0128848  68.2470010  38.5209420  13.4348128  75.3262587
  37.6072499  13.6652355  75.4944794  38.9502521  13.5186572  76.1776619
  38.2915878  21.6238020  77.8262481  37.6387328  21.8713928  77.1714933
  38.6696258  20.8102159  77.4924958  35.2523052  31.6597714  71.9290651
  35.4345446  30.8419369  72.3918403  36.0756038  31.8765406  71.4915541
  35.5865217  30.5865899  69.1905699  36.1152984  30.0758353  68.5775862
  35.8493437  30.2708429  70.0551233  34.3403451  22.3657831  84.3128518
  33.6644088  22.2651961  84.9830893  35.1631085  22.2097045  84.7764515
  26.0882310  28.6029768  76.9341033  26.6735747  27.8573456  77.0668937
  25.8907149  28.9133725  77.8177697  28.9420965  31.6381015  71.9503475
  28.2731341  32.1227143  71.4667515  28.8033835  31.8850236  72.8646854
  20.6799965  21.1735368  75.6545476  20.7184064  20.6398959  76.4482594
  20.1740258  20.6470574  75.0356453  33.0826234  33.6724759  78.5486134
  33.6344542  33.8356380  79.3135219  33.4232427  34.2629197  77.8766159
  28.0590727  16.0199909  79.1508018  28.1232054  16.8814740  78.7385416
  27.9957847  15.4073910  78.4180377  27.5343000  18.0923041  82.7981053
  28.1615038  17.7100119  83.4118577  26.6770919  17.8737243  83.1636745
  37.9337108  28.4986016  84.4034788  38.4777012  29.1115975  83.9089743
  37.3523953  29.0565595  84.9201801  24.3108542  19.8999470  68.7299408
  24.6061984  18.9910149  68.6766461  23.4096578  19.8787210  68.4080410
  36.2194621  31.6206734  75.5349816  36.0945761  30.8196474  75.0260761
  36.8773712  32.1152928  75.0463786  27.8402789  17.9755467  74.7126956
  27.1189375  18.5891435  74.5734429  28.6296045  18.5113232  74.6343602
  38.2829530  29.4215755  77.1629366  37.3359865  29.3021106  77.0907693
  38.6312303  28.5338253  77.2455627  30.6429103  15.3109893  80.9867608
  31.1663505  15.5572190  81.7493917  30.4241436  16.1429928  80.5670745
  26.0396384  17.5813568  68.8538733  25.7109090  16.7010947  68.6713839
  26.3935755  17.5261237  69.7415122  35.2875963  29.2168471  73.3633718
  35.1400925  28.2885178  73.5441288  36.1129456  29.2388561  72.8790794
  29.1538207  17.8686538  69.2214210  29.4934280  18.3972459  68.4992819
  29.6010328  18.2066944  69.9972777  38.8910085  30.0397029  74.4498591
  39.8156632  29.8339891  74.3123042  38.7225388  29.7913431  75.3587933
  31.8481648  16.2523589  78.6717278  31.5078468  15.4531402  79.0737958
  31.1420654  16.5525299  78.0994112  32.4998120  13.3372901  77.1244601
  33.3224189  12.8633379  77.0023492  32.7436183  14.1163385  77.6243288
  31.1406354  16.3661159  67.4207503  31.8614717  16.7442412  66.9171220
  30.5171658  17.0850036  67.5242481  35.2837477  17.0706308  68.3565836
  35.5001092  17.9530946  68.0554664  34.8031544  16.6792522  67.6271477
  30.0236699  20.0292022  74.9336580  29.8781279  20.3432325  75.8260862
  29.5461902  20.6476922  74.3807479  31.8833081  17.0194570  74.9817470
  31.8694650  16.1235663  74.6449768  32.6005510  17.0265233  75.6155756
  33.7359212  17.4531910  77.0270597  33.4776990  18.3748980  77.0254928
  33.2044253  17.0562344  77.7171061  38.6805401  30.5582697  69.8060682
  38.8542278  29.9929119  69.0534535  39.1734292  31.3583592  69.6240172
  24.4982361  22.5697366  77.8724241  23.9535829  23.3457174  78.0044516
  25.3761711  22.9168170  77.7143363  31.2869977  15.9008950  70.2505040
  31.4085889  14.9725596  70.4495927  30.9972020  15.9147636  69.3383355
  34.1561168  13.5863860  73.3871760  34.1782865  13.6503193  72.4323739
  34.5729227  12.7468369  73.5812266  44.5344792  23.3219120  71.4250982
  44.9775938  22.5726445  71.0270105  43.6571302  23.3129256  71.0424714
  39.6680573  29.8749461  66.9057581  40.3631478  30.4956154  67.1244895
  40.0103724  29.0244813  67.1809959  25.2848383  21.6967262  80.7654398
  24.5430119  21.8449898  81.3519029  24.9641127  21.9575528  79.9021148
  41.5671997  27.3249167  68.4344912  42.0923321  27.6636440  67.7094232
  41.4794349  26.3896182  68.2508046  33.2292045  31.2383240  80.5634788
  33.5379172  30.9932387  81.4357488  34.0267527  31.4429879  80.0753658
  33.2512657  33.3921150  72.7940165  32.8117648  32.8997529  73.4873021
  34.0020774  32.8494118  72.5532240  25.7304996  29.5832691  72.7964793
  26.5563016  29.2836463  72.4163436  25.3799048  28.8140313  73.2454581
  30.6986529  28.9359159  74.8662466  30.0766539  28.2729864  74.5664694
  31.3691396  28.9620291  74.1836114  23.9313601  27.5019017  73.7553726
  23.0945510  27.0741192  73.5737728  23.9037247  27.6951461  74.6924518
  30.7711057  17.4140947  84.4594972  30.8199212  18.2903070  84.0772742
  31.3133571  16.8718340  83.8866616  41.2565903  27.9582070  83.7396109
  40.4661446  27.9406209  83.2000609  41.0199257  28.4970364  84.4945146
  41.3763778  24.8074537  81.0528838  41.4261783  24.6424544  81.9944361
  41.2677701  23.9401796  80.6626719  30.2600036  27.4863083  68.3420927
  30.4088157  28.1698547  67.6887600  31.0666480  27.4668173  68.8570383
  38.6667540  20.7905465  82.3688145  39.5677403  20.6511930  82.0772143
  38.7415515  20.9559920  83.3086322  33.0010345  18.1672320  81.2141331
  32.1313655  18.4605886  80.9423920  33.2369826  18.7512765  81.9348595
  42.8781974  27.2271478  81.2970860  42.5866783  27.5901459  82.1334321
  42.2654106  26.5138487  81.1184192  44.0777657  24.7924358  73.8173430
  44.9124548  25.2314162  73.9810990  44.2136786  24.3163011  72.9981676
  41.1269163  22.3504093  79.7650918  41.6023284  22.5431739  78.9569769
  40.2034728  22.4063279  79.5194301  28.0152669  23.5128260  69.3481996
  27.7698711  22.6090590  69.5462206  28.1848584  23.5145411  68.4061474
  35.7049379  14.3851937  78.7306751  36.2231323  15.1212963  78.4053240
  35.3504512  14.6915930  79.5653511  27.2848317  19.2456618  66.8468157
  26.5917562  19.3200973  66.1908193  27.0400069  18.4816961  67.3689674
  35.9561973  10.8052219  74.2507648  36.2363727  10.1375408  74.8768075
  36.7412580  10.9981315  73.7382312  33.7595442  29.9811213  65.8132674
  33.1869409  30.6001400  65.3603146  34.3328236  30.5310575  66.3472596
  39.8270832  19.2269853  77.9979223  40.7788255  19.3267951  78.0191447
  39.6574282  18.4348122  78.5077308  37.8485211  16.3125436  78.1838624
  37.2535143  16.5930449  77.4885113  37.5634908  16.8019337  78.9555365
  36.9792702  30.2648363  66.9441257  37.9123375  30.1993925  67.1474132
  36.8915914  31.1004630  66.4855789  39.6080718  29.5814233  63.9045204
  39.5294350  29.2474097  64.7980962  40.4290385  30.0736001  63.9036677
  42.3058910  22.4475973  77.1121523  42.2735230  21.5091973  77.2981207
  42.9159533  22.5260009  76.3787348  34.1442240  21.3172026  63.1548727
  35.0901345  21.1878234  63.2237145  33.7656485  20.5786688  63.6318155
  42.4553398  19.2387016  77.1579806  41.9392447  18.4545473  76.9709735
  43.3393347  18.9105733  77.3226325  40.1164125  12.9828032  73.1175619
  39.9188946  12.6743120  74.0018951  40.7263830  13.7089671  73.2473549
  48.1235459  23.5091980  76.2527560  48.8538848  23.2477268  76.8135263
  47.5142405  22.7720702  76.2929628  46.2050756  21.6499842  76.8502011
  45.4783920  21.5155807  76.2418502  45.7898043  21.9576671  77.6558729
  34.0280933  25.3689772  84.6149384  34.9483942  25.5468371  84.8089430
  33.9930516  24.4245817  84.4629083  32.3285158  19.2422002  63.0903612
  31.4216613  18.9455115  63.1666326  32.6061139  18.9451820  62.2237898
  23.2463098  20.5628366  73.5402658  22.9265882  19.7093674  73.2477032
  22.6996526  20.7776944  74.2960626  27.0243005  23.2790807  77.2572165
  27.2429015  24.2107914  77.2760199  27.4368779  22.9198781  78.0426969
  33.9447223  13.7858892  69.2447853  33.1347952  13.4405977  69.6203099
  34.6331640  13.4766436  69.8335465  35.8737772  12.8636939  70.8672150
  36.4268810  13.2832392  71.5262173  36.1107858  11.9372687  70.9095106
  31.8970871  18.8524012  86.6474914  31.7967598  19.8018369  86.5787005
  31.6792413  18.5242251  85.7750984  31.0983942  16.1008937  63.2315591
  31.9603106  16.4263836  63.4911409  31.2834286  15.3140433  62.7188657
  23.1151358  24.1831277  75.5095780  22.4214829  23.7685230  74.9965734
  23.8624349  24.2251814  74.9129199  39.2516579  14.9737464  70.3750814
  38.6715248  15.6322268  69.9928867  38.9852511  14.1514808  69.9638232
  37.7020145  14.3742522  72.5772135  38.2019923  14.4859056  71.7686453
  38.3455753  14.0703574  73.2172943  31.7602141  22.2821151  85.4639976
  31.2769223  23.0821511  85.6703865  31.8463080  22.2929096  84.5107420
  25.0288100  24.1149531  73.3861795  25.0058789  24.2137218  72.4343678
  25.3388737  24.9614682  73.7078961  27.6875478  26.1725686  77.5008409
  28.6418732  26.1409628  77.4338341  27.4888002  25.7116310  78.3158635
  28.2774860  24.7426802  80.0679207  29.0967749  25.2370881  80.0914044
  28.5511668  23.8258770  80.0396775  38.0341457  17.1337554  69.4307163
  37.1467312  17.4187205  69.2127357  38.4495446  16.9731318  68.5834439
  41.3855993  17.1584075  73.1461502  42.1616383  17.6480528  73.4186119
  40.6604127  17.5842129  73.6033371  43.8228551  17.8711694  74.2035442
  44.4173042  17.6307430  73.4928751  43.8955135  17.1518825  74.8308979
  26.0425707  31.7145305  74.5178607  25.9080175  30.9545706  73.9516605
  25.6257769  32.4386205  74.0507396  37.1784670  26.8982229  63.5255183
  37.8820520  27.1032231  64.1412838  36.4547319  27.4658991  63.7904266
  38.0082480  22.6492090  69.6457453  37.9517682  23.1060642  68.8065085
  38.5610823  21.8882775  69.4680295  41.8187286  18.4381822  70.4707572
  41.5624221  18.0378458  71.3015780  41.1940154  19.1525616  70.3457711
  46.1299624  21.1777895  72.9778864  45.5699182  21.2471085  73.7510426
  45.5243128  21.0018880  72.2578360  29.1994833  32.6114622  74.7297050
  29.0827217  33.5560055  74.6275740  28.3787279  32.3088184  75.1182849
  39.0871368  27.3364758  65.5753643  39.9216971  26.9045957  65.3931117
  38.9255710  27.1646772  66.5030537  38.7417260  23.8396871  66.9409982
  38.6866063  23.6741143  65.9998426  38.1163315  24.5472904  67.0972172
  23.5309775  19.0764936  80.7671404  24.1768638  18.5663890  81.2558629
  23.3226926  19.8133617  81.3414829  36.0563167  26.1445783  86.2663545
  36.9254326  26.3186436  85.9050180  35.5769918  26.9640200  86.1439274
  32.0513385  13.3404980  66.5195300  32.0392055  14.2846820  66.6763571
  32.9436807  13.1575126  66.2254761  30.2249347  33.2642884  77.9452978
  31.1276594  33.2966495  78.2619473  29.9986717  32.3343335  77.9599314
  31.9802949  32.0173871  74.6063057  31.0298580  32.0175732  74.4927429
  32.2835435  31.2706605  74.0899092  35.8665505   9.9347757  70.7741237
  35.0997900   9.3806244  70.9197919  36.2776210  10.0069626  71.6355389
  27.8707266  16.2232553  84.8646418  28.7338727  15.8669358  85.0749743
  27.2972676  15.8846448  85.5521823  47.7155643  37.8534409  75.6708819
  48.3534053  37.7341157  74.9672159  47.5976485  38.8015253  75.7296771
  44.5245349  37.8061837  75.6070344  44.1863860  37.6902902  74.7190879
  45.3935117  37.4053002  75.5871350  40.3832165  39.6597314  71.5967235
  39.8197030  39.5687251  70.8283523  40.2684560  38.8397218  72.0769727
  45.0065132  38.9596689  81.5656550  44.9953773  38.5649487  80.6937053
  45.1685771  38.2262762  82.1590321  37.9296597  41.1548505  74.4351455
  38.7217888  40.8139330  74.0197755  38.1693247  41.2643480  75.3553609
  39.8887350  40.4157419  67.3068834  40.6618226  39.8686406  67.1681710
  40.2412749  41.2801668  67.5183296  41.7272393  41.7433801  80.5135734
  41.4362259  42.6479432  80.3982400  42.3629377  41.7850328  81.2279803
  42.6528600  39.1210649  77.1037093  43.2492172  38.8966672  76.3894056
  42.7103571  38.3795395  77.7062541  42.2253628  36.5750085  64.9387284
  42.4779149  36.0531606  64.1770747  41.2878187  36.4116230  65.0413968
  47.2696911  35.5785863  72.7462027  48.0560000  35.1605286  72.3952444
  47.5335615  36.4831955  72.9143676  52.6705338  35.5161096  73.6495006
  53.4030510  34.9460313  73.8832835  51.9144694  35.1282697  74.0901511
  41.9449917  38.4778191  67.1411659  41.8286175  37.8023094  67.8092743
  42.0552177  37.9910565  66.3243812  44.2881458  37.9388338  70.8458348
  43.9239665  37.4118959  71.5571270  45.1448574  37.5486807  70.6724834
  50.1930759  29.2282670  78.1089614  49.8614083  30.0978081  77.8850829
  49.5976372  28.9118954  78.7883645  43.9286945  32.9678237  65.8419697
  44.0961347  33.8358474  66.2090168  43.7384114  33.1305519  64.9180986
  46.6862278  41.4295216  77.5085527  46.3863001  42.3320255  77.4001334
  46.3413338  41.1627400  78.3606680  40.1374760  37.8809013  73.5422232
  39.2125256  37.7485227  73.7499923  40.3859173  38.6603232  74.0392174
  50.0859422  33.9477757  75.1882965  49.1776299  33.8793165  74.8941725
  50.0347018  34.4249701  76.0164790  43.9076166  35.4235895  66.8266364
  43.7875791  35.8692946  67.6651844  43.2128754  35.7721213  66.2679902
  37.4983571  37.5242287  74.3766021  37.6275952  37.7776766  75.2905432
  36.8181022  38.1169995  74.0570676  44.1600288  35.3667402  83.1317862
  43.3833622  35.9261322  83.1220726  44.7990851  35.8524185  83.6532732
  51.9521068  32.1494195  76.9660838  51.3095449  32.4426728  76.3200633
  51.4475997  32.0347115  77.7714035  49.6061232  35.8957368  67.6546698
  50.5179088  36.1284755  67.4794395  49.0970879  36.4794412  67.0921776
  42.4146660  38.1752855  82.6935829  43.1561344  38.7137899  82.4170652
  41.7083645  38.8019144  82.8507381  47.8902000  40.3181996  81.2907990
  48.2985356  39.8764406  80.5462623  47.1679261  39.7434623  81.5442183
  44.2433070  35.2554603  78.6641547  45.0894265  35.6794016  78.8076196
  44.1831707  34.5988227  79.3580110  48.2130814  40.8783187  75.0460279
  47.5839677  41.0428901  74.3436347  47.8256476  41.2924796  75.8171243
  52.0920046  41.8137624  72.4004643  51.4071084  42.1936526  71.8501676
  52.1763895  42.4232951  73.1336591  47.3932515  32.9158971  80.3222721
  47.1493447  33.6701032  79.7856997  47.6692445  33.2944319  81.1569968
  49.3470978  39.4597583  78.9999986  49.5587873  40.1029343  78.3234368
  49.3000726  38.6259900  78.5321917  46.9497207  32.0715404  75.9036559
  46.0881686  32.3696658  76.1953296  46.9759641  32.2885803  74.9717591
  43.7658776  40.6157595  72.3110364  44.2297122  40.8945298  71.5214987
  43.5015574  39.7141039  72.1283455  40.6582857  40.1629076  75.2490128
  41.2284214  40.5916345  74.6107612  41.2490969  39.8811661  75.9474313
  42.7027662  36.7380747  69.1199929  43.4051706  37.1901791  69.5873856
  42.3708291  36.0964566  69.7479823  41.1508024  35.3292504  83.4951139
  40.5206684  36.0108784  83.7286536  41.0444112  35.2175585  82.5504277
  36.4452996  34.9964300  74.4217063  35.6552050  35.2521828  73.9457174
  36.9364244  35.8112638  74.5269104  50.4616806  42.3369539  77.1722344
  51.2834249  41.9349726  76.8905025  50.4579209  42.2337773  78.1238460
  38.3967742  35.3608879  71.3800540  37.5998905  35.4727573  71.8984035
  38.1693334  35.6995531  70.5141430  44.2273409  41.8853582  79.3283054
  44.2917842  42.3473989  80.1641226  43.5184333  41.2550947  79.4565364
  34.7290699  35.2494790  76.8532054  34.9798738  36.1341800  77.1189630
  35.2650248  35.0699392  76.0807146  58.5522799  38.6808287  73.5207315
  57.7986507  38.1115685  73.3651320  58.6870340  38.6470952  74.4677950
  40.4288766  29.6313269  85.8576390  40.0355712  29.0779468  86.5324034
  41.2454907  29.9423848  86.2482907  37.3950824  41.0697128  69.7689960
  37.9075345  41.8640378  69.9195524  38.0473537  40.3723418  69.7023561
  39.2045709  44.1862884  71.8512713  39.3812337  45.1080849  71.6633697
  40.0002542  43.8721303  72.2807093  43.3456727  31.0471149  83.4496646
  44.0866441  31.6478302  83.3701109  43.5774650  30.3048786  82.8914689
  38.4898065  36.2327516  81.7274876  38.3751581  35.3312773  82.0281975
  37.6342583  36.4791213  81.3759693  45.5689903  44.1745256  83.3262377
  45.1253757  43.3881635  83.0083281  46.2307117  44.3624407  82.6606267
  40.3277024  45.7041058  77.8523055  40.8784449  45.5758121  77.0800049
  39.4888500  46.0035947  77.5017948  47.6671141  44.4548056  81.3543778
  47.6489617  45.2756937  80.8624047  48.5891061  44.3302131  81.5793919
  44.1244195  41.9692186  82.1967286  44.6572532  41.2080474  81.9666594
  43.5958277  41.6765837  82.9391441  47.2913890  27.0752252  77.7260928
  46.9478160  27.9653893  77.6500039  47.6592853  26.8853909  76.8630513
  35.3599741  39.3985782  70.5449530  36.1974963  39.8082790  70.3283238
  35.5378009  38.4585224  70.5149724  44.8411284  31.9110563  71.2918602
  43.9852880  31.5217414  71.1124240  45.2538236  31.9902524  70.4318387
  46.3710431  29.4456907  75.6910161  45.8675226  29.4087042  74.8777967
  46.6641038  30.3549649  75.7506818  42.6153317  29.5295636  74.6976343
  43.4806313  29.3338445  74.3382233  42.6830826  29.3005988  75.6245700
  47.0450476  34.9387955  68.0593144  46.7400612  35.2534104  68.9103288
  47.9980918  35.0169375  68.1020477  50.4689754  39.2927199  74.8253145
  49.8113429  39.9826460  74.9133273  51.2730153  39.6823630  75.1687131
  40.2215636  31.7597844  72.0692710  40.7959388  31.5373026  71.3365903
  40.8086618  31.8286539  72.8221311  49.2795213  37.6471571  72.8757086
  49.7927095  38.2801563  73.3778796  49.9296437  37.0472767  72.5100446
  40.5485223  33.7902305  66.0888595  39.7122535  34.1276992  66.4097870
  40.4089992  33.6551285  65.1515732  42.5238303  28.6339093  70.7967779
  41.8702716  28.3188110  70.1724394  42.4818778  28.0114834  71.5227602
  45.7576044  35.1221027  75.1215427  44.8398605  35.3435974  74.9637115
  46.1736187  35.1967337  74.2627134  46.5411092  36.5212442  70.2518107
  47.2882911  37.0333840  69.9425229  46.8102681  36.1996495  71.1122501
  50.0457009  42.6277573  71.0036229  49.5919336  41.7868483  71.0601420
  49.4150976  43.2638971  71.3411009  48.9889929  33.5569559  72.2336896
  48.2512686  33.0446945  72.5647139  49.2416702  33.1169940  71.4220173
  48.4889948  44.4654069  71.9386047  48.7812923  45.0259126  71.2198413
  48.9988569  44.7582630  72.6939206  49.0901556  26.3345811  72.8278666
  49.3960433  25.4743174  72.5404581  49.8154161  26.9263431  72.6277660
  35.3825912  36.7376497  71.2160264  35.1850312  36.1445858  70.4911330
  34.8272576  36.4328707  71.9336202  43.3622636  36.6299604  73.3354857
  43.4171246  35.6773440  73.2597333  42.5513838  36.7859043  73.8196155
  41.3014996  35.2476664  71.0945236  40.4882861  35.5470834  71.5010428
  41.7973990  34.8532352  71.8119718  46.8989207  35.7118488  79.9260130
  47.2538595  35.9389961  80.7854595  47.5461339  36.0436865  79.3037385
  52.6286944  38.8336924  70.6309459  52.4904843  39.0238520  69.7030648
  52.2723163  39.5956307  71.0877510  40.7929070  32.8195019  76.7106471
  41.4328450  32.6783778  76.0129434  39.9606601  32.5329532  76.3345073
  52.6556324  40.9013451  75.6420730  53.0892831  40.8088740  76.4903784
  53.3687905  40.8770951  75.0040746  37.8772138  36.2640531  68.9001216
  36.9469726  36.2024987  69.1171178  37.9729610  35.7416484  68.1037857
  37.7957687  32.7895344  71.4879457  38.0564504  33.7040677  71.3788618
  38.6174859  32.3219787  71.6376070  39.2682612  34.2033101  78.6578282
  39.9405666  33.9950463  78.0090931  38.4412399  34.0055187  78.2183514
  53.5171873  40.9437152  78.1753616  53.7107764  41.8482962  78.4212890
  53.4172492  40.4844571  79.0092201  45.1708184  30.8295042  80.6743943
  44.5236099  31.5284992  80.5808419  45.9409200  31.2631186  81.0420191
  48.5786982  41.0943894  83.7494496  48.4272489  40.8654446  82.8324580
  48.5691662  42.0514496  83.7625841  45.3472319  38.6675807  78.7340763
  46.2764379  38.8186967  78.5609730  44.9263349  38.7559828  77.8789409
  39.6710109  37.4775704  79.4180719  39.5329907  36.7455943  80.0192258
  40.5815033  37.3884604  79.1364907  42.2992410  37.1895663  78.9064399
  43.0092029  36.5488856  78.8651017  42.2561718  37.4408558  79.8290580
  50.2879189  44.1263017  81.8270978  50.2291735  43.4422237  81.1601561
  50.6898707  44.8682007  81.3751604  41.0121344  34.1760881  80.7260038
  40.4758701  33.7251620  81.3781635  40.4238053  34.3106790  79.9830503
  40.4223603  33.6349533  63.2886502  39.5453069  33.5138334  62.9248749
  40.8981356  32.8435611  63.0365391  50.2896596  42.0902601  80.0584958
  49.4023375  41.7528523  80.1811357  50.8595147  41.3585632  80.2953723
  31.9425743  38.4226693  73.3828009  32.6296783  38.1088423  72.7949024
  31.7873872  39.3268057  73.1095260  36.7460465  33.3116889  77.8113033
  36.6618654  32.7042559  77.0763443  35.9243172  33.8025907  77.8122529
  46.9184179  31.7970453  73.1783228  47.4152879  31.0440415  72.8584298
  46.1471161  31.8334769  72.6126437  54.7713937  37.5010818  74.8201519
  54.7603813  38.3835534  74.4495452  53.9031316  37.1482369  74.6256056
  43.5019148  33.9387836  72.9054912  43.1316935  33.3858876  73.5935818
  43.9978240  33.3345969  72.3529912  51.3886511  36.3959459  71.2871685
  51.8546963  37.2287451  71.2131988  51.8394012  35.9304441  71.9916944
  41.3308347  44.3985331  80.0009930  42.0317806  45.0321814  80.1539325
  40.8603462  44.7400062  79.2405570  49.3603174  28.7640046  75.3262587
  48.4466254  28.9944273  75.4944794  49.7896275  28.8478490  76.1776619
  49.1309632  36.9529938  77.8262481  48.4781083  37.2005846  77.1714933
  49.5090012  36.1394076  77.4924958  45.1797206  37.6949749  84.3128518
  44.5037843  37.5943878  84.9830893  46.0024839  37.5388963  84.7764515
  36.9276065  43.9321686  76.9341033  37.5129501  43.1865374  77.0668937
  36.7300903  44.2425642  77.8177697  31.5193719  36.5027286  75.6545476
  31.5577819  35.9690877  76.4482594  31.0134012  35.9762491  75.0356453
  38.8984482  31.3491826  79.1508018  38.9625808  32.2106657  78.7385416
  38.8351602  30.7365828  78.4180377  38.3736754  33.4214959  82.7981053
  39.0008793  33.0392036  83.4118577  37.5164673  33.2029161  83.1636745
  48.7730863  43.8277934  84.4034788  49.3170767  44.4407892  83.9089743
  48.1917708  44.3857512  84.9201801  35.1502297  35.2291388  68.7299408
  35.4455738  34.3202066  68.6766461  34.2490333  35.2079127  68.4080410
  38.6796544  33.3047385  74.7126956  37.9583130  33.9183352  74.5734429
  39.4689800  33.8405149  74.6343602  49.1223284  44.7507672  77.1629366
  48.1753620  44.6313023  77.0907693  49.4706057  43.8630170  77.2455627
  41.4822857  30.6401811  80.9867608  42.0057259  30.8864108  81.7493917
  41.2635191  31.4721846  80.5670745  36.8790138  32.9105486  68.8538733
  36.5502845  32.0302865  68.6713839  37.2329509  32.8553154  69.7415122
  39.9931962  33.1978455  69.2214210  40.3328034  33.7264377  68.4992819
  40.4404082  33.5358862  69.9972777  49.7303839  45.3688947  74.4498591
  50.6550387  45.1631808  74.3123042  49.5619143  45.1205348  75.3587933
  42.6875402  31.5815506  78.6717278  42.3472223  30.7823319  79.0737958
  41.9814409  31.8817217  78.0994112  43.3391874  28.6664819  77.1244601
  44.1617944  28.1925297  77.0023492  43.5829938  29.4455302  77.6243288
  41.9800109  31.6953077  67.4207503  42.7008471  32.0734330  66.9171220
  41.3565413  32.4141954  67.5242481  46.1231232  32.3998226  68.3565836
  46.3394846  33.2822864  68.0554664  45.6425299  32.0084439  67.6271477
  40.8630453  35.3583939  74.9336580  40.7175034  35.6724242  75.8260862
  40.3855657  35.9768840  74.3807479  42.7226836  32.3486487  74.9817470
  42.7088405  31.4527581  74.6449768  43.4399264  32.3557151  75.6155756
  44.5752967  32.7823827  77.0270597  44.3170744  33.7040898  77.0254928
  44.0438007  32.3854262  77.7171061  35.3376115  37.8989284  77.8724241
  34.7929583  38.6749092  78.0044516  36.2155465  38.2460088  77.7143363
  42.1263732  31.2300868  70.2505040  42.2479643  30.3017514  70.4495927
  41.8365774  31.2439553  69.3383355  44.9954922  28.9155778  73.3871760
  45.0176619  28.9795111  72.4323739  45.4122981  28.0760287  73.5812266
  55.3738547  38.6511038  71.4250982  55.8169693  37.9018363  71.0270105
  54.4965057  38.6421174  71.0424714  36.1242137  37.0259180  80.7654398
  35.3823873  37.1741815  81.3519029  35.8034881  37.2867446  79.9021148
  44.0685800  46.5675158  80.5634788  44.3772926  46.3224305  81.4357488
  44.8661282  46.7721797  80.0753658  36.5698751  44.9124609  72.7964793
  37.3956771  44.6128381  72.4163436  36.2192803  44.1432231  73.2454581
  34.7707356  42.8310935  73.7553726  33.9339264  42.4033109  73.5737728
  34.7431001  43.0243378  74.6924518  41.6104811  32.7432865  84.4594972
  41.6592967  33.6194988  84.0772742  42.1527326  32.2010258  83.8866616
  52.0959657  43.2873988  83.7396109  51.3055201  43.2698127  83.2000609
  51.8593012  43.8262282  84.4945146  52.2157532  40.1366455  81.0528838
  52.2655537  39.9716462  81.9944361  52.1071455  39.2693714  80.6626719
  41.0993791  42.8155000  68.3420927  41.2481911  43.4990465  67.6887600
  41.9060234  42.7960090  68.8570383  49.5061295  36.1197383  82.3688145
  50.4071157  35.9803847  82.0772143  49.5809269  36.2851837  83.3086322
  43.8404100  33.4964237  81.2141331  42.9707409  33.7897803  80.9423920
  44.0763580  34.0804682  81.9348595  53.7175729  42.5563396  81.2970860
  53.4260537  42.9193377  82.1334321  53.1047860  41.8430404  81.1184192
  54.9171411  40.1216276  73.8173430  55.7518303  40.5606080  73.9810990
  55.0530540  39.6454929  72.9981676  51.9662917  37.6796011  79.7650918
  52.4417039  37.8723657  78.9569769  51.0428483  37.7355196  79.5194301
  38.8546424  38.8420178  69.3481996  38.6092466  37.9382508  69.5462206
  39.0242338  38.8437328  68.4061474  46.5443134  29.7143854  78.7306751
  47.0625078  30.4504881  78.4053240  46.1898266  30.0207848  79.5653511
  38.1242071  34.5748535  66.8468157  37.4311316  34.6492890  66.1908193
  37.8793823  33.8108879  67.3689674  46.7955728  26.1344137  74.2507648
  47.0757482  25.4667326  74.8768075  47.5806335  26.3273232  73.7382312
  50.6664586  34.5561771  77.9979223  51.6182009  34.6559868  78.0191447
  50.4968037  33.7640039  78.5077308  48.6878966  31.6417354  78.1838624
  48.0928898  31.9222367  77.4885113  48.4028662  32.1311255  78.9555365
  53.1452664  37.7767890  77.1121523  53.1128984  36.8383891  77.2981207
  53.7553288  37.8551927  76.3787348  44.9835995  36.6463943  63.1548727
  45.9295100  36.5170152  63.2237145  44.6050240  35.9078605  63.6318155
  53.2947152  34.5678934  77.1579806  52.7786201  33.7837391  76.9709735
  54.1787101  34.2397650  77.3226325  50.9557879  28.3119949  73.1175619
  50.7582701  28.0035038  74.0018951  51.5657585  29.0381588  73.2473549
  58.9629214  38.8383897  76.2527560  59.6932602  38.5769185  76.8135263
  58.3536159  38.1012619  76.2929628  57.0444511  36.9791760  76.8502011
  56.3177675  36.8447725  76.2418502  56.6291798  37.2868588  77.6558729
  44.8674687  40.6981690  84.6149384  45.7877697  40.8760289  84.8089430
  44.8324270  39.7537735  84.4629083  43.1678912  34.5713920  63.0903612
  42.2610367  34.2747033  63.1666326  43.4454893  34.2743738  62.2237898
  34.0856852  35.8920283  73.5402658  33.7659637  35.0385591  73.2477032
  33.5390281  36.1068861  74.2960626  37.8636760  38.6082724  77.2572165
  38.0822770  39.5399832  77.2760199  38.2762534  38.2490699  78.0426969
  44.7840978  29.1150810  69.2447853  43.9741706  28.7697894  69.6203099
  45.4725395  28.8058353  69.8335465  46.7131526  28.1928856  70.8672150
  47.2662565  28.6124310  71.5262173  46.9501612  27.2664604  70.9095106
  42.7364625  34.1815930  86.6474914  42.6361352  35.1310287  86.5787005
  42.5186167  33.8534169  85.7750984  41.9377697  31.4300855  63.2315591
  42.7996861  31.7555753  63.4911409  42.1228041  30.6432351  62.7188657
  33.9545112  39.5123195  75.5095780  33.2608584  39.0977147  74.9965734
  34.7018103  39.5543731  74.9129199  50.0910333  30.3029381  70.3750814
  49.5109002  30.9614186  69.9928867  49.8246266  29.4806726  69.9638232
  48.5413899  29.7034439  72.5772135  49.0413678  29.8150974  71.7686453
  49.1849507  29.3995492  73.2172943  42.5995895  37.6113069  85.4639976
  42.1162977  38.4113429  85.6703865  42.6856834  37.6221014  84.5107420
  35.8681855  39.4441448  73.3861795  35.8452543  39.5429136  72.4343678
  36.1782491  40.2906599  73.7078961  38.5269233  41.5017604  77.5008409
  39.4812486  41.4701546  77.4338341  38.3281756  41.0408227  78.3158635
  39.1168615  40.0718720  80.0679207  39.9361504  40.5662798  80.0914044
  39.3905423  39.1550688  80.0396775  48.8735211  32.4629472  69.4307163
  47.9861066  32.7479122  69.2127357  49.2889200  32.3023235  68.5834439
  52.2249747  32.4875993  73.1461502  53.0010137  32.9772445  73.4186119
  51.4997881  32.9134047  73.6033371  54.6622306  33.2003612  74.2035442
  55.2566797  32.9599348  73.4928751  54.7348890  32.4810743  74.8308979
  36.8819462  47.0437223  74.5178607  36.7473930  46.2837624  73.9516605
  36.4651524  47.7678123  74.0507396  48.8476235  37.9784008  69.6457453
  48.7911436  38.4352559  68.8065085  49.4004577  37.2174692  69.4680295
  52.6581041  33.7673740  70.4707572  52.4017975  33.3670375  71.3015780
  52.0333909  34.4817534  70.3457711  56.9693379  36.5069813  72.9778864
  56.4092937  36.5763002  73.7510426  56.3636882  36.3310798  72.2578360
  34.3703529  34.4056853  80.7671404  35.0162393  33.8955807  81.2558629
  34.1620680  35.1425535  81.3414829  46.8956921  41.4737701  86.2663545
  47.7648081  41.6478353  85.9050180  46.4163673  42.2932118  86.1439274
  42.8907140  28.6696898  66.5195300  42.8785809  29.6138738  66.6763571
  43.7830562  28.4867043  66.2254761  46.7059259  25.2639675  70.7741237
  45.9391655  24.7098161  70.9197919  47.1169964  25.3361543  71.6355389
  38.7101020  31.5524470  84.8646418  39.5732482  31.1961275  85.0749743
  38.1366431  31.2138365  85.5521823  63.5099093  50.8453014  73.6495006
  64.2424265  50.2752231  73.8832835  62.7538448  50.4574614  74.0901511
  61.0324513  44.5574588  78.1089614  60.7007838  45.4269999  77.8850829
  60.4370126  44.2410872  78.7883645  57.5256033  56.7587134  77.5085527
  57.2256756  57.6612173  77.4001334  57.1807092  56.4919317  78.3606680
  60.9253176  49.2769674  75.1882965  60.0170054  49.2085083  74.8941725
  60.8740772  49.7541619  76.0164790  48.3377325  52.8534204  74.3766021
  48.4669706  53.1068683  75.2905432  47.6574776  53.4461912  74.0570676
  62.7914823  47.4786113  76.9660838  62.1489203  47.7718646  76.3200633
  62.2869751  47.3639033  77.7714035  58.7295754  55.6473914  81.2907990
  59.1379110  55.2056324  80.5462623  58.0073016  55.0726541  81.5442183
  59.0524569  56.2075104  75.0460279  58.4233431  56.3720818  74.3436347
  58.6650231  56.6216714  75.8171243  58.2326269  48.2450889  80.3222721
  57.9887201  48.9992949  79.7856997  58.5086200  48.6236236  81.1569968
  60.1864732  54.7889501  78.9999986  60.3981627  55.4321261  78.3234368
  60.1394481  53.9551818  78.5321917  57.7890961  47.4007322  75.9036559
  56.9275440  47.6988575  76.1953296  57.8153396  47.6177721  74.9717591
  61.3010560  57.6661457  77.1722344  62.1228004  57.2641644  76.8905025
  61.2972963  57.5629691  78.1238460  51.2682521  44.9605187  85.8576390
  50.8749467  44.4071386  86.5324034  52.0848661  45.2715766  86.2482907
  54.1850482  46.3763066  83.4496646  54.9260195  46.9770219  83.3701109
  54.4168405  45.6340704  82.8914689  58.5064896  59.7839974  81.3543778
  58.4883371  60.6048855  80.8624047  59.4284816  59.6594049  81.5793919
  58.1307645  42.4044169  77.7260928  57.7871914  43.2945811  77.6500039
  58.4986607  42.2145827  76.8630513  57.2104185  44.7748824  75.6910161
  56.7068981  44.7378960  74.8777967  57.5034792  45.6841567  75.7506818
  53.4547071  44.8587554  74.6976343  54.3200068  44.6630363  74.3382233
  53.5224580  44.6297906  75.6245700  61.3083509  54.6219116  74.8253145
  60.6507183  55.3118378  74.9133273  62.1123908  55.0115548  75.1687131
  59.9295311  41.6637728  72.8278666  60.2354187  40.8035092  72.5404581
  60.6547915  42.2555349  72.6277660  57.7382962  51.0410406  79.9260130
  58.0932350  51.2681879  80.7854595  58.3855093  51.3728782  79.3037385
  51.6322825  48.1486937  76.7106471  52.2722204  48.0075696  76.0129434
  50.8000355  47.8621450  76.3345073  63.4950078  56.2305369  75.6420730
  63.9286585  56.1380658  76.4903784  64.2081659  56.2062869  75.0040746
  57.2277973  59.8307463  77.1753831  57.2814996  60.3998399  77.9431547
  56.3592755  60.0009348  76.8107868  64.3565628  56.2729069  78.1753616
  64.5501518  57.1774880  78.4212890  64.2566246  55.8136488  79.0092201
  56.0101939  46.1586960  80.6743943  55.3629854  46.8576909  80.5808419
  56.7802954  46.5923104  81.0420191  59.4180737  56.4235812  83.7494496
  59.2666243  56.1946364  82.8324580  59.4085416  57.3806413  83.7625841
  61.1272943  59.4554935  81.8270978  61.0685489  58.7714155  81.1601561
  61.5292462  60.1973925  81.3751604  61.1290351  57.4194518  80.0584958
  60.2417129  57.0820440  80.1811357  61.6988902  56.6877550  80.2953723
  65.6107691  52.8302736  74.8201519  65.5997567  53.7127451  74.4495452
  64.7425071  52.4774287  74.6256056  60.1996928  44.0931964  75.3262587
  59.2860008  44.3236191  75.4944794  60.6290030  44.1770408  76.1776619
  59.9703387  52.2821856  77.8262481  59.3174837  52.5297763  77.1714933
  60.3483767  51.4685994  77.4924958  59.6124617  59.1569852  84.4034788
  60.1564521  59.7699810  83.9089743  59.0311462  59.7149430  84.9201801
  52.3216612  45.9693729  80.9867608  52.8451014  46.2156025  81.7493917
  52.1028945  46.8013764  80.5670745  53.5269157  46.9107424  78.6717278
  53.1865977  46.1115237  79.0737958  52.8208163  47.2109135  78.0994112
  54.1785629  43.9956736  77.1244601  55.0011698  43.5217214  77.0023492
  54.4223692  44.7747220  77.6243288  55.4146721  48.1115745  77.0270597
  55.1564499  49.0332816  77.0254928  54.8831762  47.7146180  77.7171061
  52.4498566  48.0724783  84.4594972  52.4986721  48.9486905  84.0772742
  52.9921080  47.5302176  83.8866616  62.9353412  58.6165906  83.7396109
  62.1448955  58.5990045  83.2000609  62.6986766  59.1554200  84.4945146
  63.0551287  55.4658372  81.0528838  63.1049292  55.3008380  81.9944361
  62.9465210  54.5985631  80.6626719  60.3455049  51.4489300  82.3688145
  61.2464912  51.3095765  82.0772143  60.4203024  51.6143755  83.3086322
  54.6797854  48.8256155  81.2141331  53.8101164  49.1189721  80.9423920
  54.9157335  49.4096600  81.9348595  64.5569483  57.8855314  81.2970860
  64.2654292  58.2485294  82.1334321  63.9441615  57.1722322  81.1184192
  65.7565166  55.4508194  73.8173430  66.5912057  55.8897998  73.9810990
  65.8924295  54.9746847  72.9981676  62.8056672  53.0087928  79.7650918
  63.2810793  53.2015575  78.9569769  61.8822237  53.0647114  79.5194301
  57.3836888  45.0435772  78.7306751  57.9018832  45.7796799  78.4053240
  57.0292021  45.3499765  79.5653511  57.6349482  41.4636054  74.2507648
  57.9151236  40.7959244  74.8768075  58.4200089  41.6565150  73.7382312
  61.5058341  49.8853688  77.9979223  62.4575764  49.9851786  78.0191447
  61.3361791  49.0931957  78.5077308  59.5272720  46.9709272  78.1838624
  58.9322652  47.2514284  77.4885113  59.2422417  47.4603173  78.9555365
  63.9846418  53.1059808  77.1121523  63.9522739  52.1675809  77.2981207
  64.5947042  53.1843845  76.3787348  64.1340907  49.8970852  77.1579806
  63.6179956  49.1129308  76.9709735  65.0180855  49.5689568  77.3226325
  61.7951634  43.6411867  73.1175619  61.5976455  43.3326955  74.0018951
  62.4051339  44.3673506  73.2473549  69.8022968  54.1675815  76.2527560
  70.5326357  53.9061103  76.8135263  69.1929914  53.4304537  76.2929628
  67.8838265  52.3083678  76.8502011  67.1571429  52.1739642  76.2418502
  67.4685552  52.6160506  77.6558729  53.5758380  49.5107848  86.6474914
  53.4755107  50.4602205  86.5787005  53.3579922  49.1826087  85.7750984
  60.9304088  45.6321299  70.3750814  60.3502757  46.2906103  69.9928867
  60.6640020  44.8098644  69.9638232  63.0643502  47.8167911  73.1461502
  63.8403892  48.3064363  73.4186119  62.3391636  48.2425965  73.6033371
  65.5016060  48.5295530  74.2035442  66.0960551  48.2891266  73.4928751
  65.5742644  47.8102660  74.8308979  67.8087133  51.8361731  72.9778864
  67.2486691  51.9054920  73.7510426  67.2030636  51.6602715  72.2578360
  57.7350676  56.8029619  86.2663545  58.6041835  56.9770271  85.9050180
  57.2557427  57.6224035  86.1439274  57.5453014  40.5931592  70.7741237
  56.7785409  40.0390079  70.9197919  57.9563719  40.6653461  71.6355389
  49.5494775  46.8816388  84.8646418  50.4126236  46.5253193  85.0749743
  48.9760185  46.5430283  85.5521823  62.1076275  60.2897105  85.8576390
  61.7143221  59.7363303  86.5324034  62.9242416  60.6007683  86.2482907
  65.0244236  61.7054984  83.4496646  65.7653950  62.3062137  83.3701109
  65.2562159  60.9632622  82.8914689  60.1685574  66.8911351  81.7274876
  60.0539090  65.9896608  82.0281975  59.3130092  67.1375048  81.3759693
  66.8495693  61.4878877  80.6743943  66.2023608  62.1868827  80.5808419
  67.6196709  61.9215021  81.0420191  62.6908853  64.8344717  80.7260038
  62.1546210  64.3835455  81.3781635  62.1025562  64.9690626  79.9830503
  60.5771991  62.0075662  79.1508018  60.6413317  62.8690493  78.7385416
  60.5139111  61.3949663  78.4180377  63.1610366  61.2985646  80.9867608
  63.6844768  61.5447943  81.7493917  62.9422700  62.1305681  80.5670745
  65.0179383  59.3248654  77.1244601  65.8405453  58.8509132  77.0023492
  65.2617447  60.1039138  77.6243288  63.2892320  63.4016700  84.4594972
  63.3380476  64.2778823  84.0772742  63.8314835  62.8594093  83.8866616
  73.7747166  73.9457824  83.7396109  72.9842710  73.9281962  83.2000609
  73.5380521  74.4846117  84.4945146  73.8945041  70.7950290  81.0528838
  73.9443046  70.6300297  81.9944361  73.7858964  69.9277549  80.6626719
  75.3963238  73.2147231  81.2970860  75.1048046  73.5777212  82.1334321
  74.7835369  72.5014240  81.1184192  64.4152134  64.8399765  86.6474914
  64.3148861  65.7894122  86.5787005  64.1973676  64.5118004  85.7750984
  60.3888529  62.2108306  84.8646418  61.2519991  61.8545111  85.0749743
  59.8153940  61.8722201  85.5521823  80.2336906  83.8410162  75.6708819
  80.8715316  83.7216910  74.9672159  80.1157749  84.7891006  75.7296771
  77.0426612  83.7937590  75.6070344  76.7045124  83.6778655  74.7190879
  77.9116381  83.3928755  75.5871350  77.5246395  84.9472442  81.5656550
  77.5135036  84.5525240  80.6937053  77.6867035  84.2138515  82.1590321
  78.4812987  89.3144034  66.9081700  77.8300967  89.8998115  66.5215714
  79.2757350  89.8450229  66.9676737  74.2453656  87.7309554  80.5135734
  73.9543522  88.6355185  80.3982400  74.8810641  87.7726081  81.2279803
  75.1709863  85.1086402  77.1037093  75.7673436  84.8842425  76.3894056
  75.2284835  84.3671148  77.7062541  79.7878175  81.5661616  72.7462027
  80.5741264  81.1481039  72.3952444  80.0516879  82.4707708  72.9143676
  79.9588252  87.0034466  67.4450684  79.3234085  87.0769093  68.1571589
  79.6285658  87.5928065  66.7669763  85.1886602  81.5036849  73.6495006
  85.9211774  80.9336066  73.8832835  84.4325957  81.1158450  74.0901511
  82.7112022  75.2158423  78.1089614  82.3795347  76.0853834  77.8850829
  82.1157635  74.8994707  78.7883645  79.2043542  87.4170969  77.5085527
  78.9044265  88.3196008  77.4001334  78.8594601  87.1503153  78.3606680
  82.6040685  79.9353510  75.1882965  81.6957563  79.8668918  74.8941725
  82.5528281  80.4125454  76.0164790  74.1864321  94.1815290  70.4756495
  74.1088351  95.1323115  70.5544975  73.5825965  93.8361162  71.1331421
  76.6781551  81.3543155  83.1317862  75.9014885  81.9137075  83.1220726
  77.3172114  81.8399938  83.6532732  84.4702332  78.1369948  76.9660838
  83.8276712  78.4302481  76.3200633  83.9657260  78.0222868  77.7714035
  82.1242495  81.8833121  67.6546698  83.0360352  82.1160508  67.4794395
  81.6152142  82.4670165  67.0921776  74.9327923  84.1628608  82.6935829
  75.6742608  84.7013652  82.4170652  74.2264909  84.7894897  82.8507381
  80.4083263  86.3057749  81.2907990  80.8166619  85.8640159  80.5462623
  79.6860525  85.7310376  81.5442183  76.7614333  81.2430356  78.6641547
  77.6075528  81.6669769  78.8076196  76.7012971  80.5863980  79.3580110
  80.7312078  86.8658940  75.0460279  80.1020940  87.0304654  74.3436347
  80.3437740  87.2800549  75.8171243  84.6101310  87.8013377  72.4004643
  83.9252348  88.1812279  71.8501676  84.6945159  88.4108704  73.1336591
  79.9113778  78.9034724  80.3222721  79.6674710  79.6576785  79.7856997
  80.1873709  79.2820072  81.1569968  81.8652241  85.4473336  78.9999986
  82.0769136  86.0905096  78.3234368  81.8181989  84.6135653  78.5321917
  73.6689287  81.3168257  83.4951139  73.0387948  81.9984538  83.7286536
  73.5625375  81.2051338  82.5504277  82.9798069  88.3245292  77.1722344
  83.8015513  87.9225479  76.8905025  82.9760472  88.2213526  78.1238460
  76.7454673  87.8729335  79.3283054  76.8099105  88.3349742  80.1641226
  76.0365597  87.2426700  79.4565364  91.0704062  84.6684040  73.5207315
  90.3167771  84.0991438  73.3651320  91.2051603  84.6346705  74.4677950
  76.4602690  89.5397443  69.1962035  76.3248365  90.3848978  69.6246882
  77.0012503  89.7416720  68.4327968  72.9470030  75.6189023  85.8576390
  72.5536975  75.0655221  86.5324034  73.7636170  75.9299601  86.2482907
  75.8637991  77.0346902  83.4496646  76.6047704  77.6354055  83.3701109
  76.0955914  76.2924539  82.8914689  78.0871167  90.1621009  83.3262377
  77.6435021  89.3757388  83.0083281  78.7488380  90.3500160  82.6606267
  72.8458288  91.6916811  77.8523055  73.3965713  91.5633874  77.0800049
  72.0069764  91.9911700  77.5017948  80.1852405  90.4423809  81.3543778
  80.1670880  91.2632690  80.8624047  81.1072325  90.3177884  81.5793919
  76.6425459  87.9567939  82.1967286  77.1753796  87.1956227  81.9666594
  76.1139540  87.6641590  82.9391441  79.7745437  83.0536616  66.2333363
  79.2592060  83.8241220  66.4721751  79.5022745  82.3801752  66.8566425
  77.3592548  77.8986316  71.2918602  76.5034144  77.5093167  71.1124240
  77.7719499  77.9778277  70.4318387  84.7479711  85.8068970  68.1686537
  83.9709153  85.4680130  67.7241699  85.4271192  85.8121593  67.4941502
  79.5631740  80.9263708  68.0593144  79.2581875  81.2409857  68.9103288
  80.5162182  81.0045128  68.1020477  82.9871018  85.2802952  74.8253145
  82.3294692  85.9702213  74.9133273  83.7911417  85.6699383  75.1687131
  81.7976476  83.6347324  72.8757086  82.3108358  84.2677316  73.3778796
  82.4477700  83.0348520  72.5100446  79.0598851  93.6131649  65.6317758
  78.3860549  93.9163345  66.2402715  79.4464673  94.4160729  65.2823215
  78.2757307  81.1096780  75.1215427  77.3579869  81.3311727  74.9637115
  78.6917451  81.1843090  74.2627134  79.0592355  82.5088195  70.2518107
  79.8064174  83.0209593  69.9425229  79.3283945  82.1872248  71.1122501
  82.5638273  88.6153326  71.0036229  82.1100600  87.7744236  71.0601420
  81.9332239  89.2514724  71.3411009  81.5071192  79.5445312  72.2336896
  80.7693949  79.0322698  72.5647139  81.7597966  79.1045693  71.4220173
  81.0071212  90.4529822  71.9386047  81.2994186  91.0134879  71.2198413
  81.5169832  90.7458383  72.6939206  77.0295093  86.5455480  64.5733140
  76.5914523  85.8291339  64.1138777  77.7705534  86.7731595  64.0118231
  75.9704837  91.2310173  73.0279500  75.9281016  91.4571020  72.0988032
  76.8867536  90.9973548  73.1765302  79.4170471  81.6994241  79.9260130
  79.7719859  81.9265714  80.7854595  80.0642602  82.0312618  79.3037385
  85.1468208  84.8212677  70.6309459  85.0086106  85.0114273  69.7030648
  84.7904427  85.5832060  71.0877510  85.1737587  86.8889204  75.6420730
  85.6074094  86.7964493  76.4903784  85.8869168  86.8646704  75.0040746
  78.9065482  90.4891298  77.1753831  78.9602505  91.0582234  77.9431547
  78.0380264  90.6593183  76.8107868  86.0353137  86.9312905  78.1753616
  86.2289027  87.8358715  78.4212890  85.9353755  86.4720324  79.0092201
  77.6889448  76.8170795  80.6743943  77.0417363  77.5160745  80.5808419
  78.4590463  77.2506939  81.0420191  81.0968246  87.0819647  83.7494496
  80.9453752  86.8530199  82.8324580  81.0872925  88.0390249  83.7625841
  77.8653582  84.6551560  78.7340763  78.7945642  84.8062720  78.5609730
  77.4444612  84.7435581  77.8789409  76.6641914  88.6802224  76.5039300
  76.5253000  88.3121009  77.3765238  75.8756510  89.1949864  76.3323258
  77.2590066  93.7811321  67.8464837  77.4341821  93.3099364  68.6610459
  76.5722854  94.4077087  68.0746097  78.2147129  88.0583827  73.8928138
  77.8796962  88.0184597  74.7885788  77.7151075  87.3928543  73.4198548
  81.1506321  85.4039862  64.1665198  80.5335491  84.6786690  64.0698250
  80.6822809  86.1649222  63.8232272  74.8173674  83.1771417  78.9064399
  75.5273292  82.5364609  78.8651017  74.7742982  83.4284311  79.8290580
  82.8060452  90.1138770  81.8270978  82.7472998  89.4297990  81.1601561
  83.2079971  90.8557760  81.3751604  71.8251151  96.9300684  74.6204697
  72.0647749  97.5619208  75.2983715  70.9820348  96.5788724  74.9070056
  82.8077860  88.0778354  80.0584958  81.9204638  87.7404276  80.1811357
  83.3776411  87.3461385  80.2953723  76.3379013  92.7379806  77.0246201
  76.2649184  93.5434778  77.5365505  75.8956406  92.9371772  76.1994222
  76.1268793  91.9751576  70.5349022  75.3436314  92.5173256  70.6287247
  76.8261538  92.4925556  70.9343264  87.2895200  83.4886571  74.8201519
  87.2785076  84.3711287  74.4495452  86.4212580  83.1358122  74.6256056
  78.7977696  92.6366640  79.1804360  79.5105669  93.2714105  79.1080261
  78.3067725  92.7330506  78.3644361  80.5195223  86.5417893  70.7521651
  79.5851502  86.6619355  70.5826356  80.6971892  85.6390360  70.4881661
  83.9067775  82.3835212  71.2871685  84.3728227  83.2163204  71.2131988
  84.3575275  81.9180194  71.9916944  73.8489610  90.3861084  80.0009930
  74.5499069  91.0197567  80.1539325  73.3784725  90.7275815  79.2405570
  81.9744006  88.7279033  68.2857837  82.2503850  88.6135628  69.1951711
  81.1048505  88.3296518  68.2470010  81.6490896  82.9405691  77.8262481
  80.9962346  83.1881599  77.1714933  82.0271276  82.1269829  77.4924958
  78.6098070  92.9765384  71.9290651  78.7920464  92.1587040  72.3918403
  79.4331056  93.1933077  71.4915541  78.9440235  91.9033569  69.1905699
  79.4728002  91.3926024  68.5775862  79.2068455  91.5876100  70.0551233
  77.6978469  83.6825502  84.3128518  77.0219106  83.5819631  84.9830893
  78.5206103  83.5264716  84.7764515  72.2995983  92.9548686  71.9503475
  71.6306359  93.4394814  71.4667515  72.1608853  93.2017907  72.8646854
  76.4401252  94.9892430  78.5486134  76.9919560  95.1524051  79.3135219
  76.7807445  95.5796867  77.8766159  81.2912126  89.8153687  84.4034788
  81.8352030  90.4283645  83.9089743  80.7098971  90.3733266  84.9201801
  79.5769639  92.9374405  75.5349816  79.4520779  92.1364145  75.0260761
  80.2348730  93.4320598  75.0463786  81.6404548  90.7383425  77.1629366
  80.6934883  90.6188776  77.0907693  81.9887321  89.8505923  77.2455627
  74.0004121  76.6277564  80.9867608  74.5238523  76.8739861  81.7493917
  73.7816454  77.4597599  80.5670745  78.6450981  90.5336141  73.3633718
  78.4975943  89.6052849  73.5441288  79.4704474  90.5556232  72.8790794
  82.2485103  91.3564700  74.4498591  83.1731650  91.1507561  74.3123042
  82.0800406  91.1081101  75.3587933  75.2056666  77.5691259  78.6717278
  74.8653486  76.7699072  79.0737958  74.4995672  77.8692970  78.0994112
  78.6412495  78.3873979  68.3565836  78.8576110  79.2698617  68.0554664
  78.1606562  77.9960192  67.6271477  75.2408099  78.3362240  74.9817470
  75.2269668  77.4403334  74.6449768  75.9580528  78.3432904  75.6155756
  77.0934230  78.7699580  77.0270597  76.8352008  79.6916651  77.0254928
  76.5619270  78.3730015  77.7171061  82.0380419  91.8750368  69.8060682
  82.2117296  91.3096790  69.0534535  82.5309310  92.6751262  69.6240172
  87.8919810  84.6386791  71.4250982  88.3350956  83.8894116  71.0270105
  87.0146320  84.6296927  71.0424714  83.0255591  91.1917132  66.9057581
  83.7206496  91.8123825  67.1244895  83.3678742  90.3412483  67.1809959
  84.9247014  88.6416838  68.4344912  85.4498339  88.9804110  67.7094232
  84.8369367  87.7063853  68.2508046  76.5867063  92.5550911  80.5634788
  76.8954190  92.3100058  81.4357488  77.3842545  92.7597550  80.0753658
  76.6087675  94.7088821  72.7940165  76.1692666  94.2165200  73.4873021
  77.3595792  94.1661788  72.5532240  74.0561547  90.2526830  74.8662466
  73.4341557  89.5897535  74.5664694  74.7266414  90.2787962  74.1836114
  74.1286075  78.7308618  84.4594972  74.1774230  79.6070741  84.0772742
  74.6708589  78.1886011  83.8866616  84.6140921  89.2749741  83.7396109
  83.8236464  89.2573880  83.2000609  84.3774275  89.8138035  84.4945146
  84.7338796  86.1242208  81.0528838  84.7836801  85.9592215  81.9944361
  84.6252719  85.2569467  80.6626719  82.0242558  82.1073136  82.3688145
  82.9252421  81.9679600  82.0772143  82.0990533  82.2727590  83.3086322
  76.3585363  79.4839990  81.2141331  75.4888673  79.7773556  80.9423920
  76.5944844  80.0680435  81.9348595  86.2356992  88.5439149  81.2970860
  85.9441801  88.9069130  82.1334321  85.6229124  87.8306157  81.1184192
  87.4352675  86.1092029  73.8173430  88.2699566  86.5481833  73.9810990
  87.5711804  85.6330682  72.9981676  84.4844181  83.6671764  79.7650918
  84.9598302  83.8599410  78.9569769  83.5609746  83.7230950  79.5194301
  79.0624397  75.7019607  78.7306751  79.5806341  76.4380634  78.4053240
  78.7079530  76.0083601  79.5653511  77.1170460  91.2978884  65.8132674
  76.5444427  91.9169071  65.3603146  77.6903253  91.8478245  66.3472596
  83.1845850  80.5437524  77.9979223  84.1363273  80.6435621  78.0191447
  83.0149300  79.7515792  78.5077308  81.2060229  77.6293107  78.1838624
  80.6110161  77.9098120  77.4885113  80.9209926  78.1187008  78.9555365
  80.3367720  91.5816034  66.9441257  81.2698393  91.5161596  67.1474132
  80.2490932  92.4172301  66.4855789  82.9655736  90.8981904  63.9045204
  82.8869368  90.5641768  64.7980962  83.7865403  91.3903672  63.9036677
  85.6633927  83.7643643  77.1121523  85.6310248  82.8259644  77.2981207
  86.2734551  83.8427680  76.3787348  85.8128416  80.5554687  77.1579806
  85.2967465  79.7713144  76.9709735  86.6968364  80.2273404  77.3226325
  83.4739143  74.2995702  73.1175619  83.2763964  73.9910791  74.0018951
  84.0838848  75.0257341  73.2473549  91.4810477  84.8259650  76.2527560
  92.2113866  84.5644938  76.8135263  90.8717423  84.0888372  76.2929628
  89.5625774  82.9667513  76.8502011  88.8358938  82.8323478  76.2418502
  89.1473061  83.2744342  77.6558729  77.3855951  86.6857443  84.6149384
  78.3058960  86.8636042  84.8089430  77.3505534  85.7413488  84.4629083
  77.3022241  75.1026563  69.2447853  76.4922970  74.7573648  69.6203099
  77.9906658  74.7934106  69.8335465  75.2545889  80.1691683  86.6474914
  75.1542616  81.1186040  86.5787005  75.0367431  79.8409922  85.7750984
  82.6091597  76.2905135  70.3750814  82.0290266  76.9489939  69.9928867
  82.3427529  75.4682479  69.9638232  75.1177159  83.5988822  85.4639976
  74.6344240  84.3989182  85.6703865  75.2038098  83.6096767  84.5107420
  81.3916475  78.4505225  69.4307163  80.5042330  78.7354876  69.2127357
  81.8070464  78.2898988  68.5834439  84.7431011  78.4751746  73.1461502
  85.5191401  78.9648198  73.4186119  84.0179145  78.9009800  73.6033371
  87.1803569  79.1879365  74.2035442  87.7748060  78.9475101  73.4928751
  87.2530153  78.4686496  74.8308979  69.4000725  93.0312976  74.5178607
  69.2655193  92.2713377  73.9516605  68.9832787  93.7553876  74.0507396
  80.5359688  88.2149900  63.5255183  81.2395538  88.4199902  64.1412838
  79.8122337  88.7826661  63.7904266  81.3657498  83.9659761  69.6457453
  81.3092700  84.4228312  68.8065085  81.9185841  83.2050445  69.4680295
  85.1762304  79.7549493  70.4707572  84.9199238  79.3546128  71.3015780
  84.5515172  80.4693287  70.3457711  89.4874642  82.4945566  72.9778864
  88.9274200  82.5638755  73.7510426  88.8818145  82.3186551  72.2578360
  72.5569851  93.9282293  74.7297050  72.4402235  94.8727726  74.6275740
  71.7362297  93.6255855  75.1182849  82.4446385  88.6532429  65.5753643
  83.2791989  88.2213627  65.3931117  82.2830728  88.4814442  66.5030537
  82.0992278  85.1564542  66.9409982  82.0441081  84.9908814  65.9998426
  81.4738333  85.8640575  67.0972172  79.4138185  87.4613454  86.2663545
  80.2829344  87.6354106  85.9050180  78.9344936  88.2807871  86.1439274
  73.5824365  94.5810555  77.9452978  74.4851612  94.6134165  78.2619473
  73.3561735  93.6511006  77.9599314  75.3377967  93.3341541  74.6063057
  74.3873598  93.3343403  74.4927429  75.6410453  92.5874276  74.0899092
  91.0730661  99.1702080  75.6708819  91.7109071  99.0508827  74.9672159
  90.9551503 100.1182924  75.7296771  87.8820367  99.1229508  75.6070344
  87.5438878  99.0070573  74.7190879  88.7510135  98.7220673  75.5871350
  83.7407183 100.9764984  71.5967235  83.1772048 100.8854921  70.8283523
  83.6259578 100.1564889  72.0769727  88.3640150 100.2764360  81.5656550
  88.3528791  99.8817158  80.6937053  88.5260789  99.5430432  82.1590321
  81.2871614 102.4716176  74.4351455  82.0792906 102.1307001  74.0197755
  81.5268265 102.5811151  75.3553609  89.3206741 104.6435952  66.9081700
  88.6694721 105.2290033  66.5215714  90.1151104 105.1742147  66.9676737
  83.2462368 101.7325089  67.3068834  84.0193244 101.1854076  67.1681710
  83.5987767 102.5969339  67.5183296  85.0847411 103.0601472  80.5135734
  84.7937277 103.9647102  80.3982400  85.7204395 103.1017999  81.2279803
  86.0103618 100.4378320  77.1037093  86.6067190 100.2134342  76.3894056
  86.0678589  99.6963066  77.7062541  85.5828646  97.8917755  64.9387284
  85.8354167  97.3699277  64.1770747  84.6453205  97.7283901  65.0413968
  90.6271929  96.8953534  72.7462027  91.4135018  96.4772957  72.3952444
  90.8910633  97.7999626  72.9143676  90.7982006 102.3326384  67.4450684
  90.1627839 102.4061011  68.1571589  90.4679413 102.9219983  66.7669763
  96.0280356  96.8328767  73.6495006  96.7605528  96.2627984  73.8832835
  95.2719712  96.4450367  74.0901511  85.3024935  99.7945861  67.1411659
  85.1861193  99.1190765  67.8092743  85.4127195  99.3078235  66.3243812
  87.6456476  99.2556008  70.8458348  87.2814683  98.7286629  71.5571270
  88.5023592  98.8654477  70.6724834  93.5505777  90.5450341  78.1089614
  93.2189101  91.4145752  77.8850829  92.9551390  90.2286625  78.7883645
  87.2861963  94.2845908  65.8419697  87.4536365  95.1526145  66.2090168
  87.0959132  94.4473190  64.9180986  90.0437296 102.7462887  77.5085527
  89.7438019 103.6487926  77.4001334  89.6988356 102.4795070  78.3606680
  83.4949778  99.1976684  73.5422232  82.5700274  99.0652898  73.7499923
  83.7434191  99.9770903  74.0392174  93.4434440  95.2645427  75.1882965
  92.5351317  95.1960836  74.8941725  93.3922036  95.7417372  76.0164790
  87.2651184  96.7403566  66.8266364  87.1450809  97.1860616  67.6651844
  86.5703772  97.0888883  66.2679902  80.8558589  98.8409957  74.3766021
  80.9850970  99.0944436  75.2905432  80.1756040  99.4337665  74.0570676
  85.0258076 109.5107207  70.4756495  84.9482106 110.4615032  70.5544975
  84.4219719 109.1653080  71.1331421  87.5175306  96.6835073  83.1317862
  86.7408640  97.2428993  83.1220726  88.1565869  97.1691856  83.6532732
  95.3096086  93.4661866  76.9660838  94.6670466  93.7594399  76.3200633
  94.8051015  93.3514786  77.7714035  92.9636250  97.2125039  67.6546698
  93.8754106  97.4452426  67.4794395  92.4545897  97.7962083  67.0921776
  85.7721678  99.4920526  82.6935829  86.5136362 100.0305570  82.4170652
  85.0658663 100.1186815  82.8507381  91.2477018 101.6349667  81.2907990
  91.6560374 101.1932077  80.5462623  90.5254279 101.0602294  81.5442183
  87.6008088  96.5722273  78.6641547  88.4469283  96.9961687  78.8076196
  87.5406725  95.9155898  79.3580110  91.5705832 102.1950857  75.0460279
  90.9414695 102.3596571  74.3436347  91.1831494 102.6092467  75.8171243
  95.4495064 103.1305295  72.4004643  94.7646102 103.5104196  71.8501676
  95.5338913 103.7400622  73.1336591  90.7507533  94.2326642  80.3222721
  90.5068465  94.9868702  79.7856997  91.0267463  94.6111989  81.1569968
  92.7045996 100.7765254  78.9999986  92.9162891 101.4197014  78.3234368
  92.6575744  99.9427571  78.5321917  90.3072225  93.3883075  75.9036559
  89.4456704  93.6864328  76.1953296  90.3334659  93.6053474  74.9717591
  87.1233794 101.9325265  72.3110364  87.5872140 102.2112968  71.5214987
  86.8590592 101.0308710  72.1283455  84.0157875 101.4796747  75.2490128
  84.5859232 101.9084015  74.6107612  84.6065987 101.1979332  75.9474313
  86.0602680  98.0548418  69.1199929  86.7626723  98.5069461  69.5873856
  85.7283309  97.4132237  69.7479823  84.5083042  96.6460174  83.4951139
  83.8781702  97.3276455  83.7286536  84.4019130  96.5343256  82.5504277
  79.8028014  96.3131970  74.4217063  79.0127068  96.5689499  73.9457174
  80.2939261  97.1280308  74.5269104  93.8191824 103.6537210  77.1722344
  94.6409267 103.2517397  76.8905025  93.8154227 103.5505444  78.1238460
  81.7542759  96.6776550  71.3800540  80.9573923  96.7895244  71.8984035
  81.5268352  97.0163202  70.5141430  87.5848427 103.2021253  79.3283054
  87.6492860 103.6641660  80.1641226  86.8759351 102.5718618  79.4565364
  78.0865717  96.5662461  76.8532054  78.3373756  97.4509471  77.1189630
  78.6225265  96.3867062  76.0807146 101.9097817  99.9975958  73.5207315
 101.1561525  99.4283356  73.3651320 102.0445358  99.9638623  74.4677950
  87.2996445 104.8689360  69.1962035  87.1642120 105.7140896  69.6246882
  87.8406257 105.0708638  68.4327968  83.7863784  90.9480940  85.8576390
  83.3930730  90.3947139  86.5324034  84.6029925  91.2591519  86.2482907
  80.7525842 102.3864798  69.7689960  81.2650363 103.1808049  69.9195524
  81.4048555 101.6891089  69.7023561  82.5620727 105.5030555  71.8512713
  82.7387355 106.4248519  71.6633697  83.3577560 105.1888974  72.2807093
  86.7031745  92.3638819  83.4496646  87.4441459  92.9645972  83.3701109
  86.9349668  91.6216457  82.8914689  81.8473083  97.5495187  81.7274876
  81.7326599  96.6480444  82.0281975  80.9917601  97.7958883  81.3759693
  88.9264921 105.4912927  83.3262377  88.4828775 104.7049305  83.0083281
  89.5882135 105.6792077  82.6606267  83.6852042 107.0208728  77.8523055
  84.2359467 106.8925792  77.0800049  82.8463518 107.3203617  77.5017948
  91.0246159 105.7715727  81.3543778  91.0064635 106.5924608  80.8624047
  91.9466079 105.6469802  81.5793919  87.4819213 103.2859856  82.1967286
  88.0147550 102.5248144  81.9666594  86.9533294 102.9933508  82.9391441
  90.6488908  88.3919922  77.7260928  90.3053178  89.2821564  77.6500039
  91.0167871  88.2021580  76.8630513  78.7174759 100.7153453  70.5449530
  79.5549981 101.1250461  70.3283238  78.8953027  99.7752895  70.5149724
  90.6139191  98.3828533  66.2333363  90.0985814  99.1533138  66.4721751
  90.3416500  97.7093669  66.8566425  88.1986302  93.2278234  71.2918602
  87.3427898  92.8385084  71.1124240  88.6113254  93.3070195  70.4318387
  89.7285449  90.7624577  75.6910161  89.2250244  90.7254713  74.8777967
  90.0216056  91.6717320  75.7506818  85.9728335  90.8463307  74.6976343
  86.8381331  90.6506116  74.3382233  86.0405844  90.6173659  75.6245700
  95.5873465 101.1360888  68.1686537  94.8102908 100.7972047  67.7241699
  96.2664946 101.1413511  67.4941502  90.4025494  96.2555625  68.0593144
  90.0975630  96.5701775  68.9103288  91.3555936  96.3337045  68.1020477
  88.8471926 102.4145849  69.7086098  88.3193288 101.6798608  69.3959336
  88.3459429 103.1920525  69.4626067  93.8264772 100.6094869  74.8253145
  93.1688447 101.2994131  74.9133273  94.6305171 100.9991301  75.1687131
  83.5790654  93.0765515  72.0692710  84.1534406  92.8540697  71.3365903
  84.1661636  93.1454210  72.8221311  92.6370231  98.9639242  72.8757086
  93.1502113  99.5969234  73.3778796  93.2871455  98.3640437  72.5100446
  83.9060241  95.1069976  66.0888595  83.0697553  95.4444663  66.4097870
  83.7665010  94.9718956  65.1515732  85.8813321  89.9506764  70.7967779
  85.2277734  89.6355781  70.1724394  85.8393796  89.3282504  71.5227602
  86.9924526 100.2326059  62.7121071  86.0851588 100.0015312  62.9112220
  87.4895558  99.4363678  62.8995053  89.8992605 108.9423566  65.6317758
  89.2254304 109.2455263  66.2402715  90.2858427 109.7452647  65.2823215
  89.1151062  96.4388697  75.1215427  88.1973623  96.6603644  74.9637115
  89.5311205  96.5135008  74.2627134  89.8986110  97.8380113  70.2518107
  90.6457928  98.3501510  69.9425229  90.1677699  97.5164166  71.1122501
  88.1712760 100.3338654  67.2345061  87.2623979 100.0497687  67.3317531
  88.2007843 100.7537732  66.3748368  93.4032027 103.9445243  71.0036229
  92.9494354 103.1036153  71.0601420  92.7725994 104.5806642  71.3411009
  92.3464947  94.8737229  72.2336896  91.6087703  94.3614616  72.5647139
  92.5991720  94.4337611  71.4220173  91.8464966 105.7821740  71.9386047
  92.1387941 106.3426797  71.2198413  92.3563587 106.0750301  72.6939206
  92.4476574  87.6513481  72.8278666  92.7535451  86.7910845  72.5404581
  93.1729179  88.2431102  72.6277660  78.7400930  98.0544168  71.2160264
  78.5425330  97.4613529  70.4911330  78.1847594  97.7496378  71.9336202
  86.7197654  97.9467274  73.3354857  86.7746264  96.9941111  73.2597333
  85.9088856  98.1026714  73.8196155  87.8688847 101.8747398  64.5733140
  87.4308277 101.1583256  64.1138777  88.6099288 102.1023512  64.0118231
  84.6590014  96.5644334  71.0945236  83.8457879  96.8638505  71.5010428
  85.1549008  96.1700023  71.8119718  86.8098592 106.5602091  73.0279500
  86.7674770 106.7862937  72.0988032  87.7261290 106.3265466  73.1765302
  90.2564225  97.0286159  79.9260130  90.6113613  97.2557632  80.7854595
  90.9036357  97.3604535  79.3037385  95.9861962 100.1504595  70.6309459
  95.8479861 100.3406191  69.7030648  95.6298181 100.9123977  71.0877510
  84.1504088  94.1362690  76.7106471  84.7903468  93.9951449  76.0129434
  83.3181619  93.8497203  76.3345073  96.0131342 102.2181122  75.6420730
  96.4467849 102.1256411  76.4903784  96.7262923 102.1938622  75.0040746
  84.9264392 103.4365120  72.8241463  85.7204991 102.9415440  72.6224038
  84.2156085 102.9082983  72.4609169  89.7459237 105.8183216  77.1753831
  89.7996259 106.3874152  77.9431547  88.8774018 105.9885101  76.8107868
  81.2347156  97.5808202  68.9001216  80.3044744  97.5192657  69.1171178
  81.3304628  97.0584155  68.1037857  81.1532705  94.1063015  71.4879457
  81.4139522  95.0208348  71.3788618  81.9749877  93.6387457  71.6376070
  82.6257630  95.5200772  78.6578282  83.2980684  95.3118134  78.0090931
  81.7987417  95.3222858  78.2183514  96.8746891 102.2604822  78.1753616
  97.0682782 103.1650633  78.4212890  96.7747510 101.8012241  79.0092201
  88.5283202  92.1462713  80.6743943  87.8811117  92.8452662  80.5808419
  89.2984218  92.5798857  81.0420191  91.9362000 102.4111565  83.7494496
  91.7847507 102.1822117  82.8324580  91.9266680 103.3682166  83.7625841
  88.7047337  99.9843478  78.7340763  89.6339397 100.1354637  78.5609730
  88.2838367 100.0727499  77.8789409  87.5035668 104.0094142  76.5039300
  87.3646754 103.6412927  77.3765238  86.7150265 104.5241782  76.3323258
  88.0983820 109.1103239  67.8464837  88.2735576 108.6391282  68.6610459
  87.4116608 109.7369005  68.0746097  89.0540883 103.3875745  73.8928138
  88.7190716 103.3476515  74.7885788  88.5544829 102.7220461  73.4198548
  83.0285127  98.7943375  79.4180719  82.8904925  98.0623614  80.0192258
  83.9390051  98.7052275  79.1364907  91.9900075 100.7331779  64.1665198
  91.3729246 100.0078607  64.0698250  91.5216564 101.4941139  63.8232272
  85.6567428  98.5063334  78.9064399  86.3667047  97.8656526  78.8651017
  85.6136736  98.7576229  79.8290580  93.6454207 105.4430688  81.8270978
  93.5866753 104.7589908  81.1601561  94.0473725 106.1849678  81.3751604
  84.3696362  95.4928552  80.7260038  83.8333719  95.0419291  81.3781635
  83.7813071  95.6274461  79.9830503  82.6644906 112.2592601  74.6204697
  82.9041504 112.8911126  75.2983715  81.8214102 111.9080641  74.9070056
  83.7798621  94.9517203  63.2886502  82.9028087  94.8306004  62.9248749
  84.2556374  94.1603282  63.0365391  93.6471614 103.4070271  80.0584958
  92.7598393 103.0696193  80.1811357  94.2170165 102.6753303  80.2953723
  75.3000761  99.7394363  73.3828009  75.9871801  99.4256093  72.7949024
  75.1448890 100.6435728  73.1095260  80.1035483  94.6284560  77.8113033
  80.0193672  94.0210229  77.0763443  79.2818190  95.1193578  77.8122529
  87.1772767 108.0671724  77.0246201  87.1042939 108.8726695  77.5365505
  86.7350161 108.2663690  76.1994222  86.9662547 107.3043494  70.5349022
  86.1830069 107.8465174  70.6287247  87.6655292 107.8217473  70.9343264
  90.2759197  93.1138123  73.1783228  90.7727897  92.3608086  72.8584298
  89.5046179  93.1502440  72.6126437  98.1288955  98.8178489  74.8201519
  98.1178831  99.7003204  74.4495452  97.2606334  98.4650040  74.6256056
  89.6371451 107.9658558  79.1804360  90.3499423 108.6006023  79.1080261
  89.1461480 108.0622424  78.3644361  91.3588978 101.8709811  70.7521651
  90.4245257 101.9911273  70.5826356  91.5365646 100.9682277  70.4881661
  86.8594166  95.2555506  72.9054912  86.4891953  94.7026547  73.5935818
  87.3553258  94.6513640  72.3529912  94.7461529  97.7127130  71.2871685
  95.2121981  98.5455121  71.2131988  95.1969030  97.2472111  71.9916944
  84.6883364 105.7153001  80.0009930  85.3892824 106.3489484  80.1539325
  84.2178479 106.0567733  79.2405570  92.8137760 104.0570951  68.2857837
  93.0897604 103.9427546  69.1951711  91.9442259 103.6588436  68.2470010
  92.7178192  90.0807717  75.3262587  91.8041272  90.3111944  75.4944794
  93.1471293  90.1646161  76.1776619  92.4884650  98.2697609  77.8262481
  91.8356101  98.5173516  77.1714933  92.8665030  97.4561747  77.4924958
  89.4491824 108.3057302  71.9290651  89.6314219 107.4878958  72.3918403
  90.2724810 108.5224994  71.4915541  89.7833990 107.2325487  69.1905699
  90.3121756 106.7217942  68.5775862  90.0462209 106.9168017  70.0551233
  88.5372223  99.0117420  84.3128518  87.8612860  98.9111549  84.9830893
  89.3599857  98.8556634  84.7764515  80.2851083 105.2489356  76.9341033
  80.8704519 104.5033044  77.0668937  80.0875921 105.5593313  77.8177697
  83.1389738 108.2840604  71.9503475  82.4700113 108.7686731  71.4667515
  83.0002607 108.5309824  72.8646854  74.8768737  97.8194957  75.6545476
  74.9152837  97.2858547  76.4482594  74.3709030  97.2930162  75.0356453
  87.2795006 110.3184347  78.5486134  87.8313314 110.4815969  79.3135219
  87.6201200 110.9088785  77.8766159  82.2559500  92.6659497  79.1508018
  82.3200826  93.5274328  78.7385416  82.1926620  92.0533499  78.4180377
  81.7311772  94.7382630  82.7981053  82.3583811  94.3559707  83.4118577
  80.8739691  94.5196832  83.1636745  92.1305881 105.1445605  84.4034788
  92.6745785 105.7575563  83.9089743  91.5492726 105.7025183  84.9201801
  78.5077315  96.5459059  68.7299408  78.8030756  95.6369737  68.6766461
  77.6065351  96.5246798  68.4080410  90.4163394 108.2666323  75.5349816
  90.2914533 107.4656063  75.0260761  91.0742485 108.7612516  75.0463786
  82.0371562  94.6215055  74.7126956  81.3158148  95.2351023  74.5734429
  82.8264818  95.1572820  74.6343602  92.4798302 106.0675343  77.1629366
  91.5328638 105.9480694  77.0907693  92.8281075 105.1797841  77.2455627
  84.8397875  91.9569482  80.9867608  85.3632277  92.2031778  81.7493917
  84.6210209  92.7889517  80.5670745  80.2365156  94.2273156  68.8538733
  79.9077863  93.3470535  68.6713839  80.5904527  94.1720825  69.7415122
  89.4844735 105.8628059  73.3633718  89.3369698 104.9344767  73.5441288
  90.3098229 105.8848150  72.8790794  83.3506980  94.5146126  69.2214210
  83.6903052  95.0432047  68.4992819  83.7979100  94.8526532  69.9972777
  93.0878857 106.6856618  74.4498591  94.0125405 106.4799479  74.3123042
  92.9194161 106.4373019  75.3587933  86.0450420  92.8983177  78.6717278
  85.7047241  92.0990990  79.0737958  85.3389427  93.1984888  78.0994112
  86.6966892  89.9832489  77.1244601  87.5192962  89.5092968  77.0023492
  86.9404956  90.7622973  77.6243288  85.3375127  93.0120748  67.4207503
  86.0583489  93.3902001  66.9171220  84.7140431  93.7309625  67.5242481
  89.4806250  93.7165897  68.3565836  89.6969864  94.5990535  68.0554664
  89.0000317  93.3252110  67.6271477  84.2205471  96.6751610  74.9336580
  84.0750052  96.9891913  75.8260862  83.7430675  97.2936510  74.3807479
  86.0801854  93.6654158  74.9817470  86.0663423  92.7695251  74.6449768
  86.7974282  93.6724822  75.6155756  87.9327985  94.0991498  77.0270597
  87.6745762  95.0208569  77.0254928  87.4013025  93.7021933  77.7171061
  92.8774173 107.2042285  69.8060682  93.0511051 106.6388708  69.0534535
  93.3703065 108.0043180  69.6240172  78.6951133  99.2156954  77.8724241
  78.1504601  99.9916762  78.0044516  79.5730483  99.5627759  77.7143363
  85.4838750  92.5468538  70.2505040  85.6054661  91.6185184  70.4495927
  85.1940792  92.5607224  69.3383355  88.3529940  90.2323449  73.3871760
  88.3751637  90.2962782  72.4323739  88.7697999  89.3927957  73.5812266
  98.7313565  99.9678708  71.4250982  99.1744711  99.2186033  71.0270105
  97.8540075  99.9588845  71.0424714  93.8649346 106.5209050  66.9057581
  94.5600250 107.1415742  67.1244895  94.2072496 105.6704401  67.1809959
  79.4817155  98.3426851  80.7654398  78.7398891  98.4909486  81.3519029
  79.1609899  98.6035116  79.9021148  95.7640769 103.9708755  68.4344912
  96.2892093 104.3096028  67.7094232  95.6763122 103.0355771  68.2508046
  87.4260818 107.8842829  80.5634788  87.7347944 107.6391976  81.4357488
  88.2236300 108.0889467  80.0753658  87.4481430 110.0380738  72.7940165
  87.0086420 109.5457117  73.4873021  88.1989547 109.4953706  72.5532240
  79.9273769 106.2292279  72.7964793  80.7531789 105.9296051  72.4163436
  79.5767821 105.4599902  73.2454581  84.8955302 105.5818748  74.8662466
  84.2735311 104.9189453  74.5664694  85.5660169 105.6079879  74.1836114
  78.1282374 104.1478606  73.7553726  77.2914282 103.7200780  73.5737728
  78.1006019 104.3411049  74.6924518  84.9679829  94.0600536  84.4594972
  85.0167985  94.9362658  84.0772742  85.5102344  93.5177929  83.8866616
  95.4534675 104.6041659  83.7396109  94.6630219 104.5865798  83.2000609
  95.2168030 105.1429953  84.4945146  95.5732550 101.4534125  81.0528838
  95.6230555 101.2884133  81.9944361  95.4646473 100.5861384  80.6626719
  84.4568809 104.1322671  68.3420927  84.6056929 104.8158135  67.6887600
  85.2635252 104.1127761  68.8570383  92.8636312  97.4365053  82.3688145
  93.7646175  97.2971518  82.0772143  92.9384287  97.6019508  83.3086322
  87.1979118  94.8131908  81.2141331  86.3282427  95.1065474  80.9423920
  87.4338598  95.3972353  81.9348595  97.0750747 103.8731067  81.2970860
  96.7835555 104.2361047  82.1334321  96.4622878 103.1598075  81.1184192
  98.2746429 101.4383947  73.8173430  99.1093321 101.8773751  73.9810990
  98.4105558 100.9622600  72.9981676  95.3237935  98.9963681  79.7650918
  95.7992057  99.1891328  78.9569769  94.4003501  99.0522867  79.5194301
  82.2121442 100.1587849  69.3481996  81.9667484  99.2550179  69.5462206
  82.3817356 100.1604999  68.4061474  89.9018152  91.0311525  78.7306751
  90.4200096  91.7672552  78.4053240  89.5473284  91.3375518  79.5653511
  81.4817089  95.8916206  66.8468157  80.7886334  95.9660561  66.1908193
  81.2368841  95.1276550  67.3689674  90.1530746  87.4511807  74.2507648
  90.4332500  86.7834997  74.8768075  90.9381353  87.6440903  73.7382312
  87.9564214 106.6270801  65.8132674  87.3838181 107.2460989  65.3603146
  88.5297008 107.1770163  66.3472596  94.0239604  95.8729441  77.9979223
  94.9757027  95.9727539  78.0191447  93.8543055  95.0807710  78.5077308
  92.0453984  92.9585025  78.1838624  91.4503916  93.2390037  77.4885113
  91.7603680  93.4478926  78.9555365  91.1761474 106.9107952  66.9441257
  92.1092147 106.8453513  67.1474132  91.0884687 107.7464218  66.4855789
  93.8049491 106.2273822  63.9045204  93.7263122 105.8933685  64.7980962
  94.6259158 106.7195590  63.9036677  96.5027682  99.0935561  77.1121523
  96.4704002  98.1551562  77.2981207  97.1128306  99.1719598  76.3787348
  88.3411013  97.9631614  63.1548727  89.2870118  97.8337822  63.2237145
  87.9625258  97.2246276  63.6318155  96.6522170  95.8846605  77.1579806
  96.1361219  95.1005061  76.9709735  97.5362119  95.5565321  77.3226325
  94.3132897  89.6287620  73.1175619  94.1157718  89.3202708  74.0018951
  94.9232603  90.3549259  73.2473549 102.3204232 100.1551568  76.2527560
 103.0507620  99.8936856  76.8135263 101.7111177  99.4180290  76.2929628
 100.4019529  98.2959431  76.8502011  99.6752693  98.1615396  76.2418502
  99.9866816  98.6036259  77.6558729  88.2249705 102.0149360  84.6149384
  89.1452715 102.1927959  84.8089430  88.1899288 101.0705406  84.4629083
  86.5253930  95.8881591  63.0903612  85.6185385  95.5914703  63.1666326
  86.8029911  95.5911409  62.2237898  77.4431870  97.2087954  73.5402658
  77.1234655  96.3553262  73.2477032  76.8965299  97.4236532  74.2960626
  81.2211778  99.9250395  77.2572165  81.4397788 100.8567503  77.2760199
  81.6337552  99.5658369  78.0426969  88.1415996  90.4318480  69.2447853
  87.3316724  90.0865565  69.6203099  88.8300413  90.1226024  69.8335465
  90.0706544  89.5096527  70.8672150  90.6237583  89.9291980  71.5262173
  90.3076630  88.5832275  70.9095106  86.0939643  95.4983601  86.6474914
  85.9936370  96.4477958  86.5787005  85.8761185  95.1701840  85.7750984
  85.2952715  92.7468526  63.2315591  86.1571879  93.0723424  63.4911409
  85.4803059  91.9600022  62.7188657  77.3120130 100.8290865  75.5095780
  76.6183602 100.4144818  74.9965734  78.0593121 100.8711402  74.9129199
  93.4485351  91.6197052  70.3750814  92.8684020  92.2781856  69.9928867
  93.1821284  90.7974397  69.9638232  91.8988917  91.0202110  72.5772135
  92.3988696  91.1318644  71.7686453  92.5424525  90.7163163  73.2172943
  85.9570913  98.9280740  85.4639976  85.4737995  99.7281100  85.6703865
  86.0431852  98.9388684  84.5107420  79.2256873 100.7609119  73.3861795
  79.2027561 100.8596806  72.4343678  79.5357509 101.6074270  73.7078961
  81.8844251 102.8185274  77.5008409  82.8387504 102.7869217  77.4338341
  81.6856774 102.3575898  78.3158635  82.4743633 101.3886390  80.0679207
  83.2936522 101.8830469  80.0914044  82.7480441 100.4718358  80.0396775
  92.2310229  93.7797143  69.4307163  91.3436084  94.0646793  69.2127357
  92.6464218  93.6190906  68.5834439  95.5824765  93.8043664  73.1461502
  96.3585155  94.2940116  73.4186119  94.8572899  94.2301718  73.6033371
  98.0197324  94.5171283  74.2035442  98.6141815  94.2767019  73.4928751
  98.0923908  93.7978413  74.8308979  80.2394480 108.3604894  74.5178607
  80.1048947 107.6005295  73.9516605  79.8226542 109.0845794  74.0507396
  91.3753443 103.5441817  63.5255183  92.0789293 103.7491820  64.1412838
  90.6516091 104.1118579  63.7904266  92.2051253  99.2951679  69.6457453
  92.1486454  99.7520230  68.8065085  92.7579595  98.5342363  69.4680295
  96.0156059  95.0841410  70.4707572  95.7592993  94.6838046  71.3015780
  95.3908927  95.7985204  70.3457711 100.3268397  97.8237484  72.9778864
  99.7667955  97.8930673  73.7510426  99.7211900  97.6478468  72.2578360
  83.3963605 109.2574211  74.7297050  83.2795990 110.2019643  74.6275740
  82.5756052 108.9547772  75.1182849  93.2840140 103.9824346  65.5753643
  94.1185744 103.5505545  65.3931117  93.1224483 103.8106360  66.5030537
  92.9386032 100.4856460  66.9409982  92.8834836 100.3200731  65.9998426
  92.3132087 101.1932493  67.0972172  77.7278547  95.7224524  80.7671404
  78.3737411  95.2123478  81.2558629  77.5195698  96.4593206  81.3414829
  90.2531939 102.7905372  86.2663545  91.1223099 102.9646024  85.9050180
  89.7738691 103.6099788  86.1439274  86.2482158  89.9864569  66.5195300
  86.2360827  90.9306409  66.6763571  87.1405579  89.8034714  66.2254761
  84.4218120 109.9102473  77.9452978  85.3245366 109.9426083  78.2619473
  84.1955490 108.9802924  77.9599314  86.1771722 108.6633459  74.6063057
  85.2267353 108.6635321  74.4927429  86.4804208 107.9166194  74.0899092
  90.0634277  86.5807345  70.7741237  89.2966673  86.0265832  70.9197919
  90.4744982  86.6529214  71.6355389  82.0676038  92.8692141  84.8646418
  82.9307500  92.5128946  85.0749743  81.4941449  92.5306036  85.5521823
 101.9124415 114.4993998  75.6708819 102.5502825 114.3800745  74.9672159
 101.7945258 115.4474842  75.7296771  98.7214121 114.4521426  75.6070344
  98.3832633 114.3362490  74.7190879  99.5903890 114.0512591  75.5871350
  94.5800937 116.3056902  71.5967235  94.0165802 116.2146839  70.8283523
  94.4653332 115.4856807  72.0769727  99.2033904 115.6056277  81.5656550
  99.1922545 115.2109076  80.6937053  99.3654544 114.8722350  82.1590321
  92.1265369 117.8008094  74.4351455  92.9186661 117.4598918  74.0197755
  92.3662019 117.9103069  75.3553609  94.0856123 117.0617007  67.3068834
  94.8586999 116.5145994  67.1681710  94.4381522 117.9261256  67.5183296
  95.9241165 118.3893389  80.5135734  95.6331031 119.2939020  80.3982400
  96.5598150 118.4309917  81.2279803  96.8497372 115.7670238  77.1037093
  97.4460945 115.5426260  76.3894056  96.9072344 115.0254983  77.7062541
  96.4222401 113.2209673  64.9387284  96.6747921 112.6991194  64.1770747
  95.4846960 113.0575818  65.0413968 101.4665684 112.2245451  72.7462027
 102.2528773 111.8064875  72.3952444 101.7304388 113.1291544  72.9143676
 106.8674111 112.1620685  73.6495006 107.5999283 111.5919901  73.8832835
 106.1113466 111.7742285  74.0901511  96.1418689 115.1237779  67.1411659
  96.0254948 114.4482682  67.8092743  96.2520949 114.6370153  66.3243812
  98.4850230 114.5847926  70.8458348  98.1208438 114.0578547  71.5571270
  99.3417346 114.1946395  70.6724834 104.3899531 105.8742259  78.1089614
 104.0582856 106.7437670  77.8850829 103.7945144 105.5578543  78.7883645
  98.1255717 109.6137826  65.8419697  98.2930120 110.4818062  66.2090168
  97.9352886 109.7765108  64.9180986  94.3343532 114.5268602  73.5422232
  93.4094028 114.3944816  73.7499923  94.5827945 115.3062821  74.0392174
 104.2828194 110.5937345  75.1882965 103.3745072 110.5252753  74.8941725
 104.2315790 111.0709290  76.0164790  98.1044938 112.0695483  66.8266364
  97.9844563 112.5152534  67.6651844  97.4097527 112.4180801  66.2679902
  91.6952343 114.1701875  74.3766021  91.8244724 114.4236354  75.2905432
  91.0149794 114.7629583  74.0570676  98.3569060 112.0126990  83.1317862
  97.5802394 112.5720911  83.1220726  98.9959623 112.4983773  83.6532732
 106.1489841 108.7953783  76.9660838 105.5064221 109.0886316  76.3200633
 105.6444769 108.6806704  77.7714035 103.8030004 112.5416956  67.6546698
 104.7147861 112.7744343  67.4794395 103.2939651 113.1254001  67.0921776
  96.6115432 114.8212444  82.6935829  97.3530117 115.3597488  82.4170652
  95.9052418 115.4478733  82.8507381 102.0870772 116.9641584  81.2907990
 102.4954128 116.5223995  80.5462623 101.3648034 116.3894212  81.5442183
  98.4401842 111.9014191  78.6641547  99.2863037 112.3253605  78.8076196
  98.3800480 111.2447815  79.3580110 101.5901287 109.5618559  80.3222721
 101.3462219 110.3160620  79.7856997 101.8661218 109.9403907  81.1569968
 101.1465979 108.7174992  75.9036559 100.2850458 109.0156246  76.1953296
 101.1728414 108.9345391  74.9717591  97.9627549 117.2617183  72.3110364
  98.4265894 117.5404886  71.5214987  97.6984347 116.3600628  72.1283455
  94.8551630 116.8088665  75.2490128  95.4252987 117.2375933  74.6107612
  95.4459741 116.5271249  75.9474313  96.8996435 113.3840335  69.1199929
  97.6020478 113.8361379  69.5873856  96.5677063 112.7424154  69.7479823
  95.3476796 111.9752092  83.4951139  94.7175457 112.6568373  83.7286536
  95.2412884 111.8635174  82.5504277  90.6421769 111.6423888  74.4217063
  89.8520823 111.8981417  73.9457174  91.1333016 112.4572226  74.5269104
  92.5936514 112.0068467  71.3800540  91.7967677 112.1187162  71.8984035
  92.3662106 112.3455120  70.5141430  98.4242182 118.5313171  79.3283054
  98.4886614 118.9933578  80.1641226  97.7153105 117.9010535  79.4565364
  88.9259472 111.8954378  76.8532054  89.1767510 112.7801388  77.1189630
  89.4619020 111.7158980  76.0807146  94.6257539 106.2772858  85.8576390
  94.2324484 105.7239056  86.5324034  95.4423679 106.5883436  86.2482907
  91.5919597 117.7156716  69.7689960  92.1044117 118.5099966  69.9195524
  92.2442309 117.0183006  69.7023561  93.4014481 120.8322472  71.8512713
  93.5781110 121.7540437  71.6633697  94.1971315 120.5180892  72.2807093
  97.5425500 107.6930737  83.4496646  98.2835213 108.2937890  83.3701109
  97.7743423 106.9508375  82.8914689  92.6866838 112.8787104  81.7274876
  92.5720353 111.9772361  82.0281975  91.8311356 113.1250801  81.3759693
  94.5245797 122.3500646  77.8523055  95.0753222 122.2217709  77.0800049
  93.6857273 122.6495535  77.5017948  98.3212968 118.6151774  82.1967286
  98.8541305 117.8540062  81.9666594  97.7927049 118.3225426  82.9391441
 101.4882663 103.7211840  77.7260928 101.1446932 104.6113482  77.6500039
 101.8561625 103.5313498  76.8630513  89.5568513 116.0445370  70.5449530
  90.3943735 116.4542379  70.3283238  89.7346781 115.1044813  70.5149724
 101.4532946 113.7120451  66.2333363 100.9379569 114.4825056  66.4721751
 101.1810254 113.0385587  66.8566425  99.0380057 108.5570152  71.2918602
  98.1821653 108.1677002  71.1124240  99.4507008 108.6362113  70.4318387
 100.5679203 106.0916495  75.6910161 100.0643999 106.0546630  74.8777967
 100.8609810 107.0009238  75.7506818  96.8122089 106.1755225  74.6976343
  97.6775086 105.9798033  74.3382233  96.8799598 105.9465577  75.6245700
 101.2419249 111.5847543  68.0593144 100.9369384 111.8993692  68.9103288
 102.1949691 111.6628963  68.1020477  99.6865681 117.7437766  69.7086098
  99.1587042 117.0090526  69.3959336  99.1853183 118.5212443  69.4626067
  94.4184408 108.4057433  72.0692710  94.9928160 108.1832614  71.3365903
  95.0055391 108.4746127  72.8221311 103.4763985 114.2931160  72.8757086
 103.9895867 114.9261151  73.3778796 104.1265209 113.6932355  72.5100446
  94.7453995 110.4361894  66.0888595  93.9091308 110.7736580  66.4097870
  94.6058765 110.3010874  65.1515732  96.7207076 105.2798682  70.7967779
  96.0671488 104.9647699  70.1724394  96.6787550 104.6574422  71.5227602
  97.8318281 115.5617977  62.7121071  96.9245342 115.3307230  62.9112220
  98.3289313 114.7655596  62.8995053  99.9544816 111.7680615  75.1215427
  99.0367378 111.9895562  74.9637115 100.3704960 111.8426926  74.2627134
 100.7379864 113.1672031  70.2518107 101.4851683 113.6793428  69.9425229
 101.0071454 112.8456084  71.1122501  99.0106514 115.6630572  67.2345061
  98.1017733 115.3789604  67.3317531  99.0401598 116.0829650  66.3748368
 103.1858701 110.2029147  72.2336896 102.4481458 109.6906533  72.5647139
 103.4385475 109.7629529  71.4220173 103.2870328 102.9805399  72.8278666
 103.5929205 102.1202763  72.5404581 104.0122933 103.5723019  72.6277660
  89.5794685 113.3836086  71.2160264  89.3819084 112.7905446  70.4911330
  89.0241349 113.0788296  71.9336202  97.5591408 113.2759192  73.3354857
  97.6140018 112.3233029  73.2597333  96.7482610 113.4318631  73.8196155
  98.7082602 117.2039315  64.5733140  98.2702032 116.4875174  64.1138777
  99.4493043 117.4315430  64.0118231  95.4983768 111.8936252  71.0945236
  94.6851634 112.1930422  71.5010428  95.9942762 111.4991941  71.8119718
 101.0957980 112.3578076  79.9260130 101.4507368 112.5849549  80.7854595
 101.7430111 112.6896453  79.3037385  94.9897843 109.4654607  76.7106471
  95.6297222 109.3243367  76.0129434  94.1575373 109.1789121  76.3345073
  95.7658147 118.7657038  72.8241463  96.5598745 118.2707358  72.6224038
  95.0549839 118.2374901  72.4609169  92.0740910 112.9100120  68.9001216
  91.1438498 112.8484575  69.1171178  92.1698382 112.3876072  68.1037857
  91.9926459 109.4354932  71.4879457  92.2533277 110.3500266  71.3788618
  92.8143632 108.9679375  71.6376070  93.4651385 110.8492690  78.6578282
  94.1374438 110.6410052  78.0090931  92.6381171 110.6514776  78.2183514
  99.3676957 107.4754630  80.6743943  98.7204872 108.1744580  80.5808419
 100.1377972 107.9090774  81.0420191  99.5441091 115.3135395  78.7340763
 100.4733151 115.4646555  78.5609730  99.1232121 115.4019416  77.8789409
  98.3429423 119.3386060  76.5039300  98.2040508 118.9704844  77.3765238
  97.5544019 119.8533699  76.3323258  99.8934638 118.7167663  73.8928138
  99.5584471 118.6768432  74.7885788  99.3938584 118.0512378  73.4198548
  93.8678882 114.1235293  79.4180719  93.7298680 113.3915531  80.0192258
  94.7783805 114.0344193  79.1364907 102.8293830 116.0623697  64.1665198
 102.2123000 115.3370525  64.0698250 102.3610318 116.8233057  63.8232272
  96.4961183 113.8355252  78.9064399  97.2060801 113.1948444  78.8651017
  96.4530491 114.0868147  79.8290580  95.2090117 110.8220470  80.7260038
  94.6727474 110.3711208  81.3781635  94.6206825 110.9566379  79.9830503
  94.6192376 110.2809121  63.2886502  93.7421842 110.1597922  62.9248749
  95.0950129 109.4895199  63.0365391  86.1394516 115.0686281  73.3828009
  86.8265555 114.7548011  72.7949024  85.9842644 115.9727646  73.1095260
  90.9429238 109.9576477  77.8113033  90.8587427 109.3502147  77.0763443
  90.1211944 110.4485496  77.8122529 101.1152952 108.4430041  73.1783228
 101.6121651 107.6900003  72.8584298 100.3439933 108.4794358  72.6126437
 102.1982732 117.2001728  70.7521651 101.2639011 117.3203191  70.5826356
 102.3759401 116.2974195  70.4881661  97.6987920 110.5847424  72.9054912
  97.3285708 110.0318464  73.5935818  98.1947013 109.9805557  72.3529912
 105.5855284 113.0419047  71.2871685 106.0515736 113.8747039  71.2131988
 106.0362784 112.5764029  71.9916944  95.5277119 121.0444919  80.0009930
  96.2286578 121.6781402  80.1539325  95.0572234 121.3859651  79.2405570
 103.5571946 105.4099634  75.3262587 102.6435026 105.6403861  75.4944794
 103.9865048 105.4938079  76.1776619 103.3278405 113.5989526  77.8262481
 102.6749855 113.8465434  77.1714933 103.7058785 112.7853665  77.4924958
  99.3765978 114.3409337  84.3128518  98.7006615 114.2403467  84.9830893
 100.1993612 114.1848551  84.7764515  91.1244837 120.5781274  76.9341033
  91.7098274 119.8324962  77.0668937  90.9269675 120.8885231  77.8177697
  85.7162492 113.1486874  75.6545476  85.7546591 112.6150465  76.4482594
  85.2102785 112.6222080  75.0356453  93.0953254 107.9951415  79.1508018
  93.1594581 108.8566246  78.7385416  93.0320374 107.3825416  78.4180377
  92.5705527 110.0674547  82.7981053  93.1977565 109.6851625  83.4118577
  91.7133445 109.8488749  83.1636745  89.3471069 111.8750976  68.7299408
  89.6424510 110.9661655  68.6766461  88.4459105 111.8538716  68.4080410
  92.8765316 109.9506973  74.7126956  92.1551902 110.5642941  74.5734429
  93.6658572 110.4864738  74.6343602  95.6791630 107.2861399  80.9867608
  96.2026032 107.5323696  81.7493917  95.4603963 108.1181434  80.5670745
  91.0758911 109.5565074  68.8538733  90.7471617 108.6762453  68.6713839
  91.4298282 109.5012743  69.7415122  94.1900734 109.8438044  69.2214210
  94.5296807 110.3723965  68.4992819  94.6372855 110.1818450  69.9972777
  96.8844175 108.2275095  78.6717278  96.5440995 107.4282908  79.0737958
  96.1783181 108.5276805  78.0994112  97.5360647 105.3124407  77.1244601
  98.3586716 104.8384885  77.0023492  97.7798710 106.0914891  77.6243288
  96.1768881 108.3412665  67.4207503  96.8977244 108.7193918  66.9171220
  95.5534185 109.0601542  67.5242481 100.3200004 109.0457814  68.3565836
 100.5363619 109.9282452  68.0554664  99.8394071 108.6544028  67.6271477
  95.0599226 112.0043528  74.9336580  94.9143806 112.3183831  75.8260862
  94.5824429 112.6228428  74.3807479  96.9195608 108.9946076  74.9817470
  96.9057177 108.0987169  74.6449768  97.6368036 109.0016739  75.6155756
  98.7721739 109.4283416  77.0270597  98.5139517 110.3500486  77.0254928
  98.2406779 109.0313850  77.7171061  89.5344888 114.5448872  77.8724241
  88.9898356 115.3208680  78.0044516  90.4124238 114.8919677  77.7143363
  96.3232504 107.8760456  70.2505040  96.4448416 106.9477102  70.4495927
  96.0334547 107.8899142  69.3383355  99.1923695 105.5615366  73.3871760
  99.2145392 105.6254699  72.4323739  99.6091754 104.7219875  73.5812266
  90.3210910 113.6718768  80.7654398  89.5792646 113.8201404  81.3519029
  90.0003654 113.9327034  79.9021148  90.7667523 121.5584197  72.7964793
  91.5925543 121.2587969  72.4163436  90.4161575 120.7891819  73.2454581
  95.7349056 120.9110665  74.8662466  95.1129066 120.2481370  74.5664694
  96.4053923 120.9371797  74.1836114  88.9676128 119.4770523  73.7553726
  88.1308037 119.0492698  73.5737728  88.9399774 119.6702967  74.6924518
  95.8073584 109.3892453  84.4594972  95.8561739 110.2654576  84.0772742
  96.3496098 108.8469846  83.8866616  95.2962563 119.4614589  68.3420927
  95.4450684 120.1450053  67.6887600  96.1029007 119.4419679  68.8570383
 103.7030067 112.7656971  82.3688145 104.6039930 112.6263436  82.0772143
 103.7778041 112.9311426  83.3086322  98.0372872 110.1423826  81.2141331
  97.1676182 110.4357392  80.9423920  98.2732353 110.7264271  81.9348595
  93.0515196 115.4879766  69.3481996  92.8061238 114.5842096  69.5462206
  93.2211111 115.4896917  68.4061474 100.7411906 106.3603443  78.7306751
 101.2593850 107.0964470  78.4053240 100.3867039 106.6667436  79.5653511
  92.3210844 111.2208124  66.8468157  91.6280089 111.2952479  66.1908193
  92.0762596 110.4568467  67.3689674 100.9924500 102.7803725  74.2507648
 101.2726254 102.1126914  74.8768075 101.7775107 102.9732821  73.7382312
 104.8633359 111.2021359  77.9979223 105.8150782 111.3019457  78.0191447
 104.6936809 110.4099628  78.5077308 102.8847738 108.2876942  78.1838624
 102.2897670 108.5681955  77.4885113 102.5997435 108.7770843  78.9555365
  99.1804767 113.2923532  63.1548727 100.1263872 113.1629740  63.2237145
  98.8019012 112.5538194  63.6318155 107.4915925 111.2138522  77.1579806
 106.9754974 110.4296979  76.9709735 108.3755873 110.8857239  77.3226325
 105.1526652 104.9579538  73.1175619 104.9551473 104.6494626  74.0018951
 105.7626357 105.6841177  73.2473549  99.0643460 117.3441278  84.6149384
  99.9846469 117.5219877  84.8089430  99.0293043 116.3997323  84.4629083
  97.3647684 111.2173508  63.0903612  96.4579140 110.9206621  63.1666326
  97.6423665 110.9203326  62.2237898  88.2825625 112.5379872  73.5402658
  87.9628409 111.6845180  73.2477032  87.7359053 112.7528450  74.2960626
  92.0605532 115.2542313  77.2572165  92.2791542 116.1859420  77.2760199
  92.4731306 114.8950287  78.0426969  98.9809750 105.7610398  69.2447853
  98.1710478 105.4157483  69.6203099  99.6694167 105.4517942  69.8335465
 100.9100298 104.8388445  70.8672150 101.4631337 105.2583898  71.5262173
 101.1470385 103.9124193  70.9095106  96.9333398 110.8275518  86.6474914
  96.8330125 111.7769875  86.5787005  96.7154940 110.4993757  85.7750984
  96.1346469 108.0760443  63.2315591  96.9965633 108.4015342  63.4911409
  96.3196813 107.2891939  62.7188657  88.1513885 116.1582783  75.5095780
  87.4577356 115.7436736  74.9965734  88.8986876 116.2003320  74.9129199
 104.2879106 106.9488970  70.3750814 103.7077775 107.6073774  69.9928867
 104.0215038 106.1266314  69.9638232 102.7382672 106.3494028  72.5772135
 103.2382450 106.4610562  71.7686453 103.3818280 106.0455080  73.2172943
  96.7964668 114.2572657  85.4639976  96.3131749 115.0573017  85.6703865
  96.8825607 114.2680602  84.5107420  90.0650627 116.0901037  73.3861795
  90.0421315 116.1888724  72.4343678  90.3751264 116.9366188  73.7078961
  92.7238005 118.1477192  77.5008409  93.6781259 118.1161134  77.4338341
  92.5250529 117.6867816  78.3158635  93.3137387 116.7178308  80.0679207
  94.1330276 117.2122387  80.0914044  93.5874195 115.8010276  80.0396775
 103.0703984 109.1089060  69.4307163 102.1829839 109.3938711  69.2127357
 103.4857973 108.9482824  68.5834439 106.4218520 109.1335581  73.1461502
 107.1978910 109.6232034  73.4186119 105.6966654 109.5593635  73.6033371
 108.8591078 109.8463200  74.2035442 109.4535569 109.6058936  73.4928751
 108.9317662 109.1270331  74.8308979  91.0788234 123.6896811  74.5178607
  90.9442702 122.9297212  73.9516605  90.6620296 124.4137711  74.0507396
 103.0445007 114.6243596  69.6457453 102.9880209 115.0812148  68.8065085
 103.5973350 113.8634281  69.4680295 106.8549813 110.4133328  70.4707572
 106.5986747 110.0129964  71.3015780 106.2302681 111.1277122  70.3457711
 103.7779787 115.8148377  66.9409982 103.7228590 115.6492649  65.9998426
 103.1525842 116.5224410  67.0972172  88.5672302 111.0516442  80.7671404
  89.2131165 110.5415396  81.2558629  88.3589453 111.7885123  81.3414829
  97.0875912 105.3156486  66.5195300  97.0754582 106.2598326  66.6763571
  97.9799334 105.1326632  66.2254761 100.9028032 101.9099263  70.7741237
 100.1360427 101.3557750  70.9197919 101.3138737 101.9821132  71.6355389
  92.9069793 108.1984059  84.8646418  93.7701254 107.8420864  85.0749743
  92.3335203 107.8597954  85.5521823  36.8761889  -0.4695386  62.3954126
  37.5140299  -0.5888639  61.6917466  36.7582732   0.4785458  62.4542078
  33.6851596  -0.5167958  62.3315651  33.3470107  -0.6326893  61.4436186
  34.5541364  -0.9176793  62.3116657  29.5438411   1.3367519  58.3212542
  28.9803276   1.2457456  57.5528829  29.4290806   0.5167423  58.8015034
  34.1671379   0.6366894  68.2901856  34.1560019   0.2419692  67.4182360
  34.3292018  -0.0967033  68.8835628  27.0902843   2.8318710  61.1596762
  27.8824135   2.4909535  60.7443061  27.3299493   2.9413685  62.0798915
  35.1237970   5.0038486  53.6327007  34.4725950   5.5892567  53.2461020
  35.9182333   5.5344681  53.6922044  29.0493597   2.0927623  54.0314141
  29.8224473   1.5456611  53.8927017  29.4018996   2.9571873  54.2428602
  30.8878640   3.4204006  67.2381040  30.5968506   4.3249637  67.1227706
  31.5235624   3.4620533  67.9525110  31.8134847   0.7980854  63.8282400
  32.4098419   0.5736877  63.1139363  31.8709818   0.0565600  64.4307848
  31.3859875  -1.7479710  51.6632591  31.6385396  -2.2698189  50.9016054
  30.4484434  -1.9113565  51.7659274  36.4303158  -2.7443932  59.4707334
  37.2166247  -3.1624509  59.1197751  36.6941862  -1.8397840  59.6388982
  36.6013235   2.6928918  54.1695991  35.9659068   2.7663545  54.8816895
  36.2710642   3.2822517  53.4915070  41.8311585  -2.8068699  60.3740313
  42.5636757  -3.3769482  60.6078142  41.0750941  -3.1947098  60.8146818
  31.1056164   0.1548396  53.8656966  30.9892422  -0.5206701  54.5338050
  31.2158424  -0.3319231  53.0489119  33.4487705  -0.3841457  57.5703655
  33.0845912  -0.9110836  58.2816576  34.3054821  -0.7742988  57.3970140
  35.8468525   3.1065421  64.2330834  35.5469248   4.0090460  64.1246641
  35.5019584   2.8397604  65.0851987  29.2981006  -0.4420782  60.2667538
  28.3731503  -0.5744568  60.4745230  29.5465420   0.3373437  60.7637481
  39.2465669  -4.3752039  61.9128271  38.3382546  -4.4436630  61.6187032
  39.1953264  -3.8980094  62.7410097  33.0682413  -2.8993900  53.5511670
  32.9482038  -2.4536849  54.3897151  32.3735001  -2.5508582  52.9925208
  30.8289305   9.8709742  57.2001802  30.7513334  10.8217567  57.2790282
  30.2250948   9.5255614  57.8576728  33.3206534  -2.9562393  69.8563168
  32.5439868  -2.3968473  69.8466033  33.9597097  -2.4705610  70.3778039
  41.1127315  -6.1735600  63.6906145  40.4701695  -5.8803067  63.0445940
  40.6082244  -6.2882680  64.4959342  38.7667479  -2.4272427  54.3792004
  39.6785335  -2.1945040  54.2039702  38.2577126  -1.8435383  53.8167083
  31.5752907  -0.1476940  69.4181135  32.3167591   0.3908104  69.1415959
  30.8689892   0.4789349  69.5752687  37.0508246   1.9952201  68.0153297
  37.4591602   1.5534611  67.2707929  36.3285508   1.4204828  68.2687490
  33.4039316  -3.0675192  65.3886854  34.2500512  -2.6435779  65.5321503
  33.3437954  -3.7241568  66.0825417  37.3737061   2.5553391  61.7705586
  36.7445923   2.7199106  61.0681654  36.9862723   2.9695001  62.5416550
  41.2526293   3.4907829  59.1249950  40.5677331   3.8706731  58.5746983
  41.3370142   4.1003156  59.8581897  36.5538762  -5.4070824  67.0468028
  36.3099694  -4.6528763  66.5102303  36.8298692  -5.0285476  67.8815275
  38.5077225   1.1367788  65.7245293  38.7194120   1.7799548  65.0479674
  38.4606973   0.3030105  65.2567223  36.1103453  -6.2514391  62.6281865
  35.2487933  -5.9533137  62.9198603  36.1365888  -6.0343992  61.6962898
  32.9265023   2.2927800  59.0355671  33.3903368   2.5715503  58.2460293
  32.6621821   1.3911244  58.8528762  29.8189104   1.8399281  61.9735434
  30.3890461   2.2686549  61.3352919  30.4097216   1.5581866  62.6719620
  31.8633909  -1.5849048  55.8445236  32.5657952  -1.1328004  56.3119162
  31.5314537  -2.2265229  56.4725129  39.6223052   4.0139744  63.8967650
  40.4440496   3.6119931  63.6150332  39.6185455   3.9107978  64.8483766
  33.3879656   3.5623787  66.0528361  33.4524088   4.0244194  66.8886533
  32.6790580   2.9321152  66.1810671  47.7129046   0.3578492  60.2452622
  46.9592754  -0.2114110  60.0896626  47.8476587   0.3241157  61.1923257
  33.1027674   5.2291895  55.9207341  32.9673348   6.0743430  56.3492189
  33.6437486   5.4311172  55.1573275  26.5557071   2.7467333  56.4935266
  27.0681592   3.5410583  56.6440831  27.2079784   2.0493623  56.4268868
  28.3651956   5.8633089  58.5758020  28.5418584   6.7851054  58.3879003
  29.1608789   5.5491508  59.0052399  34.7296150   5.8515461  70.0507683
  34.2860004   5.0651840  69.7328588  35.3913364   6.0394612  69.3851574
  29.4883271   7.3811263  64.5768362  30.0390696   7.2528326  63.8045356
  28.6494747   7.6806152  64.2263255  36.8277388   6.1318261  68.0789085
  36.8095863   6.9527142  67.5869354  37.7497308   6.0072336  68.3039226
  33.2850442   3.6462390  68.9212593  33.8178779   2.8850679  68.6911901
  32.7564523   3.3536042  69.6636747  36.4170420  -1.2568932  52.9578670
  35.9017043  -0.4864328  53.1967057  36.1447728  -1.9303796  53.5811731
  41.3904694   1.4963422  54.8931843  40.6134137   1.1574582  54.4487005
  42.0696175   1.5016045  54.2186808  36.2056723  -3.3841840  54.7838451
  35.9006859  -3.0695691  55.6348594  37.1587165  -3.3060420  54.8265784
  34.6503155   2.7748383  56.4331405  34.1224516   2.0401143  56.1204642
  34.1490658   3.5523059  56.1871373  39.6296001   0.9697403  61.5498451
  38.9719675   1.6596665  61.6378580  40.4336400   1.3593835  61.8932438
  38.4401460  -0.6758224  59.6002393  38.9533341  -0.0428232  60.1024103
  39.0902684  -1.2757028  59.2345753  32.7955755   0.5928593  49.4366378
  31.8882817   0.3617847  49.6357527  33.2926787  -0.2033788  49.6240360
  35.7023834   9.3026100  52.3563064  35.0285533   9.6057797  52.9648022
  36.0889656  10.1055181  52.0068521  34.9182291  -3.2008768  61.8460734
  34.0004852  -2.9793821  61.6882422  35.3342434  -3.1262458  60.9872441
  35.7017338  -1.8017353  56.9763414  36.4489157  -1.2895955  56.6670536
  35.9708928  -2.1233300  57.8367807  33.9743989   0.6941188  53.9590368
  33.0655208   0.4100221  54.0562838  34.0039072   1.1140267  53.0993675
  39.2063256   4.3047778  57.7281536  38.7525583   3.4638687  57.7846726
  38.5757223   4.9409176  58.0656316  38.1496175  -4.7660236  58.9582203
  37.4118932  -5.2782850  59.2892446  38.4022949  -5.2059855  58.1465480
  37.6496195   6.1424274  58.6631354  37.9419170   6.7029331  57.9443719
  38.1594816   6.4352835  59.4184513  32.5228883  -1.6930191  60.0600163
  32.5777492  -2.6456355  59.9842640  31.7120085  -1.5370752  60.5441462
  33.6720076   2.2349932  51.2978447  33.2339506   1.5185791  50.8384084
  34.4130517   2.4626047  50.7363538  32.6129820   6.9204625  59.7524807
  32.5705999   7.1465472  58.8233339  33.5292519   6.6868000  59.9010608
  36.0595454  -2.6111307  66.6505436  36.4144842  -2.3839834  67.5099902
  36.7067585  -2.2792930  66.0282692  41.7893191   0.5107129  57.3554765
  41.6511090   0.7008725  56.4275954  41.4329410   1.2726512  57.8122816
  41.8162571   2.5783656  62.3666037  42.2499077   2.4858945  63.2149091
  42.5294151   2.5541156  61.7286053  30.7295621   3.7967654  59.5486770
  31.5236220   3.3017975  59.3469345  30.0187314   3.2685518  59.1854475
  35.5490466   6.1785750  63.8999137  35.6027488   6.7476686  64.6676853
  34.6805247   6.3487635  63.5353175  42.6778120   2.6207356  64.8998922
  42.8714010   3.5253167  65.1458197  42.5778738   2.1614776  65.7337507
  37.7393229   2.7714099  70.4739803  37.5878735   2.5424651  69.5569886
  37.7297908   3.7284701  70.4871148  34.5078565   0.3446012  65.4586069
  35.4370625   0.4957172  65.2855037  34.0869595   0.4330033  64.6034716
  33.3066897   4.3696676  63.2284607  33.1677983   4.0015461  64.1010545
  32.5181493   4.8844316  63.0568565  33.9015049   9.4705773  54.5710143
  34.0766805   8.9993816  55.3855766  33.2147837  10.0971539  54.7991404
  34.8572112   3.7478279  60.6173445  34.5221945   3.7079049  61.5131095
  34.3576058   3.0822995  60.1443855  28.8316356  -0.8454091  66.1426026
  28.6936154  -1.5773852  66.7437565  29.7421280  -0.9345191  65.8610214
  37.7931304   1.0934313  50.8910504  37.1760475   0.3681142  50.7943557
  37.3247792   1.8543674  50.5477579  31.4598657  -1.1334132  65.6309705
  32.1698275  -1.7740939  65.5896324  31.4167965  -0.8821237  66.5535886
  39.4485436   5.8033222  68.5516285  39.3897982   5.1192442  67.8846868
  39.8504954   6.5452212  68.0996911  28.4676134  12.6195136  61.3450004
  28.7072733  13.2513660  62.0229022  27.6245331  12.2683176  61.6315363
  39.4502843   3.7672806  66.7830264  38.5629622   3.4298727  66.9056663
  40.0201394   3.0355837  67.0199030  32.9803996   8.4274258  63.7491508
  32.9074168   9.2329230  64.2610812  32.5381389   8.6266224  62.9239529
  32.7693776   7.6646028  57.2594329  31.9861298   8.2067708  57.3532554
  33.4686521   8.1820008  57.6588570  36.0790426  -6.5259342  59.9028534
  36.5759126  -7.2789380  59.5829605  35.3077407  -6.4895026  59.3371744
  43.9320183  -0.8218977  61.5446826  43.9210060   0.0605738  61.1740759
  43.0637563  -1.1747426  61.3501363  35.4402680   8.3261092  65.9049666
  36.1530652   8.9608557  65.8325568  34.9492708   8.4224958  65.0889668
  37.1620207   2.2312345  57.4766958  36.2276485   2.3513807  57.3071662
  37.3396875   1.3284812  57.2126968  40.5492758  -1.9270336  58.0116992
  41.0153210  -1.0942344  57.9377295  41.0000259  -2.3925354  58.7162250
  30.4914593   6.0755536  66.7255237  31.1924053   6.7092018  66.8784631
  30.0209708   6.4170267  65.9650876  38.6168989   4.4173485  55.0103144
  38.8928833   4.3030080  55.9197018  37.7473488   4.0190970  54.9715317
  38.2915879  -1.3699857  64.5507787  37.6387330  -1.1223950  63.8960240
  38.6696259  -2.1835719  64.2170265  35.2523053   8.6659836  58.6535958
  35.4345448   7.8481492  59.1163710  36.0756039   8.8827528  58.2160848
  35.5865219   7.5928021  55.9151006  36.1152985   7.0820476  55.3021168
  35.8493438   7.2770551  56.7796539  34.3403452  -0.6280046  71.0373824
  33.6644089  -0.7285917  71.7076200  35.1631086  -0.7840832  71.5009822
  26.0882311   5.6091891  63.6586340  26.6735748   4.8635578  63.7914244
  25.8907150   5.9195847  64.5423004  28.9420967   8.6443138  58.6748782
  28.2731342   9.1289266  58.1912822  28.8033836   8.8912358  59.5892161
  33.0826235  10.6786881  65.2731440  33.6344543  10.8418503  66.0380526
  33.4232429  11.2691319  64.6011465  37.9337109   5.5048139  71.1280095
  38.4777013   6.1178097  70.6335050  37.3523954   6.0627717  71.6447108
  36.2194622   8.6268857  62.2595123  36.0945762   7.8258597  61.7506068
  36.8773714   9.1215050  61.7709093  38.2829531   6.4277877  63.8874673
  37.3359866   6.3083228  63.8152999  38.6312304   5.5400375  63.9700934
  35.2875964   6.2230593  60.0879025  35.1400927   5.2947301  60.2686595
  36.1129458   6.2450684  59.6036100  38.8910086   7.0459152  61.1743898
  39.8156633   6.8402013  61.0368349  38.7225389   6.7975553  62.0833239
  38.6805402   7.5644819  56.5305989  38.8542280   6.9991242  55.7779842
  39.1734293   8.3645714  56.3485479  44.5344793   0.3281242  58.1496289
  44.9775939  -0.4211432  57.7515412  43.6571304   0.3191379  57.7670021
  39.6680575   6.8811584  53.6302887  40.3631479   7.5018277  53.8490202
  40.0103725   6.0306935  53.9055265  41.5671998   4.3311289  55.1590218
  42.0923322   4.6698562  54.4339538  41.4794350   3.3958305  54.9753353
  33.2292046   8.2445363  67.2880095  33.5379173   7.9994510  68.1602794
  34.0267529   8.4492002  66.7998965  33.2512659  10.3983273  59.5185471
  32.8117649   9.9059651  60.2118328  34.0020775   9.8556240  59.2777547
  25.7304998   6.5894814  59.5210099  26.5563017   6.2898585  59.1408743
  25.3799050   5.8202436  59.9699888  30.6986531   5.9421282  61.5907773
  30.0766540   5.2791987  61.2910001  31.3691398   5.9682414  60.9081421
  23.9313603   4.5081140  60.4799033  23.0945511   4.0803314  60.2983034
  23.9037248   4.7013583  61.4169824  41.2565904   4.9644193  70.4641416
  40.4661448   4.9468332  69.9245916  41.0199258   5.5032487  71.2190453
  41.3763779   1.8136659  67.7774145  41.4261784   1.6486667  68.7189667
  41.2677702   0.9463918  67.3872025  30.2600038   4.4925205  55.0666234
  30.4088158   5.1760670  54.4132906  31.0666481   4.4730295  55.5815689
  38.6667541  -2.2032413  69.0933451  39.5677404  -2.3425948  68.8017449
  38.7415516  -2.0377958  70.0331629  42.8781976   4.2333601  68.0216166
  42.5866784   4.5963582  68.8579627  42.2654107   3.5200609  67.8429498
  44.0777658   1.7986481  60.5418736  44.9124549   2.2376285  60.7056297
  44.2136787   1.3225134  59.7226982  41.1269164  -0.6433784  66.4896224
  41.6023286  -0.4506138  65.6815076  40.2034729  -0.5874599  66.2439608
  28.0152671   0.5190383  56.0727302  27.7698713  -0.3847287  56.2707513
  28.1848585   0.5207533  55.1306780  33.7595443   6.9873336  52.5377981
  33.1869410   7.6063523  52.0848453  34.3328237   7.5372697  53.0717903
  39.8270833  -3.7668024  64.7224530  40.7788256  -3.6669927  64.7436754
  39.6574283  -4.5589756  65.2322614  37.8485212  -6.6812441  64.9083931
  37.2535145  -6.4007428  64.2130419  37.5634909  -6.1918540  65.6800672
  36.9792703   7.2710486  53.6686563  37.9123376   7.2056047  53.8719439
  36.8915916   8.1066753  53.2101096  39.6080720   6.5876356  50.6290511
  39.5294351   6.2536220  51.5226269  40.4290386   7.0798124  50.6281983
  42.3058911  -0.5461905  63.8366829  42.2735231  -1.4845904  64.0226513
  42.9159534  -0.4677868  63.1032654  34.1442242  -1.6765852  49.8794033
  35.0901346  -1.8059644  49.9482452  33.7656487  -2.4151190  50.3563462
  42.4553399  -3.7550861  63.8825113  41.9392448  -4.5392405  63.6955041
  43.3393348  -4.0832145  64.0471632  48.1235461   0.5154102  62.9772866
  48.8538849   0.2539390  63.5380570  47.5142406  -0.2217176  63.0174934
  46.2050758  -1.3438035  63.5747317  45.4783921  -1.4782070  62.9663809
  45.7898045  -1.0361207  64.3804035  34.0280934   2.3751894  71.3394690
  34.9483944   2.5530493  71.5334737  33.9930517   1.4307940  71.1874390
  27.0243007   0.2852929  63.9817472  27.2429016   1.2170037  64.0005505
  27.4368781  -0.0739096  64.7672275  39.2516580  -8.0200414  57.0996121
  38.6715249  -7.3615610  56.7174173  38.9852513  -8.8423069  56.6883538
  31.7602142  -0.7116726  72.1885282  31.2769224   0.0883634  72.3949171
  31.8463081  -0.7008781  71.2352726  25.0288102   1.1211653  60.1107102
  25.0058790   1.2199341  59.1588985  25.3388738   1.9676804  60.4324268
  27.6875480   3.1787808  64.2253716  28.6418733   3.1471751  64.1583648
  27.4888003   2.7178432  65.0403942  28.2774862   1.7488924  66.7924514
  29.0967751   2.2433003  66.8159351  28.5511669   0.8320893  66.7642081
  38.0341458  -5.8600323  56.1552469  37.1467313  -5.5750673  55.9372664
  38.4495447  -6.0206560  55.3079746  41.3855994  -5.8353802  59.8706808
  42.1616384  -5.3457350  60.1431425  40.6604128  -5.4095748  60.3278678
  43.8228553  -5.1226183  60.9280749  44.4173043  -5.3630447  60.2174057
  43.8955136  -5.8419052  61.5554285  26.0425708   8.7207428  61.2423914
  25.9080176   7.9607829  60.6761912  25.6257771   9.4448328  60.7752703
  37.1784671   3.9044351  50.2500489  37.8820521   4.1094354  50.8658145
  36.4547320   4.4721113  50.5149573  38.0082482  -0.3445787  56.3702759
  37.9517683   0.1122764  55.5310392  38.5610824  -1.1055103  56.1925602
  41.8187288  -4.5556055  57.1952879  41.5624222  -4.9559420  58.0261087
  41.1940156  -3.8412261  57.0703018  46.1299625  -1.8159982  59.7024170
  45.5699183  -1.7466793  60.4755732  45.5243129  -1.9918998  58.9823666
  29.1994834   9.6176745  61.4542357  29.0827218  10.5622177  61.3521047
  28.3787280   9.3150306  61.8428156  39.0871369   4.3426881  52.2998949
  39.9216973   3.9108079  52.1176424  38.9255712   4.1708894  53.2275844
  38.7417261   0.8458994  53.6655289  38.6866065   0.6803265  52.7243733
  38.1163316   1.5535027  53.8217478  36.0563168   3.1507906  72.9908851
  36.9254328   3.3248558  72.6295486  35.5769920   3.9702323  72.8684581
  30.2249348  10.2705007  64.6698285  31.1276595  10.3028617  64.9864780
  29.9986718   9.3405458  64.6844621  31.9802950   9.0235993  61.3308364
  31.0298581   9.0237855  61.2172736  32.2835437   8.2768728  60.8144398
  47.7155644  14.8596532  62.3954126  48.3534054  14.7403279  61.6917466
  47.5976487  15.8077376  62.4542078  44.5245350  14.8123960  62.3315651
  44.1863862  14.6965025  61.4436186  45.3935118  14.4115125  62.3116657
  40.3832166  16.6659436  58.3212542  39.8197031  16.5749373  57.5528829
  40.2684561  15.8459341  58.8015034  45.0065133  15.9658812  68.2901856
  44.9953774  15.5711610  67.4182360  45.1685773  15.2324884  68.8835628
  37.9296598  18.1610628  61.1596762  38.7217890  17.8201453  60.7443061
  38.1693248  18.2705603  62.0798915  45.9631725  20.3330404  53.6327007
  45.3119704  20.9184484  53.2461020  46.7576087  20.8636599  53.6922044
  39.8887352  17.4219541  54.0314141  40.6618228  16.8748528  53.8927017
  40.2412751  18.2863790  54.2428602  41.7272394  18.7495923  67.2381040
  41.4362260  19.6541554  67.1227706  42.3629379  18.7912451  67.9525110
  42.6528601  16.1272772  63.8282400  43.2492173  15.9028794  63.1139363
  42.7103573  15.3857517  64.4307848  42.2253630  13.5812207  51.6632591
  42.4779150  13.0593729  50.9016054  41.2878189  13.4178353  51.7659274
  47.2696912  12.5847986  59.4707334  48.0560002  12.1667409  59.1197751
  47.5335617  13.4894078  59.6388982  47.4406990  18.0220836  54.1695991
  46.8052823  18.0955462  54.8816895  47.1104396  18.6114435  53.4915070
  52.6705339  12.5223219  60.3740313  53.4030511  11.9522436  60.6078142
  51.9144695  12.1344819  60.8146818  41.9449918  15.4840313  53.8656966
  41.8286176  14.8085217  54.5338050  42.0552178  14.9972687  53.0489119
  44.2881459  14.9450460  57.5703655  43.9239666  14.4181081  58.2816576
  45.1448575  14.5548929  57.3970140  50.1930760   6.2344793  64.8334921
  49.8614085   7.1040204  64.6096136  49.5976373   5.9181077  65.5128952
  43.9286946   9.9740360  52.5665003  44.0961349  10.8420596  52.9335475
  43.7384115  10.1367642  51.6426293  46.6862279  18.4357339  64.2330834
  46.3863002  19.3382378  64.1246641  46.3413339  18.1689522  65.0851987
  40.1374761  14.8871136  60.2667538  39.2125257  14.7547350  60.4745230
  40.3859174  15.6665355  60.7637481  50.0859423  10.9539879  61.9128271
  49.1776300  10.8855288  61.6187032  50.0347019  11.4311824  62.7410097
  43.9076167  12.4298018  53.5511670  43.7875792  12.8755068  54.3897151
  43.2128755  12.7783335  52.9925208  37.4983572  14.5304409  61.1011327
  37.6275953  14.7838888  62.0150739  36.8181023  15.1232117  60.7815982
  41.6683059  25.2001659  57.2001802  41.5907089  26.1509484  57.2790282
  41.0644703  24.8547532  57.8576728  44.1600289  12.3729525  69.8563168
  43.3833623  12.9323445  69.8466033  44.7990852  12.8586308  70.3778039
  51.9521070   9.1556318  63.6906145  51.3095450   9.4488851  63.0445940
  51.4475998   9.0409238  64.4959342  49.6061233  12.9019491  54.3792004
  50.5179089  13.1346877  54.2039702  49.0970880  13.4856535  53.8167083
  42.4146661  15.1814978  69.4181135  43.1561346  15.7200022  69.1415959
  41.7083647  15.8081267  69.5752687  47.8902001  17.3244119  68.0153297
  48.2985357  16.8826529  67.2707929  47.1679262  16.7496746  68.2687490
  44.2433071  12.2616725  65.3886854  45.0894266  12.6856139  65.5321503
  44.1831709  11.6050350  66.0825417  48.2130816  17.8845309  61.7705586
  47.5839678  18.0491023  61.0681654  47.8256478  18.2986919  62.5416550
  52.0920047  18.8199747  59.1249950  51.4071086  19.1998648  58.5746983
  52.1763897  19.4295074  59.8581897  47.3932516   9.9221094  67.0468028
  47.1493448  10.6763154  66.5102303  47.6692447  10.3006441  67.8815275
  49.3470979  16.4659706  65.7245293  49.5587874  17.1091466  65.0479674
  49.3000727  15.6322023  65.2567223  46.9497208   9.0777527  62.6281865
  46.0881687   9.3758780  62.9198603  46.9759643   9.2947926  61.6962898
  43.7658777  17.6219717  59.0355671  44.2297123  17.9007420  58.2460293
  43.5015575  16.7203162  58.8528762  40.6582858  17.1691199  61.9735434
  41.2284216  17.5978467  61.3352919  41.2490970  16.8873783  62.6719620
  42.7027663  13.7442870  55.8445236  43.4051707  14.1963913  56.3119162
  42.3708292  13.1026688  56.4725129  41.1508025  12.3354626  70.2196445
  40.5206686  13.0170907  70.4531842  41.0444113  12.2237708  69.2749584
  36.4452997  12.0026422  61.1462370  35.6552051  12.2583951  60.6702480
  36.9364245  12.8174760  61.2514410  50.4616807  19.3431661  63.8967650
  51.2834251  18.9411849  63.6150332  50.4579210  19.2399896  64.8483766
  38.3967743  12.3671002  58.1045846  37.5998906  12.4789696  58.6229342
  38.1693335  12.7057654  57.2386737  44.2273410  18.8915705  66.0528361
  44.2917843  19.3536112  66.8886533  43.5184334  18.2613070  66.1810671
  34.7290700  12.2556913  63.5777360  34.9798739  13.1403923  63.8434936
  35.2650249  12.0761514  62.8052452  58.5522800  15.6870410  60.2452622
  57.7986508  15.1177808  60.0896626  58.6870341  15.6533074  61.1923257
  43.9421428  20.5583812  55.9207341  43.8067103  21.4035348  56.3492189
  44.4831241  20.7603090  55.1573275  40.4288768   6.6375392  72.5821696
  40.0355713   6.0841591  73.2569341  41.2454908   6.9485971  72.9728214
  37.3950825  18.0759250  56.4935266  37.9075346  18.8702501  56.6440831
  38.0473538  17.3785541  56.4268868  39.2045710  21.1925007  58.5758020
  39.3812338  22.1142971  58.3879003  40.0002544  20.8783426  59.0052399
  43.3456729   8.0533271  70.1741953  44.0866442   8.6540424  70.0946416
  43.5774652   7.3110909  69.6159996  38.4898067  13.2389638  68.4520183
  38.3751582  12.3374896  68.7527282  37.6342584  13.4853335  68.1004999
  45.5689904  21.1807379  70.0507683  45.1253759  20.3943757  69.7328588
  46.2307118  21.3686529  69.3851574  40.3277026  22.7103180  64.5768362
  40.8784451  22.5820244  63.8045356  39.4888502  23.0098069  64.2263255
  47.6671143  21.4610179  68.0789085  47.6489618  22.2819060  67.5869354
  48.5891063  21.3364254  68.3039226  44.1244197  18.9754308  68.9212593
  44.6572533  18.2142596  68.6911901  43.5958278  18.6827960  69.6636747
  47.2913892   4.0814374  64.4506235  46.9478161   4.9716016  64.3745345
  47.6592854   3.8916032  63.5875820  35.3599742  16.4047905  57.2694837
  36.1974964  16.8144913  57.0528545  35.5378010  15.4647347  57.2395031
  47.2564174  14.0722985  52.9578670  46.7410798  14.8427590  53.1967057
  46.9841483  13.3988121  53.5811731  44.8411285   8.9172686  58.0163908
  43.9852882   8.5279536  57.8369547  45.2538237   8.9964647  57.1563694
  46.3710432   6.4519029  62.4155468  45.8675228   6.4149164  61.6023273
  46.6641039   7.3611772  62.4752125  42.6153318   6.5357759  61.4221650
  43.4806315   6.3400568  61.0627539  42.6830827   6.3068111  62.3491006
  52.2298448  16.8255340  54.8931843  51.4527891  16.4866499  54.4487005
  52.9089929  16.8307963  54.2186808  47.0450478  11.9450077  54.7838451
  46.7400613  12.2596226  55.6348594  47.9980920  12.0231497  54.8265784
  45.4896909  18.1040301  56.4331405  44.9618271  17.3693060  56.1204642
  44.9884412  18.8814977  56.1871373  50.4689755  16.2989321  61.5498451
  49.8113430  16.9888583  61.6378580  51.2730155  16.6885753  61.8932438
  40.2215637   8.7659967  58.7938017  40.7959389   8.5435148  58.0611209
  40.8086619   8.8348661  59.5466618  49.2795214  14.6533694  59.6002393
  49.7927096  15.2863686  60.1024103  49.9296438  14.0534889  59.2345753
  40.5485224  10.7964428  52.8133902  39.7122536  11.1339114  53.1343177
  40.4089994  10.6613408  51.8761039  42.5238305   5.6401216  57.5213086
  41.8702717   5.3250233  56.8969701  42.4818779   5.0176956  58.2472909
  43.6349510  15.9220511  49.4366378  42.7276571  15.6909764  49.6357527
  44.1320542  15.1258130  49.6240360  46.5417588  24.6318018  52.3563064
  45.8679287  24.9349715  52.9648022  46.9283410  25.4347098  52.0068521
  45.7576045  12.1283149  61.8460734  44.8398606  12.3498096  61.6882422
  46.1736189  12.2029460  60.9872441  46.5411093  13.5274565  56.9763414
  47.2882912  14.0395962  56.6670536  46.8102682  13.2058618  57.8367807
  44.8137743  16.0233106  53.9590368  43.9048962  15.7392139  54.0562838
  44.8432827  16.4432184  53.0993675  50.0457010  19.6339695  57.7281536
  49.5919338  18.7930605  57.7846726  49.4150977  20.2701094  58.0656316
  48.9889930  10.5631681  58.9582203  48.2512687  10.0509067  59.2892446
  49.2416704  10.1232063  58.1465480  48.4889950  21.4716192  58.6631354
  48.7812924  22.0321249  57.9443719  48.9988570  21.7644753  59.4184513
  49.0901557   3.3407933  59.5523972  49.3960434   2.4805297  59.2649887
  49.8154162   3.9325553  59.3522966  35.3825913  13.7438620  57.9405570
  35.1850313  13.1507981  57.2156637  34.8272577  13.4390830  58.6581509
  43.3622637  13.6361726  60.0600163  43.4171247  12.6835563  59.9842640
  42.5513839  13.7921165  60.5441462  44.5113831  17.5641849  51.2978447
  44.0733261  16.8477708  50.8384084  45.2524272  17.7917964  50.7363538
  41.3014997  12.2538786  57.8190542  40.4882862  12.5532957  58.2255734
  41.7973991  11.8594475  58.5365025  43.4523575  22.2496543  59.7524807
  43.4099754  22.4757389  58.8233339  44.3686274  22.0159918  59.9010608
  46.8989209  12.7180611  66.6505436  47.2538596  12.9452084  67.5099902
  47.5461340  13.0498987  66.0282692  52.6286946  15.8399046  57.3554765
  52.4904844  16.0300642  56.4275954  52.2723164  16.6018429  57.8122816
  40.7929072   9.8257142  63.4351777  41.4328451   9.6845901  62.7374741
  39.9606602   9.5391655  63.0590379  52.6556325  17.9075573  62.3666037
  53.0892832  17.8150863  63.2149091  53.3687906  17.8833074  61.7286053
  41.5689376  19.1259572  59.5486770  42.3629974  18.6309892  59.3469345
  40.8581068  18.5977435  59.1854475  46.3884220  21.5077668  63.8999137
  46.4421242  22.0768604  64.6676853  45.5199001  21.6779553  63.5353175
  37.8772139  13.2702654  55.6246522  36.9469727  13.2087109  55.8416485
  37.9729611  12.7478607  54.8283164  37.7957688   9.7957467  58.2124764
  38.0564505  10.7102800  58.1033925  38.6174860   9.3281909  58.3621377
  39.2682613  11.2095224  65.3823589  39.9405667  11.0012586  64.7336238
  38.4412400  11.0117310  64.9428821  53.5171875  17.9499274  64.8998922
  53.7107765  18.8545085  65.1458197  53.4172493  17.4906693  65.7337507
  45.1708185   7.8357165  67.3989250  44.5236101   8.5347114  67.3053726
  45.9409201   8.2693309  67.7665498  48.5786983  18.1006017  70.4739803
  48.4272490  17.8716569  69.5569886  48.5691663  19.0576618  70.4871148
  45.3472320  15.6737930  65.4586069  46.2764380  15.8249089  65.2855037
  44.9263350  15.7621950  64.6034716  44.1460652  19.6988594  63.2284607
  44.0071737  19.3307378  64.1010545  43.3575248  20.2136233  63.0568565
  44.7408804  24.7997690  54.5710143  44.9160559  24.3285734  55.3855766
  44.0541592  25.4263457  54.7991404  45.6965867  19.0770197  60.6173445
  45.3615699  19.0370967  61.5131095  45.1969812  18.4114913  60.1443855
  39.6710111  14.4837827  66.1426026  39.5329909  13.7518066  66.7437565
  40.5815034  14.3946727  65.8610214  48.6325058  16.4226231  50.8910504
  48.0154229  15.6973059  50.7943557  48.1641547  17.1835591  50.5477579
  42.2992411  14.1957786  65.6309705  43.0092030  13.5550978  65.5896324
  42.2561720  14.4470681  66.5535886  50.2879190  21.1325139  68.5516285
  50.2291736  20.4484360  67.8846868  50.6898708  21.8744129  68.0996911
  41.0121345  11.1823004  67.4505345  40.4758702  10.7313742  68.1026941
  40.4238054  11.3168913  66.7075809  39.3069889  27.9487053  61.3450004
  39.5466487  28.5805577  62.0229022  38.4639085  27.5975093  61.6315363
  40.4223604  10.6411655  50.0131809  39.5453071  10.5200456  49.6494055
  40.8981357   9.8497734  49.7610697  50.2896597  19.0964723  66.7830264
  49.4023376  18.7590645  66.9056663  50.8595148  18.3647755  67.0199030
  31.9425744  15.4288815  60.1073316  32.6296784  15.1150545  59.5194331
  31.7873873  16.3330180  59.8340567  36.7460467  10.3179012  64.5358339
  36.6618655   9.7104681  63.8008749  35.9243173  10.8088030  64.5367836
  43.8197751  23.7566176  63.7491508  43.7467922  24.5621147  64.2610812
  43.3775144  23.9558142  62.9239529  43.6087530  22.9937946  57.2594329
  42.8255052  23.5359626  57.3532554  44.3080276  23.5111925  57.6588570
  46.9184180   8.8032575  59.9028534  47.4152880   8.0502538  59.5829605
  46.1471162   8.8396892  59.3371744  54.7713938  14.5072941  61.5446826
  54.7603814  15.3897656  61.1740759  53.9031317  14.1544492  61.3501363
  46.2796434  23.6553010  65.9049666  46.9924406  24.2900475  65.8325568
  45.7886463  23.7516876  65.0889668  48.0013961  17.5604262  57.4766958
  47.0670240  17.6805725  57.3071662  48.1790630  16.6576729  57.2126968
  43.5019149  10.9449958  59.6300219  43.1316937  10.3920999  60.3181125
  43.9978242  10.3408092  59.0775219  51.3886513  13.4021582  58.0116992
  51.8546965  14.2349573  57.9377295  51.8394013  12.9366563  58.7162250
  41.3308348  21.4047453  66.7255237  42.0317807  22.0383936  66.8784631
  40.8603463  21.7462185  65.9650876  49.4562744  19.7465403  55.0103144
  49.7322588  19.6321998  55.9197018  48.5867242  19.3482888  54.9715317
  49.3603175   5.7702169  62.0507893  48.4466255   6.0006396  62.2190100
  49.7896277   5.8540613  62.9021926  49.1309634  13.9592061  64.5507787
  48.4781084  14.2067968  63.8960240  49.5090014  13.1456199  64.2170265
  46.0916808  23.9951754  58.6535958  46.2739202  23.1773410  59.1163710
  46.9149794  24.2119446  58.2160848  46.4258973  22.9219939  55.9151006
  46.9546740  22.4112394  55.3021168  46.6887193  22.6062469  56.7796539
  45.1797207  14.7011872  71.0373824  44.5037844  14.6006001  71.7076200
  46.0024841  14.5451085  71.5009822  36.9276066  20.9383808  63.6586340
  37.5129503  20.1927496  63.7914244  36.7300904  21.2487765  64.5423004
  39.7814721  23.9735056  58.6748782  39.1125096  24.4581183  58.1912822
  39.6427591  24.2204276  59.5892161  31.5193721  13.5089408  62.3790783
  31.5577820  12.9752999  63.1727901  31.0134013  12.9824614  61.7601760
  43.9219990  26.0078799  65.2731440  44.4738298  26.1710421  66.0380526
  44.2626183  26.5983237  64.6011465  38.8984483   8.3553949  65.8753325
  38.9625809   9.2168780  65.4630723  38.8351603   7.7427951  65.1425684
  38.3736755  10.4277082  69.5226359  39.0008794  10.0454159  70.1363884
  37.5164674  10.2091283  69.8882052  48.7730864  20.8340057  71.1280095
  49.3170768  21.4470015  70.6335050  48.1917709  21.3919635  71.6447108
  35.1502298  12.2353511  55.4544714  35.4455739  11.3264189  55.4011768
  34.2490334  12.2141250  55.1325717  47.0588377  23.9560775  62.2595123
  46.9339516  23.1550515  61.7506068  47.7167468  24.4506968  61.7709093
  38.6796545  10.3109507  61.4372263  37.9583131  10.9245475  61.2979736
  39.4689801  10.8467272  61.3588909  49.1223285  21.7569795  63.8874673
  48.1753621  21.6375146  63.8152999  49.4706058  20.8692293  63.9700934
  41.4822859   7.6463934  67.7112915  42.0057260   7.8926230  68.4739224
  41.2635192   8.4783969  67.2916052  36.8790140   9.9167608  55.5784039
  36.5502846   9.0364987  55.3959145  37.2329510   9.8615277  56.4660429
  46.1269719  21.5522511  60.0879025  45.9794681  20.6239218  60.2686595
  46.9523212  21.5742602  59.6036100  39.9931963  10.2040578  55.9459517
  40.3328035  10.7326499  55.2238125  40.4404083  10.5420984  56.7218084
  49.7303840  22.3751070  61.1743898  50.6550388  22.1693931  61.0368349
  49.5619144  22.1267471  62.0833239  42.6875404   8.5877629  65.3962585
  42.3472224   7.7885442  65.7983265  41.9814410   8.8879340  64.8239418
  43.3391876   5.6726941  63.8489908  44.1617945   5.1987419  63.7268798
  43.5829939   6.4517425  64.3488594  41.9800110   8.7015200  54.1452810
  42.7008473   9.0796452  53.6416527  41.3565414   9.4204076  54.2487788
  46.1231233   9.4060349  55.0811142  46.3394847  10.2884987  54.7799970
  45.6425300   9.0146562  54.3516784  40.8630454  12.3646062  61.6581887
  40.7175035  12.6786365  62.5506168  40.3855658  12.9830962  61.1052785
  42.7226837   9.3548610  61.7062776  42.7088406   8.4589703  61.3695074
  43.4399265   9.3619274  62.3401062  44.5752968   9.7885950  63.7515904
  44.3170746  10.7103021  63.7500234  44.0438008   9.3916385  64.4416368
  49.5199157  22.8936737  56.5305989  49.6936034  22.3283160  55.7779842
  50.0128048  23.6937632  56.3485479  35.3376116  14.9051406  64.5969548
  34.7929585  15.6811214  64.7289822  36.2155466  15.2522211  64.4388669
  42.1263733   8.2362990  56.9750346  42.2479644   7.3079636  57.1741234
  41.8365775   8.2501676  56.0628662  44.9954924   5.9217901  60.1117066
  45.0176620   5.9857234  59.1569046  45.4122983   5.0822409  60.3057572
  55.3738548  15.6573160  58.1496289  55.8169694  14.9080485  57.7515412
  54.4965058  15.6483296  57.7670021  50.5074329  22.2103502  53.6302887
  51.2025234  22.8310194  53.8490202  50.8497479  21.3598853  53.9055265
  36.1242138  14.0321303  67.4899705  35.3823874  14.1803938  68.0764335
  35.8034883  14.2929568  66.6266454  52.4065752  19.6603207  55.1590218
  52.9317076  19.9990480  54.4339538  52.3188105  18.7250222  54.9753353
  44.0685801  23.5737281  67.2880095  44.3772927  23.3286428  68.1602794
  44.8661283  23.7783919  66.7998965  44.0906413  25.7275190  59.5185471
  43.6511403  25.2351569  60.2118328  44.8414530  25.1848158  59.2777547
  36.5698752  21.9186731  59.5210099  37.3956772  21.6190503  59.1408743
  36.2192804  21.1494354  59.9699888  41.5380285  21.2713199  61.5907773
  40.9160294  20.6083904  61.2910001  42.2085152  21.2974331  60.9081421
  34.7707357  19.8373058  60.4799033  33.9339265  19.4095232  60.2983034
  34.7431002  20.0305501  61.4169824  41.6104813   9.7494987  71.1840279
  41.6592968  10.6257110  70.8018049  42.1527327   9.2072381  70.6111922
  52.0959658  20.2936111  70.4641416  51.3055202  20.2760250  69.9245916
  51.8593013  20.8324404  71.2190453  52.2157533  17.1428577  67.7774145
  52.2655538  16.9778585  68.7189667  52.1071457  16.2755836  67.3872025
  41.0993792  19.8217123  55.0666234  41.2481912  20.5052587  54.4132906
  41.9060236  19.8022213  55.5815689  49.5061296  13.1259505  69.0933451
  50.4071159  12.9865970  68.8017449  49.5809270  13.2913960  70.0331629
  43.8404101  10.5026360  67.9386638  42.9707411  10.7959926  67.6669226
  44.0763581  11.0866805  68.6593901  53.7175730  19.5625519  68.0216166
  53.4260539  19.9255499  68.8579627  53.1047862  18.8492527  67.8429498
  54.9171413  17.1278398  60.5418736  55.7518304  17.5668202  60.7056297
  55.0530541  16.6517052  59.7226982  51.9662918  14.6858133  66.4896224
  52.4417040  14.8785780  65.6815076  51.0428484  14.7417319  66.2439608
  38.8546425  15.8482300  56.0727302  38.6092467  14.9444630  56.2707513
  39.0242340  15.8499451  55.1306780  46.5443135   6.7205977  65.4552058
  47.0625079   7.4567004  65.1298547  46.1898268   7.0269970  66.2898817
  38.1242073  11.5810658  53.5713464  37.4311318  11.6555013  52.9153500
  37.8793825  10.8171002  54.0934981  46.7955729   3.1406259  60.9752955
  47.0757483   2.4729448  61.6013381  47.5806336   3.3335355  60.4627619
  44.5989198  22.3165253  52.5377981  44.0263165  22.9355440  52.0848453
  45.1721991  22.8664615  53.0717903  50.6664587  11.5623893  64.7224530
  51.6182010  11.6621991  64.7436754  50.4968038  10.7702162  65.2322614
  48.6878967   8.6479477  64.9083931  48.0928899   8.9284489  64.2130419
  48.4028664   9.1373377  65.6800672  47.8186457  22.6002403  53.6686563
  48.7517131  22.5347965  53.8719439  47.7309670  23.4358670  53.2101096
  50.4474474  21.9168274  50.6290511  50.3688106  21.5828137  51.5226269
  51.2684141  22.4090042  50.6281983  53.1452665  14.7830013  63.8366829
  53.1128985  13.8446014  64.0226513  53.7553289  14.8614050  63.1032654
  44.9835996  13.6526066  49.8794033  45.9295101  13.5232274  49.9482452
  44.6050241  12.9140728  50.3563462  53.2947154  11.5741056  63.8825113
  52.7786202  10.7899513  63.6955041  54.1787102  11.2459773  64.0471632
  50.9557881   5.3182072  59.8420925  50.7582702   5.0097160  60.7264257
  51.5657586   6.0443711  59.9718855  58.9629215  15.8446020  62.9772866
  59.6932604  15.5831308  63.5380570  58.3536161  15.1074742  63.0174934
  57.0444512  13.9853882  63.5747317  56.3177676  13.8509847  62.9663809
  56.6291799  14.2930711  64.3804035  44.8674689  17.7043812  71.3394690
  45.7877698  17.8822411  71.5334737  44.8324272  16.7599857  71.1874390
  43.1678913  11.5776042  49.8148919  42.2610369  11.2809155  49.8911632
  43.4454894  11.2805860  48.9483205  34.0856854  12.8982406  60.2647965
  33.7659638  12.0447714  59.9722339  33.5390282  13.1130984  61.0205932
  37.8636761  15.6144847  63.9817472  38.0822771  16.5461955  64.0005505
  38.2762535  15.2552821  64.7672275  44.7840979   6.1212932  55.9693160
  43.9741707   5.7760017  56.3448406  45.4725396   5.8120476  56.5580772
  46.7131527   5.1990979  57.5917457  47.2662566   5.6186432  58.2507480
  46.9501614   4.2726727  57.6340413  42.7364627  11.1878053  73.3720221
  42.6361353  12.1372410  73.3032312  42.5186169  10.8596291  72.4996291
  41.9377698   8.4362978  49.9560898  42.7996862   8.7617876  50.2156715
  42.1228042   7.6494474  49.4433964  33.9545114  16.5185317  62.2341087
  33.2608585  16.1039270  61.7211041  34.7018105  16.5605854  61.6374506
  50.0910334   7.3091504  57.0996121  49.5109003   7.9676308  56.7174173
  49.8246267   6.4868849  56.6883538  48.5413901   6.7096562  59.3017441
  49.0413679   6.8213096  58.4931760  49.1849509   6.4057615  59.9418250
  42.5995897  14.6175191  72.1885282  42.1162978  15.4175552  72.3949171
  42.6856836  14.6283136  71.2352726  35.8681856  16.4503571  60.1107102
  35.8452544  16.5491258  59.1588985  36.1782493  17.2968722  60.4324268
  38.5269234  18.5079726  64.2253716  39.4812488  18.4763668  64.1583648
  38.3281758  18.0470350  65.0403942  39.1168616  17.0780842  66.7924514
  39.9361505  17.5724921  66.8159351  39.3905424  16.1612810  66.7642081
  48.8735212   9.4691594  56.1552469  47.9861067   9.7541245  55.9372664
  49.2889201   9.3085358  55.3079746  52.2249749   9.4938115  59.8706808
  53.0010139   9.9834568  60.1431425  51.4997883   9.9196170  60.3278678
  54.6622307  10.2065735  60.9280749  55.2566798   9.9661471  60.2174057
  54.7348891   9.4872865  61.5554285  36.8819463  24.0499346  61.2423914
  36.7473931  23.2899746  60.6761912  36.4651525  24.7740245  60.7752703
  48.0178426  19.2336269  50.2500489  48.7214276  19.4386272  50.8658145
  47.2941075  19.8013031  50.5149573  48.8476236  14.9846130  56.3702759
  48.7911438  15.4414682  55.5310392  49.4004579  14.2236815  56.1925602
  52.6581042  10.7735862  57.1952879  52.4017976  10.3732498  58.0261087
  52.0333910  11.4879656  57.0703018  56.9693380  13.5131936  59.7024170
  56.4092938  13.5825125  60.4755732  56.3636883  13.3372920  58.9823666
  40.0388589  24.9468663  61.4542357  39.9220973  25.8914095  61.3521047
  39.2181035  24.6442224  61.8428156  49.9265123  19.6718798  52.2998949
  50.7610727  19.2399997  52.1176424  49.7649466  19.5000812  53.2275844
  49.5811015  16.1750912  53.6655289  49.5259819  16.0095183  52.7243733
  48.9557071  16.8826945  53.8217478  34.3703530  11.4118976  67.4916711
  35.0162394  10.9017930  67.9803936  34.1620682  12.1487658  68.0660136
  46.8956923  18.4799824  72.9908851  47.7648082  18.6540476  72.6295486
  46.4163674  19.2994240  72.8684581  42.8907141   5.6759021  53.2440607
  42.8785811   6.6200861  53.4008878  43.7830563   5.4929166  52.9500068
  41.0643103  25.5996925  64.6698285  41.9670350  25.6320535  64.9864780
  40.8380473  24.6697375  64.6844621  42.8196705  24.3527911  61.3308364
  41.8692336  24.3529773  61.2172736  43.1229191  23.6060646  60.8144398
  46.7059260   2.2701797  57.4986544  45.9391656   1.7160284  57.6443226
  47.1169965   2.3423666  58.3600695  38.7101021   8.5586593  71.5891725
  39.5732483   8.2023398  71.7995050  38.1366432   8.2200488  72.2767129
  58.5549398  30.1888449  62.3954126  59.1927808  30.0695197  61.6917466
  58.4370241  31.1369293  62.4542078  55.3639105  30.1415878  62.3315651
  55.0257616  30.0256942  61.4436186  56.2328873  29.7407043  62.3116657
  51.2225920  31.9951354  58.3212542  50.6590785  31.9041291  57.5528829
  51.1078315  31.1751258  58.8015034  55.8458888  31.2950729  68.2901856
  55.8347528  30.9003528  67.4182360  56.0079527  30.5616802  68.8835628
  56.8025479  35.6622322  53.6327007  56.1513459  36.2476402  53.2461020
  57.5969842  36.1928517  53.6922044  52.5666149  34.0787841  67.2381040
  52.2756015  34.9833472  67.1227706  53.2023133  34.1204369  67.9525110
  53.4922356  31.4564690  63.8282400  54.0885928  31.2320712  63.1139363
  53.5497327  30.7149435  64.4307848  53.0647384  28.9104125  51.6632591
  53.3172905  28.3885646  50.9016054  52.1271943  28.7470270  51.7659274
  58.1090667  27.9139903  59.4707334  58.8953756  27.4959326  59.1197751
  58.3729371  28.8185995  59.6388982  58.2800744  33.3512754  54.1695991
  57.6446577  33.4247380  54.8816895  57.9498151  33.9406352  53.4915070
  63.5099094  27.8515136  60.3740313  64.2424266  27.2814353  60.6078142
  62.7538450  27.4636737  60.8146818  52.7843673  30.8132231  53.8656966
  52.6679931  30.1377134  54.5338050  52.8945933  30.3264605  53.0489119
  55.1275214  30.2742378  57.5703655  54.7633421  29.7472999  58.2816576
  55.9842330  29.8840847  57.3970140  61.0324514  21.5636711  64.8334921
  60.7007839  22.4332122  64.6096136  60.4370128  21.2472995  65.5128952
  54.7680701  25.3032278  52.5665003  54.9355103  26.1712514  52.9335475
  54.5777870  25.4659559  51.6426293  57.5256034  33.7649257  64.2330834
  57.2256757  34.6674295  64.1246641  57.1807093  33.4981440  65.0851987
  50.9768515  30.2163053  60.2667538  50.0519012  30.0839268  60.4745230
  51.2252929  30.9957273  60.7637481  60.9253178  26.2831797  61.9128271
  60.0170055  26.2147205  61.6187032  60.8740773  26.7603742  62.7410097
  54.7469922  27.7589935  53.5511670  54.6269547  28.2046986  54.3897151
  54.0522510  28.1075253  52.9925208  48.3377326  29.8596327  61.1011327
  48.4669708  30.1130806  62.0150739  47.6574778  30.4524035  60.7815982
  54.9994043  27.7021442  69.8563168  54.2227377  28.2615363  69.8466033
  55.6384606  28.1878225  70.3778039  62.7914824  24.4848235  63.6906145
  62.1489204  24.7780768  63.0445940  62.2869753  24.3701156  64.4959342
  60.4454988  28.2311408  54.3792004  61.3572844  28.4638795  54.2039702
  59.9364635  28.8148453  53.8167083  53.2540416  30.5106896  69.4181135
  53.9955100  31.0491940  69.1415959  52.5477401  31.1373184  69.5752687
  58.7295755  32.6536036  68.0153297  59.1379111  32.2118447  67.2707929
  58.0073017  32.0788664  68.2687490  55.0826825  27.5908643  65.3886854
  55.9288021  28.0148057  65.5321503  55.0225463  26.9342267  66.0825417
  59.0524570  33.2137227  61.7705586  58.4233432  33.3782941  61.0681654
  58.6650232  33.6278836  62.5416550  62.9313802  34.1491665  59.1249950
  62.2464840  34.5290566  58.5746983  63.0157651  34.7586991  59.8581897
  58.2326271  25.2513011  67.0468028  57.9887203  26.0055072  66.5102303
  58.5086201  25.6298359  67.8815275  60.1864734  31.7951624  65.7245293
  60.3981629  32.4383384  65.0479674  60.1394482  30.9613940  65.2567223
  57.7890962  24.4069444  62.6281865  56.9275442  24.7050698  62.9198603
  57.8153397  24.6239843  61.6962898  54.6052532  32.9511635  59.0355671
  55.0690877  33.2299338  58.2460293  54.3409330  32.0495079  58.8528762
  53.5421418  29.0734787  55.8445236  54.2445461  29.5255831  56.3119162
  53.2102046  28.4318606  56.4725129  51.9901779  27.6646544  70.2196445
  51.3600440  28.3462825  70.4531842  51.8837867  27.5529626  69.2749584
  47.2846752  27.3318340  61.1462370  46.4945806  27.5875868  60.6702480
  47.7757999  28.1466678  61.2514410  61.3010561  34.6723579  63.8967650
  62.1228005  34.2703766  63.6150332  61.2972964  34.5691813  64.8483766
  49.2361497  27.6962919  58.1045846  48.4392661  27.8081613  58.6229342
  49.0087089  28.0349571  57.2386737  55.0667165  34.2207622  66.0528361
  55.1311597  34.6828030  66.8886533  54.3578089  33.5904987  66.1810671
  45.5684455  27.5848830  63.5777360  45.8192493  28.4695840  63.8434936
  46.1044003  27.4053432  62.8052452  69.3916555  31.0162328  60.2452622
  68.6380263  30.4469726  60.0896626  69.5264096  30.9824992  61.1923257
  51.2682522  21.9667310  72.5821696  50.8749468  21.4133508  73.2569341
  52.0848663  22.2777888  72.9728214  54.1850483  23.3825189  70.1741953
  54.9260197  23.9832342  70.0946416  54.4168406  22.6402827  69.6159996
  49.3291821  28.5681556  68.4520183  49.2145336  27.6666813  68.7527282
  48.4736339  28.8145253  68.1004999  56.4083659  36.5099296  70.0507683
  55.9647513  35.7235675  69.7328588  57.0700873  36.6978447  69.3851574
  58.5064897  36.7902096  68.0789085  58.4883372  37.6110977  67.5869354
  59.4284817  36.6656172  68.3039226  54.9637951  34.3046226  68.9212593
  55.4966288  33.5434514  68.6911901  54.4352032  34.0119878  69.6636747
  58.1307646  19.4106292  64.4506235  57.7871916  20.3007933  64.3745345
  58.4986609  19.2207949  63.5875820  58.0957929  29.4014903  52.9578670
  57.5804552  30.1719508  53.1967057  57.8235237  28.7280039  53.5811731
  55.6805040  24.2464604  58.0163908  54.8246636  23.8571454  57.8369547
  56.0931992  24.3256564  57.1563694  57.2104187  21.7810947  62.4155468
  56.7068982  21.7441082  61.6023273  57.5034793  22.6903690  62.4752125
  53.4547072  21.8649677  61.4221650  54.3200069  21.6692485  61.0627539
  53.5224581  21.6360028  62.3491006  63.0692203  32.1547258  54.8931843
  62.2921646  31.8158417  54.4487005  63.7483684  32.1599881  54.2186808
  57.8844232  27.2741995  54.7838451  57.5794368  27.5888144  55.6348594
  58.8374674  27.3523415  54.8265784  56.3290664  33.4332218  56.4331405
  55.8012025  32.6984978  56.1204642  55.8278167  34.2106895  56.1871373
  61.3083510  31.6281239  61.5498451  60.6507184  32.3180500  61.6378580
  62.1123909  32.0177671  61.8932438  51.0609391  24.0951885  58.7938017
  51.6353143  23.8727066  58.0611209  51.6480374  24.1640579  59.5466618
  60.1188969  29.9825611  59.6002393  60.6320850  30.6155603  60.1024103
  60.7690193  29.3826807  59.2345753  51.3878979  26.1256346  52.8133902
  50.5516291  26.4631032  53.1343177  51.2483748  25.9905325  51.8761039
  53.3632059  20.9693133  57.5213086  52.7096472  20.6542151  56.8969701
  53.3212533  20.3468874  58.2472909  54.4743264  31.2512429  49.4366378
  53.5670326  31.0201682  49.6357527  54.9714296  30.4550048  49.6240360
  57.3811343  39.9609936  52.3563064  56.7073042  40.2641633  52.9648022
  57.7677165  40.7639016  52.0068521  56.5969800  27.4575067  61.8460734
  55.6792361  27.6790014  61.6882422  57.0129943  27.5321378  60.9872441
  57.3804847  28.8566483  56.9763414  58.1276666  29.3687880  56.6670536
  57.6496437  28.5350535  57.8367807  55.6531497  31.3525023  53.9590368
  54.7442717  31.0684056  54.0562838  55.6826581  31.7724102  53.0993675
  60.8850765  34.9631613  57.7281536  60.4313092  34.1222523  57.7846726
  60.2544732  35.5993011  58.0656316  59.8283684  25.8923599  58.9582203
  59.0906441  25.3800985  59.2892446  60.0810458  25.4523981  58.1465480
  59.3283704  36.8008110  58.6631354  59.6206679  37.3613167  57.9443719
  59.8382325  37.0936671  59.4184513  59.9295312  18.6699851  59.5523972
  60.2354189  17.8097214  59.2649887  60.6547917  19.2617471  59.3522966
  46.2219668  29.0730538  57.9405570  46.0244068  28.4799898  57.2156637
  45.6666332  28.7682748  58.6581509  54.2016392  28.9653644  60.0600163
  54.2565001  28.0127480  59.9842640  53.3907594  29.1213083  60.5441462
  55.3507585  32.8933767  51.2978447  54.9127015  32.1769626  50.8384084
  56.0918026  33.1209882  50.7363538  52.1408751  27.5830704  57.8190542
  51.3276617  27.8824874  58.2255734  52.6367746  27.1886393  58.5365025
  57.7382963  28.0472528  66.6505436  58.0932351  28.2744001  67.5099902
  58.3855094  28.3790905  66.0282692  63.4680700  31.1690964  57.3554765
  63.3298599  31.3592560  56.4275954  63.1116919  31.9310347  57.8122816
  51.6322826  25.1549059  63.4351777  52.2722206  25.0137818  62.7374741
  50.8000357  24.8683573  63.0590379  63.4950080  33.2367491  62.3666037
  63.9286586  33.1442780  63.2149091  64.2081660  33.2124992  61.7286053
  57.2277975  36.8369585  63.8999137  57.2814997  37.4060522  64.6676853
  56.3592756  37.0071470  63.5353175  48.7165894  28.5994571  55.6246522
  47.7863482  28.5379027  55.8416485  48.8123366  28.0770524  54.8283164
  48.6351443  25.1249384  58.2124764  48.8958260  26.0394718  58.1033925
  49.4568615  24.6573827  58.3621377  50.1076368  26.5387141  65.3823589
  50.7799421  26.3304504  64.7336238  49.2806154  26.3409227  64.9428821
  64.3565629  33.2791192  64.8998922  64.5501519  34.1837002  65.1458197
  64.2566247  32.8198611  65.7337507  56.0101940  23.1649082  67.3989250
  55.3629855  23.8639032  67.3053726  56.7802955  23.5985226  67.7665498
  59.4180738  33.4297935  70.4739803  59.2666244  33.2008486  69.5569886
  59.4085417  34.3868536  70.4871148  56.1866074  31.0029847  65.4586069
  57.1158134  31.1541007  65.2855037  55.7657104  31.0913868  64.6034716
  54.9854406  35.0280512  63.2284607  54.8465492  34.6599296  64.1010545
  54.1969002  35.5428151  63.0568565  56.5359621  34.4062114  60.6173445
  56.2009454  34.3662884  61.5131095  56.0363567  33.7406830  60.1443855
  50.5103865  29.8129744  66.1426026  50.3723663  29.0809983  66.7437565
  51.4208789  29.7238645  65.8610214  59.4718813  31.7518149  50.8910504
  58.8547984  31.0264977  50.7943557  59.0035301  32.5127509  50.5477579
  53.1386166  29.5249704  65.6309705  53.8485784  28.8842896  65.5896324
  53.0955474  29.7762599  66.5535886  61.1272945  36.4617057  68.5516285
  61.0685491  35.7776277  67.8846868  61.5292463  37.2036047  68.0996911
  51.8515100  26.5114922  67.4505345  51.3152457  26.0605660  68.1026941
  51.2631808  26.6460830  66.7075809  51.2617359  25.9703573  50.0131809
  50.3846825  25.8492374  49.6494055  51.7375112  25.1789651  49.7610697
  61.1290352  34.4256641  66.7830264  60.2417131  34.0882563  66.9056663
  61.6988903  33.6939672  67.0199030  42.7819499  30.7580733  60.1073316
  43.4690539  30.4442463  59.5194331  42.6267628  31.6622097  59.8340567
  47.5854221  25.6470929  64.5358339  47.5012410  25.0396599  63.8008749
  46.7636927  26.1379948  64.5367836  57.7577935  24.1324493  59.9028534
  58.2546634  23.3794455  59.5829605  56.9864916  24.1688810  59.3371744
  65.6107692  29.8364858  61.5446826  65.5997569  30.7189574  61.1740759
  64.7425072  29.4836409  61.3501363  57.1190189  38.9844927  65.9049666
  57.8318161  39.6192392  65.8325568  56.6280217  39.0808793  65.0889668
  58.8407716  32.8896180  57.4766958  57.9063994  33.0097643  57.3071662
  59.0184384  31.9868647  57.2126968  54.3412904  26.2741876  59.6300219
  53.9710691  25.7212916  60.3181125  54.8371996  25.6700009  59.0775219
  62.2280267  28.7313499  58.0116992  62.6940719  29.5641491  57.9377295
  62.6787767  28.2658481  58.7162250  52.1702102  36.7339371  66.7255237
  52.8711562  37.3675854  66.8784631  51.6997217  37.0754102  65.9650876
  60.2956498  35.0757321  55.0103144  60.5716342  34.9613915  55.9197018
  59.4260997  34.6774806  54.9715317  60.1996930  21.0994086  62.0507893
  59.2860010  21.3298313  62.2190100  60.6290031  21.1832530  62.9021926
  59.9703388  29.2883978  64.5507787  59.3174838  29.5359886  63.8960240
  60.3483768  28.4748117  64.2170265  57.2652728  38.2511857  55.9151006
  57.7940494  37.7404311  55.3021168  57.5280947  37.9354387  56.7796539
  56.0190961  30.0303789  71.0373824  55.3431598  29.9297919  71.7076200
  56.8418595  29.8743003  71.5009822  42.3587475  28.8381326  62.3790783
  42.3971575  28.3044917  63.1727901  41.8527768  28.3116532  61.7601760
  49.7378237  23.6845867  65.8753325  49.8019564  24.5460698  65.4630723
  49.6745358  23.0719868  65.1425684  49.2130510  25.7568999  69.5226359
  49.8402549  25.3746077  70.1363884  48.3558429  25.5383201  69.8882052
  59.6124618  36.1631974  71.1280095  60.1564522  36.7761933  70.6335050
  59.0311463  36.7211553  71.6447108  45.9896053  27.5645428  55.4544714
  46.2849494  26.6556107  55.4011768  45.0884088  27.5433168  55.1325717
  49.5190300  25.6401425  61.4372263  48.7976885  26.2537393  61.2979736
  50.3083555  26.1759190  61.3588909  59.9617040  37.0861712  63.8874673
  59.0147375  36.9667064  63.8152999  60.3099813  36.1984210  63.9700934
  52.3216613  22.9755851  67.7112915  52.8451015  23.2218148  68.4739224
  52.1028946  23.8075886  67.2916052  47.7183894  25.2459526  55.5784039
  47.3896600  24.3656905  55.3959145  48.0723265  25.1907195  56.4660429
  50.8325717  25.5332496  55.9459517  51.1721790  26.0618417  55.2238125
  51.2797838  25.8712902  56.7218084  60.5697595  37.7042987  61.1743898
  61.4944142  37.4985849  61.0368349  60.4012898  37.4559389  62.0833239
  53.5269158  23.9169546  65.3962585  53.1865979  23.1177360  65.7983265
  52.8208164  24.2171257  64.8239418  54.1785630  21.0018859  63.8489908
  55.0011699  20.5279337  63.7268798  54.4223694  21.7809343  64.3488594
  52.8193865  24.0307117  54.1452810  53.5402227  24.4088370  53.6416527
  52.1959169  24.7495994  54.2487788  56.9624987  24.7352266  55.0811142
  57.1788602  25.6176904  54.7799970  56.4819055  24.3438480  54.3516784
  51.7024209  27.6937980  61.6581887  51.5568790  28.0078283  62.5506168
  51.2249412  28.3122880  61.1052785  53.5620592  24.6840528  61.7062776
  53.5482160  23.7881621  61.3695074  54.2793020  24.6911191  62.3401062
  55.4146722  25.1177868  63.7515904  55.1564500  26.0394938  63.7500234
  54.8831763  24.7208302  64.4416368  60.3592911  38.2228655  56.5305989
  60.5329789  37.6575077  55.7779842  60.8521802  39.0229550  56.3485479
  46.1769871  30.2343324  64.5969548  45.6323339  31.0103132  64.7289822
  47.0549221  30.5814128  64.4388669  52.9657488  23.5654908  56.9750346
  53.0873399  22.6371554  57.1741234  52.6759530  23.5793594  56.0628662
  55.8348678  21.2509818  60.1117066  55.8570375  21.3149151  59.1569046
  56.2516737  20.4114327  60.3057572  66.2132302  30.9865078  58.1496289
  66.6563448  30.2372403  57.7515412  65.3358813  30.9775214  57.7670021
  61.3468084  37.5395419  53.6302887  62.0418988  38.1602112  53.8490202
  61.6891234  36.6890770  53.9055265  46.9635893  29.3613220  67.4899705
  46.2217629  29.5095856  68.0764335  46.6428637  29.6221486  66.6266454
  63.2459507  34.9895125  55.1590218  63.7710831  35.3282398  54.4339538
  63.1581859  34.0542140  54.9753353  54.9079555  38.9029198  67.2880095
  55.2166682  38.6578345  68.1602794  55.7055037  39.1075837  66.7998965
  52.4498567  25.0786905  71.1840279  52.4986723  25.9549028  70.8018049
  52.9921081  24.5364298  70.6111922  62.9353413  35.6228028  70.4641416
  62.1448957  35.6052167  69.9245916  62.6986767  36.1616322  71.2190453
  63.0551288  32.4720495  67.7774145  63.1049293  32.3070502  68.7189667
  62.9465211  31.6047754  67.3872025  60.3455050  28.4551423  69.0933451
  61.2464913  28.3157888  68.8017449  60.4203025  28.6205878  70.0331629
  54.6797856  25.8318278  67.9386638  53.8101165  26.1251844  67.6669226
  54.9157336  26.4158723  68.6593901  64.5569485  34.8917436  68.0216166
  64.2654293  35.2547417  68.8579627  63.9441616  34.1784445  67.8429498
  65.7565167  32.4570316  60.5418736  66.5912058  32.8960120  60.7056297
  65.8924296  31.9808969  59.7226982  62.8056673  30.0150051  66.4896224
  63.2810795  30.2077697  65.6815076  61.8822238  30.0709237  66.2439608
  49.6940180  31.1774218  56.0727302  49.4486221  30.2736548  56.2707513
  49.8636094  31.1791369  55.1306780  57.3836889  22.0497895  65.4552058
  57.9018833  22.7858921  65.1298547  57.0292022  22.3561888  66.2898817
  48.9635827  26.9102576  53.5713464  48.2705072  26.9846931  52.9153500
  48.7187579  26.1462919  54.0934981  57.6349484  18.4698177  60.9752955
  57.9151237  17.8021366  61.6013381  58.4200091  18.6627273  60.4627619
  55.4382952  37.6457171  52.5377981  54.8656919  38.2647358  52.0848453
  56.0115746  38.1956533  53.0717903  61.5058342  26.8915811  64.7224530
  62.4575765  26.9913909  64.7436754  61.3361792  26.0994080  65.2322614
  59.5272721  23.9771394  64.9083931  58.9322654  24.2576407  64.2130419
  59.2422418  24.4665295  65.6800672  58.6580212  37.9294321  53.6686563
  59.5910885  37.8639883  53.8719439  58.5703425  38.7650588  53.2101096
  61.2868229  37.2460191  50.6290511  61.2081860  36.9120055  51.5226269
  62.1077895  37.7381959  50.6281983  63.9846420  30.1121931  63.8366829
  63.9522740  29.1737931  64.0226513  64.5947043  30.1905967  63.1032654
  55.8229751  28.9817984  49.8794033  56.7688855  28.8524192  49.9482452
  55.4443996  28.2432646  50.3563462  64.1340908  26.9032974  63.8825113
  63.6179957  26.1191431  63.6955041  65.0180857  26.5751691  64.0471632
  61.7951635  20.6473990  59.8420925  61.5976456  20.3389078  60.7264257
  62.4051341  21.3735629  59.9718855  69.8022970  31.1737938  62.9772866
  70.5326358  30.9123226  63.5380570  69.1929915  30.4366660  63.0174934
  67.8838267  29.3145800  63.5747317  67.1571430  29.1801765  62.9663809
  67.4685554  29.6222629  64.3804035  55.7068443  33.0335730  71.3394690
  56.6271453  33.2114329  71.5334737  55.6718026  32.0891775  71.1874390
  54.0072668  26.9067960  49.8148919  53.1004123  26.6101073  49.8911632
  54.2848649  26.6097778  48.9483205  44.9250608  28.2274323  60.2647965
  44.6053392  27.3739632  59.9722339  44.3784036  28.4422902  61.0205932
  48.7030516  30.9436764  63.9817472  48.9216525  31.8753872  64.0005505
  49.1156290  30.5844739  64.7672275  55.6234733  21.4504850  55.9693160
  54.8135462  21.1051935  56.3448406  56.3119150  21.1412394  56.5580772
  57.5525282  20.5282897  57.5917457  58.1056320  20.9478350  58.2507480
  57.7895368  19.6018645  57.6340413  53.5758381  26.5169970  73.3720221
  53.4755108  27.4664327  73.3032312  53.3579923  26.1888209  72.4996291
  52.7771452  23.7654895  49.9560898  53.6390616  24.0909794  50.2156715
  52.9621797  22.9786391  49.4433964  44.7938868  31.8477235  62.2341087
  44.1002340  31.4331188  61.7211041  45.5411859  31.8897771  61.6374506
  60.9304089  22.6383422  57.0996121  60.3502758  23.2968226  56.7174173
  60.6640022  21.8160766  56.6883538  59.3807655  22.0388479  59.3017441
  59.8807434  22.1505014  58.4931760  60.0243263  21.7349532  59.9418250
  53.4389651  29.9467109  72.1885282  52.9556733  30.7467469  72.3949171
  53.5250590  29.9575054  71.2352726  46.7075611  31.7795489  60.1107102
  46.6846299  31.8783176  59.1588985  47.0176247  32.6260640  60.4324268
  49.9562371  32.4072760  66.7924514  50.7755260  32.9016839  66.8159351
  50.2299178  31.4904728  66.7642081  59.7128967  24.7983512  56.1552469
  58.8254822  25.0833163  55.9372664  60.1282956  24.6377276  55.3079746
  63.0643503  24.8230033  59.8706808  63.8403893  25.3126486  60.1431425
  62.3391637  25.2488087  60.3278678  65.5016062  25.5357652  60.9280749
  66.0960552  25.2953388  60.2174057  65.5742645  24.8164783  61.5554285
  58.8572180  34.5628187  50.2500489  59.5608030  34.7678189  50.8658145
  58.1334829  35.1304949  50.5149573  59.6869991  30.3138048  56.3702759
  59.6305192  30.7706600  55.5310392  60.2398333  29.5528733  56.1925602
  63.4974797  26.1027780  57.1952879  63.2411731  25.7024416  58.0261087
  62.8727665  26.8171574  57.0703018  67.8087134  28.8423853  59.7024170
  67.2486692  28.9117043  60.4755732  67.2030638  28.6664838  58.9823666
  60.7658878  35.0010716  52.2998949  61.6004482  34.5691914  52.1176424
  60.6043221  34.8292730  53.2275844  60.4204770  31.5042829  53.6655289
  60.3653574  31.3387101  52.7243733  59.7950825  32.2118862  53.8217478
  45.2097285  26.7410894  67.4916711  45.8556149  26.2309848  67.9803936
  45.0014436  27.4779575  68.0660136  57.7350677  33.8091741  72.9908851
  58.6041837  33.9832393  72.6295486  57.2557429  34.6286158  72.8684581
  53.7300895  21.0050938  53.2440607  53.7179565  21.9492778  53.4008878
  54.6224317  20.8221084  52.9500068  57.5453015  17.5993715  57.4986544
  56.7785411  17.0452202  57.6443226  57.9563720  17.6715584  58.3600695
  49.5494776  23.8878511  71.5891725  50.4126237  23.5315316  71.7995050
  48.9760187  23.5492406  72.2767129  66.2032859  45.4707795  62.3315651
  65.8651371  45.3548860  61.4436186  67.0722627  45.0698960  62.3116657
  62.0619675  47.3243272  58.3212542  61.4984540  47.2333209  57.5528829
  61.9472070  46.5043176  58.8015034  66.6852642  46.6242647  68.2901856
  66.6741283  46.2295445  67.4182360  66.8473282  45.8908720  68.8835628
  67.6419234  50.9914239  53.6327007  66.9907213  51.5768320  53.2461020
  68.4363596  51.5220434  53.6922044  68.9484421  43.2431821  59.4707334
  69.7347511  42.8251244  59.1197751  69.2123126  44.1477913  59.6388982
  69.1194499  48.6804671  54.1695991  68.4840332  48.7539298  54.8816895
  68.7891905  49.2698270  53.4915070  74.3492848  43.1807054  60.3740313
  75.0818020  42.6106271  60.6078142  73.5932204  42.7928655  60.8146818
  63.6237427  46.1424149  53.8656966  63.5073685  45.4669052  54.5338050
  63.7339687  45.6556522  53.0489119  65.9668968  45.6034296  57.5703655
  65.6027175  45.0764917  58.2816576  66.8236084  45.2132765  57.3970140
  71.8718269  36.8928628  64.8334921  71.5401594  37.7624039  64.6096136
  71.2763882  36.5764912  65.5128952  65.6074455  40.6324195  52.5665003
  65.7748858  41.5004432  52.9335475  65.4171624  40.7951477  51.6426293
  71.7646932  41.6123714  61.9128271  70.8563809  41.5439123  61.6187032
  71.7134528  42.0895659  62.7410097  65.5863676  43.0881853  53.5511670
  65.4663301  43.5338904  54.3897151  64.8916264  43.4367171  52.9925208
  65.8387798  43.0313360  69.8563168  65.0621132  43.5907280  69.8466033
  66.4778361  43.5170143  70.3778039  73.6308579  39.8140153  63.6906145
  72.9882959  40.1072686  63.0445940  73.1263507  39.6993073  64.4959342
  71.2848742  43.5603326  54.3792004  72.1966598  43.7930713  54.2039702
  70.7758389  44.1440370  53.8167083  64.0934170  45.8398813  69.4181135
  64.8348855  46.3783857  69.1415959  63.3871156  46.4665102  69.5752687
  65.9220580  42.9200561  65.3886854  66.7681775  43.3439974  65.5321503
  65.8619218  42.2634185  66.0825417  73.7707556  49.4783582  59.1249950
  73.0858595  49.8582484  58.5746983  73.8551406  50.0878909  59.8581897
  69.0720025  40.5804929  67.0468028  68.8280957  41.3346990  66.5102303
  69.3479956  40.9590277  67.8815275  68.6284717  39.7361362  62.6281865
  67.7669196  40.0342616  62.9198603  68.6547152  39.9531761  61.6962898
  64.3815172  44.4026705  55.8445236  65.0839216  44.8547749  56.3119162
  64.0495801  43.7610524  56.4725129  62.8295534  42.9938462  70.2196445
  62.1994195  43.6754742  70.4531842  62.7231622  42.8821543  69.2749584
  60.0755252  43.0254837  58.1045846  59.2786415  43.1373531  58.6229342
  59.8480844  43.3641489  57.2386737  80.2310309  46.3454245  60.2452622
  79.4774017  45.7761643  60.0896626  80.3657850  46.3116910  61.1923257
  62.1076277  37.2959227  72.5821696  61.7143222  36.7425426  73.2569341
  62.9242417  37.6069806  72.9728214  65.0244238  38.7117107  70.1741953
  65.7653951  39.3124260  70.0946416  65.2562160  37.9694744  69.6159996
  67.2477413  51.8391214  70.0507683  66.8041268  51.0527593  69.7328588
  67.9094627  52.0270365  69.3851574  68.9701401  34.7398209  64.4506235
  68.6265670  35.6299851  64.3745345  69.3380363  34.5499867  63.5875820
  66.5198794  39.5756521  58.0163908  65.6640391  39.1863372  57.8369547
  66.9325746  39.6548482  57.1563694  68.0497941  37.1102865  62.4155468
  67.5462737  37.0733000  61.6023273  68.3428548  38.0195607  62.4752125
  64.2940827  37.1941594  61.4221650  65.1593824  36.9984403  61.0627539
  64.3618336  36.9651946  62.3491006  73.9085957  47.4839175  54.8931843
  73.1315400  47.1450335  54.4487005  74.5877438  47.4891798  54.2186808
  68.7237987  42.6033913  54.7838451  68.4188122  42.9180062  55.6348594
  69.6768429  42.6815333  54.8265784  67.1684418  48.7624136  56.4331405
  66.6405780  48.0276896  56.1204642  66.6671921  49.5398812  56.1871373
  61.9003146  39.4243802  58.7938017  62.4746898  39.2018984  58.0611209
  62.4874128  39.4932497  59.5466618  62.2272733  41.4548263  52.8133902
  61.3910045  41.7922950  53.1343177  62.0877503  41.3197243  51.8761039
  64.2025814  36.2985051  57.5213086  63.5490226  35.9834068  56.8969701
  64.1606288  35.6760792  58.2472909  67.4363554  42.7866985  61.8460734
  66.5186115  43.0081932  61.6882422  67.8523698  42.8613295  60.9872441
  68.2198602  44.1858400  56.9763414  68.9670421  44.6979798  56.6670536
  68.4890191  43.8642453  57.8367807  66.4925252  46.6816941  53.9590368
  65.5836471  46.3975974  54.0562838  66.5220336  47.1016020  53.0993675
  70.6677439  41.2215517  58.9582203  69.9300196  40.7092903  59.2892446
  70.9204212  40.7815898  58.1465480  70.7689066  33.9991769  59.5523972
  71.0747943  33.1389132  59.2649887  71.4941671  34.5909389  59.3522966
  65.0410146  44.2945562  60.0600163  65.0958756  43.3419398  59.9842640
  64.2301348  44.4505001  60.5441462  62.9802506  42.9122621  57.8190542
  62.1670371  43.2116792  58.2255734  63.4761500  42.5178310  58.5365025
  68.5776718  43.3764446  66.6505436  68.9326105  43.6035919  67.5099902
  69.2248849  43.7082823  66.0282692  74.3074455  46.4982882  57.3554765
  74.1692353  46.6884478  56.4275954  73.9510673  47.2602265  57.8122816
  62.4716581  40.4840977  63.4351777  63.1115960  40.3429736  62.7374741
  61.6394111  40.1975490  63.0590379  59.4745197  40.4541302  58.2124764
  59.7352014  41.3686635  58.1033925  60.2962369  39.9865745  58.3621377
  60.9470122  41.8679059  65.3823589  61.6193176  41.6596421  64.7336238
  60.1199909  41.6701145  64.9428821  66.8495694  38.4941000  67.3989250
  66.2023609  39.1930950  67.3053726  67.6196710  38.9277144  67.7665498
  70.2574492  48.7589852  70.4739803  70.1059999  48.5300404  69.5569886
  70.2479172  49.7160454  70.4871148  62.6908854  41.8406839  67.4505345
  62.1546211  41.3897578  68.1026941  62.1025563  41.9752748  66.7075809
  58.4247976  40.9762847  64.5358339  58.3406164  40.3688517  63.8008749
  57.6030682  41.4671865  64.5367836  68.5971689  39.4616411  59.9028534
  69.0940389  38.7086373  59.5829605  67.8258671  39.4980727  59.3371744
  76.4501447  45.1656776  61.5446826  76.4391323  46.0481492  61.1740759
  75.5818826  44.8128327  61.3501363  69.6801470  48.2188098  57.4766958
  68.7457749  48.3389560  57.3071662  69.8578139  47.3160565  57.2126968
  65.1806658  41.6033794  59.6300219  64.8104446  41.0504834  60.3181125
  65.6765751  40.9991927  59.0775219  73.0674021  44.0605417  58.0116992
  73.5334474  44.8933409  57.9377295  73.5181522  43.5950399  58.7162250
  71.1350253  50.4049238  55.0103144  71.4110096  50.2905833  55.9197018
  70.2654751  50.0066723  54.9715317  71.0390684  36.4286004  62.0507893
  70.1253764  36.6590231  62.2190100  71.4683786  36.5124448  62.9021926
  66.8584716  45.3595707  71.0373824  66.1825353  45.2589836  71.7076200
  67.6812350  45.2034921  71.5009822  60.5771992  39.0137784  65.8753325
  60.6413318  39.8752615  65.4630723  60.5139112  38.4011786  65.1425684
  60.0524264  41.0860917  69.5226359  60.6796303  40.7037994  70.1363884
  59.1952183  40.8675119  69.8882052  60.3584054  40.9693343  61.4372263
  59.6370640  41.5829310  61.2979736  61.1477310  41.5051107  61.3588909
  63.1610368  38.3047769  67.7112915  63.6844769  38.5510066  68.4739224
  62.9422701  39.1367804  67.2916052  58.5577649  40.5751444  55.5784039
  58.2290355  39.6948823  55.3959145  58.9117019  40.5199112  56.4660429
  61.6719472  40.8624413  55.9459517  62.0115544  41.3910335  55.2238125
  62.1191592  41.2004820  56.7218084  64.3662913  39.2461464  65.3962585
  64.0259733  38.4469277  65.7983265  63.6601919  39.5463175  64.8239418
  65.0179385  36.3310777  63.8489908  65.8405454  35.8571255  63.7268798
  65.2617448  37.1101260  64.3488594  63.6587619  39.3599035  54.1452810
  64.3795982  39.7380288  53.6416527  63.0352923  40.0787912  54.2487788
  67.8018742  40.0644184  55.0811142  68.0182356  40.9468822  54.7799970
  67.3212809  39.6730397  54.3516784  62.5417963  43.0229897  61.6581887
  62.3962544  43.3370200  62.5506168  62.0643167  43.6414798  61.1052785
  64.4014346  40.0132445  61.7062776  64.3875915  39.1173539  61.3695074
  65.1186774  40.0203109  62.3401062  66.2540477  40.4469785  63.7515904
  65.9958255  41.3686856  63.7500234  65.7225517  40.0500220  64.4416368
  63.8051242  38.8946825  56.9750346  63.9267153  37.9663472  57.1741234
  63.5153284  38.9085511  56.0628662  66.6742432  36.5801736  60.1117066
  66.6964129  36.6441069  59.1569046  67.0910491  35.7406245  60.3057572
  77.0526057  46.3156995  58.1496289  77.4957203  45.5664321  57.7515412
  76.1752567  46.3067132  57.7670021  63.2892322  40.4078823  71.1840279
  63.3380477  41.2840946  70.8018049  63.8314836  39.8656216  70.6111922
  71.1848805  43.7843340  69.0933451  72.0858668  43.6449805  68.8017449
  71.2596779  43.9497795  70.0331629  65.5191610  41.1610195  67.9386638
  64.6494919  41.4543761  67.6669226  65.7551090  41.7450640  68.6593901
  76.5958922  47.7862234  60.5418736  77.4305813  48.2252038  60.7056297
  76.7318050  47.3100887  59.7226982  73.6450427  45.3441969  66.4896224
  74.1204549  45.5369615  65.6815076  72.7215993  45.4001154  66.2439608
  68.2230644  37.3789812  65.4552058  68.7412588  38.1150839  65.1298547
  67.8685777  37.6853805  66.2898817  59.8029582  42.2394493  53.5713464
  59.1098827  42.3138848  52.9153500  59.5581333  41.4754837  54.0934981
  68.4743238  33.7990095  60.9752955  68.7544992  33.1313284  61.6013381
  69.2593845  33.9919190  60.4627619  66.2776707  52.9749089  52.5377981
  65.7050674  53.5939276  52.0848453  66.8509500  53.5248450  53.0717903
  72.3452096  42.2207729  64.7224530  73.2969519  42.3205826  64.7436754
  72.1755547  41.4285997  65.2322614  70.3666476  39.3063312  64.9083931
  69.7716408  39.5868325  64.2130419  70.0816173  39.7957213  65.6800672
  74.8240174  45.4413848  63.8366829  74.7916494  44.5029849  64.0226513
  75.4340798  45.5197885  63.1032654  74.9734663  42.2324892  63.8825113
  74.4573711  41.4483348  63.6955041  75.8574611  41.9043608  64.0471632
  72.6345390  35.9765907  59.8420925  72.4370211  35.6680996  60.7264257
  73.2445095  36.7027546  59.9718855  80.6416724  46.5029855  62.9772866
  81.3720113  46.2415143  63.5380570  80.0323670  45.7658577  63.0174934
  78.7232021  44.6437718  63.5747317  77.9965185  44.5093683  62.9663809
  78.3079308  44.9514546  64.3804035  66.5462198  48.3627647  71.3394690
  67.4665207  48.5406247  71.5334737  66.5111781  47.4183693  71.1874390
  66.4628488  36.7796767  55.9693160  65.6529216  36.4343852  56.3448406
  67.1512905  36.4704311  56.5580772  68.3919036  35.8574814  57.5917457
  68.9450075  36.2770268  58.2507480  68.6289123  34.9310562  57.6340413
  64.4152135  41.8461888  73.3720221  64.3148862  42.7956245  73.3032312
  64.1973678  41.5180127  72.4996291  63.6165207  39.0946813  49.9560898
  64.4784371  39.4201711  50.2156715  63.8015551  38.3078309  49.4433964
  71.7697843  37.9675339  57.0996121  71.1896512  38.6260143  56.7174173
  71.5033776  37.1452684  56.6883538  70.2201410  37.3680397  59.3017441
  70.7201188  37.4796932  58.4931760  70.8637018  37.0641450  59.9418250
  64.2783406  45.2759027  72.1885282  63.7950487  46.0759387  72.3949171
  64.3644345  45.2866972  71.2352726  70.5522721  40.1275430  56.1552469
  69.6648576  40.4125080  55.9372664  70.9676710  39.9669193  55.3079746
  73.9037258  40.1521951  59.8706808  74.6797648  40.6418403  60.1431425
  73.1785392  40.5780005  60.3278678  76.3409816  40.8649570  60.9280749
  76.9354307  40.6245306  60.2174057  76.4136400  40.1456701  61.5554285
  70.5263745  45.6429966  56.3702759  70.4698947  46.0998517  55.5310392
  71.0792088  44.8820650  56.1925602  74.3368551  41.4319698  57.1952879
  74.0805485  41.0316333  58.0261087  73.7121419  42.1463492  57.0703018
  78.6480889  44.1715771  59.7024170  78.0880447  44.2408960  60.4755732
  78.0424392  43.9956755  58.9823666  71.2598524  46.8334747  53.6655289
  71.2047328  46.6679018  52.7243733  70.6344580  47.5410780  53.8217478
  68.5744432  49.1383659  72.9908851  69.4435591  49.3124311  72.6295486
  68.0951183  49.9578076  72.8684581  64.5694650  36.3342856  53.2440607
  64.5573320  37.2784696  53.4008878  65.4618072  36.1513001  52.9500068
  68.3846769  32.9285633  57.4986544  67.6179165  32.3744119  57.6443226
  68.7957474  33.0007501  58.3600695  60.3888530  39.2170428  71.5891725
  61.2519992  38.8607233  71.7995050  59.8153941  38.8784323  72.2767129
  85.1886603  58.5098972  60.3740313  85.9211775  57.9398189  60.6078142
  84.4325959  58.1220572  60.8146818  82.7112023  52.2220546  64.8334921
  82.3795348  53.0915957  64.6096136  82.1157637  51.9056830  65.5128952
  82.6040687  56.9415632  61.9128271  81.6957564  56.8731041  61.6187032
  82.5528282  57.4187577  62.7410097  84.4702333  55.1432071  63.6906145
  83.8276713  55.4364604  63.0445940  83.9657262  55.0284991  64.4959342
  84.6101311  64.8075500  59.1249950  83.9252349  65.1874401  58.5746983
  84.6945160  65.4170827  59.8581897  79.4678471  55.0653280  62.6281865
  78.6062950  55.3634533  62.9198603  79.4940906  55.2823679  61.6962898
  91.0704063  61.6746163  60.2452622  90.3167772  61.1053561  60.0896626
  91.2051605  61.6408827  61.1923257  79.8095155  50.0690127  64.4506235
  79.4659424  50.9591769  64.3745345  80.1774118  49.8791785  63.5875820
  78.8891695  52.4394782  62.4155468  78.3856491  52.4024917  61.6023273
  79.1822302  53.3487525  62.4752125  84.7479712  62.8131093  54.8931843
  83.9709155  62.4742252  54.4487005  85.4271193  62.8183716  54.2186808
  75.0419568  51.6276969  57.5213086  74.3883981  51.3125986  56.8969701
  75.0000042  51.0052709  58.2472909  81.5071193  56.5507434  58.9582203
  80.7693950  56.0384821  59.2892446  81.7597967  56.1107816  58.1465480
  81.6082821  49.3283686  59.5523972  81.9141698  48.4681050  59.2649887
  82.3335426  49.9201307  59.3522966  85.1468209  61.8274799  57.3554765
  85.0086108  62.0176395  56.4275954  84.7904428  62.5894182  57.8122816
  85.1737589  63.8951326  62.3666037  85.6074095  63.8026616  63.2149091
  85.8869169  63.8708827  61.7286053  86.0353138  63.9375027  64.8998922
  86.2289028  64.8420838  65.1458197  85.9353756  63.4782446  65.7337507
  81.1506322  62.4101984  50.8910504  80.5335493  61.6848812  50.7943557
  80.6822810  63.1711344  50.5477579  79.4365444  54.7908328  59.9028534
  79.9334143  54.0378291  59.5829605  78.6652425  54.8272645  59.3371744
  87.2895201  60.4948694  61.5446826  87.2785078  61.3773409  61.1740759
  86.4212581  60.1420245  61.3501363  83.9067776  59.3897335  58.0116992
  84.3728228  60.2225326  57.9377295  84.3575276  58.9242316  58.7162250
  81.8784439  51.7577922  62.0507893  80.9647519  51.9882149  62.2190100
  82.3077540  51.8416366  62.9021926  81.6490897  59.9467814  64.5507787
  80.9962347  60.1943721  63.8960240  82.0271277  59.1331952  64.2170265
  82.0380420  68.8812490  56.5305989  82.2117298  68.3158913  55.7779842
  82.5309311  69.6813385  56.3485479  77.5136187  51.9093654  60.1117066
  77.5357884  51.9732987  59.1569046  77.9304246  51.0698162  60.3057572
  87.8919811  61.6448913  58.1496289  88.3350957  60.8956238  57.7515412
  87.0146322  61.6359050  57.7670021  83.0255593  68.1979255  53.6302887
  83.7206497  68.8185947  53.8490202  83.3678743  67.3474606  53.9055265
  84.9247016  65.6478960  55.1590218  85.4498340  65.9866233  54.4339538
  84.8369368  64.7125975  54.9753353  84.7338797  63.1304330  67.7774145
  84.7836802  62.9654338  68.7189667  84.6252720  62.2631589  67.3872025
  82.0242559  59.1135258  69.0933451  82.9252422  58.9741723  68.8017449
  82.0990534  59.2789713  70.0331629  86.2356994  65.5501272  68.0216166
  85.9441802  65.9131252  68.8579627  85.6229125  64.8368280  67.8429498
  87.4352676  63.1154151  60.5418736  88.2699567  63.5543956  60.7056297
  87.5711805  62.6392805  59.7226982  84.4844182  60.6733886  66.4896224
  84.9598304  60.8661533  65.6815076  83.5609747  60.7293072  66.2439608
  79.0624398  52.7081730  65.4552058  79.5806342  53.4442757  65.1298547
  78.7079531  53.0145723  66.2898817  79.3136993  49.1282012  60.9752955
  79.5938746  48.4605201  61.6013381  80.0987600  49.3211108  60.4627619
  83.1845851  57.5499646  64.7224530  84.1363274  57.6497744  64.7436754
  83.0149301  56.7577915  65.2322614  81.2060230  54.6355230  64.9083931
  80.6110163  54.9160242  64.2130419  80.9209927  55.1249131  65.6800672
  82.9655738  67.9044027  50.6290511  82.8869369  67.5703890  51.5226269
  83.7865404  68.3965795  50.6281983  85.6633929  60.7705766  63.8366829
  85.6310249  59.8321767  64.0226513  86.2734552  60.8489803  63.1032654
  85.8128417  57.5616809  63.8825113  85.2967466  56.7775266  63.6955041
  86.6968366  57.2335526  64.0471632  83.4739144  51.3057825  59.8420925
  83.2763965  50.9972913  60.7264257  84.0838850  52.0319464  59.9718855
  91.4810479  61.8321773  62.9772866  92.2113867  61.5707061  63.5380570
  90.8717424  61.0950495  63.0174934  89.5625776  59.9729635  63.5747317
  88.8358939  59.8385600  62.9663809  89.1473063  60.2806464  64.3804035
  79.2312791  51.1866732  57.5917457  79.7843829  51.6062185  58.2507480
  79.4682877  50.2602480  57.6340413  82.6091598  53.2967257  57.0996121
  82.0290267  53.9552061  56.7174173  82.3427531  52.4744602  56.6883538
  81.0595164  52.6972315  59.3017441  81.5594943  52.8088849  58.4931760
  81.7030772  52.3933368  59.9418250  84.7431012  55.4813868  59.8706808
  85.5191402  55.9710321  60.1431425  84.0179146  55.9071923  60.3278678
  87.1803571  56.1941488  60.9280749  87.7748061  55.9537224  60.2174057
  87.2530154  55.4748618  61.5554285  80.5359689  65.2212022  50.2500489
  81.2395539  65.4262025  50.8658145  79.8122338  65.7888784  50.5149573
  85.1762306  56.7611615  57.1952879  84.9199240  56.3608251  58.0261087
  84.5515174  57.4755409  57.0703018  89.4874643  59.5007689  59.7024170
  88.9274201  59.5700878  60.4755732  88.8818147  59.3248673  58.9823666
  82.4446387  65.6594551  52.2998949  83.2791991  65.2275750  52.1176424
  82.2830730  65.4876565  53.2275844  79.2240524  48.2577550  57.4986544
  78.4572920  47.7036037  57.6443226  79.6351229  48.3299419  58.3600695
  91.0730662  76.1764202  62.3954126  91.7109072  76.0570950  61.6917466
  90.9551505  77.1245046  62.4542078  87.8820368  76.1291631  62.3315651
  87.5438880  76.0132695  61.4436186  88.7510136  75.7282796  62.3116657
  83.7407184  77.9827107  58.3212542  83.1772049  77.8917044  57.5528829
  83.6259579  77.1627011  58.8015034  88.3640151  77.2826482  68.2901856
  88.3528792  76.8879281  67.4182360  88.5260791  76.5492555  68.8835628
  81.2871616  79.4778299  61.1596762  82.0792908  79.1369123  60.7443061
  81.5268266  79.5873274  62.0798915  89.3206743  81.6498075  53.6327007
  88.6694722  82.2352155  53.2461020  90.1151105  82.1804270  53.6922044
  83.2462370  78.7387212  54.0314141  84.0193246  78.1916199  53.8927017
  83.5987769  79.6031461  54.2428602  85.0847412  80.0663594  67.2381040
  84.7937278  80.9709225  67.1227706  85.7204397  80.1080122  67.9525110
  86.0103619  77.4440443  63.8282400  86.6067191  77.2196465  63.1139363
  86.0678591  76.7025188  64.4307848  85.5828647  74.8979878  51.6632591
  85.8354168  74.3761399  50.9016054  84.6453207  74.7346023  51.7659274
  90.6271930  73.9015656  59.4707334  91.4135020  73.4835079  59.1197751
  90.8910635  74.8061749  59.6388982  90.7982008  79.3388507  54.1695991
  90.1627841  79.4123133  54.8816895  90.4679414  79.9282105  53.4915070
  96.0280357  73.8390890  60.3740313  96.7605529  73.2690106  60.6078142
  95.2719713  73.4512490  60.8146818  85.3024936  76.8007984  53.8656966
  85.1861194  76.1252887  54.5338050  85.4127196  76.3140358  53.0489119
  87.6456477  76.2618131  57.5703655  87.2814684  75.7348752  58.2816576
  88.5023593  75.8716600  57.3970140  93.5505778  67.5512464  64.8334921
  93.2189103  68.4207875  64.6096136  92.9551391  67.2348748  65.5128952
  87.2861964  71.2908031  52.5665003  87.4536366  72.1588267  52.9335475
  87.0959133  71.4535312  51.6426293  90.0437297  79.7525010  64.2330834
  89.7438020  80.6550048  64.1246641  89.6988357  79.4857193  65.0851987
  83.4949779  76.2038806  60.2667538  82.5700275  76.0715021  60.4745230
  83.7434192  76.9833026  60.7637481  93.4434441  72.2707550  61.9128271
  92.5351318  72.2022958  61.6187032  93.3922037  72.7479495  62.7410097
  87.2651185  73.7465688  53.5511670  87.1450810  74.1922739  54.3897151
  86.5703773  74.0951006  52.9925208  80.8558590  75.8472080  61.1011327
  80.9850971  76.1006559  62.0150739  80.1756041  76.4399788  60.7815982
  85.0258077  86.5169330  57.2001802  84.9482107  87.4677155  57.2790282
  84.4219721  86.1715202  57.8576728  87.5175307  73.6897195  69.8563168
  86.7408641  74.2491116  69.8466033  88.1565870  74.1753978  70.3778039
  95.3096088  70.4723988  63.6906145  94.6670468  70.7656521  63.0445940
  94.8051016  70.3576909  64.4959342  92.9636251  74.2187161  54.3792004
  93.8754107  74.4514548  54.2039702  92.4545898  74.8024206  53.8167083
  85.7721679  76.4982649  69.4181135  86.5136364  77.0367693  69.1415959
  85.0658665  77.1248938  69.5752687  91.2477019  78.6411789  68.0153297
  91.6560375  78.1994200  67.2707929  90.5254280  78.0664417  68.2687490
  87.6008089  73.5784396  65.3886854  88.4469284  74.0023810  65.5321503
  87.5406727  72.9218020  66.0825417  91.5705833  79.2012980  61.7705586
  90.9414696  79.3658694  61.0681654  91.1831496  79.6154589  62.5416550
  95.4495065  80.1367418  59.1249950  94.7646104  80.5166319  58.5746983
  95.5338915  80.7462744  59.8581897  90.7507534  71.2388764  67.0468028
  90.5068466  71.9930825  66.5102303  91.0267465  71.6174112  67.8815275
  92.7045997  77.7827377  65.7245293  92.9162892  78.4259137  65.0479674
  92.6575745  76.9489693  65.2567223  90.3072226  70.3945197  62.6281865
  89.4456705  70.6926451  62.9198603  90.3334661  70.6115596  61.6962898
  87.1233795  78.9387388  59.0355671  87.5872141  79.2175091  58.2460293
  86.8590593  78.0370833  58.8528762  84.0157876  78.4858869  61.9735434
  84.5859233  78.9146138  61.3352919  84.6065988  78.2041454  62.6719620
  86.0602681  75.0610540  55.8445236  86.7626725  75.5131584  56.3119162
  85.7283310  74.4194359  56.4725129  84.5083043  73.6522297  70.2196445
  83.8781704  74.3338578  70.4531842  84.4019131  73.5405379  69.2749584
  93.8191825  80.6599332  63.8967650  94.6409269  80.2579519  63.6150332
  93.8154228  80.5567566  64.8483766  87.5848428  80.2083375  66.0528361
  87.6492861  80.6703783  66.8886533  86.8759352  79.5780740  66.1810671
 101.9097818  77.0038081  60.2452622 101.1561526  76.4345479  60.0896626
 102.0445359  76.9700745  61.1923257  87.2996446  81.8751483  55.9207341
  87.1642121  82.7203019  56.3492189  87.8406259  82.0770761  55.1573275
  80.7525843  79.3926921  56.4935266  81.2650364  80.1870171  56.6440831
  81.4048556  78.6953211  56.4268868  82.5620728  82.5092677  58.5758020
  82.7387356  83.4310642  58.3879003  83.3577562  82.1951096  59.0052399
  86.7031747  69.3700942  70.1741953  87.4441460  69.9708095  70.0946416
  86.9349669  68.6278580  69.6159996  81.8473085  74.5557309  68.4520183
  81.7326600  73.6542566  68.7527282  80.9917602  74.8021006  68.1004999
  88.9264922  82.4975049  70.0507683  88.4828777  81.7111428  69.7328588
  89.5882136  82.6854200  69.3851574  83.6852044  84.0270851  64.5768362
  84.2359469  83.8987914  63.8045356  82.8463519  84.3265740  64.2263255
  91.0246160  82.7777849  68.0789085  91.0064636  83.5986730  67.5869354
  91.9466081  82.6531925  68.3039226  87.4819215  80.2921979  68.9212593
  88.0147551  79.5310267  68.6911901  86.9533296  79.9995631  69.6636747
  90.6488910  65.3982045  64.4506235  90.3053179  66.2883686  64.3745345
  91.0167872  65.2083702  63.5875820  90.6139192  75.3890656  52.9578670
  90.0985816  76.1595261  53.1967057  90.3416501  74.7155792  53.5811731
  88.1986303  70.2340357  58.0163908  87.3427900  69.8447207  57.8369547
  88.6113255  70.3132317  57.1563694  89.7285450  67.7686700  62.4155468
  89.2250246  67.7316835  61.6023273  90.0216057  68.6779443  62.4752125
  85.9728336  67.8525430  61.4221650  86.8381333  67.6568238  61.0627539
  86.0405845  67.6235781  62.3491006  95.5873466  78.1423011  54.8931843
  94.8102909  77.8034170  54.4487005  96.2664947  78.1475634  54.2186808
  90.4025495  73.2617748  54.7838451  90.0975631  73.5763897  55.6348594
  91.3555938  73.3399168  54.8265784  88.8471927  79.4207971  56.4331405
  88.3193289  78.6860731  56.1204642  88.3459430  80.1982648  56.1871373
  93.8264773  77.6156992  61.5498451  93.1688448  78.3056253  61.6378580
  94.6305173  78.0053424  61.8932438  83.5790655  70.0827638  58.7938017
  84.1534407  69.8602819  58.0611209  84.1661637  70.1516332  59.5466618
  92.6370232  75.9701365  59.6002393  93.1502114  76.6031356  60.1024103
  93.2871456  75.3702560  59.2345753  83.9060242  72.1132099  52.8133902
  83.0697554  72.4506785  53.1343177  83.7665012  71.9781078  51.8761039
  85.8813323  66.9568887  57.5213086  85.2277735  66.6417904  56.8969701
  85.8393797  66.3344627  58.2472909  86.9924528  77.2388182  49.4366378
  86.0851589  77.0077435  49.6357527  87.4895559  76.4425801  49.6240360
  89.8992606  85.9485689  52.3563064  89.2254305  86.2517386  52.9648022
  90.2858428  86.7514769  52.0068521  89.1151063  73.4450820  61.8460734
  88.1973624  73.6665767  61.6882422  89.5311207  73.5197131  60.9872441
  89.8986111  74.8442236  56.9763414  90.6457930  75.3563633  56.6670536
  90.1677700  74.5226288  57.8367807  88.1712761  77.3400776  53.9590368
  87.2623980  77.0559809  54.0562838  88.2007845  77.7599855  53.0993675
  93.4032028  80.9507366  57.7281536  92.9494355  80.1098276  57.7846726
  92.7725995  81.5868764  58.0656316  92.3464948  71.8799352  58.9582203
  91.6087705  71.3676738  59.2892446  92.5991721  71.4399734  58.1465480
  91.8464968  82.7883863  58.6631354  92.1387942  83.3488920  57.9443719
  92.3563588  83.0812424  59.4184513  92.4476575  64.6575604  59.5523972
  92.7535452  63.7972967  59.2649887  93.1729180  65.2493224  59.3522966
  86.7197655  74.9529397  60.0600163  86.7746265  74.0003233  59.9842640
  85.9088857  75.1088836  60.5441462  87.8688849  78.8809520  51.2978447
  87.4308279  78.1645379  50.8384084  88.6099290  79.1085635  50.7363538
  84.6590015  73.5706457  57.8190542  83.8457880  73.8700627  58.2255734
  85.1549009  73.1762146  58.5365025  86.8098593  83.5664214  59.7524807
  86.7674772  83.7925060  58.8233339  87.7261292  83.3327588  59.9010608
  90.2564227  74.0348281  66.6505436  90.6113614  74.2619754  67.5099902
  90.9036358  74.3666658  66.0282692  95.9861964  77.1566717  57.3554765
  95.8479862  77.3468313  56.4275954  95.6298182  77.9186100  57.8122816
  96.0131343  79.2243244  62.3666037  96.4467850  79.1318533  63.2149091
  96.7262924  79.2000745  61.7286053  84.9264394  80.4427243  59.5486770
  85.7204992  79.9477563  59.3469345  84.2156086  79.9145106  59.1854475
  89.7459238  82.8245338  63.8999137  89.7996260  83.3936275  64.6676853
  88.8774019  82.9947223  63.5353175  81.2347157  74.5870324  55.6246522
  80.3044745  74.5254780  55.8416485  81.3304629  74.0646277  54.8283164
  96.8746893  79.2666945  64.8998922  97.0682783  80.1712755  65.1458197
  96.7747511  78.8074364  65.7337507  88.5283203  69.1524835  67.3989250
  87.8811118  69.8514785  67.3053726  89.2984219  69.5860979  67.7665498
  91.9362001  79.4173688  70.4739803  91.7847508  79.1884239  69.5569886
  91.9266681  80.3744289  70.4871148  88.7047338  76.9905600  65.4586069
  89.6339398  77.1416760  65.2855037  88.2838368  77.0789621  64.6034716
  87.5035670  81.0156265  63.2284607  87.3646755  80.6475049  64.1010545
  86.7150266  81.5303904  63.0568565  88.0983822  86.1165361  54.5710143
  88.2735577  85.6453404  55.3855766  87.4116610  86.7431127  54.7991404
  89.0540885  80.3937867  60.6173445  88.7190717  80.3538637  61.5131095
  88.5544830  79.7282583  60.1443855  83.0285129  75.8005497  66.1426026
  82.8904927  75.0685736  66.7437565  83.9390052  75.7114398  65.8610214
  91.9900076  77.7393902  50.8910504  91.3729247  77.0140730  50.7943557
  91.5216565  78.5003262  50.5477579  85.6567429  75.5125457  65.6309705
  86.3667048  74.8718649  65.5896324  85.6136738  75.7638352  66.5535886
  93.6454208  82.4492810  68.5516285  93.5866754  81.7652030  67.8846868
  94.0473726  83.1911800  68.0996911  84.3696363  72.4990675  67.4505345
  83.8333720  72.0481413  68.1026941  83.7813072  72.6336584  66.7075809
  82.6644907  89.2654724  61.3450004  82.9041505  89.8973248  62.0229022
  81.8214103  88.9142764  61.6315363  83.7798622  71.9579326  50.0131809
  82.9028089  71.8368127  49.6494055  84.2556375  71.1665404  49.7610697
  93.6471615  80.4132394  66.7830264  92.7598394  80.0758316  66.9056663
  94.2170166  79.6815425  67.0199030  87.1772769  85.0733846  63.7491508
  87.1042940  85.8788818  64.2610812  86.7350162  85.2725812  62.9239529
  86.9662548  84.3105616  57.2594329  86.1830070  84.8527297  57.3532554
  87.6655293  84.8279596  57.6588570  90.2759198  70.1200246  59.9028534
  90.7727898  69.3670208  59.5829605  89.5046180  70.1564563  59.3371744
  98.1288956  75.8240611  61.5446826  98.1178832  76.7065327  61.1740759
  97.2606335  75.4712162  61.3501363  89.6371452  84.9720680  65.9049666
  90.3499424  85.6068145  65.8325568  89.1461481  85.0684546  65.0889668
  91.3588979  78.8771933  57.4766958  90.4245258  78.9973396  57.3071662
  91.5365648  77.9744400  57.2126968  86.8594167  72.2617629  59.6300219
  86.4891955  71.7088669  60.3181125  87.3553260  71.6575762  59.0775219
  94.7461530  74.7189252  58.0116992  95.2121983  75.5517244  57.9377295
  95.1969031  74.2534234  58.7162250  84.6883366  82.7215124  66.7255237
  85.3892825  83.3551607  66.8784631  84.2178481  83.0629855  65.9650876
  92.8137762  81.0633074  55.0103144  93.0897605  80.9489668  55.9197018
  91.9442260  80.6650559  54.9715317  92.7178193  67.0869839  62.0507893
  91.8041273  67.3174066  62.2190100  93.1471295  67.1708283  62.9021926
  92.4884652  75.2759731  64.5507787  91.8356102  75.5235639  63.8960240
  92.8665032  74.4623870  64.2170265  89.4491826  85.3119425  58.6535958
  89.6314220  84.4941080  59.1163710  90.2724812  85.5287117  58.2160848
  89.7833991  84.2387610  55.9151006  90.3121758  83.7280064  55.3021168
  90.0462211  83.9230140  56.7796539  88.5372225  76.0179542  71.0373824
  87.8612862  75.9173672  71.7076200  89.3599859  75.8618756  71.5009822
  80.2851084  82.2551479  63.6586340  80.8704521  81.5095167  63.7914244
  80.0875922  82.5655436  64.5423004  83.1389739  85.2902726  58.6748782
  82.4700114  85.7748854  58.1912822  83.0002609  85.5371947  59.5892161
  87.2795008  87.3246470  65.2731440  87.8313316  87.4878091  66.0380526
  87.6201201  87.9150908  64.6011465  81.7311773  71.7444752  69.5226359
  82.3583812  71.3621830  70.1363884  80.8739692  71.5258954  69.8882052
  92.1305882  82.1507727  71.1280095  92.6745786  82.7637686  70.6335050
  91.5492727  82.7087306  71.6447108  90.4163395  85.2728445  62.2595123
  90.2914534  84.4718185  61.7506068  91.0742486  85.7674639  61.7709093
  92.4798303  83.0737465  63.8874673  91.5328639  82.9542817  63.8152999
  92.8281076  82.1859964  63.9700934  89.4844737  82.8690182  60.0879025
  89.3369699  81.9406889  60.2686595  90.3098230  82.8910272  59.6036100
  83.3506981  71.5208249  55.9459517  83.6903053  72.0494170  55.2238125
  83.7979101  71.8588655  56.7218084  93.0878858  83.6918740  61.1743898
  94.0125406  83.4861602  61.0368349  92.9194162  83.4435142  62.0833239
  86.0450422  69.9045300  65.3962585  85.7047242  69.1053113  65.7983265
  85.3389428  70.2047010  64.8239418  86.6966894  66.9894612  63.8489908
  87.5192963  66.5155090  63.7268798  86.9404957  67.7685096  64.3488594
  85.3375128  70.0182870  54.1452810  86.0583491  70.3964123  53.6416527
  84.7140432  70.7371747  54.2487788  89.4806251  70.7228019  55.0811142
  89.6969865  71.6052657  54.7799970  89.0000318  70.3314233  54.3516784
  84.2205472  73.6813733  61.6581887  84.0750053  73.9954036  62.5506168
  83.7430676  74.2998633  61.1052785  86.0801855  70.6716281  61.7062776
  86.0663424  69.7757374  61.3695074  86.7974283  70.6786944  62.3401062
  87.9327986  71.1053621  63.7515904  87.6745764  72.0270691  63.7500234
  87.4013026  70.7084055  64.4416368  92.8774175  84.2104408  56.5305989
  93.0511052  83.6450830  55.7779842  93.3703066  85.0105303  56.3485479
  78.6951134  76.2219077  64.5969548  78.1504603  76.9978885  64.7289822
  79.5730484  76.5689881  64.4388669  85.4838751  69.5530661  56.9750346
  85.6054662  68.6247307  57.1741234  85.1940793  69.5669347  56.0628662
  88.3529941  67.2385571  60.1117066  88.3751638  67.3024904  59.1569046
  88.7698000  66.3990080  60.3057572  98.7313566  76.9740831  58.1496289
  99.1744712  76.2248156  57.7515412  97.8540076  76.9650967  57.7670021
  93.8649347  83.5271172  53.6302887  94.5600252  84.1477865  53.8490202
  94.2072497  82.6766524  53.9055265  79.4817156  75.3488973  67.4899705
  78.7398892  75.4971609  68.0764335  79.1609901  75.6097239  66.6266454
  95.7640770  80.9770878  55.1590218  96.2892094  81.3158151  54.4339538
  95.6763123  80.0417893  54.9753353  87.4260819  84.8904951  67.2880095
  87.7347945  84.6454098  68.1602794  88.2236301  85.0951590  66.7998965
  87.4481431  87.0442861  59.5185471  87.0086421  86.5519240  60.2118328
  88.1989548  86.5015829  59.2777547  79.9273770  83.2354402  59.5210099
  80.7531790  82.9358174  59.1408743  79.5767822  82.4662024  59.9699888
  84.8955303  82.5880870  61.5907773  84.2735312  81.9251575  61.2910001
  85.5660170  82.6142002  60.9081421  84.9679831  71.0662658  71.1840279
  85.0167986  71.9424781  70.8018049  85.5102345  70.5240051  70.6111922
  95.4534676  81.6103781  70.4641416  94.6630220  81.5927920  69.9245916
  95.2168031  82.1492075  71.2190453  95.5732551  78.4596248  67.7774145
  95.6230556  78.2946255  68.7189667  95.4646475  77.5923507  67.3872025
  84.4568810  81.1384794  55.0666234  84.6056930  81.8220258  54.4132906
  85.2635253  81.1189884  55.5815689  92.8636314  74.4427176  69.0933451
  93.7646176  74.3033641  68.8017449  92.9384288  74.6081631  70.0331629
  87.1979119  71.8194031  67.9386638  86.3282428  72.1127597  67.6669226
  87.4338599  72.4034476  68.6593901  97.0750748  80.8793189  68.0216166
  96.7835556  81.2423170  68.8579627  96.4622879  80.1660198  67.8429498
  98.2746430  78.4446069  60.5418736  99.1093322  78.8835873  60.7056297
  98.4105559  77.9684722  59.7226982  95.3237936  76.0025804  66.4896224
  95.7992058  76.1953450  65.6815076  94.4003502  76.0584990  66.2439608
  82.2121443  77.1649971  56.0727302  81.9667485  76.2612301  56.2707513
  82.3817358  77.1667122  55.1306780  89.9018153  68.0373648  65.4552058
  90.4200097  68.7734674  65.1298547  89.5473286  68.3437641  66.2898817
  81.4817091  72.8978329  53.5713464  80.7886335  72.9722684  52.9153500
  81.2368842  72.1338672  54.0934981  90.1530747  64.4573930  60.9752955
  90.4332501  63.7897119  61.6013381  90.9381354  64.6503026  60.4627619
  87.9564216  83.6332924  52.5377981  87.3838183  84.2523111  52.0848453
  88.5297009  84.1832286  53.0717903  94.0239605  72.8791564  64.7224530
  94.9757028  72.9789662  64.7436754  93.8543056  72.0869833  65.2322614
  92.0453985  69.9647147  64.9083931  91.4503917  70.2452160  64.2130419
  91.7603682  70.4541048  65.6800672  91.1761475  83.9170074  53.6686563
  92.1092149  83.8515636  53.8719439  91.0884688  84.7526341  53.2101096
  93.8049492  83.2335944  50.6290511  93.7263124  82.8995808  51.5226269
  94.6259159  83.7257712  50.6281983  96.5027683  76.0997684  63.8366829
  96.4704003  75.1613684  64.0226513  97.1128307  76.1781720  63.1032654
  88.3411014  74.9693737  49.8794033  89.2870119  74.8399945  49.9482452
  87.9625259  74.2308399  50.3563462  96.6522172  72.8908727  63.8825113
  96.1361220  72.1067184  63.6955041  97.5362120  72.5627444  64.0471632
  94.3132899  66.6349743  59.8420925  94.1157720  66.3264831  60.7264257
  94.9232604  67.3611382  59.9718855 102.3204233  77.1613691  62.9772866
 103.0507622  76.8998979  63.5380570 101.7111179  76.4242413  63.0174934
 100.4019530  75.3021553  63.5747317  99.6752694  75.1677518  62.9663809
  99.9866817  75.6098382  64.3804035  88.2249707  79.0211483  71.3394690
  89.1452716  79.1990082  71.5334737  88.1899290  78.0767528  71.1874390
  86.5253931  72.8943713  49.8148919  85.6185387  72.5976826  49.8911632
  86.8029912  72.5973531  48.9483205  81.2211779  76.9312518  63.9817472
  81.4397789  77.8629625  64.0005505  81.6337553  76.5720492  64.7672275
  88.1415997  67.4380603  55.9693160  87.3316725  67.0927688  56.3448406
  88.8300414  67.1288147  56.5580772  90.0706545  66.5158650  57.5917457
  90.6237584  66.9354103  58.2507480  90.3076632  65.5894398  57.6340413
  86.0939644  72.5045723  73.3720221  85.9936371  73.4540080  73.3032312
  85.8761187  72.1763962  72.4996291  85.2952716  69.7530648  49.9560898
  86.1571880  70.0785547  50.2156715  85.4803060  68.9662144  49.4433964
  93.4485352  68.6259175  57.0996121  92.8684021  69.2843979  56.7174173
  93.1821285  67.8036519  56.6883538  91.8988919  68.0264232  59.3017441
  92.3988697  68.1380767  58.4931760  92.5424527  67.7225285  59.9418250
  85.9570915  75.9342862  72.1885282  85.4737996  76.7343222  72.3949171
  86.0431854  75.9450807  71.2352726  81.8844252  79.8247397  64.2253716
  82.8387506  79.7931339  64.1583648  81.6856776  79.3638021  65.0403942
  82.4743634  78.3948513  66.7924514  83.2936523  78.8892592  66.8159351
  82.7480442  77.4780481  66.7642081  92.2310230  70.7859265  56.1552469
  91.3436085  71.0708916  55.9372664  92.6464219  70.6253029  55.3079746
  95.5824766  70.8105786  59.8706808  96.3585157  71.3002239  60.1431425
  94.8572901  71.2363840  60.3278678  98.0197325  71.5233405  60.9280749
  98.6141816  71.2829141  60.2174057  98.0923909  70.8040536  61.5554285
  80.2394481  85.3667016  61.2423914  80.1048949  84.6067417  60.6761912
  79.8226543  86.0907916  60.7752703  91.3753444  80.5503940  50.2500489
  92.0789294  80.7553942  50.8658145  90.6516093  81.1180702  50.5149573
  92.2051254  76.3013801  56.3702759  92.1486455  76.7582353  55.5310392
  92.7579597  75.5404486  56.1925602  96.0156060  72.0903533  57.1952879
  95.7592994  71.6900169  58.0261087  95.3908928  72.8047327  57.0703018
 100.3268398  74.8299606  59.7024170  99.7667956  74.8992796  60.4755732
  99.7211901  74.6540591  58.9823666  83.3963607  86.2636333  61.4542357
  83.2795991  87.2081766  61.3521047  82.5756053  85.9609895  61.8428156
  93.2840141  80.9886469  52.2998949  94.1185745  80.5567668  52.1176424
  93.1224484  80.8168483  53.2275844  92.9386033  77.4918582  53.6655289
  92.8834837  77.3262854  52.7243733  92.3132089  78.1994615  53.8217478
  90.2531941  79.7967494  72.9908851  91.1223100  79.9708147  72.6295486
  89.7738692  80.6161911  72.8684581  86.2482159  66.9926691  53.2440607
  86.2360829  67.9368531  53.4008878  87.1405581  66.8096837  52.9500068
  84.4218121  86.9164595  64.6698285  85.3245368  86.9488205  64.9864780
  84.1955491  85.9865046  64.6844621  86.1771723  85.6695582  61.3308364
  85.2267354  85.6697443  61.2172736  86.4804209  84.9228316  60.8144398
  90.0634278  63.5869468  57.4986544  89.2966674  63.0327955  57.6443226
  90.4744983  63.6591337  58.3600695 101.9124416  91.5056120  62.3954126
 102.5502826  91.3862868  61.6917466 101.7945259  92.4536964  62.4542078
  98.7214123  91.4583548  62.3315651  98.3832634  91.3424613  61.4436186
  99.5903891  91.0574713  62.3116657  94.5800938  93.3119025  58.3212542
  94.0165803  93.2208962  57.5528829  94.4653333  92.4918929  58.8015034
  99.2033906  92.6118400  68.2901856  99.1922546  92.2171198  67.4182360
  99.3654545  91.8784473  68.8835628  92.1265370  94.8070216  61.1596762
  92.9186662  94.4661041  60.7443061  92.3662020  94.9165191  62.0798915
 100.1600497  96.9789992  53.6327007  99.5088477  97.5644073  53.2461020
 100.9544860  97.5096187  53.6922044  94.0856124  94.0679130  54.0314141
  94.8587000  93.5208117  53.8927017  94.4381523  94.9323379  54.2428602
  95.9241167  95.3955512  67.2381040  95.6331033  96.3001143  67.1227706
  96.5598151  95.4372039  67.9525110  96.8497374  92.7732360  63.8282400
  97.4460946  92.5488383  63.1139363  96.9072345  92.0317106  64.4307848
  96.4222402  90.2271796  51.6632591  96.6747923  89.7053317  50.9016054
  95.4846961  90.0637941  51.7659274 101.4665685  89.2307574  59.4707334
 102.2528774  88.8126997  59.1197751 101.7304389  90.1353666  59.6388982
 101.6375762  94.6680424  54.1695991 101.0021595  94.7415051  54.8816895
 101.3073169  95.2574023  53.4915070 106.8674112  89.1682807  60.3740313
 107.5999284  88.5982024  60.6078142 106.1113468  88.7804408  60.8146818
  96.1418691  92.1299902  53.8656966  96.0254949  91.4544805  54.5338050
  96.2520951  91.6432276  53.0489119  98.4850232  91.5910049  57.5703655
  98.1208439  91.0640670  58.2816576  99.3417348  91.2008518  57.3970140
 104.3899532  82.8804381  64.8334921 104.0582857  83.7499792  64.6096136
 103.7945146  82.5640665  65.5128952  98.1255719  86.6199948  52.5665003
  98.2930121  87.4880185  52.9335475  97.9352888  86.7827230  51.6426293
 100.8831052  95.0816927  64.2330834 100.5831775  95.9841966  64.1246641
 100.5382111  94.8149111  65.0851987  94.3343533  91.5330724  60.2667538
  93.4094030  91.4006938  60.4745230  94.5827946  92.3124943  60.7637481
 104.2828196  87.5999467  61.9128271 103.3745073  87.5314876  61.6187032
 104.2315791  88.0771412  62.7410097  98.1044939  89.0757606  53.5511670
  97.9844565  89.5214657  54.3897151  97.4097528  89.4242924  52.9925208
  91.6952344  91.1763998  61.1011327  91.8244725  91.4298477  62.0150739
  91.0149796  91.7691706  60.7815982  95.8651832 101.8461248  57.2001802
  95.7875861 102.7969073  57.2790282  95.2613475 101.5007120  57.8576728
  98.3569061  89.0189113  69.8563168  97.5802395  89.5783033  69.8466033
  98.9959624  89.5045896  70.3778039 106.1489842  85.8015906  63.6906145
 105.5064222  86.0948439  63.0445940 105.6444771  85.6868826  64.4959342
 103.8030006  89.5479079  54.3792004 104.7147862  89.7806466  54.2039702
 103.2939653  90.1316123  53.8167083  96.6115434  91.8274566  69.4181135
  97.3530118  92.3659610  69.1415959  95.9052419  92.4540855  69.5752687
 102.0870773  93.9703707  68.0153297 102.4954129  93.5286117  67.2707929
 101.3648035  93.3956334  68.2687490  98.4401843  88.9076314  65.3886854
  99.2863039  89.3315727  65.5321503  98.3800481  88.2509938  66.0825417
 102.4099588  94.5304898  61.7705586 101.7808450  94.6950612  61.0681654
 102.0225250  94.9446507  62.5416550 106.2888820  95.4659335  59.1249950
 105.6039858  95.8458237  58.5746983 106.3732669  96.0754662  59.8581897
 101.5901289  86.5680682  67.0468028 101.3462221  87.3222743  66.5102303
 101.8661219  86.9466030  67.8815275 103.5439751  93.1119294  65.7245293
 103.7556647  93.7551054  65.0479674 103.4969500  92.2781611  65.2567223
 101.1465980  85.7237115  62.6281865 100.2850459  86.0218369  62.9198603
 101.1728415  85.9407514  61.6962898  97.9627550  94.2679306  59.0355671
  98.4265895  94.5467009  58.2460293  97.6984348  93.3662750  58.8528762
  94.8551631  93.8150787  61.9735434  95.4252988  94.2438056  61.3352919
  95.4459743  93.5333372  62.6719620  96.8996436  90.3902458  55.8445236
  97.6020479  90.8423502  56.3119162  96.5677064  89.7486277  56.4725129
  95.3476797  88.9814215  70.2196445  94.7175458  89.6630495  70.4531842
  95.2412885  88.8697296  69.2749584  90.6421770  88.6486011  61.1462370
  89.8520824  88.9043539  60.6702480  91.1333017  89.4634349  61.2514410
 104.6585579  95.9891250  63.8967650 105.4803023  95.5871437  63.6150332
 104.6547982  95.8859484  64.8483766  92.5936515  89.0130590  58.1045846
  91.7967679  89.1249284  58.6229342  92.3662107  89.3517242  57.2386737
  98.4242183  95.5375293  66.0528361  98.4886615  95.9995700  66.8886533
  97.7153107  94.9072658  66.1810671  88.9259473  88.9016501  63.5777360
  89.1767511  89.7863511  63.8434936  89.4619021  88.7221103  62.8052452
 112.7491572  92.3329998  60.2452622 111.9955281  91.7637396  60.0896626
 112.8839114  92.2992663  61.1923257  98.1390201  97.2043401  55.9207341
  98.0035875  98.0494936  56.3492189  98.6800013  97.4062678  55.1573275
  94.6257540  83.2834980  72.5821696  94.2324486  82.7301179  73.2569341
  95.4423680  83.5945559  72.9728214  91.5919598  94.7218839  56.4935266
  92.1044118  95.5162089  56.6440831  92.2442311  94.0245129  56.4268868
  93.4014483  97.8384595  58.5758020  93.5781111  98.7602560  58.3879003
  94.1971316  97.5243014  59.0052399  97.5425501  84.6992860  70.1741953
  98.2835215  85.3000013  70.0946416  97.7743424  83.9570497  69.6159996
  92.6866839  89.8849227  68.4520183  92.5720354  88.9834484  68.7527282
  91.8311357  90.1312924  68.1004999  99.7658677  97.8266967  70.0507683
  99.3222531  97.0403346  69.7328588 100.4275890  98.0146118  69.3851574
  94.5245798  99.3562769  64.5768362  95.0753223  99.2279832  63.8045356
  93.6857274  99.6557658  64.2263255 101.8639915  98.1069767  68.0789085
 101.8458390  98.9278648  67.5869354 102.7859835  97.9823842  68.3039226
  98.3212969  95.6213897  68.9212593  98.8541306  94.8602185  68.6911901
  97.7927050  95.3287548  69.6636747 101.4882664  80.7273962  64.4506235
 101.1446933  81.6175604  64.3745345 101.8561627  80.5375620  63.5875820
  89.5568515  93.0507493  57.2694837  90.3943737  93.4604501  57.0528545
  89.7346782  92.1106935  57.2395031 101.4532947  90.7182574  52.9578670
 100.9379570  91.4887178  53.1967057 101.1810255  90.0447710  53.5811731
  99.0380058  85.5632274  58.0163908  98.1821654  85.1739125  57.8369547
  99.4507010  85.6424235  57.1563694 100.5679204  83.0978618  62.4155468
 100.0644000  83.0608753  61.6023273 100.8609811  84.0071360  62.4752125
  96.8122090  83.1817347  61.4221650  97.6775087  82.9860156  61.0627539
  96.8799599  82.9527699  62.3491006 106.4267221  93.4714928  54.8931843
 105.6496664  93.1326088  54.4487005 107.1058702  93.4767551  54.2186808
 101.2419250  88.5909666  54.7838451 100.9369386  88.9055815  55.6348594
 102.1949692  88.6691086  54.8265784  99.6865682  94.7499889  56.4331405
  99.1587043  94.0152649  56.1204642  99.1853185  95.5274565  56.1871373
 104.6658528  92.9448909  61.5498451 104.0082202  93.6348171  61.6378580
 105.4698927  93.3345341  61.8932438  94.4184409  85.4119555  58.7938017
  94.9928161  85.1894737  58.0611209  95.0055392  85.4808250  59.5466618
 103.4763987  91.2993282  59.6002393 103.9895868  91.9323274  60.1024103
 104.1265211  90.6994478  59.2345753  94.7453997  87.4424016  52.8133902
  93.9091309  87.7798703  53.1343177  94.6058766  87.3072996  51.8761039
  96.7207077  82.2860804  57.5213086  96.0671489  81.9709821  56.8969701
  96.6787551  81.6636545  58.2472909  97.8318282  92.5680099  49.4366378
  96.9245344  92.3369353  49.6357527  98.3289314  91.7717719  49.6240360
 100.7386361 101.2777606  52.3563064 100.0648060 101.5809303  52.9648022
 101.1252183 102.0806687  52.0068521  99.9544818  88.7742738  61.8460734
  99.0367379  88.9957685  61.6882422 100.3704961  88.8489048  60.9872441
 100.7379865  90.1734153  56.9763414 101.4851684  90.6855551  56.6670536
 101.0071455  89.8518206  57.8367807  99.0106515  92.6692694  53.9590368
  98.1017735  92.3851727  54.0562838  99.0401599  93.0891773  53.0993675
 104.2425783  96.2799284  57.7281536 103.7888110  95.4390194  57.7846726
 103.6119750  96.9160682  58.0656316 103.1858702  87.2091270  58.9582203
 102.4481459  86.6968656  59.2892446 103.4385476  86.7691651  58.1465480
 102.6858722  98.1175780  58.6631354 102.9781696  98.6780837  57.9443719
 103.1957343  98.4104341  59.4184513 103.2870330  79.9867522  59.5523972
 103.5929207  79.1264885  59.2649887 104.0122935  80.5785142  59.3522966
  89.5794686  90.3898208  57.9405570  89.3819086  89.7967569  57.2156637
  89.0241350  90.0850418  58.6581509  97.5591409  90.2821315  60.0600163
  97.6140019  89.3295151  59.9842640  96.7482612  90.4380754  60.5441462
  98.7082603  94.2101438  51.2978447  98.2702033  93.4937297  50.8384084
  99.4493044  94.4377553  50.7363538  95.4983769  88.8998374  57.8190542
  94.6851635  89.1992545  58.2255734  95.9942764  88.5054063  58.5365025
  97.6492347  98.8956131  59.7524807  97.6068526  99.1216978  58.8233339
  98.5655046  98.6619506  59.9010608 101.0957981  89.3640199  66.6505436
 101.4507369  89.5911672  67.5099902 101.7430112  89.6958576  66.0282692
 106.8255718  92.4858635  57.3554765 106.6873617  92.6760231  56.4275954
 106.4691937  93.2478018  57.8122816  94.9897844  86.4716730  63.4351777
  95.6297223  86.3305489  62.7374741  94.1575375  86.1851243  63.0590379
 106.8525098  94.5535162  62.3666037 107.2861604  94.4610451  63.2149091
 107.5656678  94.5292662  61.7286053  95.7658148  95.7719160  59.5486770
  96.5598747  95.2769481  59.3469345  95.0549840  95.2437024  59.1854475
 100.5852993  98.1537256  63.8999137 100.6390015  98.7228192  64.6676853
  99.7167774  98.3239141  63.5353175  92.0740912  89.9162242  55.6246522
  91.1438500  89.8546698  55.8416485  92.1698384  89.3938195  54.8283164
  91.9926461  86.4417055  58.2124764  92.2533278  87.3562388  58.1033925
  92.8143633  85.9741498  58.3621377  93.4651386  87.8554812  65.3823589
  94.1374439  87.6472174  64.7336238  92.6381172  87.6576898  64.9428821
 107.7140647  94.5958863  64.8998922 107.9076537  95.5004673  65.1458197
 107.6141265  94.1366282  65.7337507  99.3676958  84.4816753  67.3989250
  98.7204873  85.1806703  67.3053726 100.1377973  84.9152897  67.7665498
 102.7755756  94.7465605  70.4739803 102.6241262  94.5176157  69.5569886
 102.7660435  95.7036207  70.4871148  99.5441092  92.3197518  65.4586069
 100.4733152  92.4708678  65.2855037  99.1232122  92.4081539  64.6034716
  98.3429424  96.3448182  63.2284607  98.2040510  95.9766967  64.1010545
  97.5544020  96.8595822  63.0568565  98.9377576 101.4457279  54.5710143
  99.1129332 100.9745322  55.3855766  98.2510364 102.0723045  54.7991404
  99.8934639  95.7229785  60.6173445  99.5584472  95.6830555  61.5131095
  99.3938585  95.0574501  60.1443855  93.8678883  91.1297415  66.1426026
  93.7298681  90.3977654  66.7437565  94.7783807  91.0406315  65.8610214
 102.8293831  93.0685819  50.8910504 102.2123001  92.3432648  50.7943557
 102.3610319  93.8295180  50.5477579  96.4961184  90.8417374  65.6309705
  97.2060802  90.2010567  65.5896324  96.4530492  91.0930269  66.5535886
 104.4847963  97.7784728  68.5516285 104.4260509  97.0943948  67.8846868
 104.8867481  98.5203718  68.0996911  95.2090118  87.8282592  67.4505345
  94.6727475  87.3773331  68.1026941  94.6206826  87.9628501  66.7075809
  93.5038661 104.5946642  61.3450004  93.7435260 105.2265166  62.0229022
  92.6607858 104.2434682  61.6315363  94.6192377  87.2871244  50.0131809
  93.7421843  87.1660045  49.6494055  95.0950130  86.4957322  49.7610697
 104.4865370  95.7424312  66.7830264 103.5992149  95.4050234  66.9056663
 105.0563921  95.0107343  67.0199030  86.1394517  92.0748403  60.1073316
  86.8265557  91.7610134  59.5194331  85.9842646  92.9789768  59.8340567
  90.9429239  86.9638600  64.5358339  90.8587428  86.3564270  63.8008749
  90.1211945  87.4547618  64.5367836  98.0166523 100.4025764  63.7491508
  97.9436695 101.2080736  64.2610812  97.5743916 100.6017730  62.9239529
  97.8056303  99.6397534  57.2594329  97.0223825 100.1819214  57.3532554
  98.5049048 100.1571514  57.6588570 101.1152953  85.4492164  59.9028534
 101.6121652  84.6962126  59.5829605 100.3439934  85.4856480  59.3371744
 108.9682710  91.1532529  61.5446826 108.9572587  92.0357245  61.1740759
 108.1000090  90.8004080  61.3501363 100.4765207 100.3012598  65.9049666
 101.1893179 100.9360063  65.8325568  99.9855235 100.3976464  65.0889668
 102.1982734  94.2063851  57.4766958 101.2639012  94.3265313  57.3071662
 102.3759402  93.3036318  57.2126968  97.6987922  87.5909547  59.6300219
  97.3285709  87.0380587  60.3181125  98.1947014  86.9867680  59.0775219
 105.5855285  90.0481170  58.0116992 106.0515737  90.8809162  57.9377295
 106.0362785  89.5826152  58.7162250  95.5277120  98.0507042  66.7255237
  96.2286580  98.6843525  66.8784631  95.0572235  98.3921773  65.9650876
 103.6531516  96.3924991  55.0103144 103.9291360  96.2781586  55.9197018
 102.7836015  95.9942476  54.9715317 103.5571948  82.4161757  62.0507893
 102.6435027  82.6465984  62.2190100 103.9865049  82.5000201  62.9021926
 103.3278406  90.6051649  64.5507787 102.6749856  90.8527556  63.8960240
 103.7058786  89.7915787  64.2170265 100.2885580 100.6411342  58.6535958
 100.4707975  99.8232998  59.1163710 101.1118566 100.8579034  58.2160848
 100.6227746  99.5679527  55.9151006 101.1515512  99.0571982  55.3021168
 100.8855965  99.2522058  56.7796539  99.3765979  91.3471460  71.0373824
  98.7006616  91.2465589  71.7076200 100.1993613  91.1910674  71.5009822
  91.1244838  97.5843397  63.6586340  91.7098275  96.8387085  63.7914244
  90.9269677  97.8947353  64.5423004  93.9783494 100.6194644  58.6748782
  93.3093869 101.1040772  58.1912822  93.8396363 100.8663864  59.5892161
  85.7162493  90.1548997  62.3790783  85.7546593  89.6212588  63.1727901
  85.2102786  89.6284202  61.7601760  98.1188762 102.6538388  65.2731440
  98.6707070 102.8170009  66.0380526  98.4594956 103.2442825  64.6011465
  93.0953255  85.0013537  65.8753325  93.1594582  85.8628368  65.4630723
  93.0320376  84.3887539  65.1425684  92.5705528  87.0736670  69.5226359
  93.1977567  86.6913747  70.1363884  91.7133447  86.8550872  69.8882052
 102.9699636  97.4799645  71.1280095 103.5139540  98.0929603  70.6335050
 102.3886481  98.0379223  71.6447108  89.3471071  88.8813099  55.4544714
  89.6424512  87.9723777  55.4011768  88.4459106  88.8600838  55.1325717
 101.2557149 100.6020363  62.2595123 101.1308289  99.8010103  61.7506068
 101.9136240 101.0966556  61.7709093  92.8765318  86.9569096  61.4372263
  92.1551903  87.5705063  61.2979736  93.6658573  87.4926860  61.3588909
 103.3192058  98.4029383  63.8874673 102.3722393  98.2834734  63.8152999
 103.6674831  97.5151881  63.9700934  95.6791631  84.2923522  67.7112915
  96.2026033  84.5385819  68.4739224  95.4603964  85.1243557  67.2916052
  91.0758912  86.5627197  55.5784039  90.7471618  85.6824576  55.3959145
  91.4298283  86.5074865  56.4660429 100.3238491  98.1982099  60.0879025
 100.1763453  97.2698807  60.2686595 101.1491985  98.2202190  59.6036100
  94.1900735  86.8500166  55.9459517  94.5296808  87.3786088  55.2238125
  94.6372856  87.1880573  56.7218084 103.9272613  99.0210658  61.1743898
 104.8519160  98.8153519  61.0368349 103.7587916  98.7727059  62.0833239
  96.8844176  85.2337217  65.3962585  96.5440997  84.4345030  65.7983265
  96.1783182  85.5338928  64.8239418  97.5360648  82.3186530  63.8489908
  98.3586717  81.8447008  63.7268798  97.7798712  83.0977013  64.3488594
  96.1768882  85.3474788  54.1452810  96.8977245  85.7256041  53.6416527
  95.5534187  86.0663665  54.2487788 100.3200005  86.0519937  55.0811142
 100.5363620  86.9344575  54.7799970  99.8394073  85.6606150  54.3516784
  95.0599227  89.0105650  61.6581887  94.9143807  89.3245953  62.5506168
  94.5824430  89.6290551  61.1052785  96.9195610  86.0008198  61.7062776
  96.9057178  85.1049292  61.3695074  97.6368038  86.0078862  62.3401062
  98.7721740  86.4345538  63.7515904  98.5139518  87.3562609  63.7500234
  98.2406781  86.0375973  64.4416368 103.7167929  99.5396326  56.5305989
 103.8904807  98.9742748  55.7779842 104.2096820 100.3397220  56.3485479
  89.5344889  91.5510995  64.5969548  88.9898357  92.3270803  64.7289822
  90.4124239  91.8981799  64.4388669  96.3232506  84.8822579  56.9750346
  96.4448417  83.9539225  57.1741234  96.0334548  84.8961264  56.0628662
  99.1923696  82.5677489  60.1117066  99.2145393  82.6316822  59.1569046
  99.6091755  81.7281998  60.3057572 109.5707320  92.3032748  58.1496289
 110.0138466  91.5540074  57.7515412 108.6933831  92.2942885  57.7670021
 104.7043102  98.8563090  53.6302887 105.3994006  99.4769783  53.8490202
 105.0466252  98.0058441  53.9055265  90.3210911  90.6780891  67.4899705
  89.5792647  90.8263526  68.0764335  90.0003655  90.9389157  66.6266454
 106.6034525  96.3062795  55.1590218 107.1285849  96.6450068  54.4339538
 106.5156877  95.3709811  54.9753353  98.2654573 100.2196869  67.2880095
  98.5741700  99.9746016  68.1602794  99.0630055 100.4243508  66.7998965
  98.2875185 102.3734779  59.5185471  97.8480176 101.8811157  60.2118328
  99.0383302 101.8307746  59.2777547  90.7667524  98.5646320  59.5210099
  91.5925544  98.2650091  59.1408743  90.4161576  97.7953942  59.9699888
  95.7349058  97.9172788  61.5907773  95.1129067  97.2543493  61.2910001
  96.4053925  97.9433920  60.9081421  88.9676130  96.4832646  60.4799033
  88.1308038  96.0554820  60.2983034  88.9399775  96.6765089  61.4169824
  95.8073585  86.3954576  71.1840279  95.8561741  87.2716699  70.8018049
  96.3496099  85.8531969  70.6111922 106.2928431  96.9395699  70.4641416
 105.5023974  96.9219838  69.9245916 106.0561785  97.4783993  71.2190453
 106.4126306  93.7888166  67.7774145 106.4624311  93.6238173  68.7189667
 106.3040229  92.9215425  67.3872025  95.2962565  96.4676711  55.0666234
  95.4450685  97.1512176  54.4132906  96.1029008  96.4481801  55.5815689
 103.7030068  89.7719094  69.0933451 104.6039931  89.6325558  68.8017449
 103.7778043  89.9373548  70.0331629  98.0372874  87.1485948  67.9386638
  97.1676183  87.4419514  67.6669226  98.2732354  87.7326393  68.6593901
 107.9144503  96.2085107  68.0216166 107.6229311  96.5715088  68.8579627
 107.3016634  95.4952115  67.8429498 109.1140185  93.7737987  60.5418736
 109.9487076  94.2127791  60.7056297 109.2499314  93.2976640  59.7226982
 106.1631691  91.3317722  66.4896224 106.6385813  91.5245368  65.6815076
 105.2397256  91.3876907  66.2439608  93.0515198  92.4941889  56.0727302
  92.8061239  91.5904219  56.2707513  93.2211112  92.4959039  55.1306780
 100.7411907  83.3665565  65.4552058 101.2593851  84.1026592  65.1298547
 100.3867040  83.6729559  66.2898817  92.3210845  88.2270246  53.5713464
  91.6280090  88.3014601  52.9153500  92.0762597  87.4630590  54.0934981
 100.9924502  79.7865848  60.9752955 101.2726255  79.1189037  61.6013381
 101.7775108  79.9794943  60.4627619  98.7957970  98.9624842  52.5377981
  98.2231937  99.5815029  52.0848453  99.3690764  99.5124203  53.0717903
 104.8633360  88.2083482  64.7224530 105.8150783  88.3081579  64.7436754
 104.6936810  87.4161750  65.2322614 102.8847739  85.2939065  64.9083931
 102.2897671  85.5744078  64.2130419 102.5997436  85.7832966  65.6800672
 102.0155230  99.2461992  53.6686563 102.9485903  99.1807553  53.8719439
 101.9278443 100.0818259  53.2101096 104.6443247  98.5627862  50.6290511
 104.5656878  98.2287726  51.5226269 105.4652913  99.0549630  50.6281983
 107.3421438  91.4289601  63.8366829 107.3097758  90.4905602  64.0226513
 107.9522061  91.5073638  63.1032654  99.1804769  90.2985654  49.8794033
 100.1263873  90.1691863  49.9482452  98.8019014  89.5600316  50.3563462
 107.4915926  88.2200645  63.8825113 106.9754975  87.4359101  63.6955041
 108.3755875  87.8919361  64.0471632 105.1526653  81.9641660  59.8420925
 104.9551474  81.6556749  60.7264257 105.7626359  82.6903299  59.9718855
 113.1597988  92.4905608  62.9772866 113.8901376  92.2290896  63.5380570
 112.5504933  91.7534330  63.0174934 111.2413285  90.6313471  63.5747317
 110.5146448  90.4969436  62.9663809 110.8260572  90.9390299  64.3804035
  99.0643461  94.3503401  71.3394690  99.9846471  94.5282000  71.5334737
  99.0293044  93.4059446  71.1874390  97.3647686  88.2235631  49.8148919
  96.4579141  87.9268743  49.8911632  97.6423667  87.9265449  48.9483205
  88.2825626  89.5441994  60.2647965  87.9628410  88.6907302  59.9722339
  87.7359054  89.7590572  61.0205932  92.0605534  92.2604435  63.9817472
  92.2791543  93.1921543  64.0005505  92.4731307  91.9012410  64.7672275
  98.9809751  82.7672520  55.9693160  98.1710480  82.4219605  56.3448406
  99.6694168  82.4580064  56.5580772 100.9100300  81.8450567  57.5917457
 101.4631338  82.2646021  58.2507480 101.1470386  80.9186315  57.6340413
  96.9333399  87.8337641  73.3720221  96.8330126  88.7831998  73.3032312
  96.7154941  87.5055880  72.4996291  96.1346470  85.0822566  49.9560898
  96.9965634  85.4077464  50.2156715  96.3196814  84.2954062  49.4433964
  88.1513886  93.1644906  62.2341087  87.4577358  92.7498858  61.7211041
  88.8986877  93.2065442  61.6374506 104.2879107  83.9551092  57.0996121
 103.7077776  84.6135896  56.7174173 104.0215039  83.1328437  56.6883538
 102.7382673  83.3556150  59.3017441 103.2382452  83.4672685  58.4931760
 103.3818281  83.0517203  59.9418250  96.7964669  91.2634780  72.1885282
  96.3131751  92.0635140  72.3949171  96.8825608  91.2742725  71.2352726
  90.0650629  93.0963159  60.1107102  90.0421317  93.1950847  59.1588985
  90.3751265  93.9428310  60.4324268  92.7238006  95.1539314  64.2253716
  93.6781260  95.1223257  64.1583648  92.5250530  94.6929938  65.0403942
  93.3137389  93.7240431  66.7924514  94.1330278  94.2184509  66.8159351
  93.5874196  92.8072399  66.7642081 103.0703985  86.1151183  56.1552469
 102.1829840  86.4000833  55.9372664 103.4857974  85.9544946  55.3079746
 106.4218521  86.1397704  59.8706808 107.1978911  86.6294156  60.1431425
 105.6966655  86.5655758  60.3278678 108.8591080  86.8525323  60.9280749
 109.4535570  86.6121059  60.2174057 108.9317663  86.1332454  61.5554285
  91.0788235 100.6958934  61.2423914  90.9442703  99.9359335  60.6761912
  90.6620298 101.4199834  60.7752703 102.2147198  95.8795858  50.2500489
 102.9183048  96.0845860  50.8658145 101.4909847  96.4472619  50.5149573
 103.0445009  91.6305719  56.3702759 102.9880210  92.0874270  55.5310392
 103.5973351  90.8696403  56.1925602 106.8549814  87.4195451  57.1952879
 106.5986749  87.0192086  58.0261087 106.2302683  88.1339245  57.0703018
 111.1662152  90.1591524  59.7024170 110.6061710  90.2284713  60.4755732
 110.5605656  89.9832509  58.9823666  94.2357361 101.5928251  61.4542357
  94.1189745 102.5373683  61.3521047  93.4149807 101.2901813  61.8428156
 104.1233896  96.3178387  52.2998949 104.9579500  95.8859585  52.1176424
 103.9618239  96.1460400  53.2275844 103.7779788  92.8210500  53.6655289
 103.7228592  92.6554771  52.7243733 103.1525843  93.5286533  53.8217478
  88.5672303  88.0578564  67.4916711  89.2131166  87.5477518  67.9803936
  88.3589454  88.7947246  68.0660136 101.0925695  95.1259412  72.9908851
 101.9616855  95.3000064  72.6295486 100.6132447  95.9453829  72.8684581
  97.0875913  82.3218609  53.2440607  97.0754583  83.2660449  53.4008878
  97.9799335  82.1388754  52.9500068  95.2611875 102.2456513  64.6698285
  96.1639122 102.2780123  64.9864780  95.0349245 101.3156964  64.6844621
  97.0165477 100.9987499  61.3308364  96.0661108 100.9989361  61.2172736
  97.3197963 100.2520234  60.8144398 100.9028033  78.9161386  57.4986544
 100.1360429  78.3619872  57.6443226 101.3138738  78.9883254  58.3600695
  92.9069794  85.2046181  71.5891725  93.7701255  84.8482986  71.7995050
  92.3335205  84.8660076  72.2767129 112.7518171 106.8348038  62.3954126
 113.3896581 106.7154785  61.6917466 112.6339014 107.7828882  62.4542078
 109.5607877 106.7875466  62.3315651 109.2226389 106.6716531  61.4436186
 110.4297645 106.3866631  62.3116657 105.4194693 108.6410942  58.3212542
 104.8559558 108.5500879  57.5528829 105.3047088 107.8210847  58.8015034
 110.0427660 107.9410318  68.2901856 110.0316301 107.5463116  67.4182360
 110.2048300 107.2076390  68.8835628 102.9659125 110.1362134  61.1596762
 103.7580417 109.7952959  60.7443061 103.2055775 110.2457109  62.0798915
 104.9249879 109.3971047  54.0314141 105.6980755 108.8500034  53.8927017
 105.2775278 110.2615297  54.2428602 106.7634921 110.7247429  67.2381040
 106.4724787 111.6293060  67.1227706 107.3991906 110.7663957  67.9525110
 107.6891128 108.1024278  63.8282400 108.2854700 107.8780300  63.1139363
 107.7466100 107.3609023  64.4307848 107.2616156 105.5563713  51.6632591
 107.5141677 105.0345235  50.9016054 106.3240716 105.3929859  51.7659274
 112.3059439 104.5599492  59.4707334 113.0922529 104.1418915  59.1197751
 112.5698144 105.4645584  59.6388982 117.7067866 104.4974725  60.3740313
 118.4393038 103.9273942  60.6078142 116.9507222 104.1096325  60.8146818
 106.9812445 107.4591819  53.8656966 106.8648703 106.7836723  54.5338050
 107.0914705 106.9724193  53.0489119 109.3243986 106.9201966  57.5703655
 108.9602193 106.3932587  58.2816576 110.1811102 106.5300435  57.3970140
 115.2293287  98.2096299  64.8334921 114.8976612  99.0791710  64.6096136
 114.6338900  97.8932583  65.5128952 108.9649473 101.9491866  52.5665003
 109.1323875 102.8172102  52.9335475 108.7746642 102.1119148  51.6426293
 105.1737288 106.8622642  60.2667538 104.2487784 106.7298856  60.4745230
 105.4221701 107.6416861  60.7637481 115.1221950 102.9291385  61.9128271
 114.2138827 102.8606794  61.6187032 115.0709546 103.4063330  62.7410097
 108.9438694 104.4049524  53.5511670 108.8238319 104.8506574  54.3897151
 108.2491282 104.7534841  52.9925208 102.5346099 106.5055915  61.1011327
 102.6638480 106.7590394  62.0150739 101.8543550 107.0983623  60.7815982
 109.1962816 104.3481031  69.8563168 108.4196150 104.9074951  69.8466033
 109.8353379 104.8337814  70.3778039 116.9883596 101.1307824  63.6906145
 116.3457977 101.4240357  63.0445940 116.4838525 101.0160744  64.4959342
 114.6423760 104.8770997  54.3792004 115.5541616 105.1098384  54.2039702
 114.1333407 105.4608041  53.8167083 107.4509188 107.1566484  69.4181135
 108.1923873 107.6951528  69.1415959 106.7446174 107.7832773  69.5752687
 112.9264528 109.2995625  68.0153297 113.3347884 108.8578035  67.2707929
 112.2041789 108.7248252  68.2687490 109.2795598 104.2368231  65.3886854
 110.1256793 104.6607645  65.5321503 109.2194236 103.5801856  66.0825417
 112.4295043 101.8972600  67.0468028 112.1855975 102.6514660  66.5102303
 112.7054974 102.2757947  67.8815275 111.9859735 101.0529033  62.6281865
 111.1244214 101.3510286  62.9198603 112.0122170 101.2699432  61.6962898
 108.8021304 109.5971223  59.0355671 109.2659650 109.8758926  58.2460293
 108.5378102 108.6954668  58.8528762 105.6945385 109.1442705  61.9735434
 106.2646742 109.5729973  61.3352919 106.2853497 108.8625290  62.6719620
 107.7390190 105.7194376  55.8445236 108.4414234 106.1715419  56.3119162
 107.4070819 105.0778195  56.4725129 106.1870552 104.3106132  70.2196445
 105.5569212 104.9922413  70.4531842 106.0806640 104.1989214  69.2749584
 101.4815524 103.9777928  61.1462370 100.6914578 104.2335457  60.6702480
 101.9726772 104.7926266  61.2514410 103.4330270 104.3422508  58.1045846
 102.6361433 104.4541202  58.6229342 103.2055862 104.6809160  57.2386737
 109.2635937 110.8667211  66.0528361 109.3280370 111.3287618  66.8886533
 108.5546861 110.2364576  66.1810671  99.7653227 104.2308419  63.5777360
 100.0161266 105.1155429  63.8434936 100.3012776 104.0513020  62.8052452
 105.4651295  98.6126898  72.5821696 105.0718240  98.0593097  73.2569341
 106.2817435  98.9237477  72.9728214 102.4313352 110.0510756  56.4935266
 102.9437873 110.8454007  56.6440831 103.0836065 109.3537047  56.4268868
 104.2408237 113.1676513  58.5758020 104.4174865 114.0894477  58.3879003
 105.0365071 112.8534932  59.0052399 108.3819256 100.0284777  70.1741953
 109.1228969 100.6291930  70.0946416 108.6137178  99.2862415  69.6159996
 103.5260594 105.2141144  68.4520183 103.4114109 104.3126402  68.7527282
 102.6705111 105.4604841  68.1004999 105.3639553 114.6854686  64.5768362
 105.9146978 114.5571750  63.8045356 104.5251028 114.9849575  64.2263255
 109.1606724 110.9505814  68.9212593 109.6935060 110.1894102  68.6911901
 108.6320805 110.6579466  69.6636747 112.3276419  96.0565880  64.4506235
 111.9840688  96.9467522  64.3745345 112.6955381  95.8667538  63.5875820
 100.3962269 108.3799411  57.2694837 101.2337491 108.7896419  57.0528545
 100.5740537 107.4398853  57.2395031 112.2926701 106.0474491  52.9578670
 111.7773325 106.8179096  53.1967057 112.0204010 105.3739627  53.5811731
 109.8773812 100.8924192  58.0163908 109.0215409 100.5031042  57.8369547
 110.2900764 100.9716153  57.1563694 111.4072959  98.4270535  62.4155468
 110.9037755  98.3900670  61.6023273 111.7003566  99.3363278  62.4752125
 107.6515845  98.5109265  61.4221650 108.5168842  98.3152074  61.0627539
 107.7193354  98.2819617  62.3491006 112.0813004 103.9201583  54.7838451
 111.7763140 104.2347733  55.6348594 113.0343447 103.9983003  54.8265784
 110.5259436 110.0791807  56.4331405 109.9980798 109.3444566  56.1204642
 110.0246939 110.8566483  56.1871373 105.2578164 100.7411473  58.7938017
 105.8321916 100.5186654  58.0611209 105.8449146 100.8100167  59.5466618
 114.3157741 106.6285200  59.6002393 114.8289623 107.2615192  60.1024103
 114.9658965 106.0286395  59.2345753 105.5847751 102.7715934  52.8133902
 104.7485063 103.1090621  53.1343177 105.4452521 102.6364914  51.8761039
 107.5600832  97.6152722  57.5213086 106.9065244  97.3001739  56.8969701
 107.5181306  96.9928462  58.2472909 108.6712036 107.8972017  49.4366378
 107.7639098 107.6661270  49.6357527 109.1683068 107.1009636  49.6240360
 110.7938572 104.1034655  61.8460734 109.8761133 104.3249602  61.6882422
 111.2098716 104.1780966  60.9872441 111.5773620 105.5026071  56.9763414
 112.3245439 106.0147468  56.6670536 111.8465209 105.1810124  57.8367807
 109.8500270 107.9984612  53.9590368 108.9411489 107.7143645  54.0562838
 109.8795354 108.4183690  53.0993675 114.0252457 102.5383187  58.9582203
 113.2875214 102.0260574  59.2892446 114.2779230 102.0983569  58.1465480
 114.1264084  95.3159439  59.5523972 114.4322961  94.4556803  59.2649887
 114.8516689  95.9077060  59.3522966 100.4188440 105.7190126  57.9405570
 100.2212840 105.1259487  57.2156637  99.8635104 105.4142336  58.6581509
 108.3985164 105.6113232  60.0600163 108.4533774 104.6587069  59.9842640
 107.5876366 105.7672672  60.5441462 109.5476358 109.5393355  51.2978447
 109.1095788 108.8229214  50.8384084 110.2886799 109.7669470  50.7363538
 106.3377524 104.2290292  57.8190542 105.5245389 104.5284463  58.2255734
 106.8336518 103.8345981  58.5365025 111.9351736 104.6932117  66.6505436
 112.2901123 104.9203590  67.5099902 112.5823867 105.0250493  66.0282692
 105.8291599 101.8008648  63.4351777 106.4690978 101.6597407  62.7374741
 104.9969129 101.5143161  63.0590379 106.6051903 111.1011078  59.5486770
 107.3992501 110.6061398  59.3469345 105.8943595 110.5728941  59.1854475
 102.9134666 105.2454160  55.6246522 101.9832254 105.1838615  55.8416485
 103.0092138 104.7230113  54.8283164 102.8320215 101.7708973  58.2124764
 103.0927032 102.6854306  58.1033925 103.6537387 101.3033415  58.3621377
 104.3045140 103.1846730  65.3823589 104.9768194 102.9764092  64.7336238
 103.4774927 102.9868816  64.9428821 110.2070712  99.8108671  67.3989250
 109.5598627 100.5098620  67.3053726 110.9771728 100.2444815  67.7665498
 110.3834847 107.6489436  65.4586069 111.3126907 107.8000595  65.2855037
 109.9625877 107.7373456  64.6034716 109.1823179 111.6740100  63.2284607
 109.0434264 111.3058884  64.1010545 108.3937775 112.1887740  63.0568565
 110.7328394 111.0521703  60.6173445 110.3978226 111.0122473  61.5131095
 110.2332339 110.3866419  60.1443855 104.7072638 106.4589333  66.1426026
 104.5692436 105.7269572  66.7437565 105.6177561 106.3698233  65.8610214
 113.6687585 108.3977737  50.8910504 113.0516756 107.6724565  50.7943557
 113.2004074 109.1587097  50.5477579 107.3354938 106.1709292  65.6309705
 108.0454557 105.5302484  65.5896324 107.2924246 106.4222187  66.5535886
 106.0483872 103.1574510  67.4505345 105.5121229 102.7065248  68.1026941
 105.4600581 103.2920419  66.7075809 105.4586131 102.6163161  50.0131809
 104.5815598 102.4951962  49.6494055 105.9343884 101.8249240  49.7610697
  96.9788271 107.4040321  60.1073316  97.6659311 107.0902051  59.5194331
  96.8236400 108.3081686  59.8340567 101.7822994 102.2930518  64.5358339
 101.6981182 101.6856187  63.8008749 100.9605700 102.7839536  64.5367836
 111.9546707 100.7784081  59.9028534 112.4515407 100.0254044  59.5829605
 111.1833689 100.8148398  59.3371744 113.0376488 109.5355768  57.4766958
 112.1032767 109.6557231  57.3071662 113.2153157 108.6328235  57.2126968
 108.5381676 102.9201464  59.6300219 108.1679464 102.3672505  60.3181125
 109.0340769 102.3159598  59.0775219 116.4249039 105.3773088  58.0116992
 116.8909492 106.2101079  57.9377295 116.8756540 104.9118069  58.7162250
 106.3670875 113.3798959  66.7255237 107.0680334 114.0135442  66.8784631
 105.8965990 113.7213691  65.9650876 114.3965702  97.7453675  62.0507893
 113.4828782  97.9757902  62.2190100 114.8258804  97.8292119  62.9021926
 114.1672161 105.9343567  64.5507787 113.5143611 106.1819474  63.8960240
 114.5452541 105.1207705  64.2170265 110.2159734 106.6763378  71.0373824
 109.5400371 106.5757507  71.7076200 111.0387368 106.5202592  71.5009822
 101.9638593 112.9135314  63.6586340 102.5492030 112.1679002  63.7914244
 101.7663431 113.2239271  64.5423004  96.5556248 105.4840915  62.3790783
  96.5940347 104.9504505  63.1727901  96.0496540 104.9576120  61.7601760
 103.9347010 100.3305455  65.8753325 103.9988336 101.1920286  65.4630723
 103.8714130  99.7179457  65.1425684 103.4099282 102.4028588  69.5226359
 104.0371321 102.0205665  70.1363884 102.5527201 102.1842790  69.8882052
 100.1864825 104.2105017  55.4544714 100.4818266 103.3015695  55.4011768
  99.2852861 104.1892756  55.1325717 103.7159072 102.2861013  61.4372263
 102.9945658 102.8996981  61.2979736 104.5052328 102.8218778  61.3588909
 106.5185386  99.6215440  67.7112915 107.0419787  99.8677736  68.4739224
 106.2997719 100.4535475  67.2916052 101.9152667 101.8919114  55.5784039
 101.5865373 101.0116493  55.3959145 102.2692037 101.8366783  56.4660429
 105.0294490 102.1792084  55.9459517 105.3690562 102.7078005  55.2238125
 105.4766610 102.5172490  56.7218084 107.7237931 100.5629135  65.3962585
 107.3834751  99.7636948  65.7983265 107.0176937 100.8630846  64.8239418
 108.3754402  97.6478447  63.8489908 109.1980472  97.1738925  63.7268798
 108.6192466  98.4268931  64.3488594 107.0162637 100.6766706  54.1452810
 107.7370999 101.0547959  53.6416527 106.3927941 101.3955583  54.2487788
 111.1593760 101.3811855  55.0811142 111.3757374 102.2636493  54.7799970
 110.6787827 100.9898068  54.3516784 105.8992981 104.3397568  61.6581887
 105.7537562 104.6537871  62.5506168 105.4218185 104.9582468  61.1052785
 107.7589364 101.3300116  61.7062776 107.7450933 100.4341209  61.3695074
 108.4761792 101.3370780  62.3401062 109.6115495 101.7637456  63.7515904
 109.3533273 102.6854527  63.7500234 109.0800535 101.3667891  64.4416368
 100.3738643 106.8802912  64.5969548  99.8292111 107.6562720  64.7289822
 101.2517993 107.2273717  64.4388669 107.1626260 100.2114496  56.9750346
 107.2842171  99.2831142  57.1741234 106.8728302 100.2253182  56.0628662
 110.0317450  97.8969407  60.1117066 110.0539147  97.9608740  59.1569046
 110.4485509  97.0573915  60.3057572 101.1604665 106.0072809  67.4899705
 100.4186401 106.1555444  68.0764335 100.8397410 106.2681074  66.6266454
 101.6061279 113.8938237  59.5210099 102.4319299 113.5942009  59.1408743
 101.2555331 113.1245860  59.9699888 106.5742812 113.2464706  61.5907773
 105.9522821 112.5835411  61.2910001 107.2447679 113.2725837  60.9081421
  99.8069884 111.8124564  60.4799033  98.9701792 111.3846738  60.2983034
  99.7793529 112.0057007  61.4169824 106.6467340 101.7246494  71.1840279
 106.6955495 102.6008616  70.8018049 107.1889854 101.1823887  70.6111922
 106.1356319 111.7968629  55.0666234 106.2844439 112.4804093  54.4132906
 106.9422762 111.7773719  55.5815689 114.5423823 105.1011011  69.0933451
 115.4433685 104.9617476  68.8017449 114.6171797 105.2665466  70.0331629
 108.8766628 102.4777866  67.9386638 108.0069937 102.7711432  67.6669226
 109.1126108 103.0618311  68.6593901 103.8908952 107.8233807  56.0727302
 103.6454994 106.9196137  56.2707513 104.0604867 107.8250957  55.1306780
 111.5805662  98.6957483  65.4552058 112.0987606  99.4318510  65.1298547
 111.2260795  99.0021476  66.2898817 103.1604600 103.5562164  53.5713464
 102.4673844 103.6306519  52.9153500 102.9156351 102.7922508  54.0934981
 111.8318256  95.1157765  60.9752955 112.1120010  94.4480954  61.6013381
 112.6168863  95.3086861  60.4627619 115.7027114 103.5375399  64.7224530
 116.6544537 103.6373497  64.7436754 115.5330565 102.7453668  65.2322614
 113.7241494 100.6230983  64.9083931 113.1291426 100.9035995  64.2130419
 113.4391191 101.1124884  65.6800672 110.0198523 105.6277572  49.8794033
 110.9657628 105.4983780  49.9482452 109.6412768 104.8892234  50.3563462
 118.3309681 103.5492563  63.8825113 117.8148729 102.7651019  63.6955041
 119.2149629 103.2211279  64.0471632 115.9920408  97.2933578  59.8420925
 115.7945229  96.9848666  60.7264257 116.6020113  98.0195217  59.9718855
 109.9037216 109.6795318  71.3394690 110.8240225 109.8573917  71.5334737
 109.8686799 108.7351364  71.1874390 108.2041440 103.5527548  49.8148919
 107.2972896 103.2560661  49.8911632 108.4817421 103.2557367  48.9483205
  99.1219381 104.8733912  60.2647965  98.8022165 104.0199220  59.9722339
  98.5752809 105.0882490  61.0205932 102.8999288 107.5896353  63.9817472
 103.1185298 108.5213461  64.0005505 103.3125062 107.2304327  64.7672275
 109.8203506  98.0964438  55.9693160 109.0104234  97.7511523  56.3448406
 110.5087923  97.7871982  56.5580772 111.7494054  97.1742485  57.5917457
 112.3025093  97.5937938  58.2507480 111.9864141  96.2478233  57.6340413
 107.7727153 103.1629559  73.3720221 107.6723880 104.1123916  73.3032312
 107.5548695 102.8347798  72.4996291 106.9740225 100.4114484  49.9560898
 107.8359389 100.7369382  50.2156715 107.1590569  99.6245980  49.4433964
  98.9907641 108.4936823  62.2341087  98.2971112 108.0790776  61.7211041
  99.7380632 108.5357360  61.6374506 115.1272861  99.2843010  57.0996121
 114.5471530  99.9427814  56.7174173 114.8608794  98.4620355  56.6883538
 113.5776428  98.6848068  59.3017441 114.0776206  98.7964602  58.4931760
 114.2212036  98.3809121  59.9418250 107.6358424 106.5926697  72.1885282
 107.1525505 107.3927058  72.3949171 107.7219363 106.6034642  71.2352726
 100.9044383 108.4255077  60.1107102 100.8815071 108.5242764  59.1588985
 101.2145020 109.2720228  60.4324268 103.5631761 110.4831232  64.2253716
 104.5175015 110.4515174  64.1583648 103.3644285 110.0221856  65.0403942
 104.1531143 109.0532348  66.7924514 104.9724032 109.5476427  66.8159351
 104.4267951 108.1364316  66.7642081 113.9097739 101.4443101  56.1552469
 113.0223594 101.7292751  55.9372664 114.3251728 101.2836864  55.3079746
 117.2612275 101.4689622  59.8706808 118.0372666 101.9586074  60.1431425
 116.5360410 101.8947676  60.3278678 119.6984834 102.1817241  60.9280749
 120.2929325 101.9412977  60.2174057 119.7711418 101.4624371  61.5554285
 101.9181990 116.0250852  61.2423914 101.7836458 115.2651253  60.6761912
 101.5014052 116.7491752  60.7752703 113.8838763 106.9597636  56.3702759
 113.8273964 107.4166188  55.5310392 114.4367106 106.1988321  56.1925602
 117.6943569 102.7487368  57.1952879 117.4380503 102.3484004  58.0261087
 117.0696437 103.4631162  57.0703018 114.6173542 108.1502418  53.6655289
 114.5622346 107.9846689  52.7243733 113.9919598 108.8578451  53.8217478
  99.4066057 103.3870482  67.4916711 100.0524921 102.8769436  67.9803936
  99.1983208 104.1239164  68.0660136 107.9269668  97.6510527  53.2440607
 107.9148338  98.5952367  53.4008878 108.8193090  97.4680672  52.9500068
 111.7421787  94.2453303  57.4986544 110.9754183  93.6911790  57.6443226
 112.1532492  94.3175172  58.3600695 103.7463548 100.5338099  71.5891725
 104.6095010 100.1774904  71.7995050 103.1728959 100.1951994  72.2767129
  44.5245351  -8.1813918  49.0560957  44.1863863  -8.2972853  48.1681492
  45.3935120  -8.5822752  49.0361963  40.3832167  -6.3278441  45.0457848
  39.8197032  -6.4188504  44.2774136  40.2684562  -7.1478537  45.5260341
  45.0065134  -7.0279066  55.0147163  44.9953775  -7.4226268  54.1427666
  45.1685774  -7.7612993  55.6080934  37.9296599  -4.8327250  47.8842069
  38.7217891  -5.1736425  47.4688368  38.1693249  -4.7232274  48.8044222
  45.9631726  -2.6607473  40.3572313  45.3119706  -2.0753393  39.9706327
  46.7576089  -2.1301279  40.4167351  39.8887353  -5.5718336  40.7559447
  40.6618229  -6.1189349  40.6172323  40.2412752  -4.7074087  40.9673909
  41.7272396  -4.2441954  53.9626347  41.4362262  -3.3396323  53.8473013
  42.3629380  -4.2025426  54.6770416  42.6528602  -6.8665105  50.5527706
  43.2492175  -7.0909083  49.8384669  42.7103574  -7.6080360  51.1553154
  47.4406991  -4.9717041  40.8941297  46.8052824  -4.8982415  41.6062202
  47.1104397  -4.3823443  40.2160377  41.9449920  -7.5097564  40.5902272
  41.8286178  -8.1852661  41.2583357  42.0552179  -7.9965190  39.7734425
  44.2881460  -8.0487417  44.2948962  43.9239668  -8.5756796  45.0061883
  45.1448576  -8.4388948  44.1215447  46.6862281  -4.5580538  50.9576140
  46.3863004  -3.6555500  50.8491948  46.3413340  -4.8248355  51.8097293
  40.1374762  -8.1066742  46.9912845  39.2125259  -8.2390528  47.1990537
  40.3859175  -7.3272522  47.4882787  41.6683060   2.2063782  43.9247108
  41.5907090   3.1571607  44.0035589  41.0644704   1.8609654  44.5822034
  42.4146662  -7.8122899  56.1426442  43.1561347  -7.2737855  55.8661266
  41.7083648  -7.1856611  56.2997994  47.8902002  -5.6693759  54.7398604
  48.2985358  -6.1111348  53.9953236  47.1679264  -6.2441131  54.9932796
  48.2130817  -5.1092568  48.4950892  47.5839679  -4.9446854  47.7926960
  47.8256479  -4.6950959  49.2661856  52.0920049  -4.1738130  45.8495256
  51.4071087  -3.7939229  45.2992290  52.1763898  -3.5642804  46.5827204
  49.3470980  -6.5278171  52.4490600  49.5587876  -5.8846411  51.7724981
  49.3000729  -7.3615855  51.9812530  43.7658779  -5.3718160  45.7600978
  44.2297124  -5.0930457  44.9705600  43.5015577  -6.2734716  45.5774068
  40.6582860  -5.8246679  48.6980741  41.2284217  -5.3959410  48.0598225
  41.2490972  -6.1064094  49.3964926  50.4616808  -3.6506216  50.6212957
  51.2834252  -4.0526029  50.3395639  50.4579211  -3.7537982  51.5729073
  44.2273412  -4.1022173  52.7773668  44.2917844  -3.6401765  53.6131839
  43.5184336  -4.7324808  52.9055977  43.9421429  -2.4354065  42.6452648
  43.8067104  -1.5902529  43.0737496  44.4831242  -2.2334788  41.8818582
  37.3950827  -4.9178627  43.2180573  37.9075347  -4.1235377  43.3686138
  38.0473540  -5.6152337  43.1514174  39.2045711  -1.8012871  45.3003326
  39.3812340  -0.8794906  45.1124310  40.0002545  -2.1154452  45.7297706
  45.5689906  -1.8130499  56.7752990  45.1253760  -2.5994120  56.4573894
  46.2307119  -1.6251348  56.1096881  40.3277027  -0.2834697  51.3013668
  40.8784452  -0.4117634  50.5290662  39.4888503   0.0160192  50.9508561
  47.6671144  -1.5327699  54.8034391  47.6489619  -0.7118818  54.3114660
  48.5891064  -1.6573624  55.0284532  44.1244198  -4.0183569  55.6457900
  44.6572535  -4.7795281  55.4157208  43.5958279  -4.3109917  56.3882054
  45.4896911  -4.8897577  43.1576712  44.9618272  -5.6244817  42.8449949
  44.9884413  -4.1122900  42.9116680  50.4689757  -6.6948556  48.2743758
  49.8113431  -6.0049295  48.3623887  51.2730156  -6.3052124  48.6177744
  43.6349511  -7.0717367  36.1611685  42.7276573  -7.3028113  36.3602834
  44.1320543  -7.8679747  36.3485666  46.5417590   1.6380141  39.0808371
  45.8679288   1.9411837  39.6893329  46.9283412   2.4409221  38.7313828
  44.8137744  -6.9704772  40.6835675  43.9048964  -7.2545739  40.7808145
  44.8432828  -6.5505693  39.8238982  50.0457012  -3.3598182  44.4526842
  49.5919339  -4.2007272  44.5092033  49.4150978  -2.7236784  44.7901622
  48.4889951  -1.5221685  45.3876660  48.7812925  -0.9616628  44.6689026
  48.9988571  -1.2293124  46.1429820  44.5113832  -5.4296028  38.0223753
  44.0733262  -6.1460169  37.5629391  45.2524273  -5.2019913  37.4608845
  43.4523576  -0.7441334  46.4770114  43.4099755  -0.5180488  45.5478646
  44.3686275  -0.9777960  46.6255915  52.6556326  -5.0862304  49.0911343
  53.0892833  -5.1787015  49.9394397  53.3687907  -5.1104803  48.4531359
  41.5689377  -3.8678305  46.2732076  42.3629975  -4.3627985  46.0714651
  40.8581069  -4.3960442  45.9099782  46.3884221  -1.4860210  50.6244444
  46.4421244  -0.9169274  51.3922160  45.5199003  -1.3158325  50.2598481
  53.5171876  -5.0438603  51.6244229  53.7107766  -4.1392793  51.8703504
  53.4172494  -5.5031184  52.4582814  48.5786985  -4.8931861  57.1985109
  48.4272491  -5.1221309  56.2815193  48.5691664  -3.9361259  57.2116454
  45.3472321  -7.3199948  52.1831376  46.2764381  -7.1688788  52.0100343
  44.9263351  -7.2315927  51.3280022  44.1460653  -3.2949283  49.9529913
  44.0071739  -3.6630499  50.8255852  43.3575249  -2.7801644  49.7813871
  44.7408805   1.8059813  41.2955450  44.9160561   1.3347856  42.1101073
  44.0541593   2.4325579  41.5236711  45.6965868  -3.9167681  47.3418751
  45.3615701  -3.9566911  48.2376401  45.1969814  -4.5822965  46.8689161
  39.6710112  -8.5100051  52.8671332  39.5329910  -9.2419812  53.4682871
  40.5815035  -8.5991151  52.5855520  48.6325060  -6.5711646  37.6155811
  48.0154230  -7.2964818  37.5188864  48.1641548  -5.8102286  37.2722885
  42.2992413  -8.7980091  52.3555012  43.0092031  -9.4386899  52.3141630
  42.2561721  -8.5467196  53.2781193  50.2879191  -1.8612738  55.2761591
  50.2291737  -2.5453518  54.6092174  50.6898710  -1.1193748  54.8242217
  39.3069890   4.9549176  48.0695310  39.5466488   5.5867700  48.7474329
  38.4639087   4.6037216  48.3560669  50.2896599  -3.8973154  53.5075571
  49.4023377  -4.2347232  53.6301970  50.8595150  -4.6290123  53.7444336
  43.8197752   0.7628298  50.4736814  43.7467923   1.5683270  50.9856119
  43.3775145   0.9620264  49.6484836  43.6087532   0.0000068  43.9839636
  42.8255054   0.5421749  44.0777860  44.3080277   0.5174048  44.3833877
  46.2796436   0.6615132  52.6294973  46.9924408   1.2962597  52.5570874
  45.7886464   0.7578998  51.8134975  48.0013962  -5.4333615  44.2012264
  47.0670241  -5.3132153  44.0316969  48.1790631  -6.3361148  43.9372274
  41.3308349  -1.5890424  53.4500544  42.0317809  -0.9553941  53.6029938
  40.8603464  -1.2475693  52.6896183  49.4562745  -3.2472474  41.7348451
  49.7322589  -3.3615880  42.6442325  48.5867244  -3.6454990  41.6960624
  46.0916809   1.0013876  45.3781264  46.2739203   0.1835532  45.8409017
  46.9149795   1.2181569  44.9406154  46.4258974  -0.0717938  42.6396313
  46.9546741  -0.5825484  42.0266475  46.6887194  -0.3875408  43.5041846
  45.1797208  -8.2926006  57.7619131  44.5037845  -8.3931876  58.4321506
  46.0024842  -8.4486792  58.2255128  36.9276067  -2.0554069  50.3831646
  37.5129504  -2.8010381  50.5159551  36.7300906  -1.7450112  51.2668310
  39.7814722   0.9797178  45.3994089  39.1125098   1.4643306  44.9158129
  39.6427592   1.2266399  46.3137467  43.9219991   3.0140922  51.9976747
  44.4738299   3.1772543  52.7625832  44.2626184   3.6045360  51.3256772
  48.7730865  -2.1597821  57.8525401  49.3170769  -1.5467862  57.3580356
  48.1917710  -1.6018242  58.3692415  47.0588378   0.9622897  48.9840429
  46.9339518   0.1612637  48.4751375  47.7167469   1.4569091  48.4954399
  49.1223287  -1.2368083  50.6119979  48.1753622  -1.3562731  50.5398306
  49.4706060  -2.1245585  50.6946241  46.1269720  -1.4415366  46.8124332
  45.9794682  -2.3698659  46.9931902  46.9523213  -1.4195276  46.3281407
  49.7303842  -0.6186808  47.8989204  50.6550389  -0.8243946  47.7613655
  49.5619145  -0.8670407  48.8078546  49.5199158  -0.1001140  43.2551296
  49.6936035  -0.6654718  42.5025148  50.0128049   0.6999755  43.0730786
  50.5074330  -0.7834376  40.3548194  51.2025235  -0.1627683  40.5735509
  50.8497481  -1.6339025  40.6300572  52.4065754  -3.3334670  41.8835525
  52.9317078  -2.9947398  41.1584845  52.3188106  -4.2687655  41.6998659
  44.0685802   0.5799403  54.0125401  44.3772929   0.3348550  54.8848101
  44.8661284   0.7846042  53.5244272  44.0906414   2.7337313  46.2430778
  43.6511405   2.2413692  46.9363635  44.8414531   2.1910281  46.0022853
  36.5698753  -1.0751146  46.2455406  37.3956773  -1.3747374  45.8654050
  36.2192805  -1.8443524  46.6945195  41.5380286  -1.7224678  48.3153080
  40.9160296  -2.3853973  48.0155308  42.2085153  -1.6963546  47.6326727
  34.7707358  -3.1564820  47.2044340  33.9339267  -3.5842645  47.0228341
  34.7431004  -2.9632376  48.1415131  52.0959660  -2.7001767  57.1886723
  51.3055203  -2.7177628  56.6491222  51.8593014  -2.1613473  57.9435759
  41.0993793  -3.1720755  41.7911540  41.2481914  -2.4885290  41.1378213
  41.9060237  -3.1915665  42.3060996  53.7175731  -3.4312359  54.7461473
  53.4260540  -3.0682378  55.5824934  53.1047863  -4.1445350  54.5674805
  38.8546426  -7.1455577  42.7972609  38.6092468  -8.0493247  42.9952819
  39.0242341  -7.1438427  41.8552087  44.5989199  -0.6772624  39.2623288
  44.0263166  -0.0582437  38.8093759  45.1721993  -0.1273262  39.7963210
  47.8186459  -0.3935474  40.3931870  48.7517132  -0.4589912  40.5964745
  47.7309671   0.4420793  39.9346403  50.4474475  -1.0769604  37.3535817
  50.3688107  -1.4109740  38.2471575  51.2684142  -0.5847836  37.3527290
  44.8674690  -5.2894065  58.0639997  45.7877699  -5.1115466  58.2580044
  44.8324273  -6.2338020  57.9119696  37.8636762  -7.3793031  50.7062778
  38.0822772  -6.4475923  50.7250812  38.2762536  -7.7385056  51.4917582
  42.5995898  -8.3762686  58.9130589  42.1162980  -7.5762326  59.1194478
  42.6856837  -8.3654741  57.9598033  35.8681857  -6.5434306  46.8352408
  35.8452546  -6.4446619  45.8834291  36.1782494  -5.6969156  47.1569574
  38.5269235  -4.4858151  50.9499023  39.4812489  -4.5174209  50.8828954
  38.3281759  -4.9467528  51.7649249  39.1168617  -5.9157035  53.5169820
  39.9361506  -5.4212957  53.5404658  39.3905425  -6.8325067  53.4887388
  36.8819464   1.0561468  47.9669220  36.7473932   0.2961869  47.4007219
  36.4651526   1.7802368  47.4998009  48.0178427  -3.7601608  36.9745796
  48.7214277  -3.5551606  37.5903451  47.2941076  -3.1924846  37.2394879
  40.0388590   1.9530785  48.1787663  39.9220974   2.8976218  48.0766353
  39.2181036   1.6504347  48.5673462  49.9265125  -3.3219079  39.0244256
  50.7610728  -3.7537881  38.8421731  49.7649467  -3.4937065  39.9521150
  49.5811017  -6.8186966  40.3900595  49.5259820  -6.9842694  39.4489039
  48.9557072  -6.1110933  40.5462785  46.8956924  -4.5138054  59.7154158
  47.7648084  -4.3397402  59.3540793  46.4163675  -3.6943637  59.5929887
  41.0643104   2.6059047  51.3943592  41.9670351   2.6382657  51.7110087
  40.8380474   1.6759498  51.4089927  42.8196706   1.3590034  48.0553670
  41.8692337   1.3591895  47.9418042  43.1229192   0.6122768  47.5389705
  58.5549400   7.1950572  49.1199433  59.1927810   7.0757319  48.4162773
  58.4370242   8.1431416  49.1787385  55.3639106   7.1478000  49.0560957
  55.0257617   7.0319065  48.1681492  56.2328874   6.7469165  49.0361963
  51.2225922   9.0013477  45.0457848  50.6590787   8.9103414  44.2774136
  51.1078317   8.1813381  45.5260341  55.8458889   8.3012852  55.0147163
  55.8347530   7.9065650  54.1427666  56.0079528   7.5678924  55.6080934
  48.7690354  10.4964668  47.8842069  49.5611645  10.1555493  47.4688368
  49.0087004  10.6059643  48.8044222  56.8025480  12.6684444  40.3572313
  56.1513460  13.2538525  39.9706327  57.5969843  13.1990639  40.4167351
  50.7281107   9.7573581  40.7559447  51.5011983   9.2102568  40.6172323
  51.0806506  10.6217831  40.9673909  52.5666150  11.0849964  53.9626347
  52.2756016  11.9895595  53.8473013  53.2023134  11.1266491  54.6770416
  53.4922357   8.4626812  50.5527706  54.0885929   8.2382835  49.8384669
  53.5497328   7.7211558  51.1553154  53.0647385   5.9166248  38.3877897
  53.3172906   5.3947769  37.6261360  52.1271944   5.7532393  38.4904581
  58.1090668   4.9202026  46.1952641  58.8953757   4.5021449  45.8443058
  58.3729372   5.8248118  46.3634289  58.2800745  10.3574876  40.8941297
  57.6446578  10.4309503  41.6062202  57.9498152  10.9468475  40.2160377
  63.5099095   4.8577259  47.0985619  64.2424267   4.2876476  47.3323449
  62.7538451   4.4698860  47.5392125  52.7843674   7.8194353  40.5902272
  52.6679932   7.1439257  41.2583357  52.8945934   7.3326727  39.7734425
  55.1275215   7.2804501  44.2948962  54.7633422   6.7535122  45.0061883
  55.9842331   6.8902970  44.1215447  61.0324516  -1.4301167  51.5580228
  60.7007840  -0.5605756  51.3341443  60.4370129  -1.7464883  52.2374258
  54.7680702   2.3094400  39.2910310  54.9355104   3.1774637  39.6580781
  54.5777871   2.4721682  38.3671599  57.5256035  10.7711379  50.9576140
  57.2256758  11.6736418  50.8491948  57.1807095  10.5043562  51.8097293
  50.9768517   7.2225176  46.9912845  50.0519013   7.0901390  47.1990537
  51.2252930   8.0019395  47.4882787  60.9253179   3.2893919  48.6373578
  60.0170056   3.2209328  48.3432339  60.8740775   3.7665864  49.4655403
  54.7469923   4.7652058  40.2756977  54.6269548   5.2109109  41.1142457
  54.0522511   5.1137375  39.7170515  48.3377328   6.8658450  47.8256634
  48.4669709   7.1192929  48.7396046  47.6574779   7.4586158  47.5061289
  52.5076815  17.5355700  43.9247108  52.4300845  18.4863525  44.0035589
  51.9038458  17.1901572  44.5822034  54.9994045   4.7083565  56.5808475
  54.2227379   5.2677485  56.5711340  55.6384608   5.1940348  57.1023345
  62.7914825   1.4910358  50.4151452  62.1489206   1.7842891  49.7691246
  62.2869754   1.3763278  51.2204648  60.4454989   5.2373531  41.1037311
  61.3572845   5.4700918  40.9285009  59.9364636   5.8210575  40.5412390
  53.2540417   7.5169018  56.1426442  53.9955101   8.0554062  55.8661266
  52.5477402   8.1435307  56.2997994  58.7295757   9.6598159  54.7398604
  59.1379113   9.2180569  53.9953236  58.0073018   9.0850786  54.9932796
  55.0826827   4.5970766  52.1132161  55.9288022   5.0210179  52.2566810
  55.0225464   3.9404390  52.8070724  59.0524571  10.2199349  48.4950892
  58.4233434  10.3845064  47.7926960  58.6650233  10.6340959  49.2661856
  62.9313803  11.1553787  45.8495256  62.2464841  11.5352689  45.2992290
  63.0157652  11.7649114  46.5827204  58.2326272   2.2575134  53.7713334
  57.9887204   3.0117194  53.2347610  58.5086203   2.6360482  54.6060581
  60.1864735   8.8013746  52.4490600  60.3981630   9.4445506  51.7724981
  60.1394483   7.9676063  51.9812530  57.7890964   1.4131567  49.3527172
  56.9275443   1.7112821  49.6443909  57.8153398   1.6301966  48.4208205
  54.6052533   9.9573758  45.7600978  55.0690879  10.2361460  44.9705600
  54.3409331   9.0557202  45.5774068  51.4976614   9.5045239  48.6980741
  52.0677971   9.9332507  48.0598225  52.0884726   9.2227824  49.3964926
  53.5421419   6.0796910  42.5690543  54.2445463   6.5317954  43.0364469
  53.2102048   5.4380729  43.1970436  51.9901781   4.6708667  56.9441752
  51.3600441   5.3524947  57.1777149  51.8837869   4.5591748  55.9994890
  47.2846753   4.3380463  47.8707676  46.4945807   4.5937991  47.3947787
  47.7758001   5.1528800  47.9759717  61.3010563  11.6785702  50.6212957
  62.1228006  11.2765889  50.3395639  61.2972966  11.5753936  51.5729073
  49.2361499   4.7025042  44.8291153  48.4392662   4.8143736  45.3474649
  49.0087091   5.0411694  43.9632043  55.0667166  11.2269745  52.7773668
  55.1311599  11.6890152  53.6131839  54.3578090  10.5967110  52.9055977
  45.5684456   4.5910953  50.3022667  45.8192495   5.4757963  50.5680243
  46.1044005   4.4115555  49.5297759  69.3916556   8.0224450  46.9697929
  68.6380264   7.4531848  46.8141933  69.5264097   7.9887115  47.9168563
  54.7815184  12.8937852  42.6452648  54.6460859  13.7389388  43.0737496
  55.3224996  13.0957130  41.8818582  51.2682523  -1.0270568  59.3067003
  50.8749469  -1.5804369  59.9814647  52.0848664  -0.7159989  59.6973521
  48.2344581  10.4113291  43.2180573  48.7469102  11.2056541  43.3686138
  48.8867294   9.7139581  43.1514174  50.0439466  13.5279047  45.3003326
  50.2206094  14.4497012  45.1124310  50.8396299  13.2137466  45.7297706
  54.1850484   0.3887311  56.8987260  54.9260198   0.9894465  56.8191722
  54.4168407  -0.3535051  56.3405302  49.3291822   5.5743679  55.1765489
  49.2145338   4.6728936  55.4772588  48.4736340   5.8207375  54.8250306
  56.4083660  13.5161419  56.7752990  55.9647514  12.7297798  56.4573894
  57.0700874  13.7040570  56.1096881  51.1670781  15.0457221  51.3013668
  51.7178206  14.9174284  50.5290662  50.3282257  15.3452110  50.9508561
  58.5064898  13.7964219  54.8034391  58.4883374  14.6173100  54.3114660
  59.4284818  13.6718294  55.0284532  54.9637952  11.3108348  55.6457900
  55.4966289  10.5496637  55.4157208  54.4352034  11.0182000  56.3882054
  58.1307647  -3.5831586  51.1751541  57.7871917  -2.6929944  51.0990652
  58.4986610  -3.7729928  50.3121126  46.1993498   8.7401945  43.9940144
  47.0368720   9.1498953  43.7773851  46.3771766   7.8001387  43.9640337
  58.0957930   6.4077025  39.6823976  57.5804554   7.1781630  39.9212364
  57.8235239   5.7342162  40.3057038  55.6805041   1.2526726  44.7409215
  54.8246637   0.8633577  44.5614854  56.0931993   1.3318687  43.8809000
  57.2104188  -1.2126930  49.1400775  56.7068983  -1.2496795  48.3268580
  57.5034795  -0.3034188  49.1997431  53.4547074  -1.1288201  48.1466956
  54.3200070  -1.3245392  47.7872846  53.5224583  -1.3577849  49.0736313
  63.0692204   9.1609380  41.6177150  62.2921647   8.8220540  41.1732312
  63.7483685   9.1662003  40.9432115  57.8844233   4.2804118  41.5083758
  57.5794369   4.5950267  42.3593901  58.8374675   4.3585537  41.5511091
  56.3290665  10.4394341  43.1576712  55.8012027   9.7047100  42.8449949
  55.8278168  11.2169017  42.9116680  61.3083511   8.6343361  48.2743758
  60.6507186   9.3242623  48.3623887  62.1123910   9.0239793  48.6177744
  51.0609393   1.1014007  45.5183323  51.6353145   0.8789189  44.7856516
  51.6480375   1.1702702  46.2711924  60.1188970   6.9887734  46.3247700
  60.6320852   7.6217726  46.8269409  60.7690194   6.3888930  45.9591060
  51.3878980   3.1318468  39.5379208  50.5516292   3.4693155  39.8588483
  51.2483749   2.9967448  38.6006345  53.3632060  -2.0244744  44.2458393
  52.7096473  -2.3395727  43.6215007  53.3212535  -2.6469003  44.9718216
  54.4743265   8.2574551  36.1611685  53.5670327   8.0263805  36.3602834
  54.9714297   7.4612170  36.3485666  57.3811344  16.9672058  39.0808371
  56.7073043  17.2703755  39.6893329  57.7677166  17.7701139  38.7313828
  56.5969801   4.4637190  48.5706040  55.6792362   4.6852137  48.4127728
  57.0129944   4.5383500  47.7117748  57.3804849   5.8628605  43.7008720
  58.1276668   6.3750003  43.3915843  57.6496438   5.5412658  44.5613114
  55.6531499   8.3587146  40.6835675  54.7442718   8.0746179  40.7808145
  55.6826583   8.7786225  39.8238982  60.8850766  11.9693736  44.4526842
  60.4313093  11.1284645  44.5092033  60.2544733  12.6055134  44.7901622
  59.8283686   2.8985722  45.6827510  59.0906443   2.3863108  46.0137752
  60.0810459   2.4586103  44.8710787  59.3283705  13.8070232  45.3876660
  59.6206680  14.3675289  44.6689026  59.8382326  14.0998793  46.1429820
  46.2219669   6.0792660  44.6650877  46.0244069   5.4862021  43.9401944
  45.6666333   5.7744870  45.3826816  54.2016393   5.9715767  46.7845470
  54.2565003   5.0189603  46.7087947  53.3907595   6.1275206  47.2686769
  55.3507587   9.8995890  38.0223753  54.9127016   9.1831749  37.5629391
  56.0918027  10.1272005  37.4608845  52.1408753   4.5892826  44.5435849
  51.3276618   4.8886997  44.9501041  52.6367747   4.1948515  45.2610331
  54.2917331  14.5850583  46.4770114  54.2493509  14.8111430  45.5478646
  55.2080029  14.3513958  46.6255915  57.7382964   5.0534651  53.3750743
  58.0932352   5.2806124  54.2345209  58.3855096   5.3853028  52.7527998
  63.4680701   8.1753087  44.0800072  63.3298600   8.3654683  43.1521261
  63.1116920   8.9372470  44.5368123  51.6322827   2.1611182  50.1597084
  52.2722207   2.0199941  49.4620047  50.8000358   1.8745695  49.7835686
  63.4950081  10.2429614  49.0911343  63.9286588  10.1504903  49.9394397
  64.2081662  10.2187114  48.4531359  52.4083131  11.4613612  46.2732076
  53.2023730  10.9663932  46.0714651  51.6974824  10.9331475  45.9099782
  57.2277976  13.8431708  50.6244444  57.2814998  14.4122644  51.3922160
  56.3592757  14.0133593  50.2598481  48.7165895   5.6056694  42.3491829
  47.7863483   5.5441150  42.5661791  48.8123367   5.0832647  41.5528470
  48.6351444   2.1311507  44.9370071  48.8958261   3.0456840  44.8279231
  49.4568616   1.6635949  45.0866684  50.1076369   3.5449264  52.1068895
  50.7799423   3.3366626  51.4581544  49.2806156   3.3471350  51.6674128
  64.3565631  10.2853314  51.6244229  64.5501521  11.1899125  51.8703504
  64.2566249   9.8260733  52.4582814  56.0101941   0.1711205  54.1234556
  55.3629856   0.8701155  54.0299033  56.7802957   0.6047349  54.4910804
  59.4180739  10.4360057  57.1985109  59.2666246  10.2070609  56.2815193
  59.4085419  11.3930659  57.2116454  56.1866076   8.0091970  52.1831376
  57.1158136   8.1603130  52.0100343  55.7657106   8.0975991  51.3280022
  54.9854407  12.0342634  49.9529913  54.8465493  11.6661419  50.8255852
  54.1969004  12.5490274  49.7813871  55.5802559  17.1351731  41.2955450
  55.7554315  16.6639774  42.1101073  54.8935347  17.7617497  41.5236711
  56.5359623  11.4124237  47.3418751  56.2009455  11.3725007  48.2376401
  56.0363568  10.7468953  46.8689161  50.5103866   6.8191867  52.8671332
  50.3723664   6.0872106  53.4682871  51.4208790   6.7300767  52.5855520
  59.4718814   8.7580271  37.6155811  58.8547985   8.0327100  37.5188864
  59.0035303   9.5189632  37.2722885  53.1386167   6.5311826  52.3555012
  53.8485786   5.8905019  52.3141630  53.0955475   6.7824721  53.2781193
  61.1272946  13.4679180  55.2761591  61.0685492  12.7838400  54.6092174
  61.5292464  14.2098170  54.8242217  51.8515101   3.5177044  54.1750652
  51.3152458   3.0667783  54.8272248  51.2631810   3.6522953  53.4321116
  50.1463645  20.2841094  48.0695310  50.3860243  20.9159618  48.7474329
  49.3032841  19.9329134  48.3560669  51.2617360   2.9765696  36.7377115
  50.3846826   2.8554496  36.3739362  51.7375113   2.1851774  36.4856004
  61.1290353  11.4318764  53.5075571  60.2417132  11.0944685  53.6301970
  61.6988904  10.7001795  53.7444336  42.7819500   7.7642855  46.8318622
  43.4690540   7.4504585  46.2439638  42.6267629   8.6684220  46.5585874
  47.5854222   2.6533052  51.2603646  47.5012411   2.0458721  50.5254056
  46.7636929   3.1442070  51.2613142  54.6591506  16.0920216  50.4736814
  54.5861678  16.8975187  50.9856119  54.2168900  16.2912182  49.6484836
  54.4481286  15.3291986  43.9839636  53.6648808  15.8713666  44.0777860
  55.1474031  15.8465966  44.3833877  57.7577936   1.1386615  46.6273841
  58.2546636   0.3856578  46.3074911  56.9864918   1.1750932  46.0617050
  65.6107694   6.8426981  48.2692133  65.5997570   7.7251696  47.8986066
  64.7425073   6.4898532  48.0746670  57.1190190  15.9907050  52.6294973
  57.8318162  16.6254515  52.5570874  56.6280219  16.0870916  51.8134975
  58.8407717   9.8958303  44.2012264  57.9063996  10.0159765  44.0316969
  59.0184385   8.9930769  43.9372274  54.3412905   3.2803998  46.3545526
  53.9710692   2.7275039  47.0426431  54.8371997   2.6762132  45.8020526
  62.2280268   5.7375622  44.7362299  62.6940720   6.5703614  44.6622601
  62.6787769   5.2720604  45.4407557  52.1702104  13.7401493  53.4500544
  52.8711563  14.3737976  53.6029938  51.6997219  14.0816225  52.6896183
  60.2956499  12.0819443  41.7348451  60.5716343  11.9676038  42.6442325
  59.4260998  11.6836928  41.6960624  60.1996931  -1.8943791  48.7753200
  59.2860011  -1.6639564  48.9435407  60.6290032  -1.8105347  49.6267232
  59.9703390   6.2946101  51.2753094  59.3174840   6.5422008  50.6205547
  60.3483769   5.4810239  50.9415571  56.9310563  16.3305794  45.3781264
  57.1132958  15.5127450  45.8409017  57.7543549  16.5473486  44.9406154
  57.2652729  15.2573979  42.6396313  57.7940495  14.7466434  42.0266475
  57.5280948  14.9416509  43.5041846  56.0190963   7.0365912  57.7619131
  55.3431600   6.9360041  58.4321506  56.8418596   6.8805126  58.2255128
  47.7669822  13.2737849  50.3831646  48.3523258  12.5281536  50.5159551
  47.5694660  13.5841805  51.2668310  50.6208477  16.3089096  45.3994089
  49.9518852  16.7935224  44.9158129  50.4821347  16.5558316  46.3137467
  42.3587476   5.8443449  49.1036089  42.3971576   5.3107039  49.8973208
  41.8527769   5.3178654  48.4847067  54.7613745  18.3432839  51.9976747
  55.3132053  18.5064461  52.7625832  55.1019939  18.9337277  51.3256772
  49.7378239   0.6907989  52.5998632  49.8019565   1.5522820  52.1876029
  49.6745359   0.0781991  51.8670990  49.2130511   2.7631122  56.2471666
  49.8402550   2.3808199  56.8609190  48.3558430   2.5445324  56.6127359
  59.6124620  13.1694097  57.8525401  60.1564524  13.7824055  57.3580356
  59.0311465  13.7273675  58.3692415  45.9896054   4.5707551  42.1790021
  46.2849495   3.6618229  42.1257075  45.0884090   4.5495290  41.8571023
  57.8982133  16.2914815  48.9840429  57.7733272  15.4904555  48.4751375
  58.5561224  16.7861008  48.4954399  49.5190301   2.6463547  48.1617569
  48.7976887   3.2599515  48.0225043  50.3083557   3.1821312  48.0834215
  59.9617041  14.0923835  50.6119979  59.0147377  13.9729186  50.5398306
  60.3099814  13.2046333  50.6946241  52.3216614  -0.0182026  54.4358221
  52.8451016   0.2280271  55.1984531  52.1028948   0.8138009  54.0161359
  47.7183896   2.2521649  42.3029346  47.3896602   1.3719027  42.1204452
  48.0723266   2.1969317  43.1905735  56.9663474  13.8876551  46.8124332
  56.8188437  12.9593259  46.9931902  57.7916968  13.9096642  46.3281407
  50.8325719   2.5394618  42.6704824  51.1721791   3.0680540  41.9483432
  51.2797839   2.8775024  43.4463390  60.5697596  14.7105110  47.8989204
  61.4944144  14.5047971  47.7613655  60.4012900  14.4621511  48.8078546
  53.5269159   0.9231669  52.1207892  53.1865980   0.1239482  52.5228572
  52.8208166   1.2233380  51.5484725  54.1785631  -1.9919019  50.5735215
  55.0011701  -2.4658540  50.4514105  54.4223695  -1.2128535  51.0733901
  52.8193866   1.0369240  40.8698116  53.5402228   1.4150493  40.3661833
  52.1959170   1.7558117  40.9733094  56.9624989   1.7414389  41.8056449
  57.1788603   2.6239027  41.5045277  56.4819056   1.3500602  41.0762091
  51.7024210   4.7000102  48.3827193  51.5568791   5.0140405  49.2751475
  51.2249414   5.3185002  47.8298092  53.5620593   1.6902650  48.4308083
  53.5482162   0.7943743  48.0940381  54.2793021   1.6973314  49.0646369
  55.4146724   2.1239990  50.4761210  55.1564501   3.0457061  50.4745541
  54.8831764   1.7270425  51.1661674  60.3592912  15.2290777  43.2551296
  60.5329790  14.6637200  42.5025148  60.8521804  16.0291672  43.0730786
  46.1769872   7.2405447  51.3214855  45.6323340   8.0165254  51.4535129
  47.0549222   7.5876251  51.1633976  52.9657489   0.5717030  43.6995653
  53.0873400  -0.3566323  43.8986541  52.6759531   0.5855716  42.7873968
  55.8348679  -1.7428059  46.8362373  55.8570376  -1.6788726  45.8814352
  56.2516738  -2.5823551  47.0302879  66.2132304   7.9927200  44.8741595
  66.6563450   7.2434526  44.4760719  65.3358814   7.9837337  44.4915327
  61.3468085  14.5457542  40.3548194  62.0418990  15.1664235  40.5735509
  61.6891235  13.6952893  40.6300572  46.9635894   6.3675343  54.2145011
  46.2217630   6.5157978  54.8009642  46.6428638   6.6283608  53.3511761
  63.2459508  11.9957247  41.8835525  63.7710832  12.3344520  41.1584845
  63.1581861  11.0604263  41.6998659  54.9079557  15.9091321  54.0125401
  55.2166683  15.6640468  54.8848101  55.7055039  16.1137959  53.5244272
  54.9300169  18.0629231  46.2430778  54.4905159  17.5705609  46.9363635
  55.6808286  17.5202198  46.0022853  47.4092508  14.2540772  46.2455406
  48.2350528  13.9544543  45.8654050  47.0586560  13.4848394  46.6945195
  52.3774041  13.6067240  48.3153080  51.7554050  12.9437945  48.0155308
  53.0478908  13.6328372  47.6326727  45.6101113  12.1727098  47.2044340
  44.7733021  11.7449272  47.0228341  45.5824758  12.3659541  48.1415131
  52.4498568   2.0849028  57.9085586  52.4986724   2.9611151  57.5263355
  52.9921083   1.5426421  57.3357229  62.9353414  12.6290151  57.1886723
  62.1448958  12.6114290  56.6491222  62.6986769  13.1678445  57.9435759
  63.0551289   9.4782617  54.5019451  63.1049294   9.3132625  55.4434974
  62.9465212   8.6109876  54.1117332  51.9387548  12.1571163  41.7911540
  52.0875668  12.8406627  41.1378213  52.7453991  12.1376253  42.3060996
  60.3455052   5.4613545  55.8178758  61.2464914   5.3220010  55.5262756
  60.4203026   5.6268000  56.7576935  54.6797857   2.8380400  54.6631944
  53.8101166   3.1313966  54.3914533  54.9157337   3.4220845  55.3839208
  64.5569486  11.8979559  54.7461473  64.2654294  12.2609539  55.5824934
  63.9441617  11.1846567  54.5674805  65.7565168   9.4632439  47.2664043
  66.5912060   9.9022243  47.4301603  65.8924297   8.9871092  46.4472289
  62.8056674   7.0212174  53.2141531  63.2810796   7.2139820  52.4060382
  61.8822240   7.0771359  52.9684914  49.6940181   8.1836341  42.7972609
  49.4486223   7.2798671  42.9952819  49.8636095   8.1853491  41.8552087
  57.3836891  -0.9439983  52.1797365  57.9018835  -0.2078956  51.8543853
  57.0292023  -0.6375990  53.0144124  48.9635828   3.9164698  40.2958771
  48.2705073   3.9909053  39.6398807  48.7187580   3.1525042  40.8180287
  55.4382953  14.6519294  39.2623288  54.8656920  15.2709481  38.8093759
  56.0115747  15.2018655  39.7963210  61.5058343   3.8977934  51.4469836
  62.4575766   3.9976031  51.4682060  61.3361794   3.1056202  51.9567921
  59.5272723   0.9833517  51.6329237  58.9322655   1.2638530  50.9375726
  59.2422419   1.4727418  52.4045978  58.6580213  14.9356444  40.3931870
  59.5910886  14.8702005  40.5964745  58.5703426  15.7712711  39.9346403
  61.2868230  14.2522314  37.3535817  61.2081861  13.9182178  38.2471575
  62.1077897  14.7444082  37.3527290  63.9846421   7.1184053  50.5612136
  63.9522741   6.1800054  50.7471820  64.5947045   7.1968090  49.8277961
  55.8229752   5.9880106  36.6039340  56.7688857   5.8586314  36.6727758
  55.4443997   5.2494768  37.0808768  64.1340909   3.9095097  50.6070419
  63.6179958   3.1253553  50.4200348  65.0180858   3.5813813  50.7716939
  61.7951636  -2.3463888  46.5666232  61.5976458  -2.6548799  47.4509564
  62.4051342  -1.6202249  46.6964162  69.8022971   8.1800060  49.7018173
  70.5326359   7.9185348  50.2625876  69.1929916   7.4428782  49.7420241
  67.8838268   6.3207923  50.2992624  67.1571432   6.1863888  49.6909116
  67.4685555   6.6284751  51.1049342  55.7068444  10.0397852  58.0639997
  56.6271454  10.2176451  58.2580044  55.6718027   9.0953898  57.9119696
  54.0072669   3.9130083  36.5394225  53.1004124   3.6163195  36.6156939
  54.2848650   3.6159901  35.6728512  44.9250609   5.2336446  46.9893272
  44.6053394   4.3801754  46.6967646  44.3784038   5.4485024  47.7451239
  48.7030517   7.9498887  50.7062778  48.9216527   8.8815995  50.7250812
  49.1156291   7.5906861  51.4917582  55.6234735  -1.5433028  42.6938467
  54.8135463  -1.8885943  43.0693713  56.3119152  -1.8525484  43.2826078
  57.5525283  -2.4654981  44.3162763  58.1056322  -2.0459527  44.9752786
  57.7895369  -3.3919233  44.3585719  53.5758382   3.5232093  60.0965527
  53.4755109   4.4726450  60.0277618  53.3579924   3.1950332  59.2241597
  52.7771454   0.7717018  36.6806205  53.6390618   1.0971916  36.9402022
  52.9621798  -0.0151486  36.1679270  44.7938869   8.8539358  48.9586393
  44.1002341   8.4393310  48.4456348  45.5411860   8.8959894  48.3619812
  60.9304090  -0.3554456  43.8241428  60.3502759   0.3030348  43.4419480
  60.6640023  -1.1777111  43.4128845  59.3807656  -0.9549398  46.0262748
  59.8807435  -0.8432863  45.2177067  60.0243264  -1.2588345  46.6663556
  53.4389652   6.9529232  58.9130589  52.9556734   7.7529592  59.1194478
  53.5250591   6.9637177  57.9598033  46.7075612   8.7857611  46.8352408
  46.6846300   8.8845299  45.8834291  47.0176248   9.6322762  47.1569574
  49.3662990  10.8433766  50.9499023  50.3206243  10.8117709  50.8828954
  49.1675513  10.3824390  51.7649249  49.9562372   9.4134882  53.5169820
  50.7755261   9.9078961  53.5404658  50.2299180   8.4966851  53.4887388
  59.7128968   1.8045635  42.8797776  58.8254823   2.0895285  42.6617971
  60.1282957   1.6439398  42.0325053  63.0643504   1.8292156  46.5952115
  63.8403894   2.3188608  46.8676732  62.3391638   2.2550210  47.0523985
  65.5016063   2.5419775  47.6526056  66.0960554   2.3015511  46.9419364
  65.5742647   1.8226906  48.2799592  47.7213219  16.3853386  47.9669220
  47.5867687  15.6253787  47.4007219  47.3045281  17.1094286  47.4998009
  58.8572182  11.5690309  36.9745796  59.5608032  11.7740312  37.5903451
  58.1334830  12.1367071  37.2394879  59.6869992   7.3200171  43.0948066
  59.6305193   7.7768722  42.2555698  60.2398334   6.5590855  42.9170909
  63.4974798   3.1089903  43.9198185  63.2411732   2.7086538  44.7506393
  62.8727666   3.8233696  43.7948325  67.8087136   5.8485976  46.4269477
  67.2486694   5.9179165  47.2001039  67.2030639   5.6726960  45.7068973
  50.8782344  17.2822703  48.1787663  50.7614729  18.2268135  48.0766353
  50.0574791  16.9796264  48.5673462  60.7658879  12.0072839  39.0244256
  61.6004483  11.5754037  38.8421731  60.6043222  11.8354852  39.9521150
  60.4204771   8.5104952  40.3900595  60.3653575   8.3449223  39.4489039
  59.7950826   9.2180985  40.5462785  45.2097286   3.7473016  54.2162017
  45.8556150   3.2371970  54.7049243  45.0014437   4.4841698  54.7905443
  57.7350678  10.8153864  59.7154158  58.6041838  10.9894516  59.3540793
  57.2557430  11.6348281  59.5929887  53.7300897  -1.9886939  39.9685914
  53.7179566  -1.0445099  40.1254184  54.6224319  -2.1716794  39.6745375
  51.9036859  17.9350965  51.3943592  52.8064105  17.9674575  51.7110087
  51.6774229  17.0051416  51.4089927  53.6590461  16.6881951  48.0553670
  52.7086092  16.6883813  47.9418042  53.9622947  15.9414686  47.5389705
  49.5494777   0.8940633  58.3137032  50.4126239   0.5377438  58.5240356
  48.9760188   0.5554528  59.0012436  69.3943154  22.5242490  49.1199433
  70.0321564  22.4049237  48.4162773  69.2763997  23.4723334  49.1787385
  66.2032860  22.4769918  49.0560957  65.8651372  22.3610983  48.1681492
  67.0722629  22.0761083  49.0361963  62.0619676  24.3305394  45.0457848
  61.4984541  24.2395331  44.2774136  61.9472071  23.5105299  45.5260341
  66.6852643  23.6304770  55.0147163  66.6741284  23.2357568  54.1427666
  66.8473283  22.8970842  55.6080934  59.6084108  25.8256586  47.8842069
  60.4005400  25.4847410  47.4688368  59.8480758  25.9351561  48.8044222
  67.6419235  27.9976362  40.3572313  66.9907215  28.5830442  39.9706327
  68.4363598  28.5282557  40.4167351  61.5674862  25.0865499  40.7559447
  62.3405738  24.5394486  40.6172323  61.9200261  25.9509748  40.9673909
  63.4059905  26.4141881  53.9626347  63.1149770  27.3187512  53.8473013
  64.0416889  26.4558409  54.6770416  64.3316111  23.7918730  50.5527706
  64.9279684  23.5674752  49.8384669  64.3891083  23.0503475  51.1553154
  63.9041140  21.2458165  38.3877897  64.1566660  20.7239686  37.6261360
  62.9665699  21.0824311  38.4904581  68.9484423  20.2493944  46.1952641
  69.7347512  19.8313367  45.8443058  69.2123127  21.1540036  46.3634289
  69.1194500  25.6866794  40.8941297  68.4840333  25.7601420  41.6062202
  68.7891906  26.2760393  40.2160377  74.3492850  20.1869177  47.0985619
  75.0818022  19.6168394  47.3323449  73.5932205  19.7990777  47.5392125
  63.6237429  23.1486271  40.5902272  63.5073687  22.4731175  41.2583357
  63.7339688  22.6618645  39.7734425  65.9668969  22.6096418  44.2948962
  65.6027177  22.0827039  45.0061883  66.8236085  22.2194887  44.1215447
  71.8718270  13.8990751  51.5580228  71.5401595  14.7686162  51.3341443
  71.2763883  13.5827035  52.2374258  65.6074456  17.6386318  39.2910310
  65.7748859  18.5066554  39.6580781  65.4171625  17.8013600  38.3671599
  68.3649790  26.1003297  50.9576140  68.0650513  27.0028336  50.8491948
  68.0200849  25.8335480  51.8097293  61.8162271  22.5517094  46.9912845
  60.8912768  22.4193308  47.1990537  62.0646684  23.3311313  47.4882787
  71.7646933  18.6185837  48.6373578  70.8563811  18.5501245  48.3432339
  71.7134529  19.0957782  49.4655403  65.5863677  20.0943975  40.2756977
  65.4663302  20.5401026  41.1142457  64.8916266  20.4429293  39.7170515
  59.1771082  22.1950367  47.8256634  59.3063463  22.4484846  48.7396046
  58.4968533  22.7878075  47.5061289  63.3470569  32.8647617  43.9247108
  63.2694599  33.8155442  44.0035589  62.7432213  32.5193490  44.5822034
  65.8387799  20.0375483  56.5808475  65.0621133  20.5969403  56.5711340
  66.4778362  20.5232266  57.1023345  73.6308580  16.8202275  50.4151452
  72.9882960  17.1134809  49.7691246  73.1263508  16.7055196  51.2204648
  71.2848743  20.5665449  41.1037311  72.1966600  20.7992835  40.9285009
  70.7758391  21.1502493  40.5412390  64.0934171  22.8460936  56.1426442
  64.8348856  23.3845980  55.8661266  63.3871157  23.4727225  56.2997994
  69.5689511  24.9890076  54.7398604  69.9772867  24.5472487  53.9953236
  68.8466773  24.4142704  54.9932796  65.9220581  19.9262683  52.1132161
  66.7681776  20.3502097  52.2566810  65.8619219  19.2696308  52.8070724
  69.8918326  25.5491267  48.4950892  69.2627188  25.7136981  47.7926960
  69.5043988  25.9632877  49.2661856  69.0720026  17.5867052  53.7713334
  68.8280958  18.3409112  53.2347610  69.3479957  17.9652399  54.6060581
  71.0258489  24.1305664  52.4490600  71.2375384  24.7737424  51.7724981
  70.9788238  23.2967981  51.9812530  68.6284718  16.7423485  49.3527172
  67.7669197  17.0404738  49.6443909  68.6547153  16.9593884  48.4208205
  65.4446288  25.2865675  45.7600978  65.9084633  25.5653378  44.9705600
  65.1803086  24.3849120  45.5774068  62.3370369  24.8337157  48.6980741
  62.9071726  25.2624425  48.0598225  62.9278481  24.5519741  49.3964926
  64.3815174  21.4088828  42.5690543  65.0839217  21.8609871  43.0364469
  64.0495802  20.7672646  43.1970436  62.8295535  20.0000584  56.9441752
  62.1994196  20.6816865  57.1777149  62.7231623  19.8883666  55.9994890
  58.1240508  19.6672380  47.8707676  57.3339562  19.9229909  47.3947787
  58.6151755  20.4820718  47.9759717  72.1404317  27.0077619  50.6212957
  72.9621761  26.6057807  50.3395639  72.1366720  26.9045854  51.5729073
  60.0755253  20.0316959  44.8291153  59.2786416  20.1435654  45.3474649
  59.8480845  20.3703612  43.9632043  65.9060921  26.5561663  52.7773668
  65.9705353  27.0182070  53.6131839  65.1971845  25.9259028  52.9055977
  56.4078211  19.9202871  50.3022667  56.6586249  20.8049881  50.5680243
  56.9437759  19.7407472  49.5297759  65.6208938  28.2229770  42.6452648
  65.4854613  29.0681306  43.0737496  66.1618751  28.4249048  41.8818582
  62.1076278  14.3021350  59.3067003  61.7143224  13.7487549  59.9814647
  62.9242418  14.6131928  59.6973521  59.0738336  25.7405208  43.2180573
  59.5862856  26.5348458  43.3686138  59.7261049  25.0431499  43.1514174
  60.8833220  28.8570964  45.3003326  61.0599849  29.7788929  45.1124310
  61.6790054  28.5429384  45.7297706  65.0244239  15.7179229  56.8987260
  65.7653952  16.3186382  56.8191722  65.2562162  14.9756867  56.3405302
  60.1685577  20.9035596  55.1765489  60.0539092  20.0020854  55.4772588
  59.3130095  21.1499293  54.8250306  67.2477415  28.8453337  56.7752990
  66.8041269  28.0589715  56.4573894  67.9094628  29.0332487  56.1096881
  62.0064536  30.3749138  51.3013668  62.5571961  30.2466202  50.5290662
  61.1676012  30.6744027  50.9508561  69.3458653  29.1256137  54.8034391
  69.3277128  29.9465018  54.3114660  70.2678573  29.0010212  55.0284532
  65.8031707  26.6400266  55.6457900  66.3360044  25.8788554  55.4157208
  65.2745788  26.3473918  56.3882054  68.9701402  11.7460332  51.1751541
  68.6265671  12.6361974  51.0990652  69.3380364  11.5561990  50.3121126
  57.0387252  24.0693863  43.9940144  57.8762474  24.4790871  43.7773851
  57.2165520  23.1293305  43.9640337  68.9351685  21.7368943  39.6823976
  68.4198308  22.5073548  39.9212364  68.6628993  21.0634079  40.3057038
  66.5198796  16.5818644  44.7409215  65.6640392  16.1925494  44.5614854
  66.9325747  16.6610605  43.8809000  68.0497942  14.1164987  49.1400775
  67.5462738  14.0795122  48.3268580  68.3428549  15.0257730  49.1997431
  64.2940828  14.2003717  48.1466956  65.1593825  14.0046526  47.7872846
  64.3618337  13.9714069  49.0736313  68.7237988  19.6096035  41.5083758
  68.4188123  19.9242184  42.3593901  69.6768430  19.6877455  41.5511091
  67.1684420  25.7686259  43.1576712  66.6405781  25.0339018  42.8449949
  66.6671922  26.5460935  42.9116680  61.9003147  16.4305925  45.5183323
  62.4746899  16.2081106  44.7856516  62.4874130  16.4994619  46.2711924
  70.9582724  22.3179652  46.3247700  71.4714606  22.9509644  46.8269409
  71.6083948  21.7180847  45.9591060  62.2272734  18.4610386  39.5379208
  61.3910047  18.7985072  39.8588483  62.0877504  18.3259366  38.6006345
  64.2025815  13.3047174  44.2458393  63.5490227  12.9896191  43.6215007
  64.1606289  12.6822914  44.9718216  65.3137020  23.5866469  36.1611685
  64.4064082  23.3555722  36.3602834  65.8108052  22.7904088  36.3485666
  67.4363555  19.7929107  48.5706040  66.5186117  20.0144054  48.4127728
  67.8523699  19.8675418  47.7117748  68.2198603  21.1920523  43.7008720
  68.9670422  21.7041920  43.3915843  68.4890193  20.8704576  44.5613114
  66.4925253  23.6879064  40.6835675  65.5836472  23.4038097  40.7808145
  66.5220337  24.1078142  39.8238982  70.6677440  18.2277639  45.6827510
  69.9300197  17.7155025  46.0137752  70.9204214  17.7878021  44.8710787
  70.7689068  11.0053891  46.2769279  71.0747944  10.1451255  45.9895194
  71.4941672  11.5971511  46.0768273  57.0613424  21.4084578  44.6650877
  56.8637823  20.8153939  43.9401944  56.5060088  21.1036788  45.3826816
  65.0410147  21.3007684  46.7845470  65.0958757  20.3481521  46.7087947
  64.2301349  21.4567123  47.2686769  66.1901341  25.2287807  38.0223753
  65.7520771  24.5123666  37.5629391  66.9311782  25.4563922  37.4608845
  62.9802507  19.9184744  44.5435849  62.1670373  20.2178915  44.9501041
  63.4761501  19.5240433  45.2610331  65.1311085  29.9142501  46.4770114
  65.0887264  30.1403347  45.5478646  66.0473784  29.6805876  46.6255915
  68.5776719  20.3826569  53.3750743  68.9326107  20.6098042  54.2345209
  69.2248850  20.7144945  52.7527998  62.4716582  17.4903100  50.1597084
  63.1115961  17.3491859  49.4620047  61.6394112  17.2037613  49.7835686
  63.2476886  26.7905530  46.2732076  64.0417484  26.2955850  46.0714651
  62.5368578  26.2623393  45.9099782  68.0671730  29.1723626  50.6244444
  68.1208753  29.7414562  51.3922160  67.1986512  29.3425511  50.2598481
  59.5559649  20.9348612  42.3491829  58.6257237  20.8733067  42.5661791
  59.6517121  20.4124564  41.5528470  59.4745198  17.4603425  44.9370071
  59.7352016  18.3748758  44.8279231  60.2962371  16.9927867  45.0866684
  60.9470124  18.8741182  52.1068895  61.6193177  18.6658544  51.4581544
  60.1199910  18.6763268  51.6674128  75.1959385  25.6145232  51.6244229
  75.3895275  26.5191043  51.8703504  75.0960003  25.1552651  52.4582814
  66.8495696  15.5003123  54.1234556  66.2023611  16.1993072  54.0299033
  67.6196711  15.9339267  54.4910804  70.2574494  25.7651975  57.1985109
  70.1060000  25.5362527  56.2815193  70.2479173  26.7222576  57.2116454
  67.0259830  23.3383888  52.1831376  67.9551890  23.4895047  52.0100343
  66.6050860  23.4267908  51.3280022  65.8248162  27.3634552  49.9529913
  65.6859248  26.9953336  50.8255852  65.0362758  27.8782191  49.7813871
  67.3753377  26.7416155  47.3418751  67.0403210  26.7016925  48.2376401
  66.8757323  26.0760871  46.8689161  61.3497621  22.1483785  52.8671332
  61.2117419  21.4164024  53.4682871  62.2602544  22.0592685  52.5855520
  70.3112569  24.0872189  37.6155811  69.6941739  23.3619017  37.5188864
  69.8429057  24.8481549  37.2722885  63.9779922  21.8603744  52.3555012
  64.6879540  21.2196936  52.3141630  63.9349230  22.1116639  53.2781193
  71.9666700  28.7971097  55.2761591  71.9079246  28.1130318  54.6092174
  72.3686219  29.5390087  54.8242217  62.6908856  18.8468962  54.1750652
  62.1546213  18.3959700  54.8272248  62.1025564  18.9814871  53.4321116
  60.9857399  35.6133011  48.0695310  61.2253997  36.2451535  48.7474329
  60.1426596  35.2621051  48.3560669  62.1011115  18.3057613  36.7377115
  61.2240581  18.1846414  36.3739362  62.5768868  17.5143692  36.4856004
  71.9684108  26.7610681  53.5075571  71.0810886  26.4236603  53.6301970
  72.5382659  26.0293713  53.7444336  53.6213255  23.0934773  46.8318622
  54.3084295  22.7796503  46.2439638  53.4661383  23.9976138  46.5585874
  58.4247977  17.9824970  51.2603646  58.3406166  17.3750639  50.5254056
  57.6030683  18.4733988  51.2613142  65.4985261  31.4212134  50.4736814
  65.4255432  32.2267105  50.9856119  65.0562654  31.6204099  49.6484836
  68.5971691  16.4678533  46.6273841  69.0940390  15.7148495  46.3074911
  67.8258672  16.5042850  46.0617050  76.4501448  22.1718899  48.2692133
  76.4391324  23.0543614  47.8986066  75.5818828  21.8190450  48.0746670
  67.9583944  31.3198968  52.6294973  68.6711917  31.9546433  52.5570874
  67.4673973  31.4162834  51.8134975  65.1806659  18.6095916  46.3545526
  64.8104447  18.0566957  47.0426431  65.6765752  18.0054050  45.8020526
  73.0674023  21.0667540  44.7362299  73.5334475  21.8995531  44.6622601
  73.5181523  20.6012521  45.4407557  63.0095858  29.0693411  53.4500544
  63.7105318  29.7029894  53.6029938  62.5390973  29.4108143  52.6896183
  71.0390685  13.4348127  48.7753200  70.1253765  13.6652353  48.9435407
  71.4683787  13.5186571  49.6267232  70.8097144  21.6238019  51.2753094
  70.1568594  21.8713926  50.6205547  71.1877524  20.8102157  50.9415571
  66.8584717  22.3657830  57.7619131  66.1825354  22.2651959  58.4321506
  67.6812351  22.2097043  58.2255128  58.6063576  28.6029766  50.3831646
  59.1917013  27.8573454  50.5159551  58.4088415  28.9133723  51.2668310
  61.4602231  31.6381014  45.3994089  60.7912607  32.1227141  44.9158129
  61.3215101  31.8850234  46.3137467  53.1981231  21.1735366  49.1036089
  53.2365330  20.6398957  49.8973208  52.6921524  20.6470572  48.4847067
  65.6007500  33.6724757  51.9976747  66.1525808  33.8356379  52.7625832
  65.9413693  34.2629195  51.3256772  60.5771993  16.0199907  52.5998632
  60.6413320  16.8814738  52.1876029  60.5139113  15.4073909  51.8670990
  60.0524266  18.0923039  56.2471666  60.6796304  17.7100117  56.8609190
  59.1952185  17.8737241  56.6127359  70.4518374  28.4986015  57.8525401
  70.9958278  29.1115973  57.3580356  69.8705219  29.0565593  58.3692415
  56.8289808  19.8999469  42.1790021  57.1243249  18.9910147  42.1257075
  55.9277844  19.8787208  41.8571023  68.7375887  31.6206733  48.9840429
  68.6127027  30.8196472  48.4751375  69.3954978  32.1152926  48.4954399
  60.3584055  17.9755465  48.1617569  59.6370641  18.5891433  48.0225043
  61.1477311  18.5113230  48.0834215  70.8010796  29.4215753  50.6119979
  69.8541131  29.3021104  50.5398306  71.1493569  28.5338251  50.6946241
  63.1610369  15.3109892  54.4358221  63.6844771  15.5572188  55.1984531
  62.9422702  16.1429926  54.0161359  58.5577650  17.5813566  42.3029346
  58.2290356  16.7010945  42.1204452  58.9117021  17.5261235  43.1905735
  61.6719473  17.8686536  42.6704824  62.0115546  18.3972457  41.9483432
  62.1191594  18.2066942  43.4463390  64.3662914  16.2523587  52.1207892
  64.0259734  15.4531400  52.5228572  63.6601920  16.5525298  51.5484725
  65.0179386  13.3372899  50.5735215  65.8405455  12.8633377  50.4514105
  65.2617449  14.1163383  51.0733901  63.6587620  16.3661158  40.8698116
  64.3795983  16.7442410  40.3661833  63.0352924  17.0850034  40.9733094
  67.8018743  17.0706307  41.8056449  68.0182358  17.9530944  41.5045277
  67.3212810  16.6792520  41.0762091  62.5417965  20.0292020  48.3827193
  62.3962545  20.3432323  49.2751475  62.0643168  20.6476920  47.8298092
  64.4014347  17.0194568  48.4308083  64.3875916  16.1235661  48.0940381
  65.1186776  17.0265232  49.0646369  66.2540478  17.4531908  50.4761210
  65.9958256  18.3748979  50.4745541  65.7225519  17.0562343  51.1661674
  57.0163627  22.5697364  51.3214855  56.4717095  23.3457172  51.4535129
  57.8942977  22.9168169  51.1633976  63.8051243  15.9008948  43.6995653
  63.9267155  14.9725594  43.8986541  63.5153286  15.9147634  42.7873968
  66.6742434  13.5863859  46.8362373  66.6964131  13.6503192  45.8814352
  67.0910493  12.7468367  47.0302879  57.8029649  21.6967260  54.2145011
  57.0611385  21.8449896  54.8009642  57.4822393  21.9575526  53.3511761
  65.7473311  31.2383239  54.0125401  66.0560438  30.9932385  54.8848101
  66.5448793  31.4429877  53.5244272  65.7693923  33.3921148  46.2430778
  65.3298914  32.8997527  46.9363635  66.5202040  32.8494116  46.0022853
  58.2486262  29.5832689  46.2455406  59.0744282  29.2836461  45.8654050
  57.8980314  28.8140312  46.6945195  63.2167795  28.9359157  48.3153080
  62.5947805  28.2729862  48.0155308  63.8872662  28.9620289  47.6326727
  56.4494867  27.5019016  47.2044340  55.6126776  27.0741190  47.0228341
  56.4218513  27.6951459  48.1415131  63.2892323  17.4140945  57.9085586
  63.3380478  18.2903068  57.5263355  63.8314837  16.8718338  57.3357229
  73.7747169  27.9582069  57.1886723  72.9842712  27.9406208  56.6491222
  73.5380523  28.4970362  57.9435759  73.8945044  24.8074535  54.5019451
  73.9443049  24.6424543  55.4434974  73.7858967  23.9401794  54.1117332
  62.7781302  27.4863081  41.7911540  62.9269423  28.1698545  41.1378213
  63.5847746  27.4668171  42.3060996  71.1848806  20.7905463  55.8178758
  72.0858669  20.6511928  55.5262756  71.2596781  20.9559918  56.7576935
  65.5191611  18.1672318  54.6631944  64.6494921  18.4605884  54.3914533
  65.7551092  18.7512763  55.3839208  75.3963240  27.2271477  54.7461473
  75.1048049  27.5901457  55.5824934  74.7835372  26.5138485  54.5674805
  73.6450429  22.3504091  53.2141531  74.1204550  22.5431738  52.4060382
  72.7215994  22.4063277  52.9684914  60.5333935  23.5128258  42.7972609
  60.2879977  22.6090588  42.9952819  60.7029850  23.5145409  41.8552087
  68.2230645  14.3851935  52.1797365  68.7412589  15.1212962  51.8543853
  67.8685778  14.6915928  53.0144124  59.8029583  19.2456616  40.2958771
  59.1098828  19.3200971  39.6398807  59.5581335  18.4816960  40.8180287
  68.4743239  10.8052217  47.6998261  68.7544993  10.1375406  48.3258688
  69.2593846  10.9981313  47.1872925  66.2776708  29.9811211  39.2623288
  65.7050675  30.6001398  38.8093759  66.8509502  30.5310573  39.7963210
  72.3452098  19.2269851  51.4469836  73.2969521  19.3267949  51.4682060
  72.1755548  18.4348120  51.9567921  70.3666477  16.3125435  51.6329237
  69.7716409  16.5930447  50.9375726  70.0816174  16.8019335  52.4045978
  74.8240175  22.4475971  50.5612136  74.7916496  21.5091972  50.7471820
  75.4340799  22.5260008  49.8277961  66.6623506  21.3172024  36.6039340
  67.6082611  21.1878232  36.6727758  66.2837751  20.5786686  37.0808768
  74.9734664  19.2387014  50.6070419  74.4573713  18.4545471  50.4200348
  75.8574612  18.9105731  50.7716939  72.6345391  12.9828030  46.5666232
  72.4370212  12.6743118  47.4509564  73.2445096  13.7089669  46.6964162
  78.7232022  21.6499840  50.2992624  77.9965186  21.5155805  49.6909116
  78.3079309  21.9576669  51.1049342  66.5462199  25.3689770  58.0639997
  67.4665208  25.5468369  58.2580044  66.5111782  24.4245815  57.9119696
  64.8466424  19.2422000  36.5394225  63.9397879  18.9455113  36.6156939
  65.1242405  18.9451818  35.6728512  55.7644364  20.5628364  46.9893272
  55.4447148  19.7093672  46.6967646  55.2177792  20.7776942  47.7451239
  59.5424271  23.2790805  50.7062778  59.7610281  24.2107913  50.7250812
  59.9550045  22.9198779  51.4917582  66.4628489  13.7858890  42.6938467
  65.6529218  13.4405975  43.0693713  67.1512906  13.4766434  43.2826078
  68.3919038  12.8636937  44.3162763  68.9450076  13.2832390  44.9752786
  68.6289124  11.9372685  44.3585719  64.4152137  18.8524011  60.0965527
  64.3148864  19.8018367  60.0277618  64.1973679  18.5242249  59.2241597
  63.6165208  16.1008936  36.6806205  64.4784372  16.4263834  36.9402022
  63.8015552  15.3140431  36.1679270  55.6332624  24.1831275  48.9586393
  54.9396095  23.7685228  48.4456348  56.3805615  24.2251812  48.3619812
  71.7697845  14.9737462  43.8241428  71.1896514  15.6322266  43.4419480
  71.5033777  14.1514807  43.4128845  70.2201411  14.3742520  46.0262748
  70.7201189  14.4859054  45.2177067  70.8637019  14.0703573  46.6663556
  64.2783407  22.2821149  58.9130589  63.7950489  23.0821509  59.1194478
  64.3644346  22.2929094  57.9598033  57.5469366  24.1149529  46.8352408
  57.5240055  24.2137216  45.8834291  57.8570003  24.9614680  47.1569574
  60.2056744  26.1725684  50.9499023  61.1599998  26.1409626  50.8828954
  60.0069268  25.7116308  51.7649249  60.7956126  24.7426800  53.5169820
  61.6149015  25.2370879  53.5404658  61.0692934  23.8258768  53.4887388
  70.5522723  17.1337552  42.8797776  69.6648578  17.4187203  42.6617971
  70.9676712  16.9731316  42.0325053  73.9037259  17.1584073  46.5952115
  74.6797649  17.6480526  46.8676732  73.1785393  17.5842128  47.0523985
  76.3409817  17.8711693  47.6526056  76.9354308  17.6307429  46.9419364
  76.4136401  17.1518823  48.2799592  58.5606973  31.7145304  47.9669220
  58.4261441  30.9545704  47.4007219  58.1439035  32.4386203  47.4998009
  69.6965936  26.8982227  36.9745796  70.4001786  27.1032230  37.5903451
  68.9728585  27.4658989  37.2394879  70.5263746  22.6492088  43.0948066
  70.4698948  23.1060640  42.2555698  71.0792089  21.8882773  42.9170909
  74.3368552  18.4381820  43.9198185  74.0805487  18.0378456  44.7506393
  73.7121420  19.1525614  43.7948325  78.6480890  21.1777893  46.4269477
  78.0880448  21.2471083  47.2001039  78.0424393  21.0018878  45.7068973
  61.7176099  32.6114621  48.1787663  61.6008483  33.5560053  48.0766353
  60.8968545  32.3088182  48.5673462  71.2598526  23.8396870  40.3900595
  71.2047329  23.6741141  39.4489039  70.6344581  24.5472903  40.5462785
  56.0491041  19.0764934  54.2162017  56.6949904  18.5663888  54.7049243
  55.8408192  19.8133616  54.7905443  68.5744433  26.1445781  59.7154158
  69.4435592  26.3186434  59.3540793  68.0951184  26.9640198  59.5929887
  64.5694651  13.3404979  39.9685914  64.5573321  14.2846819  40.1254184
  65.4618073  13.1575124  39.6745375  62.7430613  33.2642882  51.3943592
  63.6457860  33.2966493  51.7110087  62.5167983  32.3343333  51.4089927
  64.4984215  32.0173869  48.0553670  63.5479846  32.0175731  47.9418042
  64.8016701  31.2706604  47.5389705  68.3846771   9.9347755  44.2231850
  67.6179166   9.3806242  44.3688533  68.7957476  10.0069624  45.0846002
  60.3888532  16.2232551  58.3137032  61.2519993  15.8669356  58.5240356
  59.8153942  15.8846446  59.0012436  73.6689290  35.3292502  56.9441752
  73.0387950  36.0108783  57.1777149  73.5625378  35.2175583  55.9994890
  68.9634262  34.9964298  47.8707676  68.1733316  35.2521826  47.3947787
  69.4545510  35.8112636  47.9759717  67.2471965  35.2494788  50.3022667
  67.4980004  36.1341798  50.5680243  67.7831514  35.0699390  49.5297759
  72.9470032  29.6313268  59.3067003  72.5536978  29.0779466  59.9814647
  73.7636173  29.9423846  59.6973521  75.8637993  31.0471147  56.8987260
  76.6047707  31.6478300  56.8191722  76.0955916  30.3048785  56.3405302
  71.0079331  36.2327514  55.1765489  70.8932847  35.3312771  55.4772588
  70.1523849  36.4791211  54.8250306  78.0871169  44.1745254  56.7752990
  77.6435023  43.3881633  56.4573894  78.7488383  44.3624405  56.1096881
  76.6425461  41.9692184  55.6457900  77.1753798  41.2080472  55.4157208
  76.1139542  41.6765836  56.3882054  71.7863878  34.2033099  52.1068895
  72.4586932  33.9950462  51.4581544  70.9593665  34.0055185  51.6674128
  72.1891375  37.4775702  52.8671332  72.0511173  36.7455941  53.4682871
  73.0996299  37.3884602  52.5855520  73.5302610  34.1760880  54.1750652
  72.9939967  33.7251618  54.8272248  72.9419319  34.3106788  53.4321116
  69.2641731  33.3116887  51.2603646  69.1799920  32.7042557  50.5254056
  68.4424438  33.8025906  51.2613142  64.0374985  36.5027284  49.1036089
  64.0759085  35.9690875  49.8973208  63.5315278  35.9762490  48.4847067
  71.4165748  31.3491825  52.5998632  71.4807074  32.2106655  52.1876029
  71.3532868  30.7365826  51.8670990  70.8918020  33.4214957  56.2471666
  71.5190059  33.0392034  56.8609190  70.0345939  33.2029159  56.6127359
  71.1977810  33.3047383  48.1617569  70.4764396  33.9183351  48.0225043
  71.9871066  33.8405148  48.0834215  74.0004123  30.6401809  54.4358221
  74.5238525  30.8864106  55.1984531  73.7816457  31.4721844  54.0161359
  75.2056668  31.5815504  52.1207892  74.8653489  30.7823317  52.5228572
  74.4995675  31.8817215  51.5484725  75.8573140  28.6664817  50.5735215
  76.6799210  28.1925295  50.4514105  76.1011204  29.4455301  51.0733901
  67.8557381  37.8989282  51.3214855  67.3110849  38.6749090  51.4535129
  68.7336731  38.2460086  51.1633976  68.6423403  37.0259178  54.2145011
  67.9005139  37.1741814  54.8009642  68.3216147  37.2867444  53.3511761
  74.1286077  32.7432863  57.9085586  74.1774233  33.6194986  57.5263355
  74.6708592  32.2010256  57.3357229  75.2545891  34.1815928  60.0965527
  75.1542618  35.1310285  60.0277618  75.0367433  33.8534167  59.2241597
  75.1177161  37.6113067  58.9130589  74.6344243  38.4113427  59.1194478
  75.2038100  37.6221012  57.9598033  71.6349881  40.0718718  53.5169820
  72.4542770  40.5662796  53.5404658  71.9086689  39.1550686  53.4887388
  66.8884795  34.4056852  54.2162017  67.5343659  33.8955806  54.7049243
  66.6801946  35.1425533  54.7905443  79.4138187  41.4737699  59.7154158
  80.2829347  41.6478351  59.3540793  78.9344939  42.2932116  59.5929887
  71.2282286  31.5524469  58.3137032  72.0913748  31.1961274  58.5240356
  70.6547697  31.2138364  59.0012436  91.0730663  53.1826325  49.1199433
  91.7109073  53.0633072  48.4162773  90.9551506  54.1307169  49.1787385
  87.8820369  53.1353753  49.0560957  87.5438881  53.0194818  48.1681492
  88.7510138  52.7344918  49.0361963  83.7407185  54.9889230  45.0457848
  83.1772050  54.8979167  44.2774136  83.6259580  54.1689134  45.5260341
  88.3640152  54.2888605  55.0147163  88.3528793  53.8941403  54.1427666
  88.5260792  53.5554678  55.6080934  81.2871617  56.4840421  47.8842069
  82.0792909  56.1431246  47.4688368  81.5268267  56.5935396  48.8044222
  89.3206744  58.6560197  40.3572313  88.6694724  59.2414278  39.9706327
  90.1151107  59.1866392  40.4167351  85.0847413  57.0725717  53.9626347
  84.7937279  57.9771348  53.8473013  85.7204398  57.1142244  54.6770416
  86.0103620  54.4502565  50.5527706  86.6067193  54.2258588  49.8384669
  86.0678592  53.7087311  51.1553154  90.6271932  50.9077779  46.1952641
  91.4135021  50.4897202  45.8443058  90.8910636  51.8123871  46.3634289
  90.7982009  56.3450629  40.8941297  90.1627842  56.4185256  41.6062202
  90.4679415  56.9344228  40.2160377  96.0280359  50.8453012  47.0985619
  96.7605531  50.2752229  47.3323449  95.2719714  50.4574613  47.5392125
  87.6456478  53.2680254  44.2948962  87.2814686  52.7410875  45.0061883
  88.5023594  52.8778723  44.1215447  93.5505779  44.5574586  51.5580228
  93.2189104  45.4269997  51.3341443  92.9551392  44.2410870  52.2374258
  90.0437299  56.7587132  50.9576140  89.7438022  57.6612171  50.8491948
  89.6988358  56.4919315  51.8097293  83.4949780  53.2100929  46.9912845
  82.5700277  53.0777143  47.1990537  83.7434193  53.9895148  47.4882787
  93.4434442  49.2769672  48.6373578  92.5351320  49.2085081  48.3432339
  93.3922038  49.7541617  49.4655403  80.8558591  52.8534203  47.8256634
  80.9850972  53.1068682  48.7396046  80.1756042  53.4461911  47.5061289
  85.0258078  63.5231453  43.9247108  84.9482108  64.4739278  44.0035589
  84.4219722  63.1777325  44.5822034  87.5175308  50.6959318  56.5808475
  86.7408642  51.2553238  56.5711340  88.1565871  51.1816101  57.1023345
  95.3096089  47.4786111  50.4151452  94.6670469  47.7718644  49.7691246
  94.8051017  47.3639031  51.2204648  92.9636252  51.2249284  41.1037311
  93.8754109  51.4576671  40.9285009  92.4545899  51.8086328  40.5412390
  85.7721680  53.5044771  56.1426442  86.5136365  54.0429815  55.8661266
  85.0658666  54.1311060  56.2997994  91.2477020  55.6473912  54.7398604
  91.6560376  55.2056322  53.9953236  90.5254282  55.0726539  54.9932796
  87.6008090  50.5846519  52.1132161  88.4469285  51.0085932  52.2566810
  87.5406728  49.9280143  52.8070724  91.5705835  56.2075102  48.4950892
  90.9414697  56.3720817  47.7926960  91.1831497  56.6216712  49.2661856
  95.4495067  57.1429540  45.8495256  94.7646105  57.5228442  45.2992290
  95.5338916  57.7524867  46.5827204  90.7507535  48.2450887  53.7713334
  90.5068467  48.9992947  53.2347610  91.0267466  48.6236235  54.6060581
  92.7045998  54.7889499  52.4490600  92.9162893  55.4321259  51.7724981
  92.6575746  53.9551816  51.9812530  90.3072227  47.4007320  49.3527172
  89.4456706  47.6988574  49.6443909  90.3334662  47.6177719  48.4208205
  87.1233797  55.9449511  45.7600978  87.5872142  56.2237214  44.9705600
  86.8590595  55.0432955  45.5774068  84.0157878  55.4920992  48.6980741
  84.5859235  55.9208260  48.0598225  84.6065990  55.2103577  49.3964926
  86.0602683  52.0672663  42.5690543  86.7626726  52.5193707  43.0364469
  85.7283311  51.4256482  43.1970436  84.5083044  50.6584420  56.9441752
  83.8781705  51.3400700  57.1777149  84.4019132  50.5467501  55.9994890
  79.8028017  50.3256216  47.8707676  79.0127071  50.5813744  47.3947787
  80.2939264  51.1404553  47.9759717  93.8191826  57.6661455  50.6212957
  94.6409270  57.2641642  50.3395639  93.8154229  57.5629689  51.5729073
  87.5848430  57.2145498  52.7773668  87.6492862  57.6765905  53.6131839
  86.8759354  56.5842863  52.9055977  78.0865720  50.5786706  50.3022667
  78.3373758  51.4633716  50.5680243  78.6225268  50.3991308  49.5297759
 101.9097819  54.0100203  46.9697929 101.1561528  53.4407601  46.8141933
 102.0445360  53.9762868  47.9168563  87.2996447  58.8813606  42.6452648
  87.1642122  59.7265141  43.0737496  87.8406260  59.0832883  41.8818582
  83.7863787  44.9605185  59.3067003  83.3930732  44.4071384  59.9814647
  84.6029927  45.2715764  59.6973521  86.7031748  46.3763064  56.8987260
  87.4441461  46.9770218  56.8191722  86.9349671  45.6340702  56.3405302
  81.8473086  51.5619432  55.1765489  81.7326601  50.6604689  55.4772588
  80.9917604  51.8083128  54.8250306  88.9264924  59.5037172  56.7752990
  88.4828778  58.7173551  56.4573894  89.5882137  59.6916323  56.1096881
  83.6852045  61.0332974  51.3013668  84.2359470  60.9050037  50.5290662
  82.8463521  61.3327863  50.9508561  91.0246162  59.7839972  54.8034391
  91.0064637  60.6048853  54.3114660  91.9466082  59.6594047  55.0284532
  87.4819216  57.2984101  55.6457900  88.0147553  56.5372390  55.4157208
  86.9533297  57.0057753  56.3882054  90.6139194  52.3952779  39.6823976
  90.0985817  53.1657383  39.9212364  90.3416502  51.7217915  40.3057038
  95.5873468  55.1485133  41.6177150  94.8102910  54.8096293  41.1732312
  96.2664949  55.1537756  40.9432115  90.4025497  50.2679871  41.5083758
  90.0975632  50.5826020  42.3593901  91.3555939  50.3461291  41.5511091
  88.8471929  56.4270094  43.1576712  88.3193290  55.6922854  42.8449949
  88.3459431  57.2044770  42.9116680  93.8264775  54.6219114  48.2743758
  93.1688449  55.3118376  48.3623887  94.6305174  55.0115546  48.6177744
  92.6370233  52.9763487  46.3247700  93.1502115  53.6093479  46.8269409
  93.2871457  52.3764683  45.9591060  89.8992608  62.9547811  39.0808371
  89.2254306  63.2579508  39.6893329  90.2858430  63.7576892  38.7313828
  89.1151064  50.4512943  48.5706040  88.1973626  50.6727890  48.4127728
  89.5311208  50.5259253  47.7117748  89.8986112  51.8504358  43.7008720
  90.6457931  52.3625756  43.3915843  90.1677702  51.5288411  44.5613114
  88.1712762  54.3462899  40.6835675  87.2623981  54.0621932  40.7808145
  88.2007846  54.7661978  39.8238982  93.4032030  57.9569489  44.4526842
  92.9494357  57.1160398  44.5092033  92.7725996  58.5930887  44.7901622
  92.3464949  48.8861475  45.6827510  91.6087706  48.3738861  46.0137752
  92.5991723  48.4461856  44.8710787  91.8464969  59.7945985  45.3876660
  92.1387943  60.3551042  44.6689026  92.3563589  60.0874546  46.1429820
  78.7400933  52.0668413  44.6650877  78.5425332  51.4737774  43.9401944
  78.1847597  51.7620623  45.3826816  86.7197656  51.9591520  46.7845470
  86.7746266  51.0065356  46.7087947  85.9088858  52.1150959  47.2686769
  87.8688850  55.8871643  38.0223753  87.4308280  55.1707502  37.5629391
  88.6099291  56.1147758  37.4608845  84.6590016  50.5768579  44.5435849
  83.8457882  50.8762750  44.9501041  85.1549010  50.1824268  45.2610331
  86.8098594  60.5726336  46.4770114  86.7674773  60.7987183  45.5478646
  87.7261293  60.3389711  46.6255915  90.2564228  51.0410404  53.3750743
  90.6113616  51.2681877  54.2345209  90.9036359  51.3728781  52.7527998
  95.9861965  54.1628840  44.0800072  95.8479863  54.3530436  43.1521261
  95.6298184  54.9248223  44.5368123  96.0131344  56.2305367  49.0911343
  96.4467851  56.1380656  49.9394397  96.7262925  56.2062867  48.4531359
  84.9264395  57.4489365  46.2732076  85.7204993  56.9539685  46.0714651
  84.2156087  56.9207228  45.9099782  89.7459239  59.8307461  50.6244444
  89.7996262  60.3998397  51.3922160  88.8774021  60.0009346  50.2598481
  82.6257633  49.5325017  52.1068895  83.2980686  49.3242379  51.4581544
  81.7987419  49.3347103  51.6674128  96.8746894  56.2729067  51.6244229
  97.0682784  57.1774878  51.8703504  96.7747512  55.8136487  52.4582814
  91.9362003  56.4235810  57.1985109  91.7847509  56.1946362  56.2815193
  91.9266682  57.3806412  57.2116454  88.7047339  53.9967723  52.1831376
  89.6339399  54.1478883  52.0100343  88.2838369  54.0851744  51.3280022
  87.5035671  58.0218387  49.9529913  87.3646757  57.6537172  50.8255852
  86.7150267  58.5366027  49.7813871  88.0983823  63.1227484  41.2955450
  88.2735578  62.6515527  42.1101073  87.4116611  63.7493250  41.5236711
  89.0540886  57.3999990  47.3418751  88.7190719  57.3600760  48.2376401
  88.5544832  56.7344706  46.8689161  83.0285130  52.8067620  52.8671332
  82.8904928  52.0747859  53.4682871  83.9390053  52.7176520  52.5855520
  91.9900078  54.7456024  37.6155811  91.3729248  54.0202853  37.5188864
  91.5216566  55.5065385  37.2722885  85.6567431  52.5187579  52.3555012
  86.3667049  51.8780772  52.3141630  85.6136739  52.7700474  53.2781193
  93.6454209  59.4554933  55.2761591  93.5866755  58.7714153  54.6092174
  94.0473728  60.1973923  54.8242217  82.6644908  66.2716847  48.0695310
  82.9041506  66.9035371  48.7474329  81.8214105  65.9204887  48.3560669
  93.6471617  57.4194517  53.5075571  92.7598395  57.0820438  53.6301970
  94.2170168  56.6877548  53.7444336  80.1035486  48.6408805  51.2603646
  80.0193675  48.0334475  50.5254056  79.2818192  49.1317823  51.2613142
  87.1772770  62.0795969  50.4736814  87.1042941  62.8850941  50.9856119
  86.7350163  62.2787935  49.6484836  86.9662550  61.3167739  43.9839636
  86.1830071  61.8589419  44.0777860  87.6655295  61.8341719  44.3833877
  98.1288957  52.8302734  48.2692133  98.1178833  53.7127449  47.8986066
  97.2606337  52.4774285  48.0746670  89.6371453  61.9782803  52.6294973
  90.3499426  62.6130268  52.5570874  89.1461482  62.0746669  51.8134975
  91.3588980  55.8834056  44.2012264  90.4245259  56.0035518  44.0316969
  91.5365649  54.9806522  43.9372274  86.8594168  49.2679751  46.3545526
  86.4891956  48.7150792  47.0426431  87.3553261  48.6637885  45.8020526
  94.7461532  51.7251375  44.7362299  95.2121984  52.5579367  44.6622601
  95.1969032  51.2596357  45.4407557  84.6883367  59.7277247  53.4500544
  85.3892826  60.3613729  53.6029938  84.2178482  60.0691978  52.6896183
  92.8137763  58.0695196  41.7348451  93.0897607  57.9551791  42.6442325
  91.9442262  57.6712681  41.6960624  92.4884653  52.2821854  51.2753094
  91.8356103  52.5297761  50.6205547  92.8665033  51.4685992  50.9415571
  89.4491827  62.3181547  45.3781264  89.6314221  61.5003203  45.8409017
  90.2724813  62.5349239  44.9406154  89.7833992  61.2449732  42.6396313
  90.3121759  60.7342187  42.0266475  90.0462212  60.9292262  43.5041846
  88.5372226  53.0241665  57.7619131  87.8612863  52.9235794  58.4321506
  89.3599860  52.8680879  58.2255128  83.1389740  62.2964849  45.3994089
  82.4700116  62.7810977  44.9158129  83.0002610  62.5434069  46.3137467
  87.2795009  64.3308592  51.9976747  87.8313317  64.4940214  52.7625832
  87.6201202  64.9213030  51.3256772  81.7311775  48.7506875  56.2471666
  82.3583813  48.3683952  56.8609190  80.8739693  48.5321077  56.6127359
  92.1305883  59.1569850  57.8525401  92.6745787  59.7699808  57.3580356
  91.5492728  59.7149428  58.3692415  90.4163396  62.2790568  48.9840429
  90.2914536  61.4780308  48.4751375  91.0742487  62.7736761  48.4954399
  82.0371564  48.6339300  48.1617569  81.3158150  49.2475268  48.0225043
  82.8264820  49.1697065  48.0834215  92.4798305  60.0799588  50.6119979
  91.5328640  59.9604939  50.5398306  92.8281078  59.1922086  50.6946241
  89.4844738  59.8752304  46.8124332  89.3369700  58.9469012  46.9931902
  90.3098231  59.8972395  46.3281407  93.0878860  60.6980863  47.8989204
  94.0125407  60.4923724  47.7613655  92.9194163  60.4497264  48.8078546
  84.2205474  50.6875855  48.3827193  84.0750054  51.0016158  49.2751475
  83.7430677  51.3060755  47.8298092  86.0801856  47.6778403  48.4308083
  86.0663425  46.7819496  48.0940381  86.7974285  47.6849067  49.0646369
  87.9327987  48.1115743  50.4761210  87.6745765  49.0332814  50.4745541
  87.4013028  47.7146178  51.1661674  92.8774176  61.2166530  43.2551296
  93.0511053  60.6512953  42.5025148  93.3703067  62.0167425  43.0730786
  98.7313567  53.9802953  44.8741595  99.1744713  53.2310279  44.4760719
  97.8540077  53.9713090  44.4915327  93.8649348  60.5333295  40.3548194
  94.5600253  61.1539988  40.5735509  94.2072499  59.6828646  40.6300572
  95.7640771  57.9833000  41.8835525  96.2892096  58.3220273  41.1584845
  95.6763124  57.0480016  41.6998659  87.4260820  61.8967074  54.0125401
  87.7347947  61.6516221  54.8848101  88.2236302  62.1013713  53.5244272
  87.4481432  64.0504984  46.2430778  87.0086423  63.5581362  46.9363635
  88.1989549  63.5077951  46.0022853  84.8955304  59.5942993  48.3153080
  84.2735314  58.9313698  48.0155308  85.5660171  59.6204125  47.6326727
  84.9679832  48.0724781  57.9085586  85.0167987  48.9486904  57.5263355
  85.5102346  47.5302174  57.3357229  95.4534678  58.6165904  57.1886723
  94.6630221  58.5990043  56.6491222  95.2168032  59.1554198  57.9435759
  95.5732553  55.4658370  54.5019451  95.6230558  55.3008378  55.4434974
  95.4646476  54.5985629  54.1117332  92.8636315  51.4489298  55.8178758
  93.7646178  51.3095763  55.5262756  92.9384290  51.6143753  56.7576935
  97.0750749  57.8855312  54.7461473  96.7835558  58.2485292  55.5824934
  96.4622881  57.1722320  54.5674805  98.2746432  55.4508192  47.2664043
  99.1093323  55.8897996  47.4301603  98.4105561  54.9746845  46.4472289
  95.3237938  53.0087927  53.2141531  95.7992059  53.2015573  52.4060382
  94.4003503  53.0647112  52.9684914  87.9564217  60.6395047  39.2623288
  87.3838184  61.2585234  38.8093759  88.5297010  61.1894408  39.7963210
  94.0239607  49.8853687  51.4469836  94.9757030  49.9851784  51.4682060
  93.8543057  49.0931955  51.9567921  92.0453986  46.9709270  51.6329237
  91.4503918  47.2514283  50.9375726  91.7603683  47.4603171  52.4045978
  91.1761477  60.9232197  40.3931870  92.1092150  60.8577758  40.5964745
  91.0884689  61.7588464  39.9346403  93.8049493  60.2398067  37.3535817
  93.7263125  59.9057931  38.2471575  94.6259160  60.7319835  37.3527290
  96.5027684  53.1059806  50.5612136  96.4704005  52.1675807  50.7471820
  97.1128308  53.1843843  49.8277961  88.3411015  51.9755859  36.6039340
  89.2870120  51.8462067  36.6727758  87.9625260  51.2370521  37.0808768
  96.6522173  49.8970850  50.6070419  96.1361222  49.1129306  50.4200348
  97.5362121  49.5689566  50.7716939 102.3204234  54.1675813  49.7018173
 103.0507623  53.9061101  50.2625876 101.7111180  53.4304535  49.7420241
 100.4019531  52.3083676  50.2992624  99.6752695  52.1739641  49.6909116
  99.9866818  52.6160504  51.1049342  88.2249708  56.0273605  58.0639997
  89.1452717  56.2052204  58.2580044  88.1899291  55.0829651  57.9119696
  81.2211780  53.9374640  50.7062778  81.4397790  54.8691748  50.7250812
  81.6337554  53.5782615  51.4917582  86.0939646  49.5107846  60.0965527
  85.9936373  50.4602203  60.0277618  85.8761188  49.1826085  59.2241597
  85.9570916  52.9404985  58.9130589  85.4737997  53.7405345  59.1194478
  86.0431855  52.9512930  57.9598033  95.5824768  47.8167909  46.5952115
  96.3585158  48.3064361  46.8676732  94.8572902  48.2425963  47.0523985
  98.0197326  48.5295528  47.6526056  98.6141817  48.2891264  46.9419364
  98.0923910  47.8102659  48.2799592  80.2394482  62.3729139  47.9669220
  80.1048950  61.6129540  47.4007219  79.8226544  63.0970039  47.4998009
  91.3753445  57.5566062  36.9745796  92.0789295  57.7616065  37.5903451
  90.6516094  58.1242824  37.2394879  92.2051255  53.3075924  43.0948066
  92.1486457  53.7644475  42.2555698  92.7579598  52.5466608  42.9170909
  96.0156061  49.0965656  43.9198185  95.7592995  48.6962291  44.7506393
  95.3908929  49.8109450  43.7948325 100.3268399  51.8361729  46.4269477
  99.7667957  51.9054918  47.2001039  99.7211902  51.6602713  45.7068973
  83.3963608  63.2698456  48.1787663  83.2795992  64.2143888  48.0766353
  82.5756054  62.9672017  48.5673462  93.2840142  57.9948592  39.0244256
  94.1185746  57.5629790  38.8421731  93.1224485  57.8230605  39.9521150
  92.9386035  54.4980705  40.3900595  92.8834838  54.3324976  39.4489039
  92.3132090  55.2056738  40.5462785  90.2531942  56.8029617  59.7154158
  91.1223101  56.9770269  59.3540793  89.7738693  57.6224034  59.5929887
  84.4218122  63.9226718  51.3943592  85.3245369  63.9550328  51.7110087
  84.1955492  62.9927169  51.4089927  86.1771724  62.6757704  48.0553670
  85.2267355  62.6759566  47.9418042  86.4804210  61.9290439  47.5389705
  82.0676041  46.8816386  58.3137032  82.9307502  46.5253191  58.5240356
  81.4941451  46.5430281  59.0012436 101.9124418  68.5118243  49.1199433
 102.5502828  68.3924990  48.4162773 101.7945260  69.4599087  49.1787385
  98.7214124  68.4645671  49.0560957  98.3832635  68.3486736  48.1681492
  99.5903892  68.0636836  49.0361963  94.5800940  70.3181147  45.0457848
  94.0165805  70.2271084  44.2774136  94.4653335  69.4981052  45.5260341
  99.2033907  69.6180523  55.0147163  99.1922548  69.2233321  54.1427666
  99.3654546  68.8846595  55.6080934  92.1265371  71.8132339  47.8842069
  92.9186663  71.4723164  47.4688368  92.3662022  71.9227314  48.8044222
 100.1600498  73.9852115  40.3572313  99.5088478  74.5706195  39.9706327
 100.9544861  74.5158310  40.4167351  94.0856125  71.0741252  40.7559447
  94.8587001  70.5270239  40.6172323  94.4381524  71.9385501  40.9673909
  95.9241168  72.4017634  53.9626347  95.6331034  73.3063265  53.8473013
  96.5598152  72.4434162  54.6770416  96.8497375  69.7794483  50.5527706
  97.4460947  69.5550505  49.8384669  96.9072346  69.0379228  51.1553154
  96.4222403  67.2333918  38.3877897  96.6747924  66.7115440  37.6261360
  95.4846962  67.0700064  38.4904581 101.4665686  66.2369697  46.1952641
 102.2528775  65.8189120  45.8443058 101.7304390  67.1415789  46.3634289
 101.6375763  71.6742547  40.8941297 101.0021596  71.7477173  41.6062202
 101.3073170  72.2636146  40.2160377 106.8674113  66.1744930  47.0985619
 107.5999285  65.6044147  47.3323449 106.1113469  65.7866530  47.5392125
  96.1418692  69.1362024  40.5902272  96.0254950  68.4606928  41.2583357
  96.2520952  68.6494398  39.7734425  98.4850233  68.5972171  44.2948962
  98.1208440  68.0702792  45.0061883  99.3417349  68.2070640  44.1215447
 104.3899534  59.8866504  51.5580228 104.0582858  60.7561915  51.3341443
 103.7945147  59.5702788  52.2374258  98.1255720  63.6262071  39.2910310
  98.2930122  64.4942307  39.6580781  97.9352889  63.7889353  38.3671599
 100.8831053  72.0879050  50.9576140 100.5831776  72.9904089  50.8491948
 100.5382113  71.8211233  51.8097293  94.3343535  68.5392847  46.9912845
  93.4094031  68.4069061  47.1990537  94.5827948  69.3187066  47.4882787
 104.2828197  64.6061590  48.6373578 103.3745074  64.5376999  48.3432339
 104.2315793  65.0833535  49.4655403  98.1044941  66.0819728  40.2756977
  97.9844566  66.5276779  41.1142457  97.4097529  66.4305046  39.7170515
  91.6952346  68.1826120  47.8256634  91.8244727  68.4360599  48.7396046
  91.0149797  68.7753828  47.5061289  95.8651833  78.8523370  43.9247108
  95.7875863  79.8031195  44.0035589  95.2613476  78.5069243  44.5822034
  98.3569063  66.0251236  56.5808475  97.5802397  66.5845156  56.5711340
  98.9959626  66.5108019  57.1023345 106.1489843  62.8078028  50.4151452
 105.5064223  63.1010562  49.7691246 105.6444772  62.6930949  51.2204648
 103.8030007  66.5541202  41.1037311 104.7147863  66.7868588  40.9285009
 103.2939654  67.1378246  40.5412390  96.6115435  68.8336689  56.1426442
  97.3530119  69.3721733  55.8661266  95.9052420  69.4602978  56.2997994
 102.0870775  70.9765830  54.7398604 102.4954131  70.5348240  53.9953236
 101.3648036  70.4018457  54.9932796  98.4401845  65.9138436  52.1132161
  99.2863040  66.3377850  52.2566810  98.3800482  65.2572061  52.8070724
 102.4099589  71.5367020  48.4950892 101.7808452  71.7012734  47.7926960
 102.0225251  71.9508630  49.2661856 106.2888821  72.4721458  45.8495256
 105.6039859  72.8520359  45.2992290 106.3732670  73.0816785  46.5827204
 101.5901290  63.5742805  53.7713334 101.3462222  64.3284865  53.2347610
 101.8661220  63.9528152  54.6060581 103.5439753  70.1181417  52.4490600
 103.7556648  70.7613177  51.7724981 103.4969501  69.2843734  51.9812530
 101.1465982  62.7299238  49.3527172 100.2850461  63.0280491  49.6443909
 101.1728416  62.9469637  48.4208205  97.9627551  71.2741428  45.7600978
  98.4265897  71.5529131  44.9705600  97.6984349  70.3724873  45.5774068
  94.8551632  70.8212910  48.6980741  95.4252989  71.2500178  48.0598225
  95.4459744  70.5395494  49.3964926  96.8996437  67.3964581  42.5690543
  97.6020480  67.8485624  43.0364469  96.5677066  66.7548399  43.1970436
  95.3476799  65.9876337  56.9441752  94.7175459  66.6692618  57.1777149
  95.2412887  65.8759419  55.9994890  90.6421771  65.6548133  47.8707676
  89.8520825  65.9105662  47.3947787  91.1333018  66.4696471  47.9759717
 104.6585581  72.9953372  50.6212957 105.4803024  72.5933560  50.3395639
 104.6547984  72.8921607  51.5729073  92.5936516  66.0192712  44.8291153
  91.7967680  66.1311407  45.3474649  92.3662109  66.3579365  43.9632043
  98.4242184  72.5437416  52.7773668  98.4886617  73.0057823  53.6131839
  97.7153108  71.9134781  52.9055977  88.9259474  65.9078624  50.3022667
  89.1767513  66.7925634  50.5680243  89.4619022  65.7283225  49.5297759
 112.7491574  69.3392121  46.9697929 111.9955282  68.7699519  46.8141933
 112.8839115  69.3054785  47.9168563  98.1390202  74.2105523  42.6452648
  98.0035877  75.0557059  43.0737496  98.6800014  74.4124801  41.8818582
  94.6257541  60.2897103  59.3067003  94.2324487  59.7363302  59.9814647
  95.4423682  60.6007682  59.6973521  91.5919599  71.7280961  43.2180573
  92.1044120  72.5224211  43.3686138  92.2442312  71.0307252  43.1514174
  93.4014484  74.8446718  45.3003326  93.5781112  75.7664682  45.1124310
  94.1971317  74.5305137  45.7297706  97.5425502  61.7054982  56.8987260
  98.2835216  62.3062135  56.8191722  97.7743425  60.9632620  56.3405302
  92.6866840  66.8911349  55.1765489  92.5720356  65.9896607  55.4772588
  91.8311358  67.1375046  54.8250306  99.7658678  74.8329090  56.7752990
  99.3222532  74.0465468  56.4573894 100.4275892  75.0208240  56.1096881
  94.5245799  76.3624891  51.3013668  95.0753224  76.2341955  50.5290662
  93.6857275  76.6619780  50.9508561 101.8639916  75.1131890  54.8034391
 101.8458392  75.9340771  54.3114660 102.7859836  74.9885965  55.0284532
  98.3212970  72.6276019  55.6457900  98.8541307  71.8664307  55.4157208
  97.7927051  72.3349671  56.3882054 101.4882665  57.7336085  51.1751541
 101.1446935  58.6237727  51.0990652 101.8561628  57.5437743  50.3121126
  89.5568516  70.0569616  43.9940144  90.3943738  70.4666624  43.7773851
  89.7346784  69.1169058  43.9640337 101.4532948  67.7244696  39.6823976
 100.9379571  68.4949301  39.9212364 101.1810257  67.0509832  40.3057038
  99.0380059  62.5694397  44.7409215  98.1821655  62.1801247  44.5614854
  99.4507011  62.6486358  43.8809000 100.5679206  60.1040740  49.1400775
 100.0644001  60.0670875  48.3268580 100.8609813  61.0133483  49.1997431
  96.8122092  60.1879470  48.1466956  97.6775088  59.9922279  47.7872846
  96.8799601  59.9589822  49.0736313 106.4267222  70.4777051  41.6177150
 105.6496665  70.1388210  41.1732312 107.1058703  70.4829674  40.9432115
 101.2419251  65.5971788  41.5083758 100.9369387  65.9117937  42.3593901
 102.1949693  65.6753208  41.5511091  99.6865683  71.7562012  43.1576712
  99.1587045  71.0214771  42.8449949  99.1853186  72.5336688  42.9116680
 104.6658529  69.9511032  48.2743758 104.0082204  70.6410293  48.3623887
 105.4698928  70.3407464  48.6177744  94.4184411  62.4181678  45.5183323
  94.9928163  62.1956859  44.7856516  95.0055393  62.4870372  46.2711924
 103.4763988  68.3055405  46.3247700 103.9895870  68.9385397  46.8269409
 104.1265212  67.7056600  45.9591060  94.7453998  64.4486139  39.5379208
  93.9091310  64.7860825  39.8588483  94.6058767  64.3135119  38.6006345
  96.7207078  59.2922927  44.2458393  96.0671491  58.9771944  43.6215007
  96.6787553  58.6698667  44.9718216  97.8318283  69.5742222  36.1611685
  96.9245345  69.3431475  36.3602834  98.3289315  68.7779841  36.3485666
 100.7386362  78.2839729  39.0808371 100.0648061  78.5871426  39.6893329
 101.1252184  79.0868809  38.7313828  99.9544819  65.7804860  48.5706040
  99.0367380  66.0019807  48.4127728 100.3704962  65.8551171  47.7117748
 100.7379867  67.1796276  43.7008720 101.4851685  67.6917673  43.3915843
 101.0071456  66.8580329  44.5613114  99.0106517  69.6754817  40.6835675
  98.1017736  69.3913850  40.7808145  99.0401601  70.0953895  39.8238982
 104.2425784  73.2861406  44.4526842 103.7888111  72.4452316  44.5092033
 103.6119751  73.9222805  44.7901622 103.1858704  64.2153392  45.6827510
 102.4481460  63.7030778  46.0137752 103.4385477  63.7753774  44.8710787
 102.6858723  75.1237903  45.3876660 102.9781698  75.6842960  44.6689026
 103.1957344  75.4166464  46.1429820 103.2870331  56.9929644  46.2769279
 103.5929208  56.1327008  45.9895194 104.0122936  57.5847264  46.0768273
  89.5794687  67.3960331  44.6650877  89.3819087  66.8029692  43.9401944
  89.0241351  67.0912541  45.3826816  97.5591411  67.2883437  46.7845470
  97.6140021  66.3357274  46.7087947  96.7482613  67.4442876  47.2686769
  98.7082605  71.2163560  38.0223753  98.2702034  70.4999419  37.5629391
  99.4493045  71.4439675  37.4608845  95.4983771  65.9060497  44.5435849
  94.6851636  66.2054668  44.9501041  95.9942765  65.5116186  45.2610331
  97.6492349  75.9018254  46.4770114  97.6068527  76.1279100  45.5478646
  98.5655047  75.6681629  46.6255915 101.0957982  66.3702322  53.3750743
 101.4507370  66.5973795  54.2345209 101.7430114  66.7020698  52.7527998
 106.8255719  69.4920757  44.0800072 106.6873618  69.6822353  43.1521261
 106.4691938  70.2540140  44.5368123  94.9897845  63.4778853  50.1597084
  95.6297225  63.3367612  49.4620047  94.1575376  63.1913366  49.7835686
 106.8525099  71.5597284  49.0911343 107.2861606  71.4672574  49.9394397
 107.5656680  71.5354785  48.4531359  95.7658149  72.7781283  46.2732076
  96.5598748  72.2831603  46.0714651  95.0549842  72.2499146  45.9099782
 100.5852994  75.1599379  50.6244444 100.6390016  75.7290315  51.3922160
  99.7167775  75.3301264  50.2598481  92.0740913  66.9224365  42.3491829
  91.1438501  66.8608820  42.5661791  92.1698385  66.4000318  41.5528470
  91.9926462  63.4479178  44.9370071  92.2533279  64.3624511  44.8279231
  92.8143634  62.9803620  45.0866684  93.4651387  64.8616935  52.1068895
  94.1374441  64.6534297  51.4581544  92.6381174  64.6639021  51.6674128
 107.7140648  71.6020985  51.6244229 107.9076539  72.5066796  51.8703504
 107.6141267  71.1428404  52.4582814  99.3676959  61.4878876  54.1234556
  98.7204874  62.1868825  54.0299033 100.1377975  61.9215020  54.4910804
 102.7755757  71.7527728  57.1985109 102.6241264  71.5238280  56.2815193
 102.7660437  72.7098329  57.2116454  99.5441094  69.3259641  52.1831376
 100.4733154  69.4770800  52.0100343  99.1232124  69.4143661  51.3280022
  98.3429425  73.3510305  49.9529913  98.2040511  72.9829089  50.8255852
  97.5544022  73.8657944  49.7813871  98.9377577  78.4519401  41.2955450
  99.1129333  77.9807445  42.1101073  98.2510365  79.0785168  41.5236711
  99.8934640  72.7291908  47.3418751  99.5584473  72.6892678  48.2376401
  99.3938586  72.0636624  46.8689161  93.8678884  68.1359538  52.8671332
  93.7298682  67.4039777  53.4682871  94.7783808  68.0468438  52.5855520
 102.8293832  70.0747942  37.6155811 102.2123003  69.3494770  37.5188864
 102.3610321  70.8357302  37.2722885  96.4961185  67.8479497  52.3555012
  97.2060804  67.2072689  52.3141630  96.4530493  68.0992392  53.2781193
 104.4847964  74.7846850  55.2761591 104.4260510  74.1006071  54.6092174
 104.8867482  75.5265840  54.8242217  95.2090119  64.8344715  54.1750652
  94.6727476  64.3835453  54.8272248  94.6206828  64.9690624  53.4321116
  93.5038663  81.6008764  48.0695310  93.7435261  82.2327288  48.7474329
  92.6607859  81.2496804  48.3560669  94.6192378  64.2933366  36.7377115
  93.7421844  64.1722167  36.3739362  95.0950131  63.5019445  36.4856004
 104.4865371  72.7486434  53.5075571 103.5992150  72.4112356  53.6301970
 105.0563922  72.0169466  53.7444336  86.1394518  69.0810526  46.8318622
  86.8265558  68.7672256  46.2439638  85.9842647  69.9851891  46.5585874
  90.9429240  63.9700723  51.2603646  90.8587429  63.3626392  50.5254056
  90.1211947  64.4609741  51.2613142  98.0166524  77.4087887  50.4736814
  97.9436696  78.2142858  50.9856119  97.5743918  77.6079853  49.6484836
  97.8056304  76.6459657  43.9839636  97.0223826  77.1881337  44.0777860
  98.5049049  77.1633636  44.3833877 101.1152954  62.4554286  46.6273841
 101.6121654  61.7024249  46.3074911 100.3439936  62.4918603  46.0617050
 108.9682712  68.1594652  48.2692133 108.9572588  69.0419367  47.8986066
 108.1000091  67.8066203  48.0746670 100.4765208  77.3074721  52.6294973
 101.1893180  77.9422186  52.5570874  99.9855237  77.4038587  51.8134975
 102.1982735  71.2125973  44.2012264 101.2639014  71.3327436  44.0316969
 102.3759403  70.3098440  43.9372274  97.6987923  64.5971669  46.3545526
  97.3285710  64.0442710  47.0426431  98.1947015  63.9929803  45.8020526
 105.5855286  67.0543293  44.7362299 106.0515738  67.8871284  44.6622601
 106.0362787  66.5888274  45.4407557  95.5277121  75.0569164  53.4500544
  96.2286581  75.6905647  53.6029938  95.0572236  75.3983896  52.6896183
 103.6531517  73.3987114  41.7348451 103.9291361  73.2843709  42.6442325
 102.7836016  73.0004599  41.6960624 103.5571949  59.4223880  48.7753200
 102.6435029  59.6528107  48.9435407 103.9865050  59.5062324  49.6267232
 103.3278407  67.6113772  51.2753094 102.6749858  67.8589679  50.6205547
 103.7058787  66.7977910  50.9415571 100.2885581  77.6473465  45.3781264
 100.4707976  76.8295121  45.8409017 101.1118567  77.8641157  44.9406154
 100.6227747  76.5741650  42.6396313 101.1515513  76.0634105  42.0266475
 100.8855966  76.2584180  43.5041846  99.3765980  68.3533583  57.7619131
  98.7006617  68.2527712  58.4321506 100.1993614  68.1972796  58.2255128
  91.1244840  74.5905519  50.3831646  91.7098276  73.8449207  50.5159551
  90.9269678  74.9009476  51.2668310  93.9783495  77.6256767  45.3994089
  93.3093870  78.1102894  44.9158129  93.8396364  77.8725987  46.3137467
  85.7162494  67.1611119  49.1036089  85.7546594  66.6274710  49.8973208
  85.2102787  66.6346325  48.4847067  98.1188763  79.6600510  51.9976747
  98.6707071  79.8232132  52.7625832  98.4594957  80.2504948  51.3256772
  93.0953257  62.0075660  52.5998632  93.1594583  62.8690491  52.1876029
  93.0320377  61.3949662  51.8670990  92.5705529  64.0798792  56.2471666
  93.1977568  63.6975870  56.8609190  91.7133448  63.8612994  56.6127359
 102.9699638  74.4861768  57.8525401 103.5139542  75.0991726  57.3580356
 102.3886483  75.0441346  58.3692415  89.3471072  65.8875222  42.1790021
  89.6424513  64.9785900  42.1257075  88.4459108  65.8662961  41.8571023
 101.2557151  77.6082486  48.9840429 101.1308290  76.8072226  48.4751375
 101.9136242  78.1028679  48.4954399  92.8765319  63.9631218  48.1617569
  92.1551905  64.5767186  48.0225043  93.6658575  64.4988983  48.0834215
 103.3192059  75.4091506  50.6119979 102.3722395  75.2896857  50.5398306
 103.6674832  74.5214004  50.6946241  95.6791632  61.2985645  54.4358221
  96.2026034  61.5447941  55.1984531  95.4603966  62.1305679  54.0161359
  91.0758913  63.5689319  42.3029346  90.7471620  62.6886698  42.1204452
  91.4298284  63.5136988  43.1905735 100.3238492  75.2044222  46.8124332
 100.1763455  74.2760929  46.9931902 101.1491986  75.2264313  46.3281407
  94.1900737  63.8562289  42.6704824  94.5296809  64.3848210  41.9483432
  94.6372857  64.1942695  43.4463390 103.9272614  76.0272781  47.8989204
 104.8519162  75.8215642  47.7613655 103.7587918  75.7789182  48.8078546
  96.8844177  62.2399340  52.1207892  96.5440998  61.4407153  52.5228572
  96.1783184  62.5401051  51.5484725  97.5360649  59.3248652  50.5735215
  98.3586719  58.8509130  50.4514105  97.7798713  60.1039136  51.0733901
  96.1768884  62.3536911  40.8698116  96.8977246  62.7318163  40.3661833
  95.5534188  63.0725787  40.9733094 100.3200007  63.0582060  41.8056449
 100.5363621  63.9406697  41.5045277  99.8394074  62.6668273  41.0762091
  95.0599228  66.0167773  48.3827193  94.9143809  66.3308076  49.2751475
  94.5824432  66.6352673  47.8298092  96.9195611  63.0070321  48.4308083
  96.9057180  62.1111414  48.0940381  97.6368039  63.0140985  49.0646369
  98.7721742  63.4407661  50.4761210  98.5139519  64.3624732  50.4745541
  98.2406782  63.0438096  51.1661674 103.7167930  76.5458448  43.2551296
 103.8904808  75.9804871  42.5025148 104.2096822  77.3459343  43.0730786
  89.5344890  68.5573117  51.3214855  88.9898358  69.3332925  51.4535129
  90.4124240  68.9043922  51.1633976  96.3232507  61.8884701  43.6995653
  96.4448418  60.9601347  43.8986541  96.0334549  61.9023387  42.7873968
  99.1923697  59.5739612  46.8362373  99.2145394  59.6378945  45.8814352
  99.6091756  58.7344120  47.0302879 109.5707322  69.3094871  44.8741595
 110.0138468  68.5602196  44.4760719 108.6933832  69.3005007  44.4915327
 104.7043103  75.8625213  40.3548194 105.3994007  76.4831905  40.5735509
 105.0466253  75.0120564  40.6300572  90.3210912  67.6843014  54.2145011
  89.5792648  67.8325649  54.8009642  90.0003656  67.9451279  53.3511761
 106.6034526  73.3124918  41.8835525 107.1285850  73.6512191  41.1584845
 106.5156879  72.3771933  41.6998659  98.2654575  77.2258992  54.0125401
  98.5741701  76.9808138  54.8848101  99.0630057  77.4305630  53.5244272
  98.2875187  79.3796901  46.2430778  97.8480177  78.8873280  46.9363635
  99.0383304  78.8369869  46.0022853  90.7667526  75.5708442  46.2455406
  91.5925546  75.2712214  45.8654050  90.4161578  74.8016065  46.6945195
  95.7349059  74.9234910  48.3153080  95.1129068  74.2605615  48.0155308
  96.4053926  74.9496042  47.6326727  88.9676131  73.4894769  47.2044340
  88.1308039  73.0616943  47.0228341  88.9399776  73.6827212  48.1415131
  95.8073586  63.4016698  57.9085586  95.8561742  64.2778821  57.5263355
  96.3496101  62.8594092  57.3357229 106.2928432  73.9457822  57.1886723
 105.5023976  73.9281961  56.6491222 106.0561787  74.4846115  57.9435759
 106.4126307  70.7950288  54.5019451 106.4624312  70.6300296  55.4434974
 106.3040230  69.9277547  54.1117332  95.2962566  73.4738834  41.7911540
  95.4450686  74.1574298  41.1378213  96.1029009  73.4543924  42.3060996
 103.7030069  66.7781216  55.8178758 104.6039932  66.6387681  55.5262756
 103.7778044  66.9435671  56.7576935  98.0372875  64.1548071  54.6631944
  97.1676184  64.4481637  54.3914533  98.2732355  64.7388516  55.3839208
 107.9144504  73.2147230  54.7461473 107.6229312  73.5777210  55.5824934
 107.3016635  72.5014238  54.5674805 109.1140186  70.7800109  47.2664043
 109.9487078  71.2189913  47.4301603 109.2499315  70.3038763  46.4472289
 106.1631692  68.3379844  53.2141531 106.6385814  68.5307491  52.4060382
 105.2397258  68.3939030  52.9684914  93.0515199  69.5004011  42.7972609
  92.8061241  68.5966341  42.9952819  93.2211113  69.5021162  41.8552087
 100.7411909  60.3727688  52.1797365 101.2593853  61.1088715  51.8543853
 100.3867041  60.6791681  53.0144124  92.3210846  65.2332369  40.2958771
  91.6280091  65.3076724  39.6398807  92.0762598  64.4692713  40.8180287
 100.9924503  56.7927970  47.6998261 101.2726257  56.1251159  48.3258688
 101.7775110  56.9857066  47.1872925  98.7957971  75.9686964  39.2623288
  98.2231938  76.5877151  38.8093759  99.3690765  76.5186326  39.7963210
 104.8633361  65.2145604  51.4469836 105.8150784  65.3143702  51.4682060
 104.6936812  64.4223873  51.9567921 102.8847741  62.3001188  51.6329237
 102.2897673  62.5806200  50.9375726 102.5997437  62.7895088  52.4045978
 102.0155231  76.2524114  40.3931870 102.9485904  76.1869676  40.5964745
 101.9278444  77.0880381  39.9346403 104.6443248  75.5689985  37.3535817
 104.5656879  75.2349848  38.2471575 105.4652915  76.0611753  37.3527290
 107.3421439  68.4351724  50.5612136 107.3097759  67.4967725  50.7471820
 107.9522063  68.5135761  49.8277961  99.1804770  67.3047777  36.6039340
 100.1263875  67.1753985  36.6727758  98.8019015  66.5662439  37.0808768
 107.4915927  65.2262767  50.6070419 106.9754976  64.4421224  50.4200348
 108.3755876  64.8981484  50.7716939 105.1526654  58.9703783  46.5666232
 104.9551475  58.6618871  47.4509564 105.7626360  59.6965422  46.6964162
 113.1597989  69.4967731  49.7018173 113.8901377  69.2353019  50.2625876
 112.5504934  68.7596453  49.7420241 111.2413286  67.6375593  50.2992624
 110.5146450  67.5031558  49.6909116 110.8260573  67.9452422  51.1049342
  99.0643462  71.3565523  58.0639997  99.9846472  71.5344122  58.2580044
  99.0293045  70.4121568  57.9119696  97.3647687  65.2297753  36.5394225
  96.4579142  64.9330866  36.6156939  97.6423668  64.9327571  35.6728512
  88.2825627  66.5504117  46.9893272  87.9628412  65.6969425  46.6967646
  87.7359056  66.7652695  47.7451239  92.0605535  69.2666558  50.7062778
  92.2791545  70.1983666  50.7250812  92.4731309  68.9074532  51.4917582
  98.9809753  59.7734643  42.6938467  98.1710481  59.4281728  43.0693713
  99.6694170  59.4642187  43.2826078 100.9100301  58.8512690  44.3162763
 101.4631340  59.2708143  44.9752786 101.1470387  57.9248438  44.3585719
  96.9333400  64.8399764  60.0965527  96.8330127  65.7894121  60.0277618
  96.7154942  64.5118002  59.2241597  96.1346472  62.0884689  36.6806205
  96.9965636  62.4139587  36.9402022  96.3196816  61.3016184  36.1679270
  88.1513887  70.1707028  48.9586393  87.4577359  69.7560981  48.4456348
  88.8986878  70.2127565  48.3619812 104.2879108  60.9613215  43.8241428
 103.7077777  61.6198019  43.4419480 104.0215041  60.1390560  43.4128845
 102.7382674  60.3618273  46.0262748 103.2382453  60.4734807  45.2177067
 103.3818282  60.0579326  46.6663556  96.7964670  68.2696902  58.9130589
  96.3131752  69.0697262  59.1194478  96.8825609  68.2804847  57.9598033
  90.0650630  70.1025282  46.8352408  90.0421318  70.2012969  45.8834291
  90.3751266  70.9490433  47.1569574  92.7238008  72.1601437  50.9499023
  93.6781261  72.1285379  50.8828954  92.5250531  71.6992061  51.7649249
  93.3137390  70.7302553  53.5169820  94.1330279  71.2246632  53.5404658
  93.5874198  69.8134521  53.4887388 103.0703986  63.1213305  42.8797776
 102.1829841  63.4062956  42.6617971 103.4857975  62.9607069  42.0325053
 106.4218522  63.1459826  46.5952115 107.1978912  63.6356279  46.8676732
 105.6966656  63.5717881  47.0523985 108.8591081  63.8587446  47.6526056
 109.4535572  63.6183182  46.9419364 108.9317665  63.1394576  48.2799592
  91.0788237  77.7021057  47.9669220  90.9442704  76.9421457  47.4007219
  90.6620299  78.4261956  47.4998009 102.2147200  72.8857980  36.9745796
 102.9183050  73.0907983  37.5903451 101.4909848  73.4534742  37.2394879
 103.0445010  68.6367841  43.0948066 102.9880211  69.0936393  42.2555698
 103.5973352  67.8758526  42.9170909 106.8549816  64.4257573  43.9198185
 106.5986750  64.0254209  44.7506393 106.2302684  65.1401367  43.7948325
 111.1662154  67.1653646  46.4269477 110.6061712  67.2346836  47.2001039
 110.5605657  66.9894631  45.7068973  94.2357362  78.5990374  48.1787663
  94.1189747  79.5435806  48.0766353  93.4149809  78.2963935  48.5673462
 104.1233897  73.3240509  39.0244256 104.9579501  72.8921708  38.8421731
 103.9618240  73.1522523  39.9521150 103.7779789  69.8272623  40.3900595
 103.7228593  69.6616894  39.4489039 103.1525844  70.5348656  40.5462785
  88.5672304  65.0640687  54.2162017  89.2131168  64.5539641  54.7049243
  88.3589455  65.8009369  54.7905443 101.0925696  72.1321534  59.7154158
 101.9616856  72.3062187  59.3540793 100.6132448  72.9515951  59.5929887
  97.0875915  59.3280732  39.9685914  97.0754584  60.2722572  40.1254184
  97.9799336  59.1450877  39.6745375  95.2611877  79.2518635  51.3943592
  96.1639123  79.2842246  51.7110087  95.0349247  78.3219086  51.4089927
  97.0165479  78.0049622  48.0553670  96.0661110  78.0051484  47.9418042
  97.3197965  77.2582357  47.5389705 100.9028034  55.9223508  44.2231850
 100.1360430  55.3681995  44.3688533 101.3138739  55.9945377  45.0846002
  92.9069795  62.2108304  58.3137032  93.7701257  61.8545109  58.5240356
  92.3335206  61.8722199  59.0012436 112.7518172  83.8410160  49.1199433
 113.3896582  83.7216908  48.4162773 112.6339015  84.7891004  49.1787385
 109.5607878  83.7937589  49.0560957 109.2226390  83.6778653  48.1681492
 110.4297647  83.3928754  49.0361963 105.4194694  85.6473065  45.0457848
 104.8559559  85.5563002  44.2774136 105.3047089  84.8272969  45.5260341
 110.0427661  84.9472440  55.0147163 110.0316302  84.5525239  54.1427666
 110.2048301  84.2138513  55.6080934 102.9659126  87.1424257  47.8842069
 103.7580418  86.8015081  47.4688368 103.2055776  87.2519232  48.8044222
 110.9994253  89.3144033  40.3572313 110.3482233  89.8998113  39.9706327
 111.7938616  89.8450228  40.4167351 104.9249880  86.4033170  40.7559447
 105.6980756  85.8562157  40.6172323 105.2775279  87.2677419  40.9673909
 106.7634922  87.7309552  53.9626347 106.4724788  88.6355183  53.8473013
 107.3991907  87.7726080  54.6770416 107.6891129  85.1086401  50.5527706
 108.2854702  84.8842423  49.8384669 107.7466101  84.3671146  51.1553154
 107.2616158  82.5625836  38.3877897 107.5141678  82.0407357  37.6261360
 106.3240717  82.3991981  38.4904581 112.3059441  81.5661614  46.1952641
 113.0922530  81.1481037  45.8443058 112.5698145  82.4707706  46.3634289
 112.4769518  87.0034465  40.8941297 111.8415351  87.0769091  41.6062202
 112.1466924  87.5928063  40.2160377 117.7067868  81.5036847  47.0985619
 118.4393040  80.9336064  47.3323449 116.9507223  81.1158448  47.5392125
 106.9812446  84.4653942  40.5902272 106.8648705  83.7898845  41.2583357
 107.0914706  83.9786316  39.7734425 109.3243987  83.9264089  44.2948962
 108.9602195  83.3994710  45.0061883 110.1811103  83.5362558  44.1215447
 115.2293288  75.2158422  51.5580228 114.8976613  76.0853833  51.3341443
 114.6338901  74.8994706  52.2374258 108.9649474  78.9553989  39.2910310
 109.1323877  79.8234225  39.6580781 108.7746643  79.1181270  38.3671599
 111.7224808  87.4170968  50.9576140 111.4225531  88.3196006  50.8491948
 111.3775867  87.1503151  51.8097293 105.1737289  83.8684764  46.9912845
 104.2487786  83.7360979  47.1990537 105.4221702  84.6478984  47.4882787
 115.1221951  79.9353508  48.6373578 114.2138829  79.8668916  48.3432339
 115.0709547  80.4125453  49.4655403 108.9438695  81.4111646  40.2756977
 108.8238320  81.8568697  41.1142457 108.2491284  81.7596964  39.7170515
 102.5346100  83.5118038  47.8256634 102.6638481  83.7652517  48.7396046
 101.8543551  84.1045746  47.5061289 106.7045587  94.1815288  43.9247108
 106.6269617  95.1323113  44.0035589 106.1007231  93.8361160  44.5822034
 109.1962817  81.3543153  56.5808475 108.4196151  81.9137073  56.5711340
 109.8353380  81.8399936  57.1023345 116.9883598  78.1369946  50.4151452
 116.3457978  78.4302479  49.7691246 116.4838526  78.0222866  51.2204648
 114.6423761  81.8833119  41.1037311 115.5541618  82.1160506  40.9285009
 114.1333408  82.4670164  40.5412390 107.4509189  84.1628607  56.1426442
 108.1923874  84.7013651  55.8661266 106.7446175  84.7894895  56.2997994
 112.9264529  86.3057747  54.7398604 113.3347885  85.8640158  53.9953236
 112.2041791  85.7310375  54.9932796 109.2795599  81.2430354  52.1132161
 110.1256794  81.6669767  52.2566810 109.2194237  80.5863978  52.8070724
 113.2493344  86.8658938  48.4950892 112.6202206  87.0304652  47.7926960
 112.8619006  87.2800547  49.2661856 117.1282576  87.8013376  45.8495256
 116.4433614  88.1812277  45.2992290 117.2126425  88.4108702  46.5827204
 112.4295044  78.9034722  53.7713334 112.1855976  79.6576783  53.2347610
 112.7054975  79.2820070  54.6060581 114.3833507  85.4473335  52.4490600
 114.5950402  86.0905095  51.7724981 114.3363255  84.6135651  51.9812530
 111.9859736  78.0591155  49.3527172 111.1244215  78.3572409  49.6443909
 112.0122171  78.2761554  48.4208205 108.8021306  86.6033346  45.7600978
 109.2659651  86.8821049  44.9705600 108.5378104  85.7016790  45.5774068
 105.6945387  86.1504827  48.6980741 106.2646744  86.5792096  48.0598225
 106.2853498  85.8687412  49.3964926 107.7390192  82.7256498  42.5690543
 108.4414235  83.1777542  43.0364469 107.4070820  82.0840317  43.1970436
 106.1870553  81.3168255  56.9441752 105.5569214  81.9984536  57.1777149
 106.0806641  81.2051336  55.9994890 101.4815526  80.9840051  47.8707676
 100.6914580  81.2397579  47.3947787 101.9726773  81.7988389  47.9759717
 115.4979335  88.3245290  50.6212957 116.3196779  87.9225477  50.3395639
 115.4941738  88.2213524  51.5729073 103.4330271  81.3484630  44.8291153
 102.6361434  81.4603324  45.3474649 103.2055863  81.6871282  43.9632043
 109.2635939  87.8729333  52.7773668 109.3280371  88.3349741  53.6131839
 108.5546862  87.2426698  52.9055977  99.7653229  81.2370541  50.3022667
 100.0161267  82.1217551  50.5680243 100.3012777  81.0575143  49.5297759
 108.9783956  89.5397441  42.6452648 108.8429631  90.3848977  43.0737496
 109.5193769  89.7416719  41.8818582 105.4651296  75.6189021  59.3067003
 105.0718241  75.0655219  59.9814647 106.2817436  75.9299599  59.6973521
 102.4313354  87.0572879  43.2180573 102.9437874  87.8516129  43.3686138
 103.0836066  86.3599169  43.1514174 104.2408238  90.1738635  45.3003326
 104.4174867  91.0956600  45.1124310 105.0365072  89.8597054  45.7297706
 108.3819257  77.0346900  56.8987260 109.1228970  77.6354053  56.8191722
 108.6137180  76.2924538  56.3405302 103.5260595  82.2203267  55.1765489
 103.4114110  81.3188524  55.4772588 102.6705113  82.4666964  54.8250306
 110.6052433  90.1621007  56.7752990 110.1616287  89.3757386  56.4573894
 111.2669646  90.3500158  56.1096881 105.3639554  91.6916809  51.3013668
 105.9146979  91.5633872  50.5290662 104.5251030  91.9911698  50.9508561
 112.7033671  90.4423807  54.8034391 112.6852146  91.2632688  54.3114660
 113.6253591  90.3177883  55.0284532 109.1606725  87.9567937  55.6457900
 109.6935062  87.1956225  55.4157208 108.6320806  87.6641589  56.3882054
 112.3276420  73.0628003  51.1751541 111.9840689  73.9529644  51.0990652
 112.6955382  72.8729660  50.3121126 100.3962270  85.3861533  43.9940144
 101.2337492  85.7958542  43.7773851 100.5740538  84.4460975  43.9640337
 112.2926703  83.0536614  39.6823976 111.7773326  83.8241219  39.9212364
 112.0204011  82.3801750  40.3057038 109.8773814  77.8986315  44.7409215
 109.0215410  77.5093165  44.5614854 110.2900765  77.9778275  43.8809000
 111.4072960  75.4332658  49.1400775 110.9037756  75.3962793  48.3268580
 111.7003567  76.3425401  49.1997431 107.6515846  75.5171388  48.1466956
 108.5168843  75.3214196  47.7872846 107.7193355  75.2881739  49.0736313
 117.2660977  85.8068969  41.6177150 116.4890419  85.4680128  41.1732312
 117.9452458  85.8121592  40.9432115 112.0813006  80.9263706  41.5083758
 111.7763141  81.2409855  42.3593901 113.0343448  81.0045126  41.5511091
 110.5259438  87.0853929  43.1576712 109.9980799  86.3506689  42.8449949
 110.0246940  87.8628606  42.9116680 115.5052284  85.2802950  48.2743758
 114.8475958  85.9702211  48.3623887 116.3092683  85.6699382  48.6177744
 105.2578165  77.7473596  45.5183323 105.8321917  77.5248777  44.7856516
 105.8449148  77.8162290  46.2711924 114.3157742  83.6347322  46.3247700
 114.8289624  84.2677314  46.8269409 114.9658966  83.0348518  45.9591060
 105.5847752  79.7778057  39.5379208 104.7485065  80.1152743  39.8588483
 105.4452522  79.6427036  38.6006345 107.5600833  74.6214844  44.2458393
 106.9065245  74.3063862  43.6215007 107.5181307  73.9990585  44.9718216
 108.6712038  84.9034140  36.1611685 107.7639099  84.6723393  36.3602834
 109.1683070  84.1071759  36.3485666 111.5780117  93.6131647  39.0808371
 110.9041815  93.9163343  39.6893329 111.9645939  94.4160727  38.7313828
 110.7938573  81.1096778  48.5706040 109.8761135  81.3311725  48.4127728
 111.2098717  81.1843088  47.7117748 111.5773621  82.5088194  43.7008720
 112.3245440  83.0209591  43.3915843 111.8465211  82.1872246  44.5613114
 109.8500271  85.0046734  40.6835675 108.9411490  84.7205767  40.7808145
 109.8795355  85.4245813  39.8238982 115.0819539  88.6153324  44.4526842
 114.6281866  87.7744234  44.5092033 114.4513505  89.2514722  44.7901622
 114.0252458  79.5445310  45.6827510 113.2875215  79.0322696  46.0137752
 114.2779232  79.1045692  44.8710787 113.5252478  90.4529821  45.3876660
 113.8175452  91.0134878  44.6689026 114.0351098  90.7458382  46.1429820
 114.1264085  72.3221562  46.2769279 114.4322962  71.4618925  45.9895194
 114.8516690  72.9139182  46.0768273 100.4188442  82.7252249  44.6650877
 100.2212841  82.1321609  43.9401944  99.8635106  82.4204459  45.3826816
 108.3985165  82.6175355  46.7845470 108.4533775  81.6649191  46.7087947
 107.5876367  82.7734794  47.2686769 109.5476359  86.5455478  38.0223753
 109.1095789  85.8291337  37.5629391 110.2886800  86.7731593  37.4608845
 106.3377525  81.2352415  44.5435849 105.5245391  81.5346585  44.9501041
 106.8336519  80.8408104  45.2610331 108.4886103  91.2310172  46.4770114
 108.4462282  91.4571018  45.5478646 109.4048802  90.9973546  46.6255915
 111.9351737  81.6994239  53.3750743 112.2901125  81.9265712  54.2345209
 112.5823868  82.0312616  52.7527998 117.6649474  84.8212675  44.0800072
 117.5267372  85.0114271  43.1521261 117.3085693  85.5832058  44.5368123
 105.8291600  78.8070770  50.1597084 106.4690979  78.6659529  49.4620047
 104.9969130  78.5205284  49.7835686 117.6918853  86.8889202  49.0911343
 118.1255360  86.7964491  49.9394397 118.4050434  86.8646703  48.4531359
 106.6051904  88.1073201  46.2732076 107.3992502  87.6123521  46.0714651
 105.8943596  87.5791064  45.9099782 111.4246748  90.4891296  50.6244444
 111.4783771  91.0582233  51.3922160 110.5561530  90.6593181  50.2598481
 102.9134667  82.2516282  42.3491829 101.9832255  82.1900738  42.5661791
 103.0092139  81.7292235  41.5528470 102.8320216  78.7771095  44.9370071
 103.0927034  79.6916429  44.8279231 103.6537389  78.3095538  45.0866684
 104.3045142  80.1908852  52.1068895 104.9768195  79.9826215  51.4581544
 103.4774928  79.9930938  51.6674128 118.5534403  86.9312903  51.6244229
 118.7470293  87.8358713  51.8703504 118.4535021  86.4720322  52.4582814
 110.2070714  76.8170793  54.1234556 109.5598629  77.5160743  54.0299033
 110.9771729  77.2506937  54.4910804 113.6149512  87.0819646  57.1985109
 113.4635018  86.8530197  56.2815193 113.6054191  88.0390247  57.2116454
 110.3834848  84.6551558  52.1831376 111.3126908  84.8062718  52.0100343
 109.9625878  84.7435579  51.3280022 109.1823180  88.6802223  49.9529913
 109.0434266  88.3121007  50.8255852 108.3937776  89.1949862  49.7813871
 109.7771332  93.7811319  41.2955450 109.9523087  93.3099362  42.1101073
 109.0904120  94.4077085  41.5236711 110.7328395  88.0583825  47.3418751
 110.3978228  88.0184595  48.2376401 110.2332341  87.3928541  46.8689161
 104.7072639  83.4651455  52.8671332 104.5692437  82.7331694  53.4682871
 105.6177562  83.3760356  52.5855520 113.6687587  85.4039860  37.6155811
 113.0516757  84.6786688  37.5188864 113.2004075  86.1649220  37.2722885
 107.3354940  83.1771415  52.3555012 108.0454558  82.5364607  52.3141630
 107.2924248  83.4284310  53.2781193 115.3241718  90.1138768  55.2761591
 115.2654264  89.4297988  54.6092174 115.7261237  90.8557758  54.8242217
 106.0483874  80.1636633  54.1750652 105.5121231  79.7127371  54.8272248
 105.4600582  80.2982541  53.4321116 104.3432417  96.9300682  48.0695310
 104.5829015  97.5619206  48.7474329 103.5001614  96.5788722  48.3560669
 105.4586133  79.6225284  36.7377115 104.5815599  79.5014085  36.3739362
 105.9343886  78.8311362  36.4856004 115.3259126  88.0778352  53.5075571
 114.4385904  87.7404274  53.6301970 115.8957677  87.3461383  53.7444336
  96.9788273  84.4102444  46.8318622  97.6659312  84.0964174  46.2439638
  96.8236401  85.3143808  46.5585874 101.7822995  79.2992640  51.2603646
 101.6981184  78.6918310  50.5254056 100.9605701  79.7901659  51.2613142
 108.8560279  92.7379804  50.4736814 108.7830450  93.5434776  50.9856119
 108.4137672  92.9371770  49.6484836 108.6450059  91.9751574  43.9839636
 107.8617580  92.5173255  44.0777860 109.3442804  92.4925554  44.3833877
 111.9546709  77.7846204  46.6273841 112.4515408  77.0316166  46.3074911
 111.1833690  77.8210521  46.0617050 119.8076466  83.4886569  48.2692133
 119.7966342  84.3711285  47.8986066 118.9393845  83.1358120  48.0746670
 111.3158962  92.6366638  52.6294973 112.0286935  93.2714103  52.5570874
 110.8248991  92.7330504  51.8134975 113.0376489  86.5417891  44.2012264
 112.1032768  86.6619354  44.0316969 113.2153158  85.6390358  43.9372274
 108.5381677  79.9263587  46.3545526 108.1679465  79.3734627  47.0426431
 109.0340770  79.3221720  45.8020526 116.4249041  82.3835210  44.7362299
 116.8909493  83.2163202  44.6622601 116.8756541  81.9180192  45.4407557
 106.3670876  90.3861082  53.4500544 107.0680335  91.0197565  53.6029938
 105.8965991  90.7275813  52.6896183 114.4925272  88.7279032  41.7348451
 114.7685116  88.6135626  42.6442325 113.6229771  88.3296516  41.6960624
 114.3965703  74.7515797  48.7753200 113.4828783  74.9820024  48.9435407
 114.8258805  74.8354241  49.6267232 114.1672162  82.9405689  51.2753094
 113.5143612  83.1881597  50.6205547 114.5452542  82.1269827  50.9415571
 111.1279336  92.9765382  45.3781264 111.3101730  92.1587038  45.8409017
 111.9512322  93.1933075  44.9406154 111.4621501  91.9033568  42.6396313
 111.9909268  91.3926022  42.0266475 111.7249721  91.5876098  43.5041846
 110.2159735  83.6825500  57.7619131 109.5400372  83.5819630  58.4321506
 111.0387369  83.5264714  58.2255128 101.9638594  89.9197437  50.3831646
 102.5492031  89.1741125  50.5159551 101.7663432  90.2301394  51.2668310
 104.8177249  92.9548684  45.3994089 104.1487625  93.4394812  44.9158129
 104.6790119  93.2017905  46.3137467  96.5556249  82.4903037  49.1036089
  96.5940348  81.9566628  49.8973208  96.0496542  81.9638243  48.4847067
 108.9582518  94.9892428  51.9976747 109.5100826  95.1524049  52.7625832
 109.2988711  95.5796866  51.3256772 103.9347011  77.3367578  52.5998632
 103.9988338  78.1982409  52.1876029 103.8714131  76.7241579  51.8670990
 103.4099284  79.4090710  56.2471666 104.0371322  79.0267787  56.8609190
 102.5527202  79.1904912  56.6127359 113.8093392  89.8153685  57.8525401
 114.3533296  90.4283644  57.3580356 113.2280237  90.3733264  58.3692415
 100.1864826  81.2167139  42.1790021 100.4818267  80.3077818  42.1257075
  99.2852862  81.1954879  41.8571023 112.0950905  92.9374403  48.9840429
 111.9702045  92.1364143  48.4751375 112.7529996  93.4320597  48.4954399
 103.7159073  79.2923136  48.1617569 102.9945659  79.9059104  48.0225043
 104.5052329  79.8280901  48.0834215 114.1585814  90.7383423  50.6119979
 113.2116149  90.6188775  50.5398306 114.5068587  89.8505921  50.6946241
 106.5185387  76.6277562  54.4358221 107.0419789  76.8739859  55.1984531
 106.2997720  77.4597597  54.0161359 101.9152668  78.8981237  42.3029346
 101.5865374  78.0178616  42.1204452 102.2692039  78.8428906  43.1905735
 111.1632247  90.5336140  46.8124332 111.0157209  89.6052847  46.9931902
 111.9885740  90.5556230  46.3281407 105.0294491  79.1854207  42.6704824
 105.3690564  79.7140128  41.9483432 105.4766612  79.5234613  43.4463390
 114.7666369  91.3564698  47.8989204 115.6912916  91.1507560  47.7613655
 114.5981672  91.1081100  48.8078546 107.7237932  77.5691257  52.1207892
 107.3834752  76.7699071  52.5228572 107.0176938  77.8692968  51.5484725
 108.3754404  74.6540570  50.5735215 109.1980473  74.1801048  50.4514105
 108.6192467  75.4331054  51.0733901 107.0162638  77.6828828  40.8698116
 107.7371001  78.0610081  40.3661833 106.3927942  78.4017705  40.9733094
 111.1593761  78.3873977  41.8056449 111.3757376  79.2698615  41.5045277
 110.6787828  77.9960191  41.0762091 105.8992983  81.3459691  48.3827193
 105.7537563  81.6599994  49.2751475 105.4218186  81.9644591  47.8298092
 107.7589365  78.3362239  48.4308083 107.7450934  77.4403332  48.0940381
 108.4761794  78.3432902  49.0646369 109.6115496  78.7699579  50.4761210
 109.3533274  79.6916649  50.4745541 109.0800536  78.3730013  51.1661674
 114.5561685  91.8750366  43.2551296 114.7298562  91.3096788  42.5025148
 115.0490576  92.6751261  43.0730786 100.3738645  83.8865035  51.3214855
  99.8292113  84.6624843  51.4535129 101.2517995  84.2335839  51.1633976
 107.1626261  77.2176619  43.6995653 107.2842173  76.2893265  43.8986541
 106.8728304  77.2315305  42.7873968 110.0317452  74.9031529  46.8362373
 110.0539149  74.9670862  45.8814352 110.4485511  74.0636038  47.0302879
 120.4101076  84.6386789  44.8741595 120.8532222  83.8894114  44.4760719
 119.5327586  84.6296925  44.4915327 115.5436857  91.1917130  40.3548194
 116.2387762  91.8123823  40.5735509 115.8860007  90.3412481  40.6300572
 101.1604667  83.0134931  54.2145011 100.4186403  83.1617567  54.8009642
 100.8397411  83.2743197  53.3511761 117.4428280  88.6416836  41.8835525
 117.9679605  88.9804109  41.1584845 117.3550633  87.7063851  41.6998659
 109.1048329  92.5550909  54.0125401 109.4135456  92.3100056  54.8848101
 109.9023811  92.7597548  53.5244272 109.1268941  94.7088819  46.2430778
 108.6873932  94.2165198  46.9363635 109.8777058  94.1661787  46.0022853
 101.6061280  90.9000360  46.2455406 102.4319300  90.6004132  45.8654050
 101.2555332  90.1307982  46.6945195 106.5742813  90.2526828  48.3153080
 105.9522823  89.5897533  48.0155308 107.2447680  90.2787960  47.6326727
  99.8069885  88.8186686  47.2044340  98.9701794  88.3908861  47.0228341
  99.7793531  89.0119130  48.1415131 106.6467341  78.7308616  57.9085586
 106.6955496  79.6070739  57.5263355 107.1889855  78.1886009  57.3357229
 117.1322187  89.2749739  57.1886723 116.3417730  89.2573878  56.6491222
 116.8955541  89.8138033  57.9435759 117.2520062  86.1242206  54.5019451
 117.3018067  85.9592213  55.4434974 117.1433985  85.2569465  54.1117332
 106.1356320  88.8030751  41.7911540 106.2844441  89.4866216  41.1378213
 106.9422764  88.7835842  42.3060996 114.5423824  82.1073134  55.8178758
 115.4433687  81.9679599  55.5262756 114.6171798  82.2727589  56.7576935
 108.8766629  79.4839989  54.6631944 108.0069939  79.7773555  54.3914533
 109.1126110  80.0680434  55.3839208 118.7538258  88.5439147  54.7461473
 118.4623067  88.9069128  55.5824934 118.1410390  87.8306156  54.5674805
 119.9533941  86.1092027  47.2664043 120.7880832  86.5481831  47.4301603
 120.0893070  85.6330680  46.4472289 117.0025447  83.6671762  53.2141531
 117.4779568  83.8599408  52.4060382 116.0791012  83.7230948  52.9684914
 103.8908953  84.8295929  42.7972609 103.6454995  83.9258259  42.9952819
 104.0604868  84.8313080  41.8552087 111.5805663  75.7019605  52.1797365
 112.0987607  76.4380632  51.8543853 111.2260796  76.0083599  53.0144124
 103.1604601  80.5624287  40.2958771 102.4673846  80.6368642  39.6398807
 102.9156353  79.7984630  40.8180287 111.8318257  72.1219888  47.6998261
 112.1120011  71.4543077  48.3258688 112.6168864  72.3148984  47.1872925
 109.6351726  91.2978882  39.2623288 109.0625693  91.9169069  38.8093759
 110.2084519  91.8478244  39.7963210 115.7027116  80.5437522  51.4469836
 116.6544539  80.6435620  51.4682060 115.5330566  79.7515791  51.9567921
 113.7241495  77.6293105  51.6329237 113.1291427  77.9098118  50.9375726
 113.4391192  78.1187006  52.4045978 112.8548986  91.5816032  40.3931870
 113.7879659  91.5161594  40.5964745 112.7672198  92.4172299  39.9346403
 115.4837002  90.8981902  37.3535817 115.4050634  90.5641766  38.2471575
 116.3046669  91.3903670  37.3527290 118.1815193  83.7643642  50.5612136
 118.1491514  82.8259642  50.7471820 118.7915817  83.8427678  49.8277961
 110.0198524  82.6339695  36.6039340 110.9657629  82.5045903  36.6727758
 109.6412769  81.8954357  37.0808768 118.3309682  80.5554685  50.6070419
 117.8148731  79.7713142  50.4200348 119.2149630  80.2273402  50.7716939
 115.9920409  74.2995701  46.5666232 115.7945230  73.9910789  47.4509564
 116.6020114  75.0257340  46.6964162 109.9037217  86.6857441  58.0639997
 110.8240226  86.8636040  58.2580044 109.8686800  85.7413486  57.9119696
 108.2041441  80.5589671  36.5394225 107.2972897  80.2622784  36.6156939
 108.4817422  80.2619489  35.6728512  99.1219382  81.8796034  46.9893272
  98.8022166  81.0261343  46.6967646  98.5752810  82.0944613  47.7451239
 102.8999289  84.5958475  50.7062778 103.1185299  85.5275583  50.7250812
 103.3125063  84.2366450  51.4917582 109.8203507  75.1026561  42.6938467
 109.0104236  74.7573646  43.0693713 110.5087924  74.7934105  43.2826078
 111.7494055  74.1804608  44.3162763 112.3025094  74.6000061  44.9752786
 111.9864142  73.2540356  44.3585719 107.7727155  80.1691681  60.0965527
 107.6723882  81.1186038  60.0277618 107.5548697  79.8409920  59.2241597
 106.9740226  77.4176606  36.6806205 107.8359390  77.7431505  36.9402022
 107.1590570  76.6308102  36.1679270  98.9907642  85.4998946  48.9586393
  98.2971113  85.0852899  48.4456348  99.7380633  85.5419482  48.3619812
 115.1272863  76.2905133  43.8241428 114.5471532  76.9489937  43.4419480
 114.8608795  75.4682477  43.4128845 113.5776429  75.6910190  46.0262748
 114.0776207  75.8026725  45.2177067 114.2212037  75.3871243  46.6663556
 107.6358425  83.5988820  58.9130589 107.1525506  84.3989180  59.1194478
 107.7219364  83.6096765  57.9598033 100.9044384  85.4317200  46.8352408
 100.8815072  85.5304887  45.8834291 101.2145021  86.2782351  47.1569574
 103.5631762  87.4893355  50.9499023 104.5175016  87.4577297  50.8828954
 103.3644286  87.0283979  51.7649249 104.1531144  86.0594471  53.5169820
 104.9724033  86.5538549  53.5404658 104.4267952  85.1426439  53.4887388
 113.9097741  78.4505223  42.8797776 113.0223596  78.7354874  42.6617971
 114.3251730  78.2898986  42.0325053 117.2612277  78.4751744  46.5952115
 118.0372667  78.9648197  46.8676732 116.5360411  78.9009798  47.0523985
 119.6984835  79.1879363  47.6526056 120.2929326  78.9475099  46.9419364
 119.7711419  78.4686494  48.2799592 101.9181991  93.0312974  47.9669220
 101.7836459  92.2713375  47.4007219 101.5014053  93.7553874  47.4998009
 113.0540954  88.2149898  36.9745796 113.7576804  88.4199900  37.5903451
 112.3303603  88.7826660  37.2394879 113.8838764  83.9659759  43.0948066
 113.8273966  84.4228310  42.2555698 114.4367107  83.2050444  42.9170909
 117.6943570  79.7549491  43.9198185 117.4380504  79.3546127  44.7506393
 117.0696438  80.4693285  43.7948325 105.0751117  93.9282291  48.1787663
 104.9583501  94.8727724  48.0766353 104.2543563  93.6255853  48.5673462
 114.9627651  88.6532427  39.0244256 115.7973255  88.2213625  38.8421731
 114.8011994  88.4814441  39.9521150 114.6173544  85.1564540  40.3900595
 114.5622347  84.9908812  39.4489039 113.9919599  85.8640573  40.5462785
  99.4066059  80.3932605  54.2162017 100.0524922  79.8831559  54.7049243
  99.1983210  81.1301286  54.7905443 111.9319451  87.4613452  59.7154158
 112.8010610  87.6354104  59.3540793 111.4526202  88.2807869  59.5929887
 107.9269669  74.6572649  39.9685914 107.9148339  75.6014489  40.1254184
 108.8193091  74.4742795  39.6745375 106.1005631  94.5810553  51.3943592
 107.0032878  94.6134163  51.7110087 105.8743001  93.6511004  51.4089927
 107.8559233  93.3341540  48.0553670 106.9054864  93.3343401  47.9418042
 108.1591719  92.5874274  47.5389705 111.7421789  71.2515426  44.2231850
 110.9754184  70.6973913  44.3688533 112.1532494  71.3237295  45.0846002
 103.7463550  77.5400222  58.3137032 104.6095011  77.1837027  58.5240356
 103.1728960  77.2014117  59.0012436 120.4001633  99.1229506  49.0560957
 120.0620144  99.0070571  48.1681492 121.2691401  98.7220671  49.0361963
 116.2588449 100.9764983  45.0457848 115.6953314 100.8854920  44.2774136
 116.1440844 100.1564887  45.5260341 120.8821416 100.2764358  55.0147163
 120.8710057  99.8817156  54.1427666 121.0442055  99.5430431  55.6080934
 113.8052880 102.4716174  47.8842069 114.5974172 102.1306999  47.4688368
 114.0449531 102.5811149  48.8044222 115.7643634 101.7325087  40.7559447
 116.5374510 101.1854075  40.6172323 116.1169033 102.5969337  40.9673909
 117.6028677 103.0601470  53.9626347 117.3118543 103.9647101  53.8473013
 118.2385661 103.1017997  54.6770416 118.5284884 100.4378318  50.5527706
 119.1248456 100.2134341  49.8384669 118.5859855  99.6963064  51.1553154
 118.1009912  97.8917754  38.3877897 118.3535433  97.3699275  37.6261360
 117.1634471  97.7283899  38.4904581 117.8206201  99.7945860  40.5902272
 117.7042459  99.1190763  41.2583357 117.9308461  99.3078233  39.7734425
 120.1637742  99.2556007  44.2948962 119.7995949  98.7286628  45.0061883
 121.0204858  98.8654476  44.1215447 119.8043229  94.2845906  39.2910310
 119.9717631  95.1526143  39.6580781 119.6140398  94.4473188  38.3671599
 116.0131044  99.1976682  46.9912845 115.0881540  99.0652896  47.1990537
 116.2615457  99.9770901  47.4882787 119.7832450  96.7403564  40.2756977
 119.6632075  97.1860615  41.1142457 119.0885038  97.0888882  39.7170515
 113.3739855  98.8409956  47.8256634 113.5032236  99.0944435  48.7396046
 112.6937306  99.4337664  47.5061289 120.0356572  96.6835071  56.5808475
 119.2589906  97.2428991  56.5711340 120.6747135  97.1691854  57.1023345
 118.2902944  99.4920524  56.1426442 119.0317628 100.0305568  55.8661266
 117.5839929 100.1186813  56.2997994 120.1189354  96.5722272  52.1132161
 120.9650549  96.9961685  52.2566810 120.0587991  95.9155896  52.8070724
 119.6415060 101.9325264  45.7600978 120.1053406 102.2112967  44.9705600
 119.3771858 101.0308708  45.5774068 116.5339141 101.4796745  48.6980741
 117.1040498 101.9084013  48.0598225 117.1247253 101.1979330  49.3964926
 118.5783946  98.0548416  42.5690543 119.2807989  98.5069460  43.0364469
 118.2464575  97.4132235  43.1970436 117.0264308  96.6460173  56.9441752
 116.3962968  97.3276453  57.1777149 116.9200396  96.5343254  55.9994890
 112.3209280  96.3131969  47.8707676 111.5308334  96.5689497  47.3947787
 112.8120527  97.1280306  47.9759717 114.2724025  96.6776548  44.8291153
 113.4755189  96.7895242  45.3474649 114.0449618  97.0163200  43.9632043
 120.1029693 103.2021251  52.7773668 120.1674126 103.6641658  53.6131839
 119.3940617 102.5718616  52.9055977 110.6046983  96.5662459  50.3022667
 110.8555021  97.4509469  50.5680243 111.1406531  96.3867061  49.5297759
 116.3045050  90.9480938  59.3067003 115.9111996  90.3947137  59.9814647
 117.1211191  91.2591517  59.6973521 113.2707108 102.3864797  43.2180573
 113.7831629 103.1808047  43.3686138 113.9229821 101.6891087  43.1514174
 115.0801993 105.5030553  45.3003326 115.2568621 106.4248518  45.1124310
 115.8758826 105.1888972  45.7297706 119.2213011  92.3638817  56.8987260
 119.9622725  92.9645971  56.8191722 119.4530934  91.6216455  56.3405302
 114.3654349  97.5495185  55.1765489 114.2507865  96.6480442  55.4772588
 113.5098867  97.7958882  54.8250306 116.2033308 107.0208727  51.3013668
 116.7540733 106.8925790  50.5290662 115.3644784 107.3203616  50.9508561
 120.0000479 103.2859854  55.6457900 120.5328816 102.5248143  55.4157208
 119.4714560 102.9933506  56.3882054 111.2356025 100.7153451  43.9940144
 112.0731247 101.1250459  43.7773851 111.4134293  99.7752893  43.9640337
 120.7167568  93.2278232  44.7409215 119.8609164  92.8385083  44.5614854
 121.1294520  93.3070193  43.8809000 118.4909601  90.8463305  48.1466956
 119.3562597  90.6506114  47.7872846 118.5587109  90.6173657  49.0736313
 121.3653192 102.4145847  43.1576712 120.8374554 101.6798607  42.8449949
 120.8640695 103.1920523  42.9116680 116.0971920  93.0765513  45.5183323
 116.6715672  92.8540695  44.7856516 116.6842902  93.1454208  46.2711924
 116.4241507  95.1069974  39.5379208 115.5878819  95.4444661  39.8588483
 116.2846276  94.9718954  38.6006345 118.3994587  89.9506762  44.2458393
 117.7459000  89.6355779  43.6215007 118.3575062  89.3282503  44.9718216
 119.5105792 100.2326057  36.1611685 118.6032854 100.0015311  36.3602834
 120.0076824  99.4363676  36.3485666 120.6894026 100.3338652  40.6835675
 119.7805245 100.0497685  40.7808145 120.7189109 100.7537731  39.8238982
 111.2582196  98.0544166  44.6650877 111.0606596  97.4613527  43.9401944
 110.7028860  97.7496376  45.3826816 119.2378920  97.9467273  46.7845470
 119.2927529  96.9941109  46.7087947 118.4270122  98.1026712  47.2686769
 120.3870113 101.8747396  38.0223753 119.9489543 101.1583255  37.5629391
 121.1280554 102.1023511  37.4608845 117.1771280  96.5644332  44.5435849
 116.3639145  96.8638503  44.9501041 117.6730274  96.1700021  45.2610331
 116.6685354  94.1362688  50.1597084 117.3084734  93.9951447  49.4620047
 115.8362885  93.8497201  49.7835686 117.4445658 103.4365118  46.2732076
 118.2386257 102.9415439  46.0714651 116.7337351 102.9082982  45.9099782
 113.7528422  97.5808200  42.3491829 112.8226010  97.5192656  42.5661791
 113.8485894  97.0584153  41.5528470 113.6713971  94.1063013  44.9370071
 113.9320788  95.0208346  44.8279231 114.4931143  93.6387456  45.0866684
 115.1438896  95.5200770  52.1068895 115.8161950  95.3118132  51.4581544
 114.3168683  95.3222856  51.6674128 120.0216934 104.0094140  49.9529913
 119.8828020 103.6412925  50.8255852 119.2331531 104.5241780  49.7813871
 121.5722149 103.3875743  47.3418751 121.2371982 103.3476513  48.2376401
 121.0726095 102.7220459  46.8689161 115.5466393  98.7943373  52.8671332
 115.4086191  98.0623612  53.4682871 116.4571317  98.7052273  52.5855520
 118.1748694  98.5063332  52.3555012 118.8848313  97.8656525  52.3141630
 118.1318002  98.7576227  53.2781193 116.8877628  95.4928550  54.1750652
 116.3514985  95.0419289  54.8272248 116.2994337  95.6274459  53.4321116
 116.2979887  94.9517202  36.7377115 115.4209353  94.8306002  36.3739362
 116.7737640  94.1603280  36.4856004 107.8182027  99.7394361  46.8318622
 108.5053067  99.4256091  46.2439638 107.6630156 100.6435726  46.5585874
 112.6216749  94.6284558  51.2603646 112.5374938  94.0210228  50.5254056
 111.7999456  95.1193576  51.2613142 119.3775432  95.2555505  46.3545526
 119.0073219  94.7026545  47.0426431 119.8734524  94.6513638  45.8020526
 117.2064630 105.7153000  53.4500544 117.9074090 106.3489483  53.6029938
 116.7359745 106.0567731  52.6896183 112.8032349 105.2489355  50.3831646
 113.3885785 104.5033042  50.5159551 112.6057187 105.5593311  51.2668310
 107.3950003  97.8194955  49.1036089 107.4334103  97.2858545  49.8973208
 106.8890296  97.2930160  48.4847067 114.7740766  92.6659495  52.5998632
 114.8382092  93.5274326  52.1876029 114.7107886  92.0533497  51.8670990
 114.2493038  94.7382628  56.2471666 114.8765077  94.3559705  56.8609190
 113.3920957  94.5196830  56.6127359 111.0258581  96.5459057  42.1790021
 111.3212022  95.6369735  42.1257075 110.1246617  96.5246796  41.8571023
 114.5552828  94.6215054  48.1617569 113.8339414  95.2351021  48.0225043
 115.3446084  95.1572818  48.0834215 117.3579141  91.9569480  54.4358221
 117.8813543  92.2031777  55.1984531 117.1391475  92.7889515  54.0161359
 112.7546422  94.2273155  42.3029346 112.4259129  93.3470534  42.1204452
 113.1085793  94.1720823  43.1905735 115.8688246  94.5146124  42.6704824
 116.2084318  95.0432046  41.9483432 116.3160366  94.8526531  43.4463390
 118.5631686  92.8983175  52.1207892 118.2228507  92.0990988  52.5228572
 117.8570693  93.1984886  51.5484725 119.2148158  89.9832488  50.5735215
 120.0374228  89.5092966  50.4514105 119.4586222  90.7622971  51.0733901
 117.8556393  93.0120746  40.8698116 118.5764755  93.3901999  40.3661833
 117.2321697  93.7309623  40.9733094 116.7386737  96.6751608  48.3827193
 116.5931318  96.9891911  49.2751475 116.2611941  97.2936509  47.8298092
 118.5983120  93.6654156  48.4308083 118.5844689  92.7695249  48.0940381
 119.3155548  93.6724820  49.0646369 120.4509251  94.0991496  50.4761210
 120.1927028  95.0208567  50.4745541 119.9194291  93.7021931  51.1661674
 111.2132399  99.2156953  51.3214855 110.6685867  99.9916761  51.4535129
 112.0911749  99.5627757  51.1633976 118.0020016  92.5468536  43.6995653
 118.1235927  91.6185183  43.8986541 117.7122058  92.5607222  42.7873968
 120.8711206  90.2323447  46.8362373 120.8932903  90.2962780  45.8814352
 121.2879265  89.3927956  47.0302879 111.9998421  98.3426849  54.2145011
 111.2580157  98.4909484  54.8009642 111.6791165  98.6035114  53.3511761
 112.4455035 106.2292278  46.2455406 113.2713055 105.9296049  45.8654050
 112.0949087 105.4599900  46.6945195 117.4136568 105.5818746  48.3153080
 116.7916577 104.9189451  48.0155308 118.0841435 105.6079878  47.6326727
 110.6463640 104.1478604  47.2044340 109.8095548 103.7200778  47.0228341
 110.6187285 104.3411047  48.1415131 117.4861095  94.0600534  57.9085586
 117.5349251  94.9362657  57.5263355 118.0283610  93.5177927  57.3357229
 116.9750075 104.1322669  41.7911540 117.1238195 104.8158134  41.1378213
 117.7816518 104.1127759  42.3060996 119.7160384  94.8131906  54.6631944
 118.8463693  95.1065472  54.3914533 119.9519864  95.3972351  55.3839208
 114.7302708 100.1587847  42.7972609 114.4848750  99.2550177  42.9952819
 114.8998622 100.1604997  41.8552087 113.9998355  95.8916204  40.2958771
 113.3067600  95.9660559  39.6398807 113.7550107  95.1276548  40.8180287
 119.0435196  95.8881589  36.5394225 118.1366651  95.5914701  36.6156939
 119.3211177  95.5911407  35.6728512 109.9613136  97.2087952  46.9893272
 109.6415921  96.3553260  46.6967646 109.4146565  97.4236530  47.7451239
 113.7393044  99.9250393  50.7062778 113.9579054 100.8567501  50.7250812
 114.1518818  99.5658368  51.4917582 120.6597262  90.4318478  42.6938467
 119.8497990  90.0865563  43.0693713 121.3481679  90.1226022  43.2826078
 118.6120909  95.4983599  60.0965527 118.5117636  96.4477956  60.0277618
 118.3942451  95.1701838  59.2241597 117.8133981  92.7468524  36.6806205
 118.6753145  93.0723422  36.9402022 117.9984325  91.9600020  36.1679270
 109.8301396 100.8290864  48.9586393 109.1364868 100.4144816  48.4456348
 110.5774387 100.8711400  48.3619812 118.4752179  98.9280738  58.9130589
 117.9919261  99.7281098  59.1194478 118.5613118  98.9388683  57.9598033
 111.7438139 100.7609117  46.8352408 111.7208827 100.8596805  45.8834291
 112.0538775 101.6074268  47.1569574 114.4025517 102.8185272  50.9499023
 115.3568770 102.7869215  50.8828954 114.2038040 102.3575896  51.7649249
 114.9924899 101.3886388  53.5169820 115.8117788 101.8830467  53.5404658
 115.2661707 100.4718357  53.4887388 112.7575746 108.3604892  47.9669220
 112.6230213 107.6005293  47.4007219 112.3407808 109.0845792  47.4998009
 110.2459813  95.7224522  54.2162017 110.8918677  95.2123476  54.7049243
 110.0376964  96.4593204  54.7905443 118.7663424  89.9864567  39.9685914
 118.7542093  90.9306407  40.1254184 119.6586845  89.8034712  39.6745375
 114.5857304  92.8692139  58.3137032 115.4488766  92.5128944  58.5240356
 114.0122715  92.5306034  59.0012436  52.5076816  -5.4582178  30.6492415
  52.4300846  -4.5074353  30.7280895  51.9038460  -5.8036305  31.3067341
  50.1463646  -2.7096784  34.7940617  50.3860244  -2.0778260  35.4719635
  49.3032842  -3.0608744  35.0805976  50.6208478  -6.6848781  32.1239395
  49.9518853  -6.2002654  31.6403435  50.4821348  -6.4379561  33.0382774
  54.7613747  -4.6505038  38.7222054  55.3132055  -4.4873416  39.4871139
  55.1019940  -4.0600600  38.0502079  47.7213220  -6.6084492  34.6914527
  47.5867688  -7.3684091  34.1252525  47.3045282  -5.8843592  34.2243316
  50.8782346  -5.7115175  34.9032970  50.7614730  -4.7669742  34.8011660
  50.0574792  -6.0141613  35.2918769  51.9036860  -5.0586913  38.1188898
  52.8064107  -5.0263302  38.4355393  51.6774230  -5.9886462  38.1335234
  66.2032862  -0.5167960  35.7806264  65.8651373  -0.6326895  34.8926799
  67.0722630  -0.9176794  35.7607270  62.0619677   1.3367517  31.7703155
  61.4984542   1.2457454  31.0019443  61.9472072   0.5167421  32.2505647
  66.6852645   0.6366892  41.7392469  66.6741285   0.2419690  40.8672973
  66.8473284  -0.0967035  42.3326241  59.6084109   2.8318708  34.6087375
  60.4005401   2.4909533  34.1933675  59.8480759   2.9413683  35.5289529
  67.6419236   5.0038485  27.0817620  66.9907216   5.5892565  26.6951634
  68.4363599   5.5344679  27.1412657  61.5674863   2.0927622  27.4804754
  62.3405739   1.5456609  27.3417630  61.9200262   2.9571871  27.6919216
  63.4059906   3.4204004  40.6871653  63.1149772   4.3249635  40.5718320
  64.0416890   3.4620532  41.4015723  64.3316113   0.7980852  37.2773013
  64.9279685   0.5736875  36.5629976  64.3891084   0.0565598  37.8798461
  69.1194501   2.6928916  27.6186604  68.4840334   2.7663543  28.3307509
  68.7891908   3.2822515  26.9405683  63.6237430   0.1548394  27.3147579
  63.5073688  -0.5206703  27.9828663  63.7339690  -0.3319232  26.4979732
  65.9668971  -0.3841459  31.0194268  65.6027178  -0.9110838  31.7307190
  66.8236087  -0.7742990  30.8460754  68.3649791   3.1065419  37.6821447
  68.0650514   4.0090458  37.5737254  68.0200850   2.8397603  38.5342600
  61.8162272  -0.4420784  33.7158152  60.8912769  -0.5744570  33.9235843
  62.0646686   0.3373436  34.2128094  59.1771083  -0.7987510  34.5501941
  59.3063465  -0.5453031  35.4641352  58.4968535  -0.2059802  34.2306596
  63.3470571   9.8709740  30.6492415  63.2694600  10.8217565  30.7280895
  62.7432214   9.5255612  31.3067341  64.0934173  -0.1476941  42.8671749
  64.8348857   0.3908103  42.5906572  63.3871158   0.4789347  43.0243300
  69.5689512   1.9952199  41.4643910  69.9772868   1.5534610  40.7198543
  68.8466774   1.4204827  41.7178103  69.8918327   2.5553390  35.2196199
  69.2627189   2.7199104  34.5172267  69.5043989   2.9694999  35.9907163
  73.7707559   3.4907828  32.5740563  73.0858597   3.8706729  32.0237596
  73.8551408   4.1003154  33.3072511  71.0258491   1.1367787  39.1735906
  71.2375386   1.7799546  38.4970287  70.9788239   0.3030103  38.7057836
  65.4446289   2.2927798  32.4846284  65.9084634   2.5715501  31.6950907
  65.1803087   1.3911242  32.3019375  62.3370370   1.8399279  35.4226047
  62.9071727   2.2686548  34.7843532  62.9278482   1.5581864  36.1210233
  58.1240509  -3.3265497  34.5952983  57.3339563  -3.0707969  34.1193093
  58.6151756  -2.5117159  34.7005023  72.1404318   4.0139742  37.3458264
  72.9621762   3.6119929  37.0640945  72.1366721   3.9107976  38.2974379
  60.0755254  -2.9620918  31.5536460  59.2786418  -2.8502224  32.0719955
  59.8480846  -2.6234266  30.6877350  65.9060922   3.5623785  39.5018974
  65.9705354   4.0244193  40.3377146  65.1971846   2.9321150  39.6301284
  56.4078212  -3.0735007  37.0267974  56.6586250  -2.1887997  37.2925550
  56.9437760  -3.2530405  36.2543065  65.6208940   5.2291893  29.3697955
  65.4854614   6.0743428  29.7982802  66.1618752   5.4311170  28.6063888
  59.0738337   2.7467331  29.9425880  59.5862858   3.5410581  30.0931444
  59.7261050   2.0493621  29.8759481  60.8833222   5.8633087  32.0248633
  61.0599850   6.7851052  31.8369617  61.6790055   5.5491506  32.4543013
  60.1685578  -2.0902281  41.9010796  60.0539093  -2.9917024  42.2017895
  59.3130096  -1.8438584  41.5495613  67.2477416   5.8515459  43.4998297
  66.8041270   5.0651838  43.1819201  67.9094630   6.0394610  42.8342187
  62.0064537   7.3811261  38.0258975  62.5571962   7.2528324  37.2535969
  61.1676013   7.6806150  37.6753868  69.3458654   6.1318259  41.5279698
  69.3277129   6.9527140  41.0359967  70.2678574   6.0072334  41.7529839
  65.8031708   3.6462389  42.3703206  66.3360045   2.8850677  42.1402514
  65.2745789   3.3536041  43.1127361  57.0387254   1.0755985  30.7185450
  57.8762476   1.4852993  30.5019158  57.2165521   0.1355427  30.6885644
  67.1684421   2.7748381  29.8822018  66.6405782   2.0401141  29.5695256
  66.6671924   3.5523058  29.6361987  72.1477267   0.9697402  34.9989065
  71.4900941   1.6596663  35.0869193  72.9517666   1.3593834  35.3423051
  65.3137021   0.5928591  22.8856991  64.4064083   0.3617845  23.0848140
  65.8108053  -0.2033789  23.0730973  68.2205100   9.3026099  25.8053677
  67.5466799   9.6057795  26.4138635  68.6070922  10.1055179  25.4559135
  66.4925254   0.6941186  27.4080981  65.5836474   0.4100219  27.5053451
  66.5220338   1.1140265  26.5484288  71.7244522   4.3047776  31.1772149
  71.2706849   3.4638686  31.2337339  71.0938489   4.9409174  31.5146929
  70.1677461   6.1424272  32.1121967  70.4600436   6.7029330  31.3934333
  70.6776082   6.4352833  32.8675126  57.0613425  -1.5853300  31.3896184
  56.8637825  -2.1783939  30.6647250  56.5060089  -1.8901089  32.1072122
  66.1901342   2.2349930  24.7469060  65.7520772   1.5185789  24.2874697
  66.9311783   2.4626045  24.1854151  65.1311086   6.9204624  33.2015420
  65.0887265   7.1465470  32.2723952  66.0473785   6.6867998  33.3501221
  74.3343837   2.5783654  35.8156650  74.7680343   2.4858943  36.6639704
  75.0475417   2.5541154  35.1776666  63.2476887   3.7967653  32.9977383
  64.0417486   3.3017973  32.7959958  62.5368579   3.2685516  32.6345089
  68.0671732   6.1785748  37.3489751  68.1208754   6.7476684  38.1167467
  67.1986513   6.3487633  36.9843788  59.5559651  -2.0589266  29.0737136
  58.6257239  -2.1204810  29.2907098  59.6517123  -2.5813313  28.2773777
  75.1959386   2.6207355  38.3489535  75.3895276   3.5253165  38.5948810
  75.0960004   2.1614774  39.1828120  70.2574495   2.7714097  43.9230416
  70.1060001   2.5424649  43.0060500  70.2479174   3.7284699  43.9361761
  67.0259831   0.3446010  38.9076682  67.9551891   0.4957170  38.7345650
  66.6050861   0.4330031  38.0525329  65.8248163   4.3696675  36.6775220
  65.6859249   4.0015459  37.5501158  65.0362759   4.8844314  36.5059178
  66.4196315   9.4705771  28.0200757  66.5948071   8.9993814  28.8346379
  65.7329103  10.0971537  28.2482017  67.3753378   3.7478277  34.0664058
  67.0403211   3.7079047  34.9621708  66.8757324   3.0822993  33.5934468
  61.3497622  -0.8454093  39.5916639  61.2117420  -1.5773854  40.1928178
  62.2602546  -0.9345193  39.3100827  70.3112570   1.0934312  24.3401118
  69.6941741   0.3681140  24.2434170  69.8429058   1.8543672  23.9968192
  63.9779923  -1.1334133  39.0800319  64.6879541  -1.7740941  39.0386937
  63.9349231  -0.8821239  40.0026499  71.9666702   5.8033220  42.0006898
  71.9079248   5.1192440  41.3337481  72.3686220   6.5452210  41.5487524
  60.9857400  12.6195134  34.7940617  61.2253999  13.2513658  35.4719635
  60.1426597  12.2683174  35.0805976  71.9684109   3.7672804  40.2320878
  71.0810888   3.4298726  40.3547276  72.5382660   3.0355835  40.4689643
  53.6213256   0.0996896  33.5563929  54.3084296  -0.2141374  32.9684944
  53.4661385   1.0038260  33.2831180  65.4985262   8.4274256  37.1982121
  65.4255434   9.2329228  37.7101425  65.0562655   8.6266222  36.3730142
  65.2875042   7.6646026  30.7084942  64.5042564   8.2067706  30.8023167
  65.9867787   8.1820006  31.1079184  67.9583946   8.3261090  39.3540279
  68.6711918   8.9608555  39.2816181  67.4673974   8.4224956  38.5380281
  69.6801473   2.2312343  30.9257571  68.7457751   2.3513805  30.7562275
  69.8578141   1.3284810  30.6617581  63.0095859   6.0755534  40.1745850
  63.7105319   6.7092017  40.3275244  62.5390974   6.4170265  39.4141490
  71.1350255   4.4173484  28.4593757  71.4110099   4.3030078  29.3687631
  70.2654754   4.0190968  28.4205930  67.7704319   8.6659834  32.1026571
  67.9526714   7.8481490  32.5654323  68.5937305   8.8827527  31.6651461
  68.1046485   7.5928020  29.3641619  68.6334251   7.0820474  28.7511782
  68.3674704   7.2770550  30.2287152  66.8584718  -0.6280048  44.4864438
  66.1825355  -0.7285918  45.1566813  67.6812352  -0.7840834  44.9500435
  58.6063577   5.6091889  37.1076953  59.1917014   4.8635577  37.2404857
  58.4088416   5.9195846  37.9913617  61.4602233   8.6443136  32.1239395
  60.7912608   9.1289264  31.6403435  61.3215102   8.8912357  33.0382774
  53.1981232  -1.8202511  35.8281396  53.2365332  -2.3538920  36.6218514
  52.6921525  -2.3467305  35.2092373  65.6007501  10.6786880  38.7222054
  66.1525809  10.8418501  39.4871139  65.9413695  11.2691318  38.0502079
  70.4518375   5.5048137  44.5770708  70.9958279   6.1178095  44.0825663
  69.8705220   6.0627716  45.0937721  56.8289810  -3.0938409  28.9035327
  57.1243251  -4.0027730  28.8502381  55.9277845  -3.1150669  28.5816330
  68.7375888   8.6268855  35.7085736  68.6127028   7.8258595  35.1996681
  69.3954980   9.1215049  35.2199706  70.8010797   6.4277875  37.3365286
  69.8541132   6.3083227  37.2643613  71.1493570   5.5400373  37.4191547
  67.8057230   6.2230592  33.5369638  67.6582193   5.2947299  33.7177208
  68.6310724   6.2450682  33.0526713  71.4091352   7.0459150  34.6234511
  72.3337899   6.8402012  34.4858962  71.2406655   6.7975551  35.5323852
  71.1986668   7.5644818  29.9796602  71.3723546   6.9991240  29.2270455
  71.6915559   8.3645713  29.7976092  57.0163628  -0.4240513  38.0460161
  56.4717096   0.3519295  38.1780436  57.8942978  -0.0769709  37.8879283
  72.1861841   6.8811582  27.0793501  72.8812745   7.5018275  27.2980815
  72.5284991   6.0306933  27.3545879  57.8029650  -1.2970617  40.9390318
  57.0611386  -1.1487982  41.5254948  57.4822394  -1.0362351  40.0757067
  74.0853264   4.3311288  28.6080831  74.6104588   4.6698560  27.8830151
  73.9975616   3.3958303  28.4243966  65.7473312   8.2445361  40.7370708
  66.0560439   7.9994508  41.6093408  66.5448794   8.4492000  40.2489578
  65.7693925  10.3983271  32.9676085  65.3298915   9.9059650  33.6608941
  66.5202041   9.8556239  32.7268160  58.2486264   6.5894812  32.9700713
  59.0744283   6.2898584  32.5899356  57.8980315   5.8202434  33.4190501
  63.2167797   5.9421280  35.0398386  62.5947806   5.2791985  34.7400614
  63.8872664   5.9682412  34.3572034  56.4494869   4.5081138  33.9289646
  55.6126777   4.0803313  33.7473648  56.4218514   4.7013582  34.8660437
  73.7747170   4.9644191  43.9132029  72.9842714   4.9468330  43.3736529
  73.5380524   5.5032485  44.6681066  62.7781304   4.4925203  28.5156847
  62.9269424   5.1760668  27.8623520  63.5847747   4.4730293  29.0306303
  75.3963242   4.2333599  41.4706779  75.1048050   4.5963580  42.3070240
  74.7835373   3.5200607  41.2920112  60.5333937   0.5190381  29.5217916
  60.2879978  -0.3847289  29.7198126  60.7029851   0.5207531  28.5797394
  66.2776709   6.9873334  25.9868594  65.7050676   7.6063521  25.5339066
  66.8509503   7.5372695  26.5208516  69.4973969   7.2710484  27.1177177
  70.4304642   7.2056046  27.3210052  69.4097182   8.1066751  26.6591709
  72.1261986   6.5876354  24.0781124  72.0475617   6.2536218  24.9716882
  72.9471652   7.0798122  24.0772596  66.5462200   2.3751893  44.7885304
  67.4665210   2.5530492  44.9825350  66.5111783   1.4307938  44.6365003
  55.7644365  -2.4309514  33.7138578  55.4447149  -3.2844205  33.4212952
  55.2177793  -2.2160935  34.4696546  59.5424273   0.2852927  37.4308085
  59.7610282   1.2170035  37.4496119  59.9550047  -0.0739098  38.2162889
  55.6332625   1.1893398  35.6831700  54.9396097   0.7747351  35.1701654
  56.3805616   1.2313934  35.0865119  64.2783408  -0.7116728  45.6375895
  63.7950490   0.0883632  45.8439785  64.3644347  -0.7008783  44.6843339
  57.5469368   1.1211652  33.5597715  57.5240056   1.2199339  32.6079598
  57.8570004   1.9676802  33.8814881  60.2056746   3.1787807  37.6744329
  61.1599999   3.1471749  37.6074261  60.0069269   2.7178430  38.4894555
  60.7956128   1.7488923  40.2415127  61.6149017   2.2433001  40.2649964
  61.0692935   0.8320891  40.2132694  58.5606974   8.7207426  34.6914527
  58.4261442   7.9607827  34.1252525  58.1439037   9.4448326  34.2243316
  69.6965937   3.9044350  23.6991102  70.4001787   4.1094352  24.3148758
  68.9728586   4.4721112  23.9640186  61.7176100   9.6176743  34.9032970
  61.6008484  10.5622176  34.8011660  60.8968546   9.3150305  35.2918769
  71.6052635   4.3426879  25.7489562  72.4398239   3.9108077  25.5667037
  71.4436978   4.1708893  26.6766457  71.2598527   0.8458992  27.1145902
  71.2047331   0.6803264  26.1734346  70.6344582   1.5535025  27.2708091
  56.0491042  -3.9172943  40.9407324  56.6949906  -4.4273989  41.4294549
  55.8408193  -3.1804262  41.5150749  68.5744434   3.1507904  46.4399465
  69.4435594   3.3248556  46.0786099  68.0951186   3.9702321  46.3175194
  62.7430614  10.2705005  38.1188898  63.6457861  10.3028615  38.4355393
  62.5167984   9.3405456  38.1335234  64.4984216   9.0235992  34.7798977
  63.5479847   9.0237853  34.6663349  64.8016702   8.2768726  34.2635011
  80.2336910  14.8596530  35.8444739  80.8715320  14.7403277  35.1408079
  80.1157753  15.8077374  35.9032691  77.0426616  14.8123958  35.7806264
  76.7045128  14.6965023  34.8926799  77.9116384  14.4115123  35.7607270
  72.9013432  16.6659435  31.7703155  72.3378297  16.5749371  31.0019443
  72.7865827  15.8459339  32.2505647  77.5246399  15.9658810  41.7392469
  77.5135040  15.5711608  40.8672973  77.6867039  15.2324882  42.3326241
  70.4477864  18.1610626  34.6087375  71.2399156  17.8201451  34.1933675
  70.6874514  18.2705601  35.5289529  78.4812991  20.3330402  27.0817620
  77.8300970  20.9184483  26.6951634  79.2757353  20.8636597  27.1412657
  72.4068618  17.4219539  27.4804754  73.1799494  16.8748526  27.3417630
  72.7594017  18.2863789  27.6919216  74.2453660  18.7495922  40.6871653
  73.9543526  19.6541552  40.5718320  74.8810645  18.7912449  41.4015723
  75.1709867  16.1272770  37.2773013  75.7673439  15.9028793  36.5629976
  75.2284839  15.3857516  37.8798461  74.7434896  13.5812205  25.1123204
  74.9960416  13.0593727  24.3506667  73.8059455  13.4178351  25.2149888
  79.7878178  12.5847984  32.9197947  80.5741268  12.1667407  32.5688364
  80.0516883  13.4894076  33.0879596  79.9588256  18.0220834  27.6186604
  79.3234089  18.0955461  28.3307509  79.6285662  18.6114433  26.9405683
  85.1886605  12.5223217  33.8230926  85.9211777  11.9522434  34.0568755
  84.4325961  12.1344817  34.2637431  74.4631184  15.4840311  27.3147579
  74.3467442  14.8085215  27.9828663  74.5733444  14.9972685  26.4979732
  76.8062725  14.9450459  31.0194268  76.4420932  14.4181080  31.7307190
  77.6629841  14.5548928  30.8460754  82.7112026   6.2344791  38.2825534
  82.3795351   7.1040202  38.0586749  82.1157639   5.9181075  38.9619565
  76.4468212   9.9740358  26.0155617  76.6142615  10.8420595  26.3826088
  76.2565381  10.1367640  25.0916906  79.2043545  18.4357337  37.6821447
  78.9044268  19.3382376  37.5737254  78.8594605  18.1689520  38.5342600
  72.6556027  14.8871134  33.7158152  71.7306523  14.7547348  33.9235843
  72.9040440  15.6665353  34.2128094  82.6040689  10.9539877  35.3618884
  81.6957566  10.8855286  35.0677645  82.5528285  11.4311822  36.1900710
  76.4257433  12.4298016  27.0002284  76.3057058  12.8755067  27.8387764
  75.7310021  12.7783333  26.4415822  70.0164838  14.5304408  34.5501941
  70.1457219  14.7838886  35.4641352  69.3362289  15.1232116  34.2306596
  74.1864325  25.2001657  30.6492415  74.1088355  26.1509483  30.7280895
  73.5825969  24.8547530  31.3067341  76.6781555  12.3729523  43.3053782
  75.9014889  12.9323443  43.2956646  77.3172118  12.8586306  43.8268652
  84.4702336   9.1556316  37.1396758  83.8276716   9.4488849  36.4936553
  83.9657264   9.0409236  37.9449955  82.1242499  12.9019489  27.8282618
  83.0360355  13.1346876  27.6530315  81.6152146  13.4856533  27.2657696
  74.9327927  15.1814976  42.8671749  75.6742612  15.7200020  42.5906572
  74.2264913  15.8081265  43.0243300  80.4083267  17.3244117  41.4643910
  80.8166623  16.8826527  40.7198543  79.6860528  16.7496744  41.7178103
  76.7614337  12.2616724  38.8377467  77.6075532  12.6856137  38.9812116
  76.7012975  11.6050348  39.5316030  80.7312082  17.8845307  35.2196199
  80.1020944  18.0491021  34.5172267  80.3437744  18.2986917  35.9907163
  84.6101313  18.8199745  32.5740563  83.9252352  19.1998647  32.0237596
  84.6945163  19.4295072  33.3072511  79.9113782   9.9221092  40.4958641
  79.6674714  10.6763152  39.9592916  80.1873713  10.3006439  41.3305888
  81.8652245  16.4659704  39.1735906  82.0769140  17.1091464  38.4970287
  81.8181993  15.6322021  38.7057836  79.4678474   9.0777525  36.0772478
  78.6062953   9.3758778  36.3689216  79.4940909   9.2947924  35.1453511
  76.2840043  17.6219715  32.4846284  76.7478389  17.9007418  31.6950907
  76.0196841  16.7203160  32.3019375  73.1764124  17.1691197  35.4226047
  73.7465482  17.5978465  34.7843532  73.7672236  16.8873782  36.1210233
  75.2208929  13.7442868  29.2935849  75.9232973  14.1963911  29.7609776
  74.8889558  13.1026687  29.9215742  73.6689291  12.3354624  43.6687059
  73.0387952  13.0170905  43.9022456  73.5625379  12.2237706  42.7240197
  68.9634263  12.0026420  34.5952983  68.1733317  12.2583949  34.1193093
  69.4545511  12.8174758  34.7005023  82.9798073  19.3431660  37.3458264
  83.8015517  18.9411847  37.0640945  82.9760476  19.2399894  38.2974379
  70.9149009  12.3671000  31.5536460  70.1180172  12.4789694  32.0719955
  70.6874601  12.7057652  30.6877350  76.7454676  18.8915703  39.5018974
  76.8099109  19.3536110  40.3377146  76.0365600  18.2613068  39.6301284
  67.2471966  12.2556911  37.0267974  67.4980005  13.1403921  37.2925550
  67.7831515  12.0761512  36.2543065  91.0704066  15.6870408  33.6943235
  90.3167774  15.1177806  33.5387240  91.2051607  15.6533073  34.6413870
  76.4602694  20.5583810  29.3697955  76.3248369  21.4035346  29.7982802
  77.0012507  20.7603088  28.6063888  72.9470034   6.6375390  46.0312310
  72.5536979   6.0841589  46.7059954  73.7636174   6.9485969  46.4218827
  69.9132091  18.0759248  29.9425880  70.4256612  18.8702499  30.0931444
  70.5654804  17.3785539  29.8759481  71.7226976  21.1925005  32.0248633
  71.8993604  22.1142969  31.8369617  72.5183810  20.8783424  32.4543013
  75.8637995   8.0533269  43.6232566  76.6047708   8.6540423  43.5437029
  76.0955918   7.3110907  43.0650609  71.0079333  13.2389637  41.9010796
  70.8932848  12.3374894  42.2017895  70.1523850  13.4853333  41.5495613
  78.0871170  21.1807377  43.4998297  77.6435025  20.3943756  43.1819201
  78.7488384  21.3686527  42.8342187  72.8458292  22.7103179  38.0258975
  73.3965717  22.5820242  37.2535969  72.0069768  23.0098068  37.6753868
  80.1852408  21.4610177  41.5279698  80.1670884  22.2819058  41.0359967
  81.1072329  21.3364252  41.7529839  76.6425463  18.9754306  42.3703206
  77.1753799  18.2142595  42.1402514  76.1139544  18.6827958  43.1127361
  79.8095158   4.0814372  37.8996848  79.4659427   4.9716014  37.8235959
  80.1774120   3.8916030  37.0366433  67.8781008  16.4047903  30.7185450
  68.7156230  16.8144911  30.5019158  68.0559276  15.4647345  30.6885644
  79.7745440  14.0722983  26.4069283  79.2592064  14.8427588  26.6457671
  79.5022749  13.3988120  27.0302345  77.3592551   8.9172684  31.4654521
  76.5034148   8.5279535  31.2860160  77.7719503   8.9964645  30.6054307
  78.8891698   6.4519027  35.8646081  78.3856494   6.4149163  35.0513887
  79.1822305   7.3611770  35.9242738  75.1334584   6.5357757  34.8712263
  75.9987581   6.3400566  34.5118152  75.2012093   6.3068109  35.7981620
  84.7479714  16.8255338  28.3422457  83.9709157  16.4866498  27.8977619
  85.4271195  16.8307961  27.6677422  79.5631744  11.9450076  28.2329064
  79.2581879  12.2596225  29.0839207  80.5162186  12.0231495  28.2756397
  78.0078175  18.1040299  29.8822018  77.4799537  17.3693058  29.5695256
  77.5065678  18.8814975  29.6361987  82.9871021  16.2989319  34.9989065
  82.3294696  16.9888581  35.0869193  83.7911421  16.6885751  35.3423051
  72.7396903   8.7659965  32.2428630  73.3140655   8.5435147  31.5101823
  73.3267885   8.8348660  32.9957231  81.7976480  14.6533692  33.0493006
  82.3108362  15.2863684  33.5514716  82.4477704  14.0534888  32.6836366
  73.0666490  10.7964426  26.2624515  72.2303802  11.1339113  26.5833790
  72.9271260  10.6613406  25.3251652  75.0419571   5.6401214  30.9703699
  74.3883983   5.3250231  30.3460314  75.0000045   5.0176954  31.6963522
  76.1530776  15.9220509  22.8856991  75.2457837  15.6909763  23.0848140
  76.6501808  15.1258128  23.0730973  79.0598854  24.6318016  25.8053677
  78.3860553  24.9349713  26.4138635  79.4464676  25.4347097  25.4559135
  78.2757311  12.1283148  35.2951347  77.3579872  12.3498095  35.1373035
  78.6917455  12.2029458  34.4363054  79.0592359  13.5274563  30.4254027
  79.8064178  14.0395960  30.1161149  79.3283948  13.2058616  31.2858421
  77.3319009  16.0233104  27.4080981  76.4230228  15.7392137  27.5053451
  77.3614093  16.4432183  26.5484288  82.5638276  19.6339693  31.1772149
  82.1100603  18.7930603  31.2337339  81.9332243  20.2701092  31.5146929
  81.5071196  10.5631680  32.4072816  80.7693953  10.0509066  32.7383059
  81.7597969  10.1232061  31.5956093  81.0071216  21.4716190  32.1121967
  81.2994190  22.0321247  31.3934333  81.5169836  21.7644751  32.8675126
  67.9007179  13.7438618  31.3896184  67.7031579  13.1507979  30.6647250
  67.3453843  13.4390828  32.1072122  75.8803903  13.6361725  33.5090777
  75.9352513  12.6835561  33.4333253  75.0695105  13.7921164  33.9932075
  77.0295097  17.5641848  24.7469060  76.5914527  16.8477707  24.2874697
  77.7705538  17.7917962  24.1854151  73.8196263  12.2538784  31.2681156
  73.0064128  12.5532955  31.6746348  74.3155257  11.8594473  31.9855638
  75.9704841  22.2496541  33.2015420  75.9281020  22.4757388  32.2723952
  76.8867540  22.0159916  33.3501221  79.4170475  12.7180609  40.0996050
  79.7719862  12.9452082  40.9590515  80.0642606  13.0498986  39.4773305
  85.1468212  15.8399045  30.8045379  85.0086110  16.0300641  29.8766568
  84.7904430  16.6018428  31.2613430  73.3110338   9.8257140  36.8842391
  73.9509717   9.6845899  36.1865354  72.4787868   9.5391653  36.5080993
  85.1737591  17.9075572  35.8156650  85.6074098  17.8150861  36.6639704
  85.8869172  17.8833072  35.1776666  74.0870642  19.1259570  32.9977383
  74.8811240  18.6309890  32.7959958  73.3762334  18.5977433  32.6345089
  78.9065486  21.5077666  37.3489751  78.9602508  22.0768602  38.1167467
  78.0380267  21.6779551  36.9843788  70.3953405  13.2702652  29.0737136
  69.4650993  13.2087107  29.2907098  70.4910877  12.7478605  28.2773777
  70.3138954   9.7957465  31.6615377  70.5745771  10.7102798  31.5524538
  71.1356126   9.3281907  31.8111990  71.7863879  11.2095222  38.8314202
  72.4586933  11.0012584  38.1826851  70.9593666  11.0117308  38.3919434
  86.0353141  17.9499272  38.3489535  86.2289031  18.8545083  38.5948810
  85.9353759  17.4906691  39.1828120  77.6889451   7.8357163  40.8479863
  77.0417367   8.5347113  40.7544339  78.4590467   8.2693307  41.2156111
  81.0968249  18.1006015  43.9230416  80.9453756  17.8716567  43.0060500
  81.0872929  19.0576617  43.9361761  77.8653586  15.6737928  38.9076682
  78.7945646  15.8249087  38.7345650  77.4444616  15.7621949  38.0525329
  76.6641918  19.6988592  36.6775220  76.5253003  19.3307377  37.5501158
  75.8756514  20.2136232  36.5059178  77.2590070  24.7997689  28.0200757
  77.4341825  24.3285732  28.8346379  76.5722858  25.4263455  28.2482017
  78.2147133  19.0770195  34.0664058  77.8796965  19.0370965  34.9621708
  77.7151078  18.4114911  33.5934468  72.1891377  14.4837825  39.5916639
  72.0511175  13.7518064  40.1928178  73.0996300  14.3946725  39.3100827
  81.1506324  16.4226229  24.3401118  80.5335495  15.6973057  24.2434170
  80.6822813  17.1835590  23.9968192  74.8173677  14.1957784  39.0800319
  75.5273296  13.5550977  39.0386937  74.7742986  14.4470679  40.0026499
  73.5302611  11.1823002  40.8995958  72.9939968  10.7313741  41.5517555
  72.9419320  11.3168911  40.1566423  71.8251155  27.9487051  34.7940617
  72.0647753  28.5805576  35.4719635  70.9820351  27.5975092  35.0805976
  72.9404870  10.6411654  23.4622422  72.0634337  10.5200454  23.0984668
  73.4162623   9.8497732  23.2101310  82.8077863  19.0964722  40.2320878
  81.9204642  18.7590643  40.3547276  83.3776414  18.3647753  40.4689643
  64.4607010  15.4288813  33.5563929  65.1478050  15.1150543  32.9684944
  64.3055139  16.3330178  33.2831180  69.2641733  10.3179010  37.9848953
  69.1799921   9.7104679  37.2499363  68.4424439  10.8088028  37.9858449
  76.3379017  23.7566174  37.1982121  76.2649188  24.5621145  37.7101425
  75.8956410  23.9558140  36.3730142  76.1268796  22.9937944  30.7084942
  75.3436318  23.5359624  30.8023167  76.8261542  23.5111924  31.1079184
  79.4365446   8.8032573  33.3519148  79.9334146   8.0502536  33.0320218
  78.6652428   8.8396890  32.7862357  87.2895204  14.5072939  34.9937439
  87.2785080  15.3897654  34.6231372  86.4212583  14.1544490  34.7991976
  78.7977700  23.6553008  39.3540279  79.5105672  24.2900473  39.2816181
  78.3067729  23.7516874  38.5380281  80.5195227  17.5604261  30.9257571
  79.5851506  17.6805723  30.7562275  80.6971896  16.6576727  30.6617581
  76.0200415  10.9449956  33.0790832  75.6498203  10.3920997  33.7671738
  76.5159508  10.3408090  32.5265832  83.9067778  13.4021580  31.4607605
  84.3728231  14.2349572  31.3867908  84.3575279  12.9366561  32.1652864
  73.8489614  21.4047451  40.1745850  74.5499073  22.0383934  40.3275244
  73.3784729  21.7462183  39.4141490  81.9744010  19.7465401  28.4593757
  82.2503854  19.6321996  29.3687631  81.1048508  19.3482886  28.4205930
  81.8784441   5.7702167  35.4998507  80.9647521   6.0006394  35.6680714
  82.3077543   5.8540611  36.3512539  81.6490900  13.9592059  37.9998401
  80.9962350  14.2067966  37.3450853  82.0271280  13.1456197  37.6660878
  78.6098074  23.9951752  32.1026571  78.7920468  23.1773408  32.5654323
  79.4331060  24.2119444  31.6651461  78.9440239  22.9219937  29.3641619
  79.4728006  22.4112392  28.7511782  79.2068459  22.6062467  30.2287152
  77.6978473  14.7011870  44.4864438  77.0219110  14.6005999  45.1566813
  78.5206107  14.5451084  44.9500435  69.4457332  20.9383806  37.1076953
  70.0310769  20.1927494  37.2404857  69.2482170  21.2487763  37.9913617
  72.2995987  23.9735054  32.1239395  71.6306362  24.4581181  31.6403435
  72.1608857  24.2204274  33.0382774  64.0374987  13.5089407  35.8281396
  64.0759086  12.9752997  36.6218514  63.5315279  12.9824612  35.2092373
  71.4165749   8.3553947  39.3243938  71.4807075   9.2168778  38.9121336
  71.3532869   7.7427949  38.5916297  70.8918021  10.4277080  42.9716973
  71.5190060  10.0454157  43.5854497  70.0345940  10.2091282  43.3372665
  67.6683564  12.2353509  28.9035327  67.9637005  11.3264187  28.8502381
  66.7671600  12.2141248  28.5816330  71.1977811  10.3109505  34.8862876
  70.4764397  10.9245473  34.7470349  71.9871067  10.8467270  34.8079522
  74.0004125   7.6463932  41.1603528  74.5238526   7.8926228  41.9229837
  73.7816458   8.4783967  40.7406665  69.3971406   9.9167606  29.0274653
  69.0684112   9.0364985  28.8449759  69.7510776   9.8615275  29.9151042
  78.6450985  21.5522509  33.5369638  78.4975947  20.6239217  33.7177208
  79.4704478  21.5742600  33.0526713  72.5113229  10.2040576  29.3950130
  72.8509301  10.7326498  28.6728739  72.9585349  10.5420982  30.1708697
  75.2056670   8.5877627  38.8453198  74.8653490   7.7885440  39.2473878
  74.4995676   8.8879338  38.2730032  75.8573142   5.6726939  37.2980521
  76.6799211   5.1987418  37.1759412  76.1011205   6.4517423  37.7979208
  74.4981376   8.7015198  27.5943423  75.2189739   9.0796451  27.0907140
  73.8746680   9.4204075  27.6978401  78.6412499   9.4060347  28.5301755
  78.8576113  10.2884985  28.2290584  78.1606566   9.0146560  27.8007397
  73.3811720  12.3646060  35.1072500  73.2356301  12.6786363  35.9996782
  72.9036924  12.9830960  34.5543399  75.2408103   9.3548608  35.1553390
  75.2269672   8.4589701  34.8185688  75.9580531   9.3619272  35.7891676
  77.0934234   9.7885948  37.2006517  76.8352012  10.7103019  37.1990847
  76.5619274   9.3916383  37.8906981  82.0380423  22.8936735  29.9796602
  82.2117300  22.3283158  29.2270455  82.5309314  23.6937630  29.7976092
  67.8557382  14.9051404  38.0460161  67.3110851  15.6811212  38.1780436
  68.7336732  15.2522209  37.8879283  74.6444999   8.2362988  30.4240960
  74.7660910   7.3079635  30.6231847  74.3547041   8.2501674  29.5119275
  77.5136189   5.9217899  33.5607680  77.5357886   5.9857232  32.6059659
  77.9304249   5.0822407  33.7548186  87.8919814  15.6573158  31.5986902
  88.3350960  14.9080484  31.2006025  87.0146324  15.6483295  31.2160634
  83.0255595  22.2103500  27.0793501  83.7206500  22.8310192  27.2980815
  83.3678745  21.3598851  27.3545879  68.6423404  14.0321301  40.9390318
  67.9005140  14.1803936  41.5254948  68.3216149  14.2929566  40.0757067
  84.9247018  19.6603205  28.6080831  85.4498342  19.9990478  27.8830151
  84.8369371  18.7250221  28.4243966  76.6087679  25.7275189  32.9676085
  76.1692669  25.2351567  33.6608941  77.3595796  25.1848156  32.7268160
  69.0880018  21.9186729  32.9700713  69.9138038  21.6190501  32.5899356
  68.7374070  21.1494352  33.4190501  74.0561551  21.2713198  35.0398386
  73.4341560  20.6083903  34.7400614  74.7266418  21.2974330  34.3572034
  67.2888623  19.8373056  33.9289646  66.4520531  19.4095230  33.7473648
  67.2612268  20.0305499  34.8660437  74.1286079   9.7494986  44.6330892
  74.1774234  10.6257109  44.2508662  74.6708593   9.2072379  44.0602536
  84.7338799  17.1428575  41.2264758  84.7836804  16.9778583  42.1680281
  84.6252723  16.2755834  40.8362639  73.6175058  19.8217121  28.5156847
  73.7663178  20.5052585  27.8623520  74.4241502  19.8022211  29.0306303
  82.0242562  13.1259503  42.5424065  82.9252425  12.9865968  42.2508062
  82.0990536  13.2913958  43.4822242  76.3585367  10.5026358  41.3877251
  75.4888677  10.7959924  41.1159840  76.5944847  11.0866803  42.1084515
  86.2356996  19.5625517  41.4706779  85.9441805  19.9255497  42.3070240
  85.6229127  18.8492525  41.2920112  87.4352679  17.1278397  33.9909350
  88.2699570  17.5668201  34.1546910  87.5711807  16.6517050  33.1717595
  84.4844184  14.6858131  39.9386837  84.9598306  14.8785778  39.1305689
  83.5609750  14.7417317  39.6930221  71.3727691  15.8482299  29.5217916
  71.1273733  14.9444629  29.7198126  71.5423606  15.8499449  28.5797394
  79.0624401   6.7205975  38.9042671  79.5806345   7.4567002  38.5789160
  78.7079534   7.0269968  39.7389430  70.6423339  11.5810656  27.0204077
  69.9492584  11.6555011  26.3644113  70.3975090  10.8171000  27.5425594
  77.1170464  22.3165251  25.9868594  76.5444431  22.9355439  25.5339066
  77.6903257  22.8664613  26.5208516  83.1845853  11.5623892  38.1715143
  84.1363276  11.6621989  38.1927367  83.0149304  10.7702160  38.6813227
  81.2060233   8.6479475  38.3574544  80.6110165   8.9284488  37.6621033
  80.9209930   9.1373376  39.1291285  80.3367723  22.6002402  27.1177177
  81.2698397  22.5347963  27.3210052  80.2490936  23.4358668  26.6591709
  82.9655740  21.9168272  24.0781124  82.8869372  21.5828136  24.9716882
  83.7865407  22.4090040  24.0772596  85.6633931  14.7830011  37.2857443
  85.6310251  13.8446012  37.4717127  86.2734555  14.8614048  36.5523268
  77.5017262  13.6526064  23.3284647  78.4476367  13.5232272  23.3973065
  77.1231507  12.9140726  23.8054075  85.8128420  11.5741055  37.3315726
  85.2967468  10.7899511  37.1445655  86.6968368  11.2459771  37.4962245
  83.4739147   5.3182070  33.2911539  83.2763968   5.0097158  34.1754871
  84.0838852   6.0443709  33.4209468  91.4810481  15.8446018  36.4263480
  92.2113870  15.5831306  36.9871183  90.8717427  15.1074740  36.4665547
  89.5625778  13.9853881  37.0237931  88.8358942  13.8509846  36.4154422
  89.1473065  14.2930709  37.8294649  77.3855955  17.7043810  44.7885304
  78.3058964  17.8822409  44.9825350  77.3505538  16.7599856  44.6365003
  75.6860179  11.5776041  23.2639532  74.7791635  11.2809153  23.3402246
  75.9636160  11.2805859  22.3973818  66.6038120  12.8982404  33.7138578
  66.2840904  12.0447712  33.4212952  66.0571548  13.1130982  34.4696546
  70.3818027  15.6144845  37.4308085  70.6004037  16.5461953  37.4496119
  70.7943801  15.2552819  38.2162889  77.3022245   6.1212930  29.4183773
  76.4922973   5.7760015  29.7939019  77.9906662   5.8120474  30.0071385
  79.2312793   5.1990977  31.0408070  79.7843832   5.6186431  31.6998093
  79.4682880   4.2726725  31.0831026  75.2545892  11.1878051  46.8210834
  75.1542619  12.1372408  46.7522925  75.0367435  10.8596290  45.9486904
  74.4558964   8.4362976  23.4051511  75.3178128   8.7617874  23.6647329
  74.6409308   7.6494472  22.8924577  66.4726380  16.5185316  35.6831700
  65.7789851  16.1039268  35.1701654  67.2199371  16.5605852  35.0865119
  82.6091600   7.3091502  30.5486734  82.0290269   7.9676306  30.1664787
  82.3427533   6.4868847  30.1374152  81.0595167   6.7096560  32.7508054
  81.5594945   6.8213095  31.9422373  81.7030775   6.4057613  33.3908863
  75.1177163  14.6175190  45.6375895  74.6344244  15.4175550  45.8439785
  75.2038102  14.6283134  44.6843339  68.3863122  16.4503569  33.5597715
  68.3633810  16.5491257  32.6079598  68.6963759  17.2968720  33.8814881
  71.0450500  18.5079724  37.6744329  71.9993754  18.4763667  37.6074261
  70.8463024  18.0470348  38.4894555  71.6349882  17.0780840  40.2415127
  72.4542771  17.5724919  40.2649964  71.9086690  16.1612809  40.2132694
  81.3916478   9.4691593  29.6043082  80.5042333   9.7541243  29.3863277
  81.8070467   9.3085356  28.7570359  84.7431015   9.4938114  33.3197422
  85.5191405   9.9834566  33.5922038  84.0179149   9.9196168  33.7769291
  87.1803573  10.2065733  34.3771362  87.7748064   9.9661469  33.6664671
  87.2530157   9.4872863  35.0044899  69.4000729  24.0499344  34.6914527
  69.2655197  23.2899745  34.1252525  68.9832791  24.7740244  34.2243316
  80.5359692  19.2336267  23.6991102  81.2395542  19.4386270  24.3148758
  79.8122341  19.8013029  23.9640186  81.3657502  14.9846129  29.8193373
  81.3092704  15.4414680  28.9801005  81.9185845  14.2236813  29.6416215
  85.1762308  10.7735860  30.6443492  84.9199242  10.3732496  31.4751700
  84.5515176  11.4879654  30.5193631  89.4874646  13.5131934  33.1514783
  88.9274204  13.5825123  33.9246346  88.8818149  13.3372918  32.4314280
  72.5569855  24.9468661  34.9032970  72.4402239  25.8914093  34.8011660
  71.7362301  24.6442222  35.2918769  82.4446389  19.6718797  25.7489562
  83.2791993  19.2399995  25.5667037  82.2830732  19.5000810  26.6766457
  82.0992281  16.1750910  27.1145902  82.0441085  16.0095181  26.1734346
  81.4738337  16.8826943  27.2708091  66.8884796  11.4118974  40.9407324
  67.5343660  10.9017928  41.4294549  66.6801948  12.1487656  41.5150749
  79.4138189  18.4799822  46.4399465  80.2829348  18.6540474  46.0786099
  78.9344940  19.2994239  46.3175194  75.4088407   5.6759019  26.6931220
  75.3967077   6.6200859  26.8499491  76.3011829   5.4929164  26.3990681
  75.3377971  24.3527909  34.7798977  74.3873602  24.3529771  34.6663349
  75.6410457  23.6060644  34.2635011  71.2282287   8.5586591  45.0382338
  72.0913749   8.2023396  45.2485663  70.6547698   8.2200486  45.7257742
  83.2462372  32.7511457  27.4804754  84.0193248  32.2040444  27.3417630
  83.5987771  33.6155706  27.6919216  85.5828650  28.9104123  25.1123204
  85.8354171  28.3885644  24.3506667  84.6453209  28.7470269  25.2149888
  96.0280360  27.8515135  33.8230926  96.7605532  27.2814352  34.0568755
  95.2719716  27.4636735  34.2637431  85.3024939  30.8132229  27.3147579
  85.1861197  30.1377132  27.9828663  85.4127199  30.3264603  26.4979732
  87.2861967  25.3032276  26.0155617  87.4536369  26.1712512  26.3826088
  87.0959136  25.4659558  25.0916906  92.9636254  28.2311407  27.8282618
  93.8754110  28.4638793  27.6530315  92.4545901  28.8148451  27.2657696
 101.9097820  31.0162326  33.6943235 101.1561529  30.4469724  33.5387240
 102.0445362  30.9824990  34.6413870  90.6488912  19.4106290  37.8996848
  90.3053182  20.3007932  37.8235959  91.0167875  19.2207948  37.0366433
  90.6139195  29.4014901  26.4069283  90.0985818  30.1719506  26.6457671
  90.3416503  28.7280037  27.0302345  89.7285452  21.7810945  35.8646081
  89.2250248  21.7441080  35.0513887  90.0216059  22.6903688  35.9242738
  85.9728338  21.8649675  34.8712263  86.8381335  21.6692484  34.5118152
  86.0405847  21.6360027  35.7981620  95.5873469  32.1547256  28.3422457
  94.8102912  31.8158415  27.8977619  96.2664950  32.1599879  27.6677422
  83.5790657  24.0951883  32.2428630  84.1534409  23.8727064  31.5101823
  84.1661640  24.1640577  32.9957231  83.9060245  26.1256344  26.2624515
  83.0697557  26.4631030  26.5833790  83.7665014  25.9905324  25.3251652
  85.8813325  20.9693132  30.9703699  85.2277738  20.6542149  30.3460314
  85.8393799  20.3468872  31.6963522  86.9924530  31.2512427  22.8856991
  86.0851592  31.0201680  23.0848140  87.4895562  30.4550046  23.0730973
  88.1712763  31.3525022  27.4080981  87.2623983  31.0684054  27.5053451
  88.2007847  31.7724100  26.5484288  92.4476578  18.6699849  33.0014586
  92.7535455  17.8097213  32.7140501  93.1729183  19.2617469  32.8013580
  87.8688851  32.8933765  24.7469060  87.4308281  32.1769624  24.2874697
  88.6099292  33.1209880  24.1854151  95.9861966  31.1690962  30.8045379
  95.8479865  31.3592558  29.8766568  95.6298185  31.9310345  31.2613430
  81.2347160  28.5994570  29.0737136  80.3044748  28.5379025  29.2907098
  81.3304632  28.0770522  28.2773777  81.1532709  25.1249383  31.6615377
  81.4139526  26.0394716  31.5524538  81.9749881  24.6573825  31.8111990
  91.9900079  31.7518147  24.3401118  91.3729250  31.0264975  24.2434170
  91.5216567  32.5127507  23.9968192  83.7798625  25.9703571  23.4622422
  82.9028091  25.8492372  23.0984668  84.2556378  25.1789650  23.2101310
  98.1288958  29.8364857  34.9937439  98.1178835  30.7189572  34.6231372
  97.2606338  29.4836407  34.7991976  94.7461533  28.7313498  31.4607605
  95.2121985  29.5641489  31.3867908  95.1969033  28.2658479  32.1652864
  92.7178196  21.0994085  35.4998507  91.8041276  21.3298311  35.6680714
  93.1471297  21.1832529  36.3512539  78.5077319  27.5645427  28.9035327
  78.8030760  26.6556105  28.8502381  77.6065354  27.5433166  28.5816330
  80.2365160  25.2459524  29.0274653  79.9077866  24.3656903  28.8449759
  80.5904531  25.1907193  29.9151042  83.3506983  25.5332494  29.3950130
  83.6903056  26.0618415  28.6728739  83.7979104  25.8712900  30.1708697
  86.6966896  21.0018857  37.2980521  87.5192965  20.5279335  37.1759412
  86.9404960  21.7809341  37.7979208  85.3375131  24.0307116  27.5943423
  86.0583493  24.4088368  27.0907140  84.7140435  24.7495992  27.6978401
  85.4838754  23.5654906  30.4240960  85.6054665  22.6371552  30.6231847
  85.1940796  23.5793592  29.5119275  88.3529944  21.2509816  33.5607680
  88.3751641  21.3149150  32.6059659  88.7698003  20.4114325  33.7548186
  98.7313568  30.9865076  31.5986902  99.1744714  30.2372401  31.2006025
  97.8540079  30.9775212  31.2160634  93.8649350  37.5395417  27.0793501
  94.5600254  38.1602110  27.2980815  94.2072500  36.6890769  27.3545879
  81.4817093  26.9102574  27.0204077  80.7886338  26.9846929  26.3644113
  81.2368845  26.1462918  27.5425594  90.1530750  18.4698175  34.4243568
  90.4332503  17.8021364  35.0503994  90.9381357  18.6627271  33.9118232
  93.8049495  37.2460190  24.0781124  93.7263126  36.9120053  24.9716882
  94.6259161  37.7381958  24.0772596  88.3411017  28.9817982  23.3284647
  89.2870121  28.8524190  23.3973065  87.9625262  28.2432644  23.8054075
  96.6522174  26.9032972  37.3315726  96.1361223  26.1191429  37.1445655
  97.5362123  26.5751689  37.4962245  94.3132901  20.6473988  33.2911539
  94.1157722  20.3389076  34.1754871  94.9232607  21.3735627  33.4209468
 102.3204236  31.1737936  36.4263480 103.0507624  30.9123224  36.9871183
 101.7111181  30.4366658  36.4665547  86.5253934  26.9067958  23.2639532
  85.6185389  26.6101071  23.3402246  86.8029915  26.6097776  22.3973818
  88.1415999  21.4504848  29.4183773  87.3316728  21.1051933  29.7939019
  88.8300416  21.1412392  30.0071385  90.0706548  20.5282895  31.0408070
  90.6237586  20.9478348  31.6998093  90.3076634  19.6018643  31.0831026
  85.2952718  23.7654894  23.4051511  86.1571882  24.0909792  23.6647329
  85.4803063  22.9786389  22.8924577  93.4485355  22.6383420  30.5486734
  92.8684024  23.2968224  30.1664787  93.1821288  21.8160765  30.1374152
  91.8988921  22.0388478  32.7508054  92.3988700  22.1505012  31.9422373
  92.5424529  21.7349531  33.3908863  95.5824769  24.8230031  33.3197422
  96.3585159  25.3126484  33.5922038  94.8572903  25.2488086  33.7769291
  98.0197328  25.5357651  34.3771362  98.6141818  25.2953387  33.6664671
  98.0923911  24.8164781  35.0044899  91.3753446  34.5628185  23.6991102
  92.0789296  34.7678188  24.3148758  90.6516095  35.1304947  23.9640186
  96.0156063  26.1027778  30.6443492  95.7592997  25.7024414  31.4751700
  95.3908931  26.8171572  30.5193631 100.3268400  28.8423851  33.1514783
  99.7667958  28.9117041  33.9246346  99.7211904  28.6664836  32.4314280
  93.2840144  35.0010714  25.7489562  94.1185748  34.5691913  25.5667037
  93.1224487  34.8292728  26.6766457  92.9386036  31.5042828  27.1145902
  92.8834840  31.3387099  26.1734346  92.3132091  32.2118860  27.2708091
  86.2482161  21.0050937  26.6931220  86.2360831  21.9492776  26.8499491
  87.1405583  20.8221082  26.3990681  90.0634281  17.5993713  30.9477157
  89.2966677  17.0452200  31.0933839  90.4744986  17.6715582  31.8091309
 101.9124419  45.5180365  35.8444739 102.5502829  45.3987113  35.1408079
 101.7945262  46.4661209  35.9032691  98.7214125  45.4707793  35.7806264
  98.3832637  45.3548858  34.8926799  99.5903893  45.0698959  35.7607270
  94.5800941  47.3243270  31.7703155  94.0165806  47.2333207  31.0019443
  94.4653336  46.5043174  32.2505647  99.2033908  46.6242645  41.7392469
  99.1922549  46.2295443  40.8672973  99.3654548  45.8908718  42.3326241
  92.1265373  48.8194461  34.6087375  92.9186665  48.4785286  34.1933675
  92.3662023  48.9289437  35.5289529 100.1600500  50.9914238  27.0817620
  99.5088479  51.5768318  26.6951634 100.9544862  51.5220432  27.1412657
  94.0856127  48.0803375  27.4804754  94.8587003  47.5332362  27.3417630
  94.4381526  48.9447624  27.6919216  95.9241169  49.4079757  40.6871653
  95.6331035  50.3125388  40.5718320  96.5598154  49.4496285  41.4015723
  96.8497376  46.7856606  37.2773013  97.4460948  46.5612628  36.5629976
  96.9072348  46.0441351  37.8798461  96.4222404  44.2396041  25.1123204
  96.6747925  43.7177562  24.3506667  95.4846964  44.0762186  25.2149888
 101.4665687  43.2431819  32.9197947 102.2528777  42.8251242  32.5688364
 101.7304392  44.1477911  33.0879596 101.6375765  48.6804670  27.6186604
 101.0021598  48.7539296  28.3307509 101.3073171  49.2698268  26.9405683
 106.8674114  43.1807052  33.8230926 107.5999286  42.6106269  34.0568755
 106.1113470  42.7928653  34.2637431  96.1418693  46.1424147  27.3147579
  96.0254951  45.4669050  27.9828663  96.2520953  45.6556521  26.4979732
  98.4850234  45.6034294  31.0194268  98.1208441  45.0764915  31.7307190
  99.3417350  45.2132763  30.8460754 104.3899535  36.8928627  38.2825534
 104.0582860  37.7624037  38.0586749 103.7945148  36.5764911  38.9619565
  98.1255721  40.6324194  26.0155617  98.2930123  41.5004430  26.3826088
  97.9352890  40.7951475  25.0916906 100.8831054  49.0941172  37.6821447
 100.5831777  49.9966211  37.5737254 100.5382114  48.8273356  38.5342600
  94.3343536  45.5454969  33.7158152  93.4094032  45.4131183  33.9235843
  94.5827949  46.3249189  34.2128094 104.2828198  41.6123713  35.3618884
 103.3745075  41.5439121  35.0677645 104.2315794  42.0895658  36.1900710
  98.1044942  43.0881851  27.0002284  97.9844567  43.5338902  27.8387764
  97.4097530  43.4367169  26.4415822  95.8651834  55.8585493  30.6492415
  95.7875864  56.8093318  30.7280895  95.2613478  55.5131365  31.3067341
 106.1489845  39.8140151  37.1396758 105.5064225  40.1072684  36.4936553
 105.6444773  39.6993071  37.9449955 103.8030008  43.5603324  27.8282618
 104.7147864  43.7930711  27.6530315 103.2939655  44.1440368  27.2657696
  96.6115436  45.8398812  42.8671749  97.3530121  46.3783856  42.5906572
  95.9052422  46.4665100  43.0243300 102.0870776  47.9827952  41.4643910
 102.4954132  47.5410363  40.7198543 101.3648037  47.4080580  41.7178103
 102.4099590  48.5429143  35.2196199 101.7808453  48.7074857  34.5172267
 102.0225253  48.9570752  35.9907163 106.2888822  49.4783581  32.5740563
 105.6039861  49.8582482  32.0237596 106.3732672  50.0878907  33.3072511
 103.5439754  47.1243540  39.1735906 103.7556649  47.7675299  38.4970287
 103.4969502  46.2905856  38.7057836  97.9627552  48.2803551  32.4846284
  98.4265898  48.5591254  31.6950907  97.6984350  47.3786995  32.3019375
  94.8551633  47.8275032  35.4226047  95.4252990  48.2562301  34.7843532
  95.4459745  47.5457617  36.1210233  96.8996438  44.4026703  29.2935849
  97.6020482  44.8547747  29.7609776  96.5677067  43.7610522  29.9215742
 104.6585582  50.0015495  37.3458264 105.4803026  49.5995682  37.0640945
 104.6547985  49.8983729  38.2974379  98.4242185  49.5499538  39.5018974
  98.4886618  50.0119946  40.3377146  97.7153109  48.9196903  39.6301284
 112.7491575  46.3454243  33.6943235 111.9955283  45.7761642  33.5387240
 112.8839116  46.3116908  34.6413870  98.1390203  51.2167646  29.3697955
  98.0035878  52.0619182  29.7982802  98.6800016  51.4186923  28.6063888
  91.5919600  48.7343084  29.9425880  92.1044121  49.5286334  30.0931444
  92.2442313  48.0369374  29.8759481  93.4014485  51.8508840  32.0248633
  93.5781113  52.7726805  31.8369617  94.1971319  51.5367259  32.4543013
  99.7658679  51.8391212  43.4998297  99.3222534  51.0527591  43.1819201
 100.4275893  52.0270363  42.8342187  94.5245801  53.3687014  38.0258975
  95.0753226  53.2404077  37.2535969  93.6857276  53.6681903  37.6753868
 101.8639917  52.1194012  41.5279698 101.8458393  52.9402893  41.0359967
 102.7859838  51.9948087  41.7529839  98.3212972  49.6338142  42.3703206
  98.8541308  48.8726430  42.1402514  97.7927053  49.3411794  43.1127361
  89.5568517  47.0631738  30.7185450  90.3943739  47.4728747  30.5019158
  89.7346785  46.1231180  30.6885644 101.4532949  44.7306819  26.4069283
 100.9379573  45.5011423  26.6457671 101.1810258  44.0571955  27.0302345
  99.0380060  39.5756520  31.4654521  98.1821657  39.1863370  31.2860160
  99.4507012  39.6548480  30.6054307 106.4267223  47.4839173  28.3422457
 105.6496666  47.1450333  27.8977619 107.1058704  47.4891797  27.6677422
 101.2419252  42.6033911  28.2329064 100.9369388  42.9180060  29.0839207
 102.1949695  42.6815331  28.2756397  99.6865684  48.7624134  29.8822018
  99.1587046  48.0276894  29.5695256  99.1853187  49.5398811  29.6361987
 104.6658530  46.9573155  34.9989065 104.0082205  47.6472416  35.0869193
 105.4698930  47.3469587  35.3423051 103.4763989  45.3117527  33.0493006
 103.9895871  45.9447519  33.5514716 104.1265213  44.7118723  32.6836366
  94.7453999  41.4548262  26.2624515  93.9091311  41.7922948  26.5833790
  94.6058769  41.3197241  25.3251652  97.8318285  46.5804344  22.8856991
  96.9245346  46.3493598  23.0848140  98.3289316  45.7841964  23.0730973
 100.7386363  55.2901852  25.8053677 100.0648062  55.5933548  26.4138635
 101.1252185  56.0930932  25.4559135  99.9544820  42.7866983  35.2951347
  99.0367381  43.0081930  35.1373035 100.3704964  42.8613293  34.4363054
 100.7379868  44.1858399  30.4254027 101.4851687  44.6979796  30.1161149
 101.0071457  43.8642451  31.2858421  99.0106518  46.6816939  27.4080981
  98.1017737  46.3975972  27.5053451  99.0401602  47.1016018  26.5484288
 104.2425785  50.2923529  31.1772149 103.7888112  49.4514439  31.2337339
 103.6119752  50.9284927  31.5146929 103.1858705  41.2215515  32.4072816
 102.4481462  40.7092901  32.7383059 103.4385478  40.7815896  31.5956093
 102.6858725  52.1300026  32.1121967 102.9781699  52.6905083  31.3934333
 103.1957345  52.4228587  32.8675126 103.2870332  33.9991767  33.0014586
 103.5929209  33.1389130  32.7140501 104.0122937  34.5909387  32.8013580
  97.5591412  44.2945560  33.5090777  97.6140022  43.3419396  33.4333253
  96.7482614  44.4504999  33.9932075  98.7082606  48.2225683  24.7469060
  98.2702036  47.5061542  24.2874697  99.4493047  48.4501798  24.1854151
  95.4983772  42.9122620  31.2681156  94.6851637  43.2116790  31.6746348
  95.9942766  42.5178308  31.9855638  97.6492350  52.9080377  33.2015420
  97.6068529  53.1341223  32.2723952  98.5655049  52.6743751  33.3501221
 101.0957984  43.3764444  40.0996050 101.4507371  43.6035917  40.9590515
 101.7430115  43.7082821  39.4773305 106.8255721  46.4982880  30.8045379
 106.6873619  46.6884476  29.8766568 106.4691939  47.2602263  31.2613430
 106.8525100  48.5659407  35.8156650 107.2861607  48.4734696  36.6639704
 107.5656681  48.5416908  35.1776666  95.7658151  49.7843406  32.9977383
  96.5598749  49.2893726  32.7959958  95.0549843  49.2561269  32.6345089
 100.5852995  52.1661501  37.3489751 100.6390017  52.7352437  38.1167467
  99.7167776  52.3363386  36.9843788  92.0740914  43.9286487  29.0737136
  91.1438502  43.8670943  29.2907098  92.1698386  43.4062440  28.2773777
 107.7140650  48.6083108  38.3489535 107.9076540  49.5128918  38.5948810
 107.6141268  48.1490527  39.1828120 102.7755758  48.7589850  43.9230416
 102.6241265  48.5300402  43.0060500 102.7660438  49.7160452  43.9361761
  99.5441095  46.3321763  38.9076682 100.4733155  46.4832923  38.7345650
  99.1232125  46.4205784  38.0525329  98.3429427  50.3572428  36.6775220
  98.2040512  49.9891212  37.5501158  97.5544023  50.8720067  36.5059178
  98.9377579  55.4581524  28.0200757  99.1129334  54.9869567  28.8346379
  98.2510367  56.0847290  28.2482017  99.8934642  49.7354030  34.0664058
  99.5584474  49.6954800  34.9621708  99.3938587  49.0698746  33.5934468
 102.8293833  47.0810065  24.3401118 102.2123004  46.3556893  24.2434170
 102.3610322  47.8419425  23.9968192 104.4847965  51.7908973  42.0006898
 104.4260511  51.1068193  41.3337481 104.8867483  52.5327963  41.5487524
  93.5038664  58.6070887  34.7940617  93.7435262  59.2389411  35.4719635
  92.6607860  58.2558927  35.0805976  94.6192379  41.2995489  23.4622422
  93.7421846  41.1784290  23.0984668  95.0950132  40.5081567  23.2101310
 104.4865372  49.7548557  40.2320878 103.5992151  49.4174479  40.3547276
 105.0563923  49.0231588  40.4689643  98.0166526  54.4150009  37.1982121
  97.9436697  55.2204981  37.7101425  97.5743919  54.6141975  36.3730142
  97.8056305  53.6521779  30.7084942  97.0223827  54.1943459  30.8023167
  98.5049050  54.1695759  31.1079184 101.1152955  39.4616409  33.3519148
 101.6121655  38.7086371  33.0320218 100.3439937  39.4980725  32.7862357
 108.9682713  45.1656774  34.9937439 108.9572589  46.0481490  34.6231372
 108.1000092  44.8128325  34.7991976 100.4765209  54.3136843  39.3540279
 101.1893181  54.9484308  39.2816181  99.9855238  54.4100709  38.5380281
 102.1982736  48.2188096  30.9257571 101.2639015  48.3389558  30.7562275
 102.3759405  47.3160563  30.6617581  97.6987924  41.6033792  33.0790832
  97.3285712  41.0504832  33.7671738  98.1947017  40.9991925  32.5265832
 105.5855287  44.0605415  31.4607605 106.0515740  44.8933407  31.3867908
 106.0362788  43.5950397  32.1652864  95.5277123  52.0631287  40.1745850
  96.2286582  52.6967770  40.3275244  95.0572238  52.4046018  39.4141490
 103.6531519  50.4049237  28.4593757 103.9291362  50.2905831  29.3687631
 102.7836017  50.0066721  28.4205930 103.5571950  36.4286002  35.4998507
 102.6435030  36.6590229  35.6680714 103.9865052  36.5124446  36.3512539
 103.3278409  44.6175894  37.9998401 102.6749859  44.8651802  37.3450853
 103.7058789  43.8040032  37.6660878 100.2885583  54.6535587  32.1026571
 100.4707977  53.8357243  32.5654323 101.1118569  54.8703280  31.6651461
 100.6227748  53.5803773  29.3641619 101.1515515  53.0696227  28.7511782
 100.8855968  53.2646303  30.2287152  99.3765982  45.3595705  44.4864438
  98.7006619  45.2589835  45.1566813 100.1993616  45.2034919  44.9500435
  91.1244841  51.5967642  37.1076953  91.7098278  50.8511330  37.2404857
  90.9269679  51.9071599  37.9913617  93.9783496  54.6318889  32.1239395
  93.3093871  55.1165017  31.6403435  93.8396366  54.8788110  33.0382774
  98.1188765  56.6662633  38.7222054  98.6707073  56.8294254  39.4871139
  98.4594958  57.2567071  38.0502079 102.9699639  51.4923890  44.5770708
 103.5139543  52.1053849  44.0825663 102.3886484  52.0503469  45.0937721
 101.2557152  54.6144608  35.7085736 101.1308291  53.8134348  35.1996681
 101.9136243  55.1090802  35.2199706 103.3192060  52.4153628  37.3365286
 102.3722396  52.2958980  37.2643613 103.6674833  51.5276126  37.4191547
 100.3238494  52.2106345  33.5369638 100.1763456  51.2823052  33.7177208
 101.1491987  52.2326435  33.0526713  94.1900738  40.8624412  29.3950130
  94.5296810  41.3910333  28.6728739  94.6372858  41.2004818  30.1708697
 103.9272615  53.0334903  34.6234511 104.8519163  52.8277765  34.4858962
 103.7587919  52.7851304  35.5323852  96.1768885  39.3599033  27.5943423
  96.8977248  39.7380286  27.0907140  95.5534189  40.0787910  27.6978401
 100.3200008  40.0644182  28.5301755 100.5363622  40.9468820  28.2290584
  99.8394075  39.6730396  27.8007397 103.7167932  53.5520571  29.9796602
 103.8904809  52.9866993  29.2270455 104.2096823  54.3521466  29.7976092
 109.5707323  46.3156994  31.5986902 110.0138469  45.5664319  31.2006025
 108.6933833  46.3067130  31.2160634 104.7043104  52.8687335  27.0793501
 105.3994009  53.4894028  27.2980815 105.0466254  52.0182686  27.3545879
 106.6034527  50.3187041  28.6080831 107.1285851  50.6574313  27.8830151
 106.5156880  49.3834056  28.4243966  98.2654576  54.2321114  40.7370708
  98.5741702  53.9870261  41.6093408  99.0630058  54.4367753  40.2489578
  98.2875188  56.3859024  32.9676085  97.8480178  55.8935403  33.6608941
  99.0383305  55.8431992  32.7268160  90.7667527  52.5770565  32.9700713
  91.5925547  52.2774337  32.5899356  90.4161579  51.8078187  33.4190501
  95.7349060  51.9297033  35.0398386  95.1129069  51.2667738  34.7400614
  96.4053927  51.9558165  34.3572034  88.9676132  50.4956891  33.9289646
  88.1308040  50.0679066  33.7473648  88.9399777  50.6889335  34.8660437
 106.2928433  50.9519944  43.9132029 105.5023977  50.9344083  43.3736529
 106.0561788  51.4908238  44.6681066 106.4126308  47.8012411  41.2264758
 106.4624313  47.6362418  42.1680281 106.3040232  46.9339670  40.8362639
  95.2962567  50.4800956  28.5156847  95.4450687  51.1636421  27.8623520
  96.1029011  50.4606046  29.0306303 103.7030071  43.7843339  42.5424065
 104.6039934  43.6449804  42.2508062 103.7778045  43.9497794  43.4822242
 107.9144505  50.2209352  41.4706779 107.6229313  50.5839333  42.3070240
 107.3016636  49.5076360  41.2920112 109.1140187  47.7862232  33.9909350
 109.9487079  48.2252036  34.1546910 109.2499316  47.3100885  33.1717595
 106.1631693  45.3441967  39.9386837 106.6385815  45.5369613  39.1305689
 105.2397259  45.4001153  39.6930221  93.0515200  46.5066134  29.5217916
  92.8061242  45.6028464  29.7198126  93.2211115  46.5083284  28.5797394
  92.3210848  42.2394492  27.0204077  91.6280093  42.3138847  26.3644113
  92.0762599  41.4754835  27.5425594  98.7957973  52.9749087  25.9868594
  98.2231940  53.5939274  25.5339066  99.3690766  53.5248449  26.5208516
 104.8633362  42.2207727  38.1715143 105.8150785  42.3205825  38.1927367
 104.6936813  41.4285995  38.6813227 102.0155232  53.2586237  27.1177177
 102.9485906  53.1931799  27.3210052 101.9278445  54.0942504  26.6591709
 104.6443249  52.5752107  24.0781124 104.5656881  52.2411971  24.9716882
 105.4652916  53.0673875  24.0772596 107.3421440  45.4413847  37.2857443
 107.3097760  44.5029847  37.4717127 107.9522064  45.5197883  36.5523268
  99.1804771  44.3109900  23.3284647 100.1263876  44.1816108  23.3973065
  98.8019016  43.5724561  23.8054075 107.4915929  42.2324890  37.3315726
 106.9754977  41.4483347  37.1445655 108.3755877  41.9043607  37.4962245
 105.1526656  35.9765906  33.2911539 104.9551477  35.6680994  34.1754871
 105.7626361  36.7027545  33.4209468 113.1597990  46.5029853  36.4263480
 113.8901379  46.2415142  36.9871183 112.5504936  45.7658575  36.4665547
 111.2413287  44.6437716  37.0237931 110.5146451  44.5093681  36.4154422
 110.8260574  44.9514545  37.8294649  99.0643464  48.3627646  44.7885304
  99.9846473  48.5406245  44.9825350  99.0293047  47.4183691  44.6365003
  97.3647688  42.2359876  23.2639532  96.4579144  41.9392989  23.3402246
  97.6423669  41.9389694  22.3973818 100.9100302  35.8574813  31.0408070
 101.4631341  36.2770266  31.6998093 101.1470389  34.9310561  31.0831026
  96.1346473  39.0946811  23.4051511  96.9965637  39.4201710  23.6647329
  96.3196817  38.3078307  22.8924577 104.2879109  37.9675338  30.5486734
 103.7077778  38.6260142  30.1664787 104.0215042  37.1452682  30.1374152
 102.7382676  37.3680395  32.7508054 103.2382454  37.4796930  31.9422373
 103.3818284  37.0641448  33.3908863  96.7964672  45.2759025  45.6375895
  96.3131753  46.0759385  45.8439785  96.8825611  45.2866970  44.6843339
  90.0650631  47.1087405  33.5597715  90.0421319  47.2075092  32.6079598
  90.3751268  47.9552555  33.8814881  92.7238009  49.1663560  37.6744329
  93.6781263  49.1347502  37.6074261  92.5250533  48.7054183  38.4894555
 103.0703987  40.1275428  29.6043082 102.1829842  40.4125079  29.3863277
 103.4857976  39.9669191  28.7570359 106.4218523  40.1521949  33.3197422
 107.1978914  40.6418401  33.5922038 105.6966658  40.5780003  33.7769291
 108.8591082  40.8649568  34.3771362 109.4535573  40.6245304  33.6664671
 108.9317666  40.1456699  35.0044899  91.0788238  54.7083179  34.6914527
  90.9442706  53.9483580  34.1252525  90.6620300  55.4324079  34.2243316
 102.2147201  49.8920103  23.6991102 102.9183051  50.0970105  24.3148758
 101.4909850  50.4596865  23.9640186 103.0445011  45.6429964  29.8193373
 102.9880212  46.0998515  28.9801005 103.5973354  44.8820649  29.6416215
 106.8549817  41.4319696  30.6443492 106.5986751  41.0316332  31.4751700
 106.2302685  42.1463490  30.5193631 111.1662155  44.1715769  33.1514783
 110.6061713  44.2408958  33.9246346 110.5605658  43.9956754  32.4314280
  94.2357364  55.6052496  34.9032970  94.1189748  56.5497929  34.8011660
  93.4149810  55.3026058  35.2918769 104.1233898  50.3302632  25.7489562
 104.9579502  49.8983830  25.5667037 103.9618241  50.1584646  26.6766457
 103.7779790  46.8334745  27.1145902 103.7228594  46.6679017  26.1734346
 103.1525846  47.5410778  27.2708091 101.0925698  49.1383657  46.4399465
 101.9616857  49.3124309  46.0786099 100.6132449  49.9578074  46.3175194
  97.0875916  36.3342854  26.6931220  97.0754586  37.2784694  26.8499491
  97.9799338  36.1513000  26.3990681  95.2611878  56.2580758  38.1188898
  96.1639125  56.2904368  38.4355393  95.0349248  55.3281209  38.1335234
  97.0165480  55.0111745  34.7798977  96.0661111  55.0113606  34.6663349
  97.3197966  54.2644479  34.2635011 100.9028035  32.9285631  30.9477157
 100.1360431  32.3744118  31.0933839 101.3138740  33.0007500  31.8091309
 112.7518173  60.8472283  35.8444739 113.3896583  60.7279030  35.1408079
 112.6339016  61.7953127  35.9032691 109.5607880  60.7999711  35.7806264
 109.2226391  60.6840776  34.8926799 110.4297648  60.3990876  35.7607270
 105.4194695  62.6535188  31.7703155 104.8559560  62.5625124  31.0019443
 105.3047090  61.8335092  32.2505647 110.0427663  61.9534563  41.7392469
 110.0316303  61.5587361  40.8672973 110.2048302  61.2200635  42.3326241
 102.9659127  64.1486379  34.6087375 103.7580419  63.8077204  34.1933675
 103.2055777  64.2581354  35.5289529 110.9994254  66.3206155  27.0817620
 110.3482234  66.9060236  26.6951634 111.7938617  66.8512350  27.1412657
 104.9249881  63.4095292  27.4804754 105.6980757  62.8624279  27.3417630
 105.2775280  64.2739542  27.6919216 106.7634924  64.7371675  40.6871653
 106.4724790  65.6417306  40.5718320 107.3991908  64.7788202  41.4015723
 107.6891131  62.1148523  37.2773013 108.2854703  61.8904546  36.5629976
 107.7466102  61.3733269  37.8798461 107.2616159  59.5687959  25.1123204
 107.5141680  59.0469480  24.3506667 106.3240718  59.4054104  25.2149888
 112.3059442  58.5723737  32.9197947 113.0922531  58.1543160  32.5688364
 112.5698146  59.4769829  33.0879596 112.4769519  64.0096587  27.6186604
 111.8415352  64.0831214  28.3307509 112.1466926  64.5990186  26.9405683
 117.7067869  58.5098970  33.8230926 118.4393041  57.9398187  34.0568755
 116.9507225  58.1220571  34.2637431 106.9812448  61.4716064  27.3147579
 106.8648706  60.7960968  27.9828663 107.0914708  60.9848438  26.4979732
 109.3243989  60.9326212  31.0194268 108.9602196  60.4056833  31.7307190
 110.1811105  60.5424681  30.8460754 115.2293289  52.2220544  38.2825534
 114.8976614  53.0915955  38.0586749 114.6338903  51.9056828  38.9619565
 108.9649476  55.9616111  26.0155617 109.1323878  56.8296348  26.3826088
 108.7746645  56.1243393  25.0916906 111.7224809  64.4233090  37.6821447
 111.4225532  65.3258129  37.5737254 111.3775868  64.1565273  38.5342600
 105.1737290  60.8746887  33.7158152 104.2487787  60.7423101  33.9235843
 105.4221703  61.6541106  34.2128094 115.1221953  56.9415630  35.3618884
 114.2138830  56.8731039  35.0677645 115.0709548  57.4187575  36.1900710
 108.9438697  58.4173769  27.0002284 108.8238322  58.8630820  27.8387764
 108.2491285  58.7659086  26.4415822 102.5346101  60.5180161  34.5501941
 102.6638482  60.7714639  35.4641352 101.8543553  61.1107869  34.2306596
 106.7045589  71.1877411  30.6492415 106.6269618  72.1385236  30.7280895
 106.1007232  70.8423283  31.3067341 109.1962818  58.3605276  43.3053782
 108.4196152  58.9199196  43.2956646 109.8353381  58.8462059  43.8268652
 116.9883599  55.1432069  37.1396758 116.3457979  55.4364602  36.4936553
 116.4838528  55.0284989  37.9449955 114.6423763  58.8895242  27.8282618
 115.5541619  59.1222629  27.6530315 114.1333410  59.4732286  27.2657696
 107.4509191  61.1690729  42.8671749 108.1923875  61.7075773  42.5906572
 106.7446176  61.7957018  43.0243300 112.9264530  63.3119870  41.4643910
 113.3347886  62.8702280  40.7198543 112.2041792  62.7372497  41.7178103
 109.2795600  58.2492477  38.8377467 110.1256796  58.6731890  38.9812116
 109.2194238  57.5926101  39.5316030 113.2493345  63.8721060  35.2196199
 112.6202207  64.0366775  34.5172267 112.8619007  64.2862670  35.9907163
 117.1282577  64.8075498  32.5740563 116.4433615  65.1874400  32.0237596
 117.2126426  65.4170825  33.3072511 112.4295046  55.9096845  40.4958641
 112.1855978  56.6638905  39.9592916 112.7054976  56.2882193  41.3305888
 114.3833508  62.4535457  39.1735906 114.5950404  63.0967217  38.4970287
 114.3363257  61.6197774  38.7057836 111.9859737  55.0653278  36.0772478
 111.1244216  55.3634531  36.3689216 112.0122172  55.2823677  35.1453511
 108.8021307  63.6095468  32.4846284 109.2659652  63.8883171  31.6950907
 108.5378105  62.7078913  32.3019375 105.6945388  63.1566950  35.4226047
 106.2646745  63.5854218  34.7843532 106.2853500  62.8749535  36.1210233
 107.7390193  59.7318621  29.2935849 108.4414236  60.1839665  29.7609776
 107.4070821  59.0902440  29.9215742 106.1870554  58.3230377  43.6687059
 105.5569215  59.0046658  43.9022456 106.0806642  58.2113459  42.7240197
 101.4815527  57.9902174  34.5952983 100.6914581  58.2459702  34.1193093
 101.9726774  58.8050511  34.7005023 115.4979336  65.3307413  37.3458264
 116.3196780  64.9287600  37.0640945 115.4941739  65.2275647  38.2974379
 103.4330272  58.3546753  31.5536460 102.6361436  58.4665447  32.0719955
 103.2055864  58.6933405  30.6877350 109.2635940  64.8791456  39.5018974
 109.3280372  65.3411863  40.3377146 108.5546864  64.2488821  39.6301284
  99.7653230  58.2432664  37.0267974 100.0161268  59.1279674  37.2925550
 100.3012778  58.0637265  36.2543065 108.9783958  66.5459563  29.3697955
 108.8429632  67.3911099  29.7982802 109.5193770  66.7478841  28.6063888
 105.4651297  52.6251143  46.0312310 105.0718243  52.0717342  46.7059954
 106.2817437  52.9361722  46.4218827 102.4313355  64.0635002  29.9425880
 102.9437875  64.8578252  30.0931444 103.0836068  63.3661292  29.8759481
 104.2408240  67.1800758  32.0248633 104.4174868  68.1018722  31.8369617
 105.0365073  66.8659177  32.4543013 108.3819258  54.0409022  43.6232566
 109.1228972  54.6416176  43.5437029 108.6137181  53.2986660  43.0650609
 103.5260596  59.2265390  41.9010796 103.4114111  58.3250647  42.2017895
 102.6705114  59.4729086  41.5495613 110.6052434  67.1683130  43.4998297
 110.1616288  66.3819509  43.1819201 111.2669647  67.3562280  42.8342187
 105.3639555  68.6978932  38.0258975 105.9146980  68.5695995  37.2535969
 104.5251031  68.9973821  37.6753868 112.7033672  67.4485930  41.5279698
 112.6852147  68.2694811  41.0359967 113.6253592  67.3240005  41.7529839
 109.1606726  64.9630059  42.3703206 109.6935063  64.2018348  42.1402514
 108.6320807  64.6703711  43.1127361 112.3276421  50.0690125  37.8996848
 111.9840690  50.9591767  37.8235959 112.6955384  49.8791783  37.0366433
 100.3962272  62.3923656  30.7185450 101.2337494  62.8020664  30.5019158
 100.5740539  61.4523098  30.6885644 112.2926704  60.0598736  26.4069283
 111.7773327  60.8303341  26.6457671 112.0204012  59.3863873  27.0302345
 109.8773815  54.9048437  31.4654521 109.0215411  54.5155288  31.2860160
 110.2900767  54.9840398  30.6054307 111.4072961  52.4394781  35.8646081
 110.9037757  52.4024916  35.0513887 111.7003568  53.3487523  35.9242738
 107.6515847  52.5233510  34.8712263 108.5168844  52.3276319  34.5118152
 107.7193356  52.2943862  35.7981620 117.2660978  62.8131091  28.3422457
 116.4890421  62.4742251  27.8977619 117.9452459  62.8183714  27.6677422
 112.0813007  57.9325829  28.2329064 111.7763143  58.2471978  29.0839207
 113.0343449  58.0107248  28.2756397 110.5259439  64.0916052  29.8822018
 109.9980800  63.3568811  29.5695256 110.0246942  64.8690728  29.6361987
 115.5052285  62.2865072  34.9989065 114.8475959  62.9764334  35.0869193
 116.3092684  62.6761504  35.3423051 105.2578166  54.7535718  32.2428630
 105.8321918  54.5310900  31.5101823 105.8449149  54.8224413  32.9957231
 114.3157744  60.6409445  33.0493006 114.8289625  61.2739437  33.5514716
 114.9658968  60.0410641  32.6836366 105.5847754  56.7840179  26.2624515
 104.7485066  57.1214866  26.5833790 105.4452523  56.6489159  25.3251652
 107.5600834  51.6276967  30.9703699 106.9065246  51.3125984  30.3460314
 107.5181308  51.0052708  31.6963522 108.6712039  61.9096262  22.8856991
 107.7639101  61.6785516  23.0848140 109.1683071  61.1133881  23.0730973
 111.5780118  70.6193769  25.8053677 110.9041817  70.9225466  26.4138635
 111.9645940  71.4222850  25.4559135 110.7938575  58.1158901  35.2951347
 109.8761136  58.3373848  35.1373035 111.2098718  58.1905211  34.4363054
 111.5773622  59.5150316  30.4254027 112.3245441  60.0271713  30.1161149
 111.8465212  59.1934369  31.2858421 109.8500272  62.0108857  27.4080981
 108.9411492  61.7267890  27.5053451 109.8795356  62.4307936  26.5484288
 115.0819540  65.6215447  31.1772149 114.6281867  64.7806356  31.2337339
 114.4513507  66.2576845  31.5146929 114.0252459  56.5507433  32.4072816
 113.2875216  56.0384819  32.7383059 114.2779233  56.1107814  31.5956093
 113.5252479  67.4591943  32.1121967 113.8175453  68.0197000  31.3934333
 114.0351100  67.7520504  32.8675126 114.1264087  49.3283685  33.0014586
 114.4322964  48.4681048  32.7140501 114.8516692  49.9201305  32.8013580
 100.4188443  59.7314371  31.3896184 100.2212843  59.1383732  30.6647250
  99.8635107  59.4266581  32.1072122 108.3985166  59.6237478  33.5090777
 108.4533776  58.6711314  33.4333253 107.5876369  59.7796917  33.9932075
 109.5476360  63.5517601  24.7469060 109.1095790  62.8353460  24.2874697
 110.2886801  63.7793715  24.1854151 106.3377526  58.2414537  31.2681156
 105.5245392  58.5408708  31.6746348 106.8336521  57.8470226  31.9855638
 108.4886104  68.2372294  33.2015420 108.4462283  68.4633141  32.2723952
 109.4048803  68.0035669  33.3501221 111.9351738  58.7056362  40.0996050
 112.2901126  58.9327835  40.9590515 112.5823869  59.0374739  39.4773305
 117.6649475  61.8274798  30.8045379 117.5267374  62.0176394  29.8766568
 117.3085694  62.5894181  31.2613430 105.8291601  55.8132893  36.8842391
 106.4690980  55.6721652  36.1865354 104.9969132  55.5267406  36.5080993
 117.6918855  63.8951325  35.8156650 118.1255361  63.8026614  36.6639704
 118.4050435  63.8708825  35.1776666 106.6051905  65.1135323  32.9977383
 107.3992504  64.6185643  32.7959958 105.8943597  64.5853186  32.6345089
 111.4246750  67.4953419  37.3489751 111.4783772  68.0644355  38.1167467
 110.5561531  67.6655304  36.9843788 102.9134669  59.2578405  29.0737136
 101.9832257  59.1962861  29.2907098 103.0092141  58.7354358  28.2773777
 102.8320218  55.7833218  31.6615377 103.0927035  56.6978551  31.5524538
 103.6537390  55.3157660  31.8111990 104.3045143  57.1970975  38.8314202
 104.9768196  56.9888337  38.1826851 103.4774929  56.9993061  38.3919434
 118.5534404  63.9375025  38.3489535 118.7470294  64.8420836  38.5948810
 118.4535022  63.4782444  39.1828120 110.2070715  53.8232916  40.8479863
 109.5598630  54.5222866  40.7544339 110.9771730  54.2569060  41.2156111
 113.6149513  64.0881768  43.9230416 113.4635019  63.8592320  43.0060500
 113.6054192  65.0452370  43.9361761 110.3834849  61.6613681  38.9076682
 111.3126909  61.8124840  38.7345650 109.9625879  61.7497702  38.0525329
 109.1823181  65.6864345  36.6775220 109.0434267  65.3183130  37.5501158
 108.3937777  66.2011985  36.5059178 109.7771333  70.7873442  28.0200757
 109.9523089  70.3161485  28.8346379 109.0904121  71.4139208  28.2482017
 110.7328396  65.0645948  34.0664058 110.3978229  65.0246718  34.9621708
 110.2332342  64.3990664  33.5934468 104.7072640  60.4713578  39.5916639
 104.5692438  59.7393817  40.1928178 105.6177564  60.3822478  39.3100827
 113.6687588  62.4101982  24.3401118 113.0516758  61.6848810  24.2434170
 113.2004076  63.1711343  23.9968192 107.3354941  60.1833537  39.0800319
 108.0454559  59.5426730  39.0386937 107.2924249  60.4346432  40.0026499
 115.3241720  67.1200891  42.0006898 115.2654266  66.4360111  41.3337481
 115.7261238  67.8619881  41.5487524 106.0483875  57.1698755  40.8995958
 105.5121232  56.7189494  41.5517555 105.4600583  57.3044664  40.1566423
 104.3432418  73.9362805  34.7940617 104.5829017  74.5681329  35.4719635
 103.5001615  73.5850845  35.0805976 105.4586134  56.6287407  23.4622422
 104.5815600  56.5076207  23.0984668 105.9343887  55.8373485  23.2101310
 115.3259127  65.0840475  40.2320878 114.4385906  64.7466396  40.3547276
 115.8957678  64.3523506  40.4689643  96.9788274  61.4164566  33.5563929
  97.6659314  61.1026296  32.9684944  96.8236403  62.3205931  33.2831180
 101.7822996  56.3054763  37.9848953 101.6981185  55.6980432  37.2499363
 100.9605702  56.7963781  37.9858449 108.8560280  69.7441927  37.1982121
 108.7830452  70.5496898  37.7101425 108.4137673  69.9433893  36.3730142
 108.6450060  68.9813697  30.7084942 107.8617582  69.5235377  30.8023167
 109.3442805  69.4987677  31.1079184 111.9546710  54.7908326  33.3519148
 112.4515409  54.0378289  33.0320218 111.1833691  54.8272643  32.7862357
 119.8076467  60.4948692  34.9937439 119.7966344  61.3773407  34.6231372
 118.9393847  60.1420243  34.7991976 111.3158964  69.6428761  39.3540279
 112.0286936  70.2776226  39.2816181 110.8248992  69.7392627  38.5380281
 113.0376491  63.5480014  30.9257571 112.1032769  63.6681476  30.7562275
 113.2153159  62.6452480  30.6617581 108.5381679  56.9325709  33.0790832
 108.1679466  56.3796750  33.7671738 109.0340771  56.3283843  32.5265832
 116.4249042  59.3897333  31.4607605 116.8909494  60.2225325  31.3867908
 116.8756542  58.9242315  32.1652864 106.3670877  67.3923204  40.1745850
 107.0680337  68.0259687  40.3275244 105.8965992  67.7337936  39.4141490
 114.4925273  65.7341154  28.4593757 114.7685117  65.6197749  29.3687631
 113.6229772  65.3358639  28.4205930 114.3965705  51.7577920  35.4998507
 113.4828785  51.9882147  35.6680714 114.8258806  51.8416364  36.3512539
 114.1672163  59.9467812  37.9998401 113.5143613  60.1943719  37.3450853
 114.5452543  59.1331950  37.6660878 111.1279337  69.9827505  32.1026571
 111.3101732  69.1649161  32.5654323 111.9512323  70.1995197  31.6651461
 111.4621503  68.9095690  29.3641619 111.9909269  68.3988145  28.7511782
 111.7249722  68.5938220  30.2287152 110.2159736  60.6887623  44.4864438
 109.5400373  60.5881752  45.1566813 111.0387370  60.5326837  44.9500435
 101.9638595  66.9259559  37.1076953 102.5492032  66.1803247  37.2404857
 101.7663434  67.2363516  37.9913617 104.8177251  69.9610807  32.1239395
 104.1487626  70.4456935  31.6403435 104.6790120  70.2080027  33.0382774
  96.5556250  59.4965160  35.8281396  96.5940350  58.9628750  36.6218514
  96.0496543  58.9700365  35.2092373 108.9582519  71.9954550  38.7222054
 109.5100827  72.1586172  39.4871139 109.2988713  72.5858988  38.0502079
 103.9347012  54.3429700  39.3243938 103.9988339  55.2044531  38.9121336
 103.8714133  53.7303702  38.5916297 103.4099285  56.4152833  42.9716973
 104.0371324  56.0329910  43.5854497 102.5527204  56.1967035  43.3372665
 113.8093393  66.8215808  44.5770708 114.3533297  67.4345766  44.0825663
 113.2280238  67.3795386  45.0937721 100.1864828  58.2229262  28.9035327
 100.4818269  57.3139940  28.8502381  99.2852863  58.2017001  28.5816330
 112.0950906  69.9436526  35.7085736 111.9702046  69.1426266  35.1996681
 112.7529997  70.4382719  35.2199706 103.7159075  56.2985258  34.8862876
 102.9945660  56.9121226  34.7470349 104.5052330  56.8343023  34.8079522
 114.1585815  67.7445546  37.3365286 113.2116150  67.6250897  37.2643613
 114.5068588  66.8568044  37.4191547 106.5185388  53.6339685  41.1603528
 107.0419790  53.8801981  41.9229837 106.2997721  54.4659720  40.7406665
 101.9152669  55.9043360  29.0274653 101.5865375  55.0240738  28.8449759
 102.2692040  55.8491028  29.9151042 111.1632248  67.5398262  33.5369638
 111.0157210  66.6114970  33.7177208 111.9885742  67.5618353  33.0526713
 105.0294492  56.1916329  29.3950130 105.3690565  56.7202251  28.6728739
 105.4766613  56.5296735  30.1708697 114.7666370  68.3626821  34.6234511
 115.6912917  68.1569682  34.4858962 114.5981673  68.1143222  35.5323852
 107.7237933  54.5753380  38.8453198 107.3834754  53.7761193  39.2473878
 107.0176939  54.8755091  38.2730032 108.3754405  51.6602692  37.2980521
 109.1980474  51.1863171  37.1759412 108.6192469  52.4393176  37.7979208
 107.0162639  54.6890951  27.5943423 107.7371002  55.0672204  27.0907140
 106.3927944  55.4079828  27.6978401 111.1593762  55.3936100  28.5301755
 111.3757377  56.2760738  28.2290584 110.6787830  55.0022313  27.8007397
 105.8992984  58.3521813  35.1072500 105.7537564  58.6662116  35.9996782
 105.4218187  58.9706713  34.5543399 107.7589367  55.3424361  35.1553390
 107.7450935  54.4465454  34.8185688 108.4761795  55.3495025  35.7891676
 109.6115497  55.7761701  37.2006517 109.3533275  56.6978772  37.1990847
 109.0800538  55.3792136  37.8906981 114.5561686  68.8812488  29.9796602
 114.7298564  68.3158911  29.2270455 115.0490577  69.6813383  29.7976092
 100.3738646  60.8927158  38.0460161  99.8292114  61.6686965  38.1780436
 101.2517996  61.2397962  37.8879283 107.1626263  54.2238741  30.4240960
 107.2842174  53.2955388  30.6231847 106.8728305  54.2377427  29.5119275
 110.0317453  51.9093652  33.5607680 110.0539150  51.9732985  32.6059659
 110.4485512  51.0698160  33.7548186 120.4101077  61.6448911  31.5986902
 120.8532223  60.8956237  31.2006025 119.5327588  61.6359048  31.2160634
 115.5436859  68.1979253  27.0793501 116.2387763  68.8185946  27.2980815
 115.8860009  67.3474604  27.3545879 101.1604668  60.0197054  40.9390318
 100.4186404  60.1679689  41.5254948 100.8397412  60.2805319  40.0757067
 117.4428282  65.6478958  28.6080831 117.9679606  65.9866231  27.8830151
 117.3550634  64.7125974  28.4243966 109.1048330  69.5613032  40.7370708
 109.4135457  69.3162179  41.6093408 109.9023812  69.7659670  40.2489578
 109.1268942  71.7150942  32.9676085 108.6873933  71.2227320  33.6608941
 109.8777059  71.1723909  32.7268160 101.6061281  67.9062482  32.9700713
 102.4319301  67.6066254  32.5899356 101.2555333  67.1370105  33.4190501
 106.5742815  67.2588951  35.0398386 105.9522824  66.5959656  34.7400614
 107.2447682  67.2850083  34.3572034  99.8069887  65.8248809  33.9289646
  98.9701795  65.3970983  33.7473648  99.7793532  66.0181252  34.8660437
 106.6467342  55.7370739  44.6330892 106.6955498  56.6132862  44.2508662
 107.1889856  55.1948132  44.0602536 117.1322188  66.2811862  43.9132029
 116.3417732  66.2636001  43.3736529 116.8955542  66.8200156  44.6681066
 117.2520063  63.1304328  41.2264758 117.3018068  62.9654336  42.1680281
 117.1433986  62.2631587  40.8362639 106.1356322  65.8092874  28.5156847
 106.2844442  66.4928338  27.8623520 106.9422765  65.7897964  29.0306303
 114.5423825  59.1135256  42.5424065 115.4433688  58.9741721  42.2508062
 114.6171800  59.2789711  43.4822242 108.8766631  56.4902111  41.3877251
 108.0069940  56.7835677  41.1159840 109.1126111  57.0742556  42.1084515
 118.7538260  65.5501270  41.4706779 118.4623068  65.9131250  42.3070240
 118.1410391  64.8368278  41.2920112 119.9533942  63.1154150  33.9909350
 120.7880833  63.5543954  34.1546910 120.0893071  62.6392803  33.1717595
 117.0025448  60.6733885  39.9386837 117.4779570  60.8661531  39.1305689
 116.0791013  60.7293070  39.6930221 103.8908955  61.8358052  29.5217916
 103.6454996  60.9320382  29.7198126 104.0604869  61.8375202  28.5797394
 111.5805664  52.7081728  38.9042671 112.0987608  53.4442755  38.5789160
 111.2260797  53.0145721  39.7389430 103.1604602  57.5686409  27.0204077
 102.4673847  57.6430764  26.3644113 102.9156354  56.8046753  27.5425594
 111.8318259  49.1282011  34.4243568 112.1120012  48.4605200  35.0503994
 112.6168865  49.3211106  33.9118232 109.6351727  68.3041004  25.9868594
 109.0625694  68.9231192  25.5339066 110.2084521  68.8540366  26.5208516
 115.7027117  57.5499645  38.1715143 116.6544540  57.6497742  38.1927367
 115.5330567  56.7577913  38.6813227 113.7241496  54.6355228  38.3574544
 113.1291428  54.9160241  37.6621033 113.4391193  55.1249129  39.1291285
 112.8548987  68.5878155  27.1177177 113.7879660  68.5223716  27.3210052
 112.7672200  69.4234421  26.6591709 115.4837004  67.9044025  24.0781124
 115.4050635  67.5703889  24.9716882 116.3046670  68.3965793  24.0772596
 118.1815195  60.7705764  37.2857443 118.1491515  59.8321765  37.4717127
 118.7915818  60.8489801  36.5523268 110.0198526  59.6401817  23.3284647
 110.9657630  59.5108025  23.3973065 109.6412771  58.9016479  23.8054075
 118.3309683  57.5616808  37.3315726 117.8148732  56.7775264  37.1445655
 119.2149632  57.2335524  37.4962245 115.9920410  51.3057823  33.2911539
 115.7945231  50.9972911  34.1754871 116.6020116  52.0319462  33.4209468
 109.9037218  63.6919563  44.7885304 110.8240228  63.8698162  44.9825350
 109.8686801  62.7475609  44.6365003 108.2041443  57.5651794  23.2639532
 107.2972898  57.2684906  23.3402246 108.4817424  57.2681612  22.3973818
  99.1219383  58.8858157  33.7138578  98.8022167  58.0323465  33.4212952
  98.5752811  59.1006735  34.4696546 102.8999291  61.6020598  37.4308085
 103.1185300  62.5337706  37.4496119 103.3125064  61.2428572  38.2162889
 109.8203508  52.1088683  29.4183773 109.0104237  51.7635768  29.7939019
 110.5087925  51.7996227  30.0071385 111.7494057  51.1866730  31.0408070
 112.3025095  51.6062184  31.6998093 111.9864143  50.2602478  31.0831026
 107.7727156  57.1753804  46.8210834 107.6723883  58.1248161  46.7522925
 107.5548698  56.8472043  45.9486904 106.9740227  54.4238729  23.4051511
 107.8359391  54.7493627  23.6647329 107.1590571  53.6370225  22.8924577
  98.9907643  62.5061069  35.6831700  98.2971115  62.0915021  35.1701654
  99.7380634  62.5481605  35.0865119 115.1272864  53.2967255  30.5486734
 114.5471533  53.9552059  30.1664787 114.8608796  52.4744600  30.1374152
 113.5776430  52.6972313  32.7508054 114.0776209  52.8088848  31.9422373
 114.2212038  52.3933366  33.3908863 107.6358426  60.6050943  45.6375895
 107.1525508  61.4051303  45.8439785 107.7219365  60.6158888  44.6843339
 100.9044386  62.4379322  33.5597715 100.8815074  62.5367010  32.6079598
 101.2145022  63.2844473  33.8814881 103.5631764  64.4955477  37.6744329
 104.5175017  64.4639420  37.6074261 103.3644287  64.0346101  38.4894555
 104.1531146  63.0656593  40.2415127 104.9724035  63.5600672  40.2649964
 104.4267953  62.1488562  40.2132694 113.9097742  55.4567346  29.6043082
 113.0223597  55.7416996  29.3863277 114.3251731  55.2961109  28.7570359
 117.2612278  55.4813867  33.3197422 118.0372668  55.9710319  33.5922038
 116.5360412  55.9071921  33.7769291 119.6984837  56.1941486  34.3771362
 120.2929327  55.9537222  33.6664671 119.7711420  55.4748616  35.0044899
 101.9181992  70.0375097  34.6914527 101.7836460  69.2775498  34.1252525
 101.5014055  70.7615997  34.2243316 113.0540955  65.2212020  23.6991102
 113.7576805  65.4262023  24.3148758 112.3303604  65.7888782  23.9640186
 113.8838766  60.9721882  29.8193373 113.8273967  61.4290433  28.9801005
 114.4367108  60.2112566  29.6416215 117.6943571  56.7611614  30.6443492
 117.4380506  56.3608249  31.4751700 117.0696440  57.4755407  30.5193631
 105.0751118  70.9344414  34.9032970 104.9583502  71.8789846  34.8011660
 104.2543564  70.6317975  35.2918769 114.9627653  65.6594550  25.7489562
 115.7973257  65.2275748  25.5667037 114.8011996  65.4876563  26.6766457
 114.6173545  62.1626663  27.1145902 114.5622349  61.9970934  26.1734346
 113.9919600  62.8702696  27.2708091  99.4066060  57.3994727  40.9407324
 100.0524923  56.8893681  41.4294549  99.1983211  58.1363409  41.5150749
 111.9319452  64.4675575  46.4399465 112.8010612  64.6416227  46.0786099
 111.4526204  65.2869992  46.3175194 107.9269670  51.6634772  26.6931220
 107.9148340  52.6076612  26.8499491 108.8193092  51.4804917  26.3990681
 106.1005632  71.5872676  38.1188898 107.0032879  71.6196286  38.4355393
 105.8743002  70.6573127  38.1335234 107.8559234  70.3403662  34.7798977
 106.9054865  70.3405524  34.6663349 108.1591720  69.5936397  34.2635011
 111.7421790  48.2577549  30.9477157 110.9754186  47.7036035  31.0933839
 112.1532495  48.3299417  31.8091309 103.7463551  54.5462344  45.0382338
 104.6095012  54.1899149  45.2485663 103.1728962  54.2076239  45.7257742
 120.4001634  76.1291629  35.7806264 120.0620146  76.0132693  34.8926799
 121.2691402  75.7282794  35.7607270 116.2588450  77.9827105  31.7703155
 115.6953315  77.8917042  31.0019443 116.1440845  77.1627010  32.2505647
 120.8821417  77.2826481  41.7392469 120.8710058  76.8879279  40.8672973
 121.0442057  76.5492553  42.3326241 113.8052882  79.4778297  34.6087375
 114.5974174  79.1369121  34.1933675 114.0449532  79.5873272  35.5289529
 115.7643636  78.7387210  27.4804754 116.5374512  78.1916197  27.3417630
 116.1169035  79.6031459  27.6919216 117.6028678  80.0663592  40.6871653
 117.3118544  80.9709223  40.5718320 118.2385663  80.1080120  41.4015723
 118.5284885  77.4440441  37.2773013 119.1248457  77.2196463  36.5629976
 118.5859857  76.7025186  37.8798461 118.1009913  74.8979876  25.1123204
 118.3535434  74.3761397  24.3506667 117.1634473  74.7346022  25.2149888
 117.8206202  76.8007982  27.3147579 117.7042460  76.1252886  27.9828663
 117.9308462  76.3140356  26.4979732 120.1637743  76.2618129  31.0194268
 119.7995950  75.7348750  31.7307190 121.0204859  75.8716598  30.8460754
 119.8043230  71.2908029  26.0155617 119.9717632  72.1588265  26.3826088
 119.6140399  71.4535311  25.0916906 116.0131045  76.2038805  33.7158152
 115.0881541  76.0715019  33.9235843 116.2615458  76.9833024  34.2128094
 119.7832451  73.7465686  27.0002284 119.6632076  74.1922737  27.8387764
 119.0885039  74.0951004  26.4415822 113.3739856  75.8472078  34.5501941
 113.5032237  76.1006557  35.4641352 112.6937307  76.4399786  34.2306596
 117.5439343  86.5169328  30.6492415 117.4663373  87.4677153  30.7280895
 116.9400987  86.1715201  31.3067341 120.0356573  73.6897194  43.3053782
 119.2589907  74.2491114  43.2956646 120.6747136  74.1753977  43.8268652
 118.2902945  76.4982647  42.8671749 119.0317630  77.0367691  42.5906572
 117.5839931  77.1248936  43.0243300 120.1189355  73.5784394  38.8377467
 120.9650550  74.0023808  38.9812116 120.0587993  72.9218019  39.5316030
 119.6415061  78.9387386  32.4846284 120.1053407  79.2175089  31.6950907
 119.3771859  78.0370831  32.3019375 116.5339142  78.4858868  35.4226047
 117.1040499  78.9146136  34.7843532 117.1247254  78.2041452  36.1210233
 118.5783947  75.0610539  29.2935849 119.2807991  75.5131582  29.7609776
 118.2464576  74.4194357  29.9215742 117.0264309  73.6522295  43.6687059
 116.3962969  74.3338576  43.9022456 116.9200397  73.5405377  42.7240197
 112.3209281  73.3194091  34.5952983 111.5308335  73.5751620  34.1193093
 112.8120529  74.1342429  34.7005023 114.2724027  73.6838670  31.5536460
 113.4755190  73.7957365  32.0719955 114.0449619  74.0225323  30.6877350
 120.1029694  80.2083374  39.5018974 120.1674127  80.6703781  40.3377146
 119.3940618  79.5780739  39.6301284 110.6046984  73.5724582  37.0267974
 110.8555023  74.4571592  37.2925550 111.1406533  73.3929183  36.2543065
 119.8177712  81.8751481  29.3697955 119.6823387  82.7203017  29.7982802
 120.3587525  82.0770759  28.6063888 116.3045052  67.9543061  46.0312310
 115.9111997  67.4009260  46.7059954 117.1211192  68.2653639  46.4218827
 113.2707109  79.3926919  29.9425880 113.7831630  80.1870169  30.0931444
 113.9229822  78.6953210  29.8759481 115.0801994  82.5092675  32.0248633
 115.2568622  83.4310640  31.8369617 115.8758828  82.1951095  32.4543013
 119.2213013  69.3700940  43.6232566 119.9622726  69.9708093  43.5437029
 119.4530935  68.6278578  43.0650609 114.3654351  74.5557307  41.9010796
 114.2507866  73.6542565  42.2017895 113.5098868  74.8021004  41.5495613
 116.2033310  84.0270849  38.0258975 116.7540735  83.8987913  37.2535969
 115.3644785  84.3265738  37.6753868 120.0000481  80.2921977  42.3703206
 120.5328817  79.5310265  42.1402514 119.4714562  79.9995629  43.1127361
 111.2356026  77.7215573  30.7185450 112.0731248  78.1312582  30.5019158
 111.4134294  76.7815016  30.6885644 120.7167569  70.2340355  31.4654521
 119.8609166  69.8447205  31.2860160 121.1294521  70.3132316  30.6054307
 118.4909602  67.8525428  34.8712263 119.3562599  67.6568237  34.5118152
 118.5587111  67.6235780  35.7981620 121.3653193  79.4207970  29.8822018
 120.8374555  78.6860729  29.5695256 120.8640696  80.1982646  29.6361987
 116.0971921  70.0827636  32.2428630 116.6715673  69.8602817  31.5101823
 116.6842903  70.1516330  32.9957231 116.4241508  72.1132097  26.2624515
 115.5878820  72.4506783  26.5833790 116.2846278  71.9781077  25.3251652
 118.3994589  66.9568885  30.9703699 117.7459001  66.6417902  30.3460314
 118.3575063  66.3344625  31.6963522 119.5105793  77.2388180  22.8856991
 118.6032855  77.0077433  23.0848140 120.0076825  76.4425799  23.0730973
 120.6894027  77.3400775  27.4080981 119.7805246  77.0559807  27.5053451
 120.7189111  77.7599853  26.5484288 111.2582197  75.0606289  31.3896184
 111.0606597  74.4675650  30.6647250 110.7028861  74.7558499  32.1072122
 119.2378921  74.9529395  33.5090777 119.2927531  74.0003232  33.4333253
 118.4270123  75.1088834  33.9932075 120.3870115  78.8809518  24.7469060
 119.9489545  78.1645377  24.2874697 121.1280556  79.1085633  24.1854151
 117.1771281  73.5706455  31.2681156 116.3639146  73.8700626  31.6746348
 117.6730275  73.1762144  31.9855638 119.3279859  83.5664212  33.2015420
 119.2856038  83.7925058  32.2723952 120.2442558  83.3327587  33.3501221
 116.6685356  71.1424811  36.8842391 117.3084735  71.0013570  36.1865354
 115.8362886  70.8559324  36.5080993 117.4445660  80.4427241  32.9977383
 118.2386258  79.9477561  32.7959958 116.7337352  79.9145104  32.6345089
 113.7528423  74.5870323  29.0737136 112.8226011  74.5254778  29.2907098
 113.8485895  74.0646275  28.2773777 113.6713972  71.1125136  31.6615377
 113.9320789  72.0270469  31.5524538 114.4931144  70.6449578  31.8111990
 115.1438897  72.5262893  38.8314202 115.8161951  72.3180255  38.1826851
 114.3168684  72.3284979  38.3919434 120.0216936  81.0156263  36.6775220
 119.8828021  80.6475047  37.5501158 119.2331532  81.5303902  36.5059178
 120.6165088  86.1165359  28.0200757 120.7916843  85.6453403  28.8346379
 119.9297876  86.7431126  28.2482017 121.5722151  80.3937866  34.0664058
 121.2371983  80.3538636  34.9621708 121.0726096  79.7282582  33.5934468
 115.5466395  75.8005496  39.5916639 115.4086193  75.0685735  40.1928178
 116.4571318  75.7114396  39.3100827 118.1748695  75.5125455  39.0800319
 118.8848314  74.8718647  39.0386937 118.1318003  75.7638350  40.0026499
 116.8877629  72.4990673  40.8995958 116.3514986  72.0481411  41.5517555
 116.2994338  72.6336582  40.1566423 115.1826173  89.2654722  34.7940617
 115.4222771  89.8973246  35.4719635 114.3395369  88.9142762  35.0805976
 116.2979888  71.9579324  23.4622422 115.4209355  71.8368125  23.0984668
 116.7737641  71.1665403  23.2101310 107.8182028  76.7456484  33.5563929
 108.5053068  76.4318214  32.9684944 107.6630157  77.6497849  33.2831180
 112.6216751  71.6346681  37.9848953 112.5374939  71.0272350  37.2499363
 111.7999457  72.1255699  37.9858449 119.6954035  85.0733845  37.1982121
 119.6224206  85.8788816  37.7101425 119.2531428  85.2725810  36.3730142
 119.4843814  84.3105615  30.7084942 118.7011336  84.8527295  30.8023167
 120.1836559  84.8279594  31.1079184 119.3775433  72.2617627  33.0790832
 119.0073221  71.7088667  33.7671738 119.8734526  71.6575761  32.5265832
 117.2064632  82.7215122  40.1745850 117.9074091  83.3551605  40.3275244
 116.7359747  83.0629854  39.4141490 112.8032350  82.2551477  37.1076953
 113.3885787  81.5095165  37.2404857 112.6057188  82.5655434  37.9913617
 115.6571005  85.2902725  32.1239395 114.9881380  85.7748852  31.6403435
 115.5183875  85.5371945  33.0382774 107.3950005  74.8257077  35.8281396
 107.4334104  74.2920668  36.6218514 106.8890297  74.2992283  35.2092373
 119.7976274  87.3246468  38.7222054 120.3494582  87.4878090  39.4871139
 120.1382467  87.9150906  38.0502079 114.7740767  69.6721618  39.3243938
 114.8382093  70.5336449  38.9121336 114.7107887  69.0595620  38.5916297
 114.2493039  71.7444750  42.9716973 114.8765078  71.3621828  43.5854497
 113.3920958  71.5258952  43.3372665 111.0258582  73.5521180  28.9035327
 111.3212023  72.6431858  28.8502381 110.1246618  73.5308919  28.5816330
 114.5552829  71.6277176  34.8862876 113.8339415  72.2413144  34.7470349
 115.3446085  72.1634941  34.8079522 117.3579143  68.9631603  41.1603528
 117.8813544  69.2093899  41.9229837 117.1391476  69.7951637  40.7406665
 112.7546424  71.2335277  29.0274653 112.4259130  70.3532656  28.8449759
 113.1085794  71.1782946  29.9151042 115.8688247  71.5208247  29.3950130
 116.2084319  72.0494168  28.6728739 116.3160367  71.8588653  30.1708697
 118.5631688  69.9045298  38.8453198 118.2228508  69.1053111  39.2473878
 117.8570694  70.2047009  38.2730032 119.2148159  66.9894610  37.2980521
 120.0374229  66.5155088  37.1759412 119.4586223  67.7685094  37.7979208
 117.8556394  70.0182869  27.5943423 118.5764756  70.3964121  27.0907140
 117.2321698  70.7371745  27.6978401 116.7386738  73.6813731  35.1072500
 116.5931319  73.9954034  35.9996782 116.2611942  74.2998631  34.5543399
 118.5983121  70.6716279  35.1553390 118.5844690  69.7757372  34.8185688
 119.3155549  70.6786943  35.7891676 120.4509252  71.1053619  37.2006517
 120.1927030  72.0270690  37.1990847 119.9194292  70.7084054  37.8906981
 111.2132400  76.2219075  38.0460161 110.6685868  76.9978883  38.1780436
 112.0911750  76.5689880  37.8879283 118.0020017  69.5530659  30.4240960
 118.1235928  68.6247305  30.6231847 117.7122059  69.5669345  29.5119275
 120.8711207  67.2385569  33.5607680 120.8932904  67.3024903  32.6059659
 121.2879266  66.3990078  33.7548186 111.9998422  75.3488971  40.9390318
 111.2580158  75.4971607  41.5254948 111.6791167  75.6097237  40.0757067
 119.9442085  84.8904950  40.7370708 120.2529211  84.6454096  41.6093408
 120.7417567  85.0951588  40.2489578 119.9662697  87.0442859  32.9676085
 119.5267687  86.5519238  33.6608941 120.7170814  86.5015827  32.7268160
 112.4455036  83.2354400  32.9700713 113.2713056  82.9358172  32.5899356
 112.0949088  82.4662023  33.4190501 117.4136569  82.5880868  35.0398386
 116.7916578  81.9251573  34.7400614 118.0841436  82.6142000  34.3572034
 110.6463641  81.1540727  33.9289646 109.8095549  80.7262901  33.7473648
 110.6187286  81.3473170  34.8660437 117.4861097  71.0662656  44.6330892
 117.5349252  71.9424779  44.2508662 118.0283611  70.5240049  44.0602536
 116.9750076  81.1384792  28.5156847 117.1238196  81.8220256  27.8623520
 117.7816519  81.1189882  29.0306303 119.7160385  71.8194029  41.3877251
 118.8463694  72.1127595  41.1159840 119.9519865  72.4034474  42.1084515
 114.7302709  77.1649969  29.5217916 114.4848751  76.2612299  29.7198126
 114.8998624  77.1667120  28.5797394 113.9998357  72.8978327  27.0204077
 113.3067601  72.9722682  26.3644113 113.7550108  72.1338671  27.5425594
 120.4745482  83.6332922  25.9868594 119.9019449  84.2523109  25.5339066
 121.0478275  84.1832284  26.5208516 119.0435197  72.8943711  23.2639532
 118.1366653  72.5976824  23.3402246 119.3211178  72.5973529  22.3973818
 109.9613138  74.2150075  33.7138578 109.6415922  73.3615383  33.4212952
 109.4146566  74.4298653  34.4696546 113.7393045  76.9312516  37.4308085
 113.9579055  77.8629624  37.4496119 114.1518819  76.5720490  38.2162889
 120.6597263  67.4380601  29.4183773 119.8497991  67.0927686  29.7939019
 121.3481680  67.1288145  30.0071385 118.6120910  72.5045721  46.8210834
 118.5117637  73.4540078  46.7522925 118.3942452  72.1763960  45.9486904
 117.8133982  69.7530647  23.4051511 118.6753146  70.0785545  23.6647329
 117.9984326  68.9662142  22.8924577 109.8301398  77.8352986  35.6831700
 109.1364869  77.4206939  35.1701654 110.5774389  77.8773523  35.0865119
 118.4752181  75.9342860  45.6375895 117.9919262  76.7343220  45.8439785
 118.5613120  75.9450805  44.6843339 111.7438140  77.7671240  33.5597715
 111.7208828  77.8658927  32.6079598 112.0538777  78.6136391  33.8814881
 114.4025518  79.8247395  37.6744329 115.3568772  79.7931337  37.6074261
 114.2038042  79.3638019  38.4894555 114.9924900  78.3948511  40.2415127
 115.8117789  78.8892590  40.2649964 115.2661708  77.4780479  40.2132694
 112.7575747  85.3667015  34.6914527 112.6230215  84.6067415  34.1252525
 112.3407809  86.0907914  34.2243316 115.9144873  86.2636332  34.9032970
 115.7977257  87.2081764  34.8011660 115.0937319  85.9609893  35.2918769
 110.2459814  72.7286645  40.9407324 110.8918678  72.2185599  41.4294549
 110.0376965  73.4655327  41.5150749 118.7663425  66.9926690  26.6931220
 118.7542095  67.9368529  26.8499491 119.6586847  66.8096835  26.3990681
 116.9399387  86.9164593  38.1188898 117.8426633  86.9488204  38.4355393
 116.7136757  85.9865044  38.1335234 118.6952989  85.6695580  34.7798977
 117.7448620  85.6697442  34.6663349 118.9985475  84.9228315  34.2635011
 114.5857305  69.8754262  45.0382338 115.4488767  69.5191067  45.2485663
 114.0122716  69.5368157  45.7257742 118.6575783  92.0748402  33.5563929
 119.3446823  91.7610132  32.9684944 118.5023912  92.9789766  33.2831180
 118.2343759  90.1548995  35.8281396 118.2727859  89.6212586  36.6218514
 117.7284052  89.6284201  35.2092373 121.4857395  96.4832644  33.9289646
 120.6489304  96.0554819  33.7473648 121.4581041  96.6765088  34.8660437
 120.8006892  89.5441992  33.7138578 120.4809676  88.6907301  33.4212952
 120.2540320  89.7590571  34.4696546 120.6695152  93.1644904  35.6831700
 119.9758624  92.7498857  35.1701654 121.4168143  93.2065440  35.0865119
  74.1864326   2.2063780  17.3737721  74.1088356   3.1571605  17.4526202
  73.5825970   1.8609653  18.0312648  71.8251156   4.9549174  21.5185923
  72.0647754   5.5867698  22.1964942  70.9820353   4.6037214  21.8051283
  72.2995988   0.9797176  18.8484702  71.6306364   1.4643304  18.3648742
  72.1608858   1.2266397  19.7628081  76.4401257   3.0140920  25.4467360
  76.9919565   3.1772541  26.2116446  76.7807450   3.6045358  24.7747385
  69.4000730   1.0561466  21.4159834  69.2655198   0.2961867  20.8497832
  68.9832792   1.7802366  20.9488623  72.5569856   1.9530783  21.6278276
  72.4402240   2.8976216  21.5256967  71.7362302   1.6504345  22.0164076
  73.5824370   2.6059045  24.8434205  74.4851617   2.6382656  25.1600700
  73.3561740   1.6759496  24.8580541  87.8820372   7.1477998  22.5051571
  87.5438883   7.0319063  21.6172105  88.7510140   6.7469163  22.4852577
  83.7407188   9.0013475  18.4948462  83.1772053   8.9103412  17.7264749
  83.6259583   8.1813379  18.9750954  88.3640155   8.3012850  28.4637776
  88.3528796   7.9065648  27.5918280  88.5260794   7.5678923  29.0571548
  81.2871619  10.4964666  21.3332682  82.0792911  10.1555491  20.9178981
  81.5268270  10.6059641  22.2534835  89.3206746  12.6684442  13.8062926
  88.6694726  13.2538523  13.4196940  90.1151109  13.1990637  13.8657964
  83.2462373   9.7573580  14.2050061  84.0193249   9.2102567  14.0662937
  83.5987772  10.6217829  14.4164522  85.0847416  11.0849962  27.4116960
  84.7937282  11.9895593  27.2963626  85.7204400  11.1266490  28.1261030
  86.0103623   8.4626810  24.0018320  86.6067195   8.2382833  23.2875283
  86.0678594   7.7211556  24.6043768  85.3024940   7.8194352  14.0392886
  85.1861198   7.1439255  14.7073970  85.4127200   7.3326726  13.2225039
  87.6456481   7.2804499  17.7439575  87.2814688   6.7535120  18.4552496
  88.5023597   6.8902968  17.5706060  90.0437301  10.7711377  24.4066754
  89.7438024  11.6736416  24.2982561  89.6988361  10.5043561  25.2587907
  83.4949783   7.2225174  20.4403458  82.5700279   7.0901388  20.6481150
  83.7434196   8.0019393  20.9373401  80.8558594   6.8658448  21.2747247
  80.9850975   7.1192927  22.1886659  80.1756045   7.4586156  20.9551902
  85.0258081  17.5355698  17.3737721  84.9482111  18.4863523  17.4526202
  84.4219724  17.1901570  18.0312648  85.7721683   7.5169017  29.5917055
  86.5136367   8.0554061  29.3151879  85.0658668   8.1435305  29.7488607
  91.2477023   9.6598157  28.1889217  91.6560379   9.2180568  27.4443849
  90.5254284   9.0850785  28.4423410  91.5705837  10.2199348  21.9441506
  90.9414700  10.3845062  21.2417574  91.1831499  10.6340957  22.7152470
  95.4495069  11.1553785  19.2985869  94.7646107  11.5352687  18.7482903
  95.5338918  11.7649112  20.0317817  92.7046001   8.8013745  25.8981213
  92.9162896   9.4445504  25.2215594  92.6575749   7.9676061  25.4303143
  87.1233799   9.9573756  19.2091591  87.5872145  10.2361459  18.4196213
  86.8590597   9.0557200  19.0264681  84.0157880   9.5045237  22.1471354
  84.5859237   9.9332506  21.5088839  84.6065992   9.2227822  22.8455540
  79.8028019   4.3380461  21.3198290  79.0127073   4.5937989  20.8438400
  80.2939267   5.1528799  21.4250330  93.8191829  11.6785700  24.0703570
  94.6409272  11.2765887  23.7886252  93.8154232  11.5753934  25.0219686
  81.7542765   4.7025040  18.2781766  80.9573928   4.8143734  18.7965262
  81.5268357   5.0411692  17.4122657  87.5848432  11.2269743  26.2264281
  87.6492865  11.6890150  27.0622453  86.8759356  10.5967108  26.3546591
  78.0865722   4.5910951  23.7513280  78.3373761   5.4757961  24.0170856
  78.6225271   4.4115553  22.9788372  87.2996450  12.8937851  16.0943261
  87.1642125  13.7389386  16.5228109  87.8406262  13.0957128  15.3309195
  80.7525847  10.4113289  16.6671186  81.2650368  11.2056539  16.8176751
  81.4048560   9.7139579  16.6004788  82.5620732  13.5279045  18.7493939
  82.7387360  14.4497010  18.5614923  83.3577565  13.2137464  19.1788319
  81.8473088   5.5743677  28.6256103  81.7326604   4.6728934  28.9263202
  80.9917606   5.8207374  28.2740919  88.9264926  13.5161417  30.2243603
  88.4828780  12.7297796  29.9064508  89.5882140  13.7040568  29.5587494
  83.6852047  15.0457219  24.7504282  84.2359472  14.9174282  23.9781276
  82.8463523  15.3452108  24.3999175  91.0246164  13.7964217  28.2525005
  91.0064640  14.6173098  27.7605274  91.9466084  13.6718292  28.4775146
  87.4819218  11.3108347  29.0948513  88.0147555  10.5496635  28.8647821
  86.9533300  11.0181998  29.8372667  78.7174764   8.7401943  17.4430757
  79.5549986   9.1498951  17.2264465  78.8953032   7.8001385  17.4130951
  88.8471931  10.4394339  16.6067325  88.3193293   9.7047099  16.2940562
  88.3459434  11.2169015  16.3607293  93.8264777   8.6343360  21.7234371
  93.1688452   9.3242621  21.8114500  94.6305176   9.0239792  22.0668358
  89.8992610  16.9672057  12.5298984  89.2254309  17.2703753  13.1383942
  90.2858432  17.7701137  12.1804441  93.4032032  11.9693734  17.9017456
  92.9494359  11.1284644  17.9582646  92.7725999  12.6055132  18.2392236
  91.8464971  13.8070230  18.8367274  92.1387946  14.3675288  18.1179639
  92.3563592  14.0998791  19.5920433  78.7400935   6.0792658  18.1141490
  78.5425335   5.4862019  17.3892557  78.1847599   5.7744869  18.8317429
  86.8098597  14.5850582  19.9260727  86.7674775  14.8111428  18.9969259
  87.7261295  14.3513956  20.0746528  96.0131347  10.2429612  22.5401957
  96.4467854  10.1504901  23.3885011  96.7262928  10.2187112  21.9021973
  84.9264397  11.4613611  19.7222690  85.7204996  10.9663931  19.5205265
  84.2156090  10.9331474  19.3590395  89.7459242  13.8431706  24.0735057
  89.7996264  14.4122642  24.8412773  88.8774023  14.0133591  23.7089094
  81.2347161   5.6056692  15.7982442  80.3044749   5.5441148  16.0152404
  81.3304633   5.0832645  15.0019084  96.8746896  10.2853313  25.0734842
  97.0682787  11.1899123  25.3194117  96.7747515   9.8260732  25.9073427
  91.9362005  10.4360055  30.6475723  91.7847512  10.2070607  29.7305806
  91.9266685  11.3930657  30.6607068  88.7047342   8.0091968  25.6321989
  89.6339402   8.1603128  25.4590956  88.2838372   8.0975989  24.7770636
  87.5035673  12.0342633  23.4020527  87.3646759  11.6661417  24.2746465
  86.7150270  12.5490272  23.2304485  88.0983825  17.1351729  14.7446063
  88.2735581  16.6639772  15.5591686  87.4116613  17.7617495  14.9727324
  89.0540888  11.4124235  20.7909365  88.7190721  11.3725005  21.6867014
  88.5544834  10.7468951  20.3179775  83.0285132   6.8191865  26.3161946
  82.8904930   6.0872104  26.9173485  83.9390056   6.7300765  26.0346133
  85.6567433   6.5311825  25.8045625  86.3667052   5.8905017  25.7632244
  85.6136741   6.7824719  26.7271806  93.6454212  13.4679178  28.7252205
  93.5866758  12.7838398  28.0582788  94.0473730  14.2098168  28.2732831
  82.6644911  20.2841092  21.5185923  82.9041509  20.9159616  22.1964942
  81.8214107  19.9329132  21.8051283  93.6471619  11.4318762  26.9566184
  92.7598398  11.0944684  27.0792583  94.2170170  10.7001793  27.1934950
  75.3000766   7.7642854  20.2809236  75.9871806   7.4504584  19.6930251
  75.1448895   8.6684218  20.0076487  87.1772772  16.0920214  23.9227427
  87.1042944  16.8975186  24.4346732  86.7350166  16.2912180  23.0975449
  86.9662552  15.3291984  17.4330249  86.1830074  15.8713664  17.5268473
  87.6655297  15.8465964  17.8324490  89.6371456  15.9907048  26.0785586
  90.3499428  16.6254513  26.0061488  89.1461485  16.0870914  25.2625588
  91.3588983   9.8958301  17.6502878  90.4245262  10.0159763  17.4807582
  91.5365651   8.9930768  17.3862888  84.6883370  13.7401492  26.8991157
  85.3892829  14.3737975  27.0520551  84.2178485  14.0816223  26.1386796
  89.4491829  16.3305792  18.8271878  89.6314224  15.5127448  19.2899630
  90.2724815  16.5473485  18.3896768  89.7833995  15.2573977  16.0886926
  90.3121761  14.7466432  15.4757088  90.0462214  14.9416508  16.9532459
  88.5372229   7.0365910  31.2109744  87.8612866   6.9360040  31.8812120
  89.3599862   6.8805124  31.6745742  80.2851088  13.2737847  23.8322260
  80.8704524  12.5281535  23.9650164  80.0875926  13.5841803  24.7158924
  83.1389743  16.3089094  18.8484702  82.4700118  16.7935222  18.3648742
  83.0002612  16.5558315  19.7628081  74.8768742   5.8443447  22.5526703
  74.9152842   5.3107038  23.3463821  74.3709035   5.3178652  21.9337680
  87.2795011  18.3432838  25.4467360  87.8313319  18.5064459  26.2116446
  87.6201205  18.9337275  24.7747385  92.1305886  13.1694095  31.3016015
  92.6745790  13.7824053  30.8070970  91.5492731  13.7273674  31.8183028
  78.5077320   4.5707549  15.6280634  78.8030761   3.6618228  15.5747688
  77.6065356   4.5495289  15.3061636  90.4163399  16.2914813  22.4331043
  90.2914538  15.4904553  21.9241988  91.0742490  16.7861007  21.9445012
  92.4798307  14.0923833  24.0610593  91.5328643  13.9729184  23.9888919
  92.8281080  13.2046331  24.1436854  89.4844740  13.8876549  20.2614945
  89.3369703  12.9593257  20.4422515  90.3098234  13.9096640  19.7772020
  93.0878862  14.7105108  21.3479818  94.0125410  14.5047970  21.2104269
  92.9194166  14.4621509  22.2569159  92.8774178  15.2290776  16.7041909
  93.0511056  14.6637198  15.9515761  93.3703070  16.0291671  16.5221399
  78.6951138   7.2405445  24.7705468  78.1504606   8.0165253  24.9025742
  79.5730488   7.5876249  24.6124589  79.4817160   6.3675341  27.6635625
  78.7398896   6.5157976  28.2500255  79.1609904   6.6283607  26.8002374
  87.4260823  15.9091319  27.4616015  87.7347949  15.6640466  28.3338714
  88.2236305  16.1137958  26.9734885  87.4481435  18.0629229  19.6921391
  87.0086425  17.5705608  20.3854248  88.1989552  17.5202197  19.4513467
  79.9273774  14.2540770  19.6946019  80.7531794  13.9544542  19.3144663
  79.5767826  13.4848392  20.1435808  84.8955307  13.6067238  21.7643693
  84.2735316  12.9437943  21.4645921  85.5660174  13.6328370  21.0817341
  78.1282379  12.1727096  20.6534953  77.2914287  11.7449271  20.4718954
  78.1006024  12.3659540  21.5905744  95.4534680  12.6290149  30.6377336
  94.6630224  12.6114288  30.0981835  95.2168035  13.1678443  31.3926373
  84.4568814  12.1571161  15.2402153  84.6056934  12.8406626  14.5868826
  85.2635257  12.1376251  15.7551609  97.0750752  11.8979557  28.1952086
  96.7835560  12.2609538  29.0315547  96.4622883  11.1846565  28.0165418
  82.2121447   8.1836339  16.2463222  81.9667489   7.2798669  16.4443433
  82.3817361   8.1853489  15.3042700  87.9564219  14.6519292  12.7113901
  87.3838186  15.2709479  12.2584373  88.5297013  15.2018653  13.2453823
  88.2249710  10.0397851  31.5130610  89.1452720  10.2176450  31.7070657
  88.1899293   9.0953896  31.3610310  77.4431875   5.2336444  20.4383885
  77.1234660   4.3801752  20.1458259  76.8965304   5.4485022  21.1941852
  81.2211783   7.9498885  24.1553392  81.4397793   8.8815993  24.1741425
  81.6337557   7.5906860  24.9408195  77.3120135   8.8539356  22.4077007
  76.6183607   8.4393309  21.8946961  78.0593126   8.8959892  21.8110426
  85.9570918   6.9529230  32.3621202  85.4738000   7.7529590  32.5685091
  86.0431857   6.9637175  31.4088646  79.2256878   8.7857610  20.2843021
  79.2027566   8.8845297  19.3324905  79.5357514   9.6322760  20.6060188
  81.8844256  10.8433765  24.3989636  82.8387509  10.8117707  24.3319567
  81.6856779  10.3824388  25.2139862  82.4743638   9.4134881  26.9660434
  83.2936527   9.9078959  26.9895271  82.7480446   8.4966849  26.9378001
  80.2394485  16.3853384  21.4159834  80.1048953  15.6253785  20.8497832
  79.8226547  17.1094284  20.9488623  83.3963610  17.2822701  21.6278276
  83.2795995  18.2268134  21.5256967  82.5756057  16.9796263  22.0164076
  77.7278552   3.7473015  27.6652631  78.3737416   3.2371968  28.1539856
  77.5195703   4.4841696  28.2396056  90.2531944  10.8153862  33.1644771
  91.1223104  10.9894514  32.8031406  89.7738696  11.6348279  33.0420501
  84.4218125  17.9350963  24.8434205  85.3245371  17.9674573  25.1600700
  84.1955495  17.0051414  24.8580541  86.1771727  16.6881950  21.5044283
  85.2267358  16.6883811  21.3908656  86.4804213  15.9414684  20.9880318
 101.9124420  22.5242488  22.5690046 102.5502830  22.4049235  21.8653386
 101.7945263  23.4723332  22.6277998  98.7214126  22.4769916  22.5051571
  98.3832638  22.3610981  21.6172105  99.5903895  22.0761081  22.4852577
  94.5800942  24.3305392  18.4948462  94.0165807  24.2395329  17.7264749
  94.4653337  23.5105297  18.9750954  99.2033909  23.6304768  28.4637776
  99.1922550  23.2357566  27.5918280  99.3654549  22.8970840  29.0571548
  92.1265374  25.8256584  21.3332682  92.9186666  25.4847409  20.9178981
  92.3662024  25.9351559  22.2534835 100.1600501  27.9976360  13.8062926
  99.5088481  28.5830441  13.4196940 100.9544864  28.5282555  13.8657964
  94.0856128  25.0865497  14.2050061  94.8587004  24.5394484  14.0662937
  94.4381527  25.9509747  14.4164522  95.9241170  26.4141880  27.4116960
  95.6331036  27.3187510  27.2963626  96.5598155  26.4558407  28.1261030
  96.8497377  23.7918728  24.0018320  97.4460950  23.5674750  23.2875283
  96.9072349  23.0503474  24.6043768  96.1418694  23.1486269  14.0392886
  96.0254953  22.4731173  14.7073970  96.2520954  22.6618643  13.2225039
  98.4850235  22.6096416  17.7439575  98.1208443  22.0827037  18.4552496
  99.3417351  22.2194886  17.5706060 104.3899536  13.8990749  25.0070841
 104.0582861  14.7686160  24.7832056 103.7945149  13.5827033  25.6864871
 100.8831056  26.1003295  24.4066754 100.5831779  27.0028334  24.2982561
 100.5382115  25.8335478  25.2587907  94.3343537  22.5517092  20.4403458
  93.4094034  22.4193306  20.6481150  94.5827950  23.3311311  20.9373401
 104.2828199  18.6185835  22.0864191 103.3745077  18.5501244  21.7922952
 104.2315795  19.0957780  22.9146017  91.6952348  22.1950365  21.2747247
  91.8244729  22.4484844  22.1886659  91.0149799  22.7878073  20.9551902
  95.8651835  32.8647615  17.3737721  95.7875865  33.8155441  17.4526202
  95.2613479  32.5193488  18.0312648  98.3569065  20.0375481  30.0299088
  97.5802399  20.5969401  30.0201953  98.9959628  20.5232264  30.5513958
  96.6115437  22.8460934  29.5917055  97.3530122  23.3845978  29.3151879
  95.9052423  23.4727223  29.7488607 102.0870777  24.9890075  28.1889217
 102.4954133  24.5472485  27.4443849 101.3648039  24.4142702  28.4423410
  98.4401847  19.9262681  25.5622774  99.2863042  20.3502095  25.7057423
  98.3800485  19.2696306  26.2561337 102.4099592  25.5491265  21.9441506
 101.7808454  25.7136979  21.2417574 102.0225254  25.9632875  22.7152470
 106.2888824  26.4845703  19.2985869 105.6039862  26.8644605  18.7482903
 106.3732673  27.0941030  20.0317817 101.5901292  17.5867050  27.2203947
 101.3462224  18.3409110  26.6838223 101.8661223  17.9652397  28.0551194
 103.5439755  24.1305662  25.8981213 103.7556650  24.7737422  25.2215594
 103.4969503  23.2967979  25.4303143 101.1465984  16.7423483  22.8017785
 100.2850463  17.0404736  23.0934523 101.1728419  16.9593882  21.8698818
  97.9627554  25.2865673  19.2091591  98.4265899  25.5653376  18.4196213
  97.6984352  24.3849118  19.0264681  94.8551635  24.8337155  22.1471354
  95.4252992  25.2624423  21.5088839  95.4459747  24.5519740  22.8455540
  96.8996440  21.4088826  16.0181156  97.6020483  21.8609869  16.4855082
  96.5677068  20.7672645  16.6461049  95.3476801  20.0000582  30.3932365
  94.7175462  20.6816863  30.6267762  95.2412889  19.8883664  29.4485504
  90.6421774  19.6672378  21.3198290  89.8520828  19.9229907  20.8438400
  91.1333021  20.4820716  21.4250330 104.6585583  27.0077618  24.0703570
 105.4803027  26.6057805  23.7886252 104.6547986  26.9045852  25.0219686
  92.5936519  20.0316958  18.2781766  91.7967682  20.1435652  18.7965262
  92.3662111  20.3703610  17.4122657  98.4242187  26.5561661  26.2264281
  98.4886619  27.0182068  27.0622453  97.7153111  25.9259026  26.3546591
  88.9259477  19.9202869  23.7513280  89.1767515  20.8049879  24.0170856
  89.4619025  19.7407470  22.9788372  98.1390204  28.2229768  16.0943261
  98.0035879  29.0681304  16.5228109  98.6800017  28.4249046  15.3309195
  94.6257544  14.3021348  32.7557616  94.2324489  13.7487547  33.4305261
  95.4423684  14.6131927  33.1464134  91.5919602  25.7405206  16.6671186
  92.1044122  26.5348457  16.8176751  92.2442315  25.0431497  16.6004788
  93.4014486  28.8570963  18.7493939  93.5781115  29.7788927  18.5614923
  94.1971320  28.5429382  19.1788319  97.5425505  15.7179227  30.3477873
  98.2835218  16.3186380  30.2682335  97.7743428  14.9756865  29.7895916
  92.6866843  20.9035595  28.6256103  92.5720358  20.0020852  28.9263202
  91.8311361  21.1499291  28.2740919  99.7658681  28.8453335  30.2243603
  99.3222535  28.0589713  29.9064508 100.4275894  29.0332485  29.5587494
  94.5245802  30.3749136  24.7504282  95.0753227  30.2466200  23.9781276
  93.6857278  30.6744026  24.3999175 101.8639919  29.1256135  28.2525005
 101.8458394  29.9465016  27.7605274 102.7859839  29.0010210  28.4775146
  98.3212973  26.6400264  29.0948513  98.8541310  25.8788552  28.8647821
  97.7927054  26.3473916  29.8372667  89.5568518  24.0693861  17.4430757
  90.3943740  24.4790869  17.2264465  89.7346786  23.1293303  17.4130951
 100.5679208  14.1164985  22.5891388 100.0644004  14.0795121  21.7759193
 100.8609815  15.0257728  22.6488045  96.8122094  14.2003715  21.5957570
  97.6775091  14.0046524  21.2363459  96.8799603  13.9714067  22.5226926
  99.6865686  25.7686257  16.6067325  99.1587047  25.0339016  16.2940562
  99.1853188  26.5460933  16.3607293 104.6658532  23.9635277  21.7234371
 104.0082206  24.6534539  21.8114500 105.4698931  24.3531709  22.0668358
  94.4184413  16.4305923  18.9673936  94.9928165  16.2081105  18.2347129
  95.0055396  16.4994618  19.7202538 100.7386365  32.2963974  12.5298984
 100.0648063  32.5995671  13.1383942 101.1252187  33.0993055  12.1804441
  99.9544821  19.7929106  22.0196653  99.0367383  20.0144053  21.8618342
 100.3704965  19.8675416  21.1608361 104.2425787  27.2985651  17.9017456
 103.7888114  26.4576561  17.9582646 103.6119753  27.9347050  18.2392236
 102.6858726  29.1362148  18.8367274 102.9781700  29.6967205  18.1179639
 103.1957346  29.4290709  19.5920433  89.5794690  21.4084576  18.1141490
  89.3819089  20.8153937  17.3892557  89.0241354  21.1036786  18.8317429
  97.5591413  21.3007683  20.2336083  97.6140023  20.3481519  20.1578560
  96.7482615  21.4567122  20.7177382  95.4983773  19.9184742  17.9926462
  94.6851639  20.2178913  18.3991654  95.9942767  19.5240431  18.7100945
  97.6492351  29.9142499  19.9260727  97.6068530  30.1403346  18.9969259
  98.5655050  29.6805874  20.0746528 101.0957985  20.3826567  26.8241356
 101.4507373  20.6098040  27.6835822 101.7430116  20.7144944  26.2018611
  94.9897848  17.4903098  23.6087697  95.6297227  17.3491857  22.9110661
  94.1575378  17.2037611  23.2326299 106.8525101  25.5721530  22.5401957
 107.2861608  25.4796819  23.3885011 107.5656682  25.5479030  21.9021973
  95.7658152  26.7905528  19.7222690  96.5598750  26.2955848  19.5205265
  95.0549844  26.2623391  19.3590395 100.5852996  29.1723624  24.0735057
 100.6390019  29.7414560  24.8412773  99.7167778  29.3425509  23.7089094
  92.0740915  20.9348610  15.7982442  91.1438503  20.8733065  16.0152404
  92.1698387  20.4124563  15.0019084  91.9926464  17.4603423  18.3860684
  92.2533282  18.3748756  18.2769844  92.8143637  16.9927865  18.5357297
  93.4651390  18.8741180  25.5559509  94.1374443  18.6658542  24.9072157
  92.6381176  18.6763266  25.1164741 107.7140651  25.6145230  25.0734842
 107.9076541  26.5191041  25.3194117 107.6141269  25.1552649  25.9073427
  99.3676962  15.5003121  27.5725169  98.7204877  16.1993071  27.4789646
 100.1377977  15.9339265  27.9401418 102.7755760  25.7651973  30.6475723
 102.6241266  25.5362525  29.7305806 102.7660439  26.7222574  30.6607068
  99.5441096  23.3383886  25.6321989 100.4733156  23.4895045  25.4590956
  99.1232126  23.4267907  24.7770636  98.3429428  27.3634550  23.4020527
  98.2040514  26.9953335  24.2746465  97.5544024  27.8782190  23.2304485
  98.9377580  32.4643647  14.7446063  99.1129335  31.9931690  15.5591686
  98.2510368  33.0909413  14.9727324  99.8934643  26.7416153  20.7909365
  99.5584476  26.7016923  21.6867014  99.3938589  26.0760869  20.3179775
  93.8678887  22.1483783  26.3161946  93.7298685  21.4164022  26.9173485
  94.7783810  22.0592683  26.0346133  96.4961188  21.8603742  25.8045625
  97.2060806  21.2196934  25.7632244  96.4530496  22.1116637  26.7271806
 104.4847966  28.7971096  28.7252205 104.4260512  28.1130316  28.0582788
 104.8867485  29.5390086  28.2732831  95.2090122  18.8468960  27.6241265
  94.6727479  18.3959699  28.2762861  94.6206830  18.9814869  26.8811729
  93.5038665  35.6133009  21.5185923  93.7435263  36.2451534  22.1964942
  92.6607862  35.2621049  21.8051283 104.4865374  26.7610680  26.9566184
 103.5992152  26.4236601  27.0792583 105.0563925  26.0293711  27.1934950
  86.1394521  23.0934771  20.2809236  86.8265561  22.7796501  19.6930251
  85.9842649  23.9976136  20.0076487  90.9429243  17.9824968  24.7094259
  90.8587432  17.3750637  23.9744669  90.1211949  18.4733986  24.7103756
  98.0166527  31.4212132  23.9227427  97.9436698  32.2267103  24.4346732
  97.5743920  31.6204098  23.0975449  97.8056307  30.6583902  17.4330249
  97.0223828  31.2005582  17.5268473  98.5049052  31.1757882  17.8324490
 100.4765210  31.3198966  26.0785586 101.1893183  31.9546431  26.0061488
  99.9855239  31.4162832  25.2625588 102.1982737  25.2250219  17.6502878
 101.2639016  25.3451681  17.4807582 102.3759406  24.3222685  17.3862888
  97.6987925  18.6095914  19.8036139  97.3285713  18.0566955  20.4917045
  98.1947018  18.0054048  19.2511139  95.5277124  29.0693409  26.8991157
  96.2286584  29.7029892  27.0520551  95.0572239  29.4108141  26.1386796
 103.3278410  21.6238017  24.7243707 102.6749860  21.8713924  24.0696160
 103.7058790  20.8102155  24.3906185 100.2885584  31.6597710  18.8271878
 100.4707978  30.8419366  19.2899630 101.1118570  31.8765402  18.3896768
 100.6227749  30.5865895  16.0886926 101.1515516  30.0758350  15.4757088
 100.8855969  30.2708425  16.9532459  99.3765983  22.3657828  31.2109744
  98.7006620  22.2651957  31.8812120 100.1993617  22.2097042  31.6745742
  91.1244842  28.6029764  23.8322260  91.7098279  27.8573452  23.9650164
  90.9269681  28.9133721  24.7158924  93.9783497  31.6381012  18.8484702
  93.3093873  32.1227139  18.3648742  93.8396367  31.8850232  19.7628081
  85.7162497  21.1735365  22.5526703  85.7546596  20.6398955  23.3463821
  85.2102790  20.6470570  21.9337680  98.1188766  33.6724755  25.4467360
  98.6707074  33.8356377  26.2116446  98.4594959  34.2629193  24.7747385
  93.0953259  16.0199905  26.0489245  93.1594586  16.8814736  25.6366643
  93.0320379  15.4073907  25.3161604  92.5705532  18.0923038  29.6962279
  93.1977570  17.7100115  30.3099804  91.7133450  17.8737240  30.0617972
 102.9699640  28.4986013  31.3016015 103.5139544  29.1115971  30.8070970
 102.3886485  29.0565591  31.8183028  89.3471074  19.8999467  15.6280634
  89.6424515  18.9910145  15.5747688  88.4459110  19.8787206  15.3061636
 101.2557153  31.6206731  22.4331043 101.1308293  30.8196471  21.9241988
 101.9136244  32.1152924  21.9445012  92.8765321  17.9755463  21.6108183
  92.1551907  18.5891431  21.4715656  93.6658577  18.5113228  21.5324829
 103.3192062  29.4215751  24.0610593 102.3722397  29.3021102  23.9888919
 103.6674835  28.5338249  24.1436854  95.6791635  15.3109890  27.8848835
  96.2026037  15.5572186  28.6475144  95.4603968  16.1429925  27.4651972
  91.0758916  17.5813564  15.7519959  90.7471622  16.7010943  15.5695065
  91.4298287  17.5261233  16.6396349 100.3238495  29.2168467  20.2614945
 100.1763457  28.2885175  20.4422515 101.1491988  29.2388558  19.7772020
  94.1900739  17.8686534  16.1195437  94.5296812  18.3972455  15.3974045
  94.6372860  18.2066940  16.8954004 103.9272617  30.0397026  21.3479818
 104.8519164  29.8339887  21.2104269 103.7587920  29.7913427  22.2569159
  96.8844180  16.2523585  25.5698505  96.5441000  15.4531398  25.9719185
  96.1783186  16.5525296  24.9975338  97.5360652  13.3372897  24.0225828
  98.3586721  12.8633376  23.9004718  97.7798715  14.1163381  24.5224514
  95.0599231  20.0292018  21.8317807  94.9143811  20.3432321  22.7242088
  94.5824434  20.6476918  21.2788705  96.9195613  17.0194566  21.8798696
  96.9057182  16.1235659  21.5430994  97.6368042  17.0265230  22.5136982
  98.7721744  17.4531906  23.9251824  98.5139522  18.3748977  23.9236154
  98.2406785  17.0562341  24.6152288 103.7167933  30.5582693  16.7041909
 103.8904810  29.9929116  15.9515761 104.2096824  31.3583588  16.5221399
  89.5344893  22.5697362  24.7705468  88.9898361  23.3457170  24.9025742
  90.4124243  22.9168167  24.6124589  90.3210915  21.6967259  27.6635625
  89.5792651  21.8449894  28.2500255  90.0003659  21.9575524  26.8002374
  98.2654577  31.2383237  27.4616015  98.5741704  30.9932384  28.3338714
  99.0630059  31.4429875  26.9734885  98.2875189  33.3921147  19.6921391
  97.8480180  32.8997525  20.3854248  99.0383306  32.8494114  19.4513467
  90.7667528  29.5832687  19.6946019  91.5925548  29.2836459  19.3144663
  90.4161580  28.8140310  20.1435808  95.7349061  28.9359156  21.7643693
  95.1129071  28.2729861  21.4645921  96.4053928  28.9620288  21.0817341
  88.9676133  27.5019014  20.6534953  88.1308042  27.0741188  20.4718954
  88.9399779  27.6951457  21.5905744  95.8073589  17.4140944  31.3576199
  95.8561744  18.2903066  30.9753969  96.3496103  16.8718337  30.7847842
 106.2928435  27.9582067  30.6377336 105.5023978  27.9406206  30.0981835
 106.0561789  28.4970361  31.3926373 106.4126310  24.8074533  27.9510065
 106.4624315  24.6424541  28.8925587 106.3040233  23.9401792  27.5607945
  95.2962568  27.4863079  15.2402153  95.4450689  28.1698543  14.5868826
  96.1029012  27.4668169  15.7551609 103.7030072  20.7905461  29.2669371
 104.6039935  20.6511926  28.9753369 103.7778047  20.9559916  30.2067549
  98.0372877  18.1672316  28.1122558  97.1676187  18.4605882  27.8405146
  98.2732358  18.7512761  28.8329821 107.9144506  27.2271475  28.1952086
 107.6229315  27.5901455  29.0315547 107.3016638  26.5138483  28.0165418
 106.1631695  22.3504089  26.6632144 106.6385816  22.5431736  25.8550995
 105.2397260  22.4063275  26.4175528  93.0515201  23.5128257  16.2463222
  92.8061243  22.6090587  16.4443433  93.2211116  23.5145407  15.3042700
 100.7411911  14.3851933  25.6287978 101.2593855  15.1212960  25.3034467
 100.3867044  14.6915926  26.4634737  92.3210849  19.2456614  13.7449384
  91.6280094  19.3200969  13.0889420  92.0762601  18.4816958  14.2670901
  98.7957974  29.9811209  12.7113901  98.2231941  30.6001397  12.2584373
  99.3690768  30.5310571  13.2453823 104.8633364  19.2269850  24.8960450
 105.8150787  19.3267947  24.9172674 104.6936814  18.4348118  25.4058534
 102.8847743  16.3125433  25.0819851 102.2897675  16.5930445  24.3866339
 102.5997440  16.8019334  25.8536592 107.3421441  22.4475969  24.0102749
 107.3097762  21.5091970  24.1962433 107.9522065  22.5260006  23.2768574
  99.0643465  25.3689768  31.5130610  99.9846474  25.5468367  31.7070657
  99.0293048  24.4245814  31.3610310  88.2825630  20.5628362  20.4383885
  87.9628414  19.7093670  20.1458259  87.7359058  20.7776940  21.1941852
  92.0605537  23.2790803  24.1553392  92.2791547  24.2107911  24.1741425
  92.4731311  22.9198777  24.9408195  96.9333403  18.8524009  33.5456140
  96.8330130  19.8018366  33.4768232  96.7154945  18.5242248  32.6732211
  88.1513890  24.1831273  22.4077007  87.4577361  23.7685226  21.8946961
  88.8986881  24.2251810  21.8110426  96.7964673  22.2821148  32.3621202
  96.3131754  23.0821508  32.5685091  96.8825612  22.2929092  31.4088646
  90.0650632  24.1149527  20.2843021  90.0421321  24.2137215  19.3324905
  90.3751269  24.9614678  20.6060188  92.7238010  26.1725682  24.3989636
  93.6781264  26.1409625  24.3319567  92.5250534  25.7116306  25.2139862
  93.3137392  24.7426798  26.9660434  94.1330281  25.2370877  26.9895271
  93.5874200  23.8258766  26.9378001  91.0788239  31.7145302  21.4159834
  90.9442707  30.9545703  20.8497832  90.6620301  32.4386202  20.9488623
  94.2357365  32.6114619  21.6278276  94.1189749  33.5560051  21.5256967
  93.4149811  32.3088180  22.0164076  88.5672307  19.0764932  27.6652631
  89.2131170  18.5663886  28.1539856  88.3589458  19.8133614  28.2396056
 101.0925699  26.1445780  33.1644771 101.9616858  26.3186432  32.8031406
 100.6132450  26.9640197  33.0420501  95.2611879  33.2642881  24.8434205
  96.1639126  33.2966491  25.1600700  95.0349249  32.3343332  24.8580541
  97.0165481  32.0173867  21.5044283  96.0661112  32.0175729  21.3908656
  97.3197967  31.2706602  20.9880318  92.9069798  16.2232549  31.7627645
  93.7701259  15.8669354  31.9730969  92.3335208  15.8846444  32.4503049
 112.7518175  37.8534406  22.5690046 113.3896585  37.7341153  21.8653386
 112.6339017  38.8015250  22.6277998 109.5607881  37.8061834  22.5051571
 109.2226392  37.6902898  21.6172105 110.4297649  37.4052999  22.4852577
 105.4194697  39.6597310  18.4948462 104.8559562  39.5687247  17.7264749
 105.3047092  38.8397215  18.9750954 110.0427664  38.9596685  28.4637776
 110.0316305  38.5649484  27.5918280 110.2048303  38.2262758  29.0571548
 102.9659128  41.1548502  21.3332682 103.7580420  40.8139326  20.9178981
 103.2055779  41.2643477  22.2534835 110.9994255  43.3268278  13.8062926
 110.3482235  43.9122358  13.4196940 111.7938618  43.8574473  13.8657964
 104.9249882  40.4157415  14.2050061 105.6980758  39.8686402  14.0662937
 105.2775281  41.2801664  14.4164522 106.7634925  41.7433797  27.4116960
 106.4724791  42.6479428  27.2963626 107.3991909  41.7850325  28.1261030
 107.6891132  39.1210646  24.0018320 108.2854704  38.8966668  23.2875283
 107.7466103  38.3795391  24.6043768 106.9812449  38.4778187  14.0392886
 106.8648707  37.8023090  14.7073970 107.0914709  37.9910561  13.2225039
 109.3243990  37.9388334  17.7439575 108.9602197  37.4118955  18.4552496
 110.1811106  37.5486803  17.5706060 115.2293291  29.2282667  25.0070841
 114.8976615  30.0978078  24.7832056 114.6338904  28.9118951  25.6864871
 111.7224810  41.4295213  24.4066754 111.4225533  42.3320252  24.2982561
 111.3775870  41.1627396  25.2587907 105.1737292  37.8809010  20.4403458
 104.2487788  37.7485224  20.6481150 105.4221705  38.6603229  20.9373401
 115.1221954  33.9477753  22.0864191 114.2138831  33.8793161  21.7922952
 115.0709550  34.4249698  22.9146017 102.5346103  37.5242283  21.2747247
 102.6638484  37.7776762  22.1886659 101.8543554  38.1169991  20.9551902
 106.7045590  48.1939533  17.3737721 106.6269620  49.1447358  17.4526202
 106.1007233  47.8485406  18.0312648 109.1962820  35.3667399  30.0299088
 108.4196154  35.9261319  30.0201953 109.8353383  35.8524182  30.5513958
 107.4509192  38.1752852  29.5917055 108.1923876  38.7137896  29.3151879
 106.7446177  38.8019141  29.7488607 112.9264532  40.3181992  28.1889217
 113.3347888  39.8764403  27.4443849 112.2041793  39.7434620  28.4423410
 109.2795602  35.2554599  25.5622774 110.1256797  35.6794013  25.7057423
 109.2194239  34.5988223  26.2561337 113.2493346  40.8783183  21.9441506
 112.6202209  41.0428897  21.2417574 112.8619008  41.2924793  22.7152470
 117.1282578  41.8137621  19.2985869 116.4433616  42.1936522  18.7482903
 117.2126427  42.4232947  20.0317817 112.4295047  32.9158967  27.2203947
 112.1855979  33.6701028  26.6838223 112.7054977  33.2944315  28.0551194
 114.3833510  39.4597580  25.8981213 114.5950405  40.1029340  25.2215594
 114.3363258  38.6259896  25.4303143 111.9859739  32.0715401  22.8017785
 111.1244218  32.3696654  23.0934523 112.0122173  32.2885799  21.8698818
 108.8021308  40.6157591  19.2091591 109.2659654  40.8945294  18.4196213
 108.5378106  39.7141036  19.0264681 105.6945389  40.1629073  22.1471354
 106.2646746  40.5916341  21.5088839 106.2853501  39.8811657  22.8455540
 107.7390194  36.7380743  16.0181156 108.4414237  37.1901787  16.4855082
 107.4070823  36.0964562  16.6461049 106.1870556  35.3292500  30.3932365
 105.5569216  36.0108781  30.6267762 106.0806644  35.2175582  29.4485504
 101.4815528  34.9964296  21.3198290 100.6914582  35.2521825  20.8438400
 101.9726775  35.8112634  21.4250330 115.4979338  42.3369535  24.0703570
 116.3196781  41.9349723  23.7886252 115.4941741  42.2337769  25.0219686
 103.4330273  35.3608875  18.2781766 102.6361437  35.4727570  18.7965262
 103.2055866  35.6995528  17.4122657 109.2635941  41.8853579  26.2264281
 109.3280374  42.3473986  27.0622453 108.5546865  41.2550944  26.3546591
  99.7653231  35.2494787  23.7513280 100.0161270  36.1341796  24.0170856
 100.3012779  35.0699388  22.9788372 108.9783959  43.5521686  16.0943261
 108.8429634  44.3973222  16.5228109 109.5193771  43.7540964  15.3309195
 105.4651298  29.6313266  32.7557616 105.0718244  29.0779464  33.4305261
 106.2817439  29.9423844  33.1464134 102.4313356  41.0697124  16.6671186
 102.9437877  41.8640374  16.8176751 103.0836069  40.3723415  16.6004788
 104.2408241  44.1862880  18.7493939 104.4174869  45.1080845  18.5614923
 105.0365074  43.8721300  19.1788319 108.3819259  31.0471145  30.3477873
 109.1228973  31.6478298  30.2682335 108.6137182  30.3048783  29.7895916
 103.5260597  36.2327512  28.6256103 103.4114113  35.3312770  28.9263202
 102.6705115  36.4791209  28.2740919 110.6052435  44.1745253  30.2243603
 110.1616289  43.3881631  29.9064508 111.2669649  44.3624403  29.5587494
 105.3639556  45.7041054  24.7504282 105.9146981  45.5758118  23.9781276
 104.5251032  46.0035943  24.3999175 112.7033673  44.4548053  28.2525005
 112.6852149  45.2756934  27.7605274 113.6253593  44.3302128  28.4775146
 109.1606727  41.9692182  29.0948513 109.6935064  41.2080470  28.8647821
 108.6320808  41.6765834  29.8372667 100.3962273  39.3985778  17.4430757
 101.2337495  39.8082787  17.2264465 100.5740541  38.4585221  17.4130951
 111.4072963  29.4456903  22.5891388 110.9037758  29.4087038  21.7759193
 111.7003570  30.3549646  22.6488045 107.6515849  29.5295633  21.5957570
 108.5168845  29.3338442  21.2363459 107.7193358  29.3005985  22.5226926
 110.5259440  41.0978174  16.6067325 109.9980802  40.3630934  16.2940562
 110.0246943  41.8752851  16.3607293 115.5052286  39.2927195  21.7234371
 114.8475961  39.9826456  21.8114500 116.3092685  39.6823627  22.0668358
 105.2578168  31.7597841  18.9673936 105.8321920  31.5373022  18.2347129
 105.8449150  31.8286535  19.7202538 111.5780119  47.6255892  12.5298984
 110.9041818  47.9287589  13.1383942 111.9645941  48.4284972  12.1804441
 110.7938576  35.1221023  22.0196653 109.8761137  35.3435970  21.8618342
 111.2098719  35.1967334  21.1608361 115.0819541  42.6277569  17.9017456
 114.6281868  41.7868479  17.9582646 114.4513508  43.2638967  18.2392236
 113.5252480  44.4654066  18.8367274 113.8175455  45.0259123  18.1179639
 114.0351101  44.7582627  19.5920433 100.4188444  36.7376494  18.1141490
 100.2212844  36.1445854  17.3892557  99.8635108  36.4328704  18.8317429
 108.3985168  36.6299600  20.2336083 108.4533778  35.6773437  20.1578560
 107.5876370  36.7859039  20.7177382 106.3377528  35.2476660  17.9926462
 105.5245393  35.5470831  18.3991654 106.8336522  34.8532349  18.7100945
 108.4886106  45.2434417  19.9260727 108.4462284  45.4695263  18.9969259
 109.4048804  45.0097791  20.0746528 111.9351739  35.7118484  26.8241356
 112.2901127  35.9389958  27.6835822 112.5823871  36.0436861  26.2018611
 105.8291602  32.8195015  23.6087697 106.4690982  32.6783775  22.9110661
 104.9969133  32.5329529  23.2326299 117.6918856  40.9013447  22.5401957
 118.1255363  40.8088736  23.3885011 118.4050437  40.8770948  21.9021973
 106.6051906  42.1197446  19.7222690 107.3992505  41.6247766  19.5205265
 105.8943599  41.5915309  19.3590395 111.4246751  44.5015541  24.0735057
 111.4783773  45.0706478  24.8412773 110.5561532  44.6717426  23.7089094
 102.9134670  36.2640528  15.7982442 101.9832258  36.2024983  16.0152404
 103.0092142  35.7416480  15.0019084 102.8320219  32.7895340  18.3860684
 103.0927036  33.7040674  18.2769844 103.6537391  32.3219783  18.5357297
 104.3045144  34.2033098  25.5559509 104.9768198  33.9950460  24.9072157
 103.4774931  34.0055184  25.1164741 118.5534405  40.9437148  25.0734842
 118.7470296  41.8482958  25.3194117 118.4535024  40.4844567  25.9073427
 110.2070716  30.8295039  27.5725169 109.5598631  31.5284988  27.4789646
 110.9771732  31.2631182  27.9401418 113.6149514  41.0943891  30.6475723
 113.4635021  40.8654442  29.7305806 113.6054194  42.0514492  30.6607068
 110.3834851  38.6675803  25.6321989 111.3126911  38.8186963  25.4590956
 109.9625881  38.7559824  24.7770636 109.1823182  42.6926468  23.4020527
 109.0434268  42.3245252  24.2746465 108.3937779  43.2074107  23.2304485
 109.7771334  47.7935564  14.7446063 109.9523090  47.3223608  15.5591686
 109.0904122  48.4201331  14.9727324 110.7328397  42.0708071  20.7909365
 110.3978230  42.0308841  21.6867014 110.2332343  41.4052786  20.3179775
 104.7072641  37.4775701  26.3161946 104.5692439  36.7455939  26.9173485
 105.6177565  37.3884601  26.0346133 107.3354942  37.1895660  25.8045625
 108.0454561  36.5488852  25.7632244 107.2924250  37.4408555  26.7271806
 115.3241721  44.1263013  28.7252205 115.2654267  43.4422233  28.0582788
 115.7261239  44.8682003  28.2732831 106.0483876  34.1760878  27.6241265
 105.5121233  33.7251616  28.2762861 105.4600585  34.3106787  26.8811729
 104.3432420  50.9424927  21.5185923 104.5829018  51.5743451  22.1964942
 103.5001616  50.5912967  21.8051283 115.3259128  42.0902597  26.9566184
 114.4385907  41.7528519  27.0792583 115.8957679  41.3585628  27.1934950
  96.9788275  38.4226689  20.2809236  97.6659315  38.1088419  19.6930251
  96.8236404  39.3268054  20.0076487 101.7822997  33.3116886  24.7094259
 101.6981186  32.7042555  23.9744669 100.9605704  33.8025904  24.7103756
 108.8560281  46.7504050  23.9227427 108.7830453  47.5559021  24.4346732
 108.4137675  46.9496015  23.0975449 108.6450061  45.9875820  17.4330249
 107.8617583  46.5297500  17.5268473 109.3442806  46.5049799  17.8324490
 111.3158965  46.6490884  26.0785586 112.0286937  47.2838348  26.0061488
 110.8248994  46.7454750  25.2625588 113.0376492  40.5542136  17.6502878
 112.1032771  40.6743599  17.4807582 113.2153160  39.6514603  17.3862888
 108.5381680  33.9387832  19.8036139 108.1679467  33.3858872  20.4917045
 109.0340772  33.3345966  19.2511139 106.3670878  44.3985327  26.8991157
 107.0680338  45.0321810  27.0520551 105.8965993  44.7400059  26.1386796
 114.1672164  36.9529935  24.7243707 113.5143615  37.2005842  24.0696160
 114.5452544  36.1394073  24.3906185 111.1279338  46.9889628  18.8271878
 111.3101733  46.1711284  19.2899630 111.9512324  47.2057320  18.3896768
 111.4621504  45.9157813  16.0886926 111.9909270  45.4050267  15.4757088
 111.7249723  45.6000343  16.9532459 110.2159737  37.6949746  31.2109744
 109.5400375  37.5943875  31.8812120 111.0387371  37.5388959  31.6745742
 101.9638597  43.9321682  23.8322260 102.5492033  43.1865370  23.9650164
 101.7663435  44.2425639  24.7158924 104.8177252  46.9672929  18.8484702
 104.1487627  47.4519057  18.3648742 104.6790121  47.2142150  19.7628081
  96.5556251  36.5027282  22.5526703  96.5940351  35.9690873  23.3463821
  96.0496544  35.9762488  21.9337680 108.9582520  49.0016673  25.4467360
 109.5100828  49.1648295  26.2116446 109.2988714  49.5921111  24.7747385
 103.9347014  31.3491823  26.0489245 103.9988340  32.2106654  25.6366643
 103.8714134  30.7365824  25.3161604 103.4099286  33.4214955  29.6962279
 104.0371325  33.0392033  30.3099804 102.5527205  33.2029157  30.0617972
 113.8093395  43.8277931  31.3016015 114.3533299  44.4407889  30.8070970
 113.2280240  44.3857509  31.8183028 100.1864829  35.2291384  15.6280634
 100.4818270  34.3202063  15.5747688  99.2852865  35.2079124  15.3061636
 112.0950908  46.9498649  22.4331043 111.9702047  46.1488388  21.9241988
 112.7529999  47.4444842  21.9445012 103.7159076  33.3047381  21.6108183
 102.9945662  33.9183349  21.4715656 104.5052332  33.8405146  21.5324829
 114.1585816  44.7507669  24.0610593 113.2116152  44.6313020  23.9888919
 114.5068589  43.8630167  24.1436854 106.5185389  30.6401808  27.8848835
 107.0419791  30.8864104  28.6475144 106.2997723  31.4721842  27.4651972
 101.9152670  32.9105482  15.7519959 101.5865377  32.0302861  15.5695065
 102.2692041  32.8553151  16.6396349 111.1632249  44.5460385  20.2614945
 111.0157212  43.6177092  20.4422515 111.9885743  44.5680476  19.7772020
 105.0294494  33.1978452  16.1195437 105.3690566  33.7264373  15.3974045
 105.4766614  33.5358858  16.8954004 114.7666371  45.3688944  21.3479818
 115.6912919  45.1631805  21.2104269 114.5981675  45.1205345  22.2569159
 107.7237934  31.5815503  25.5698505 107.3834755  30.7823316  25.9719185
 107.0176941  31.8817213  24.9975338 108.3754406  28.6664815  24.0225828
 109.1980476  28.1925293  23.9004718 108.6192470  29.4455299  24.5224514
 105.8992985  35.3583936  21.8317807 105.7537566  35.6724239  22.7242088
 105.4218189  35.9768836  21.2788705 107.7589368  32.3486484  21.8798696
 107.7450937  31.4527577  21.5430994 108.4761796  32.3557147  22.5136982
 109.6115499  32.7823824  23.9251824 109.3533276  33.7040895  23.9236154
 109.0800539  32.3854258  24.6152288 114.5561687  45.8874611  16.7041909
 114.7298565  45.3221034  15.9515761 115.0490579  46.6875506  16.5221399
 100.3738647  37.8989280  24.7705468  99.8292115  38.6749088  24.9025742
 101.2517997  38.2460085  24.6124589 101.1604669  37.0259176  27.6635625
 100.4186405  37.1741812  28.2500255 100.8397413  37.2867442  26.8002374
 109.1048332  46.5675155  27.4616015 109.4135458  46.3224301  28.3338714
 109.9023814  46.7721793  26.9734885 109.1268944  48.7213064  19.6921391
 108.6873934  48.2289443  20.3854248 109.8777061  48.1786032  19.4513467
 101.6061283  44.9124605  19.6946019 102.4319303  44.6128377  19.3144663
 101.2555335  44.1432228  20.1435808 106.5742816  44.2651073  21.7643693
 105.9522825  43.6021778  21.4645921 107.2447683  44.2912205  21.0817341
  99.8069888  42.8310932  20.6534953  98.9701796  42.4033106  20.4718954
  99.7793533  43.0243375  21.5905744 106.6467343  32.7432861  31.3576199
 106.6955499  33.6194984  30.9753969 107.1889858  32.2010254  30.7847842
 117.1322189  43.2873985  30.6377336 116.3417733  43.2698123  30.0981835
 116.8955544  43.8262278  31.3926373 117.2520064  40.1366451  27.9510065
 117.3018069  39.9716458  28.8925587 117.1433987  39.2693710  27.5607945
 106.1356323  42.8154997  15.2402153 106.2844443  43.4990461  14.5868826
 106.9422766  42.7960087  15.7551609 114.5423827  36.1197379  29.2669371
 115.4433689  35.9803844  28.9753369 114.6171801  36.2851834  30.2067549
 108.8766632  33.4964234  28.1122558 108.0069941  33.7897800  27.8405146
 109.1126112  34.0804679  28.8329821 118.7538261  42.5563392  28.1952086
 118.4623069  42.9193373  29.0315547 118.1410392  41.8430401  28.0165418
 117.0025449  37.6796007  26.6632144 117.4779571  37.8723653  25.8550995
 116.0791015  37.7355193  26.4175528 103.8908956  38.8420174  16.2463222
 103.6454998  37.9382504  16.4443433 104.0604870  38.8437325  15.3042700
 111.5805666  29.7143851  25.6287978 112.0987610  30.4504878  25.3034467
 111.2260798  30.0207844  26.4634737 103.1604603  34.5748532  13.7449384
 102.4673848  34.6492887  13.0889420 102.9156355  33.8108876  14.2670901
 109.6351728  45.3103127  12.7113901 109.0625695  45.9293314  12.2584373
 110.2084522  45.8602489  13.2453823 115.7027118  34.5561767  24.8960450
 116.6544541  34.6559865  24.9172674 115.5330569  33.7640036  25.4058534
 113.7241498  31.6417350  25.0819851 113.1291430  31.9222363  24.3866339
 113.4391194  32.1311251  25.8536592 118.1815196  37.7767887  24.0102749
 118.1491516  36.8383888  24.1962433 118.7915820  37.8551924  23.2768574
 109.9037219  40.6981686  31.5130610 110.8240229  40.8760285  31.7070657
 109.8686802  39.7537731  31.3610310  99.1219384  35.8920280  20.4383885
  98.8022169  35.0385588  20.1458259  98.5752813  36.1068858  21.1941852
 102.8999292  38.6082721  24.1553392 103.1185302  39.5399828  24.1741425
 103.3125066  38.2490695  24.9408195 107.7727157  34.1815926  33.5456140
 107.6723884  35.1310283  33.4768232 107.5548699  33.8534165  32.6732211
  98.9907644  39.5123191  22.4077007  98.2971116  39.0977144  21.8946961
  99.7380635  39.5543728  21.8110426 107.6358427  37.6113065  32.3621202
 107.1525509  38.4113425  32.5685091 107.7219366  37.6221010  31.4088646
 100.9044387  39.4441445  20.2843021 100.8815075  39.5429132  19.3324905
 101.2145023  40.2906596  20.6060188 103.5631765  41.5017600  24.3989636
 104.5175018  41.4701542  24.3319567 103.3644288  41.0408224  25.2139862
 104.1531147  40.0718716  26.9660434 104.9724036  40.5662795  26.9895271
 104.4267955  39.1550684  26.9378001 101.9181994  47.0437219  21.4159834
 101.7836461  46.2837620  20.8497832 101.5014056  47.7678119  20.9488623
 105.0751119  47.9406536  21.6278276 104.9583504  48.8851969  21.5256967
 104.2543566  47.6380098  22.0164076  99.4066061  34.4056850  27.6652631
 100.0524925  33.8955804  28.1539856  99.1983212  35.1425532  28.2396056
 111.9319453  41.4737697  33.1644771 112.8010613  41.6478350  32.8031406
 111.4526205  42.2932114  33.0420501 106.1005634  48.5934798  24.8434205
 107.0032880  48.6258409  25.1600700 105.8743004  47.6635249  24.8580541
 107.8559236  47.3465785  21.5044283 106.9054867  47.3467647  21.3908656
 108.1591722  46.5998519  20.9880318 103.7463552  31.5524467  31.7627645
 104.6095014  31.1961272  31.9730969 103.1728963  31.2138362  32.4503049
 120.4001635  53.1353751  22.5051571 120.0620147  53.0194816  21.6172105
 121.2691404  52.7344916  22.4852577 116.2588451  54.9889228  18.4948462
 115.6953316  54.8979165  17.7264749 116.1440846  54.1689132  18.9750954
 120.8821418  54.2888603  28.4637776 120.8710059  53.8941401  27.5918280
 121.0442058  53.5554676  29.0571548 113.8052883  56.4840419  21.3332682
 114.5974175  56.1431244  20.9178981 114.0449533  56.5935394  22.2534835
 115.7643637  55.7449333  14.2050061 116.5374513  55.1978320  14.0662937
 116.1169036  56.6093582  14.4164522 117.6028679  57.0725715  27.4116960
 117.3118545  57.9771346  27.2963626 118.2385664  57.1142243  28.1261030
 118.5284886  54.4502563  24.0018320 119.1248459  54.2258586  23.2875283
 118.5859858  53.7087309  24.6043768 117.8206203  53.8070105  14.0392886
 117.7042462  53.1315008  14.7073970 117.9308463  53.3202479  13.2225039
 120.1637744  53.2680252  17.7439575 119.7995952  52.7410873  18.4552496
 121.0204860  52.8778721  17.5706060 116.0131046  53.2100927  20.4403458
 115.0881543  53.0777141  20.6481150 116.2615459  53.9895147  20.9373401
 113.3739857  52.8534201  21.2747247 113.5032238  53.1068680  22.1886659
 112.6937308  53.4461909  20.9551902 117.5439344  63.5231451  17.3737721
 117.4663374  64.4739276  17.4526202 116.9400988  63.1777323  18.0312648
 120.0356574  50.6959316  30.0299088 119.2589908  51.2553236  30.0201953
 120.6747137  51.1816099  30.5513958 118.2902946  53.5044770  29.5917055
 119.0317631  54.0429814  29.3151879 117.5839932  54.1311058  29.7488607
 120.1189356  50.5846517  25.5622774 120.9650551  51.0085930  25.7057423
 120.0587994  49.9280141  26.2561337 119.6415063  55.9449509  19.2091591
 120.1053408  56.2237212  18.4196213 119.3771861  55.0432953  19.0264681
 116.5339144  55.4920990  22.1471354 117.1040501  55.9208259  21.5088839
 117.1247256  55.2103575  22.8455540 118.5783949  52.0672661  16.0181156
 119.2807992  52.5193705  16.4855082 118.2464577  51.4256480  16.6461049
 117.0264310  50.6584418  30.3932365 116.3962971  51.3400699  30.6267762
 116.9200398  50.5467499  29.4485504 112.3209283  50.3256214  21.3198290
 111.5308337  50.5813742  20.8438400 112.8120530  51.1404552  21.4250330
 114.2724028  50.6900793  18.2781766 113.4755191  50.8019487  18.7965262
 114.0449620  51.0287445  17.4122657 120.1029696  57.2145496  26.2264281
 120.1674128  57.6765903  27.0622453 119.3940619  56.5842861  26.3546591
 110.6046986  50.5786704  23.7513280 110.8555024  51.4633714  24.0170856
 111.1406534  50.3991306  22.9788372 119.8177713  58.8813604  16.0943261
 119.6823388  59.7265139  16.5228109 120.3587526  59.0832881  15.3309195
 116.3045053  44.9605184  32.7557616 115.9111998  44.4071382  33.4305261
 117.1211193  45.2715762  33.1464134 113.2707111  56.3989042  16.6671186
 113.7831631  57.1932292  16.8176751 113.9229823  55.7015332  16.6004788
 115.0801995  59.5154798  18.7493939 115.2568624  60.4372763  18.5614923
 115.8758829  59.2013217  19.1788319 119.2213014  46.3763063  30.3477873
 119.9622727  46.9770216  30.2682335 119.4530937  45.6340700  29.7895916
 114.3654352  51.5619430  28.6256103 114.2507867  50.6604687  28.9263202
 113.5098870  51.8083127  28.2740919 116.2033311  61.0332972  24.7504282
 116.7540736  60.9050035  23.9781276 115.3644787  61.3327861  24.3999175
 120.0000482  57.2984100  29.0948513 120.5328819  56.5372388  28.8647821
 119.4714563  57.0057751  29.8372667 111.2356027  54.7277696  17.4430757
 112.0731249  55.1374704  17.2264465 111.4134295  53.7877138  17.4130951
 118.4909603  44.8587551  21.5957570 119.3562600  44.6630359  21.2363459
 118.5587112  44.6297902  22.5226926 121.3653195  56.4270092  16.6067325
 120.8374556  55.6922852  16.2940562 120.8640697  57.2044768  16.3607293
 116.0971922  47.0889758  18.9673936 116.6715674  46.8664940  18.2347129
 116.6842905  47.1578453  19.7202538 111.2582199  52.0668411  18.1141490
 111.0606598  51.4737772  17.3892557 110.7028863  51.7620622  18.8317429
 119.2378922  51.9591518  20.2336083 119.2927532  51.0065354  20.1578560
 118.4270124  52.1150957  20.7177382 117.1771282  50.5768578  17.9926462
 116.3639148  50.8762748  18.3991654 117.6730276  50.1824266  18.7100945
 119.3279860  60.5726335  19.9260727 119.2856039  60.7987181  18.9969259
 120.2442559  60.3389709  20.0746528 116.6685357  48.1486933  23.6087697
 117.3084736  48.0075692  22.9110661 115.8362887  47.8621447  23.2326299
 117.4445661  57.4489364  19.7222690 118.2386259  56.9539684  19.5205265
 116.7337353  56.9207227  19.3590395 113.7528424  51.5932445  15.7982442
 112.8226012  51.5316901  16.0152404 113.8485896  51.0708398  15.0019084
 113.6713973  48.1187258  18.3860684 113.9320791  49.0332591  18.2769844
 114.4931146  47.6511701  18.5357297 115.1438899  49.5325015  25.5559509
 115.8161952  49.3242377  24.9072157 114.3168685  49.3347101  25.1164741
 120.0216937  58.0218386  23.4020527 119.8828023  57.6537170  24.2746465
 119.2331533  58.5366025  23.2304485 120.6165089  63.1227482  14.7446063
 120.7916844  62.6515525  15.5591686 119.9297877  63.7493248  14.9727324
 121.5722152  57.3999988  20.7909365 121.2371985  57.3600758  21.6867014
 121.0726098  56.7344704  20.3179775 115.5466396  52.8067618  26.3161946
 115.4086194  52.0747857  26.9173485 116.4571319  52.7176518  26.0346133
 118.1748697  52.5187578  25.8045625 118.8848315  51.8780770  25.7632244
 118.1318005  52.7700472  26.7271806 116.8877631  49.5052795  27.6241265
 116.3514988  49.0543534  28.2762861 116.2994339  49.6398704  26.8811729
 115.1826174  66.2716845  21.5185923 115.4222772  66.9035369  22.1964942
 114.3395371  65.9204885  21.8051283 107.8182030  53.7518607  20.2809236
 108.5053069  53.4380337  19.6930251 107.6630158  54.6559971  20.0076487
 112.6216752  48.6408803  24.7094259 112.5374941  48.0334473  23.9744669
 111.7999458  49.1317822  24.7103756 119.6954036  62.0795967  23.9227427
 119.6224207  62.8850939  24.4346732 119.2531429  62.2787933  23.0975449
 119.4843816  61.3167737  17.4330249 118.7011337  61.8589417  17.5268473
 120.1836561  61.8341717  17.8324490 119.3775434  49.2679750  19.8036139
 119.0073222  48.7150790  20.4917045 119.8734527  48.6637883  19.2511139
 117.2064633  59.7277245  26.8991157 117.9074092  60.3613728  27.0520551
 116.7359748  60.0691976  26.1386796 112.8032351  59.2613600  23.8322260
 113.3885788  58.5157288  23.9650164 112.6057190  59.5717556  24.7158924
 115.6571006  62.2964847  18.8484702 114.9881382  62.7810975  18.3648742
 115.5183876  62.5434068  19.7628081 107.3950006  51.8319200  22.5526703
 107.4334105  51.2982791  23.3463821 106.8890299  51.3054405  21.9337680
 119.7976275  64.3308591  25.4467360 120.3494583  64.4940212  26.2116446
 120.1382468  64.9213029  24.7747385 114.7740768  46.6783740  26.0489245
 114.8382095  47.5398571  25.6366643 114.7107888  46.0657742  25.3161604
 114.2493041  48.7506873  29.6962279 114.8765079  48.3683950  30.3099804
 113.3920959  48.5321075  30.0617972 111.0258583  50.5583302  15.6280634
 111.3212024  49.6493981  15.5747688 110.1246619  50.5371042  15.3061636
 114.5552830  48.6339299  21.6108183 113.8339416  49.2475266  21.4715656
 115.3446086  49.1697064  21.5324829 117.3579144  45.9693725  27.8848835
 117.8813546  46.2156022  28.6475144 117.1391477  46.8013760  27.4651972
 112.7546425  48.2397400  15.7519959 112.4259131  47.3594779  15.5695065
 113.1085796  48.1845068  16.6396349 115.8688248  48.5270370  16.1195437
 116.2084321  49.0556291  15.3974045 116.3160369  48.8650776  16.8954004
 118.5631689  46.9107420  25.5698505 118.2228509  46.1115233  25.9719185
 117.8570695  47.2109131  24.9975338 119.2148161  43.9956733  24.0225828
 120.0374230  43.5217211  23.9004718 119.4586224  44.7747217  24.5224514
 116.7386740  50.6875853  21.8317807 116.5931320  51.0016156  22.7242088
 116.2611943  51.3060754  21.2788705 118.5983122  47.6778401  21.8798696
 118.5844691  46.7819495  21.5430994 119.3155551  47.6849065  22.5136982
 120.4509253  48.1115742  23.9251824 120.1927031  49.0332812  23.9236154
 119.9194293  47.7146176  24.6152288 111.2132402  53.2281198  24.7705468
 110.6685870  54.0041006  24.9025742 112.0911752  53.5752002  24.6124589
 111.9998424  52.3551094  27.6635625 111.2580160  52.5033729  28.2500255
 111.6791168  52.6159360  26.8002374 119.9442086  61.8967072  27.4616015
 120.2529213  61.6516219  28.3338714 120.7417568  62.1013711  26.9734885
 119.9662698  64.0504982  19.6921391 119.5267689  63.5581361  20.3854248
 120.7170815  63.5077950  19.4513467 112.4455037  60.2416523  19.6946019
 113.2713057  59.9420295  19.3144663 112.0949089  59.4724145  20.1435808
 117.4136570  59.5942991  21.7643693 116.7916580  58.9313696  21.4645921
 118.0841437  59.6204123  21.0817341 110.6463642  58.1602849  20.6534953
 109.8095551  57.7325024  20.4718954 110.6187288  58.3535293  21.5905744
 117.4861098  48.0724779  31.3576199 117.5349253  48.9486902  30.9753969
 118.0283612  47.5302172  30.7847842 116.9750077  58.1446914  15.2402153
 117.1238198  58.8282379  14.5868826 117.7816521  58.1252004  15.7551609
 119.7160386  48.8256151  28.1122558 118.8463696  49.1189717  27.8405146
 119.9519867  49.4096596  28.8329821 114.7302710  54.1712092  16.2463222
 114.4848752  53.2674422  16.4443433 114.8998625  54.1729242  15.3042700
 113.9998358  49.9040450  13.7449384 113.3067603  49.9784805  13.0889420
 113.7550110  49.1400793  14.2670901 120.4745483  60.6395045  12.7113901
 119.9019450  61.2585232  12.2584373 121.0478276  61.1894406  13.2453823
 109.9613139  51.2212197  20.4383885 109.6415923  50.3677506  20.1458259
 109.4146567  51.4360775  21.1941852 113.7393046  53.9374638  24.1553392
 113.9579056  54.8691746  24.1741425 114.1518820  53.5782613  24.9408195
 118.6120912  49.5107844  33.5456140 118.5117639  50.4602201  33.4768232
 118.3942454  49.1826083  32.6732211 109.8301399  54.8415109  22.4077007
 109.1364870  54.4269062  21.8946961 110.5774390  54.8835645  21.8110426
 118.4752182  52.9404983  32.3621202 117.9919263  53.7405343  32.5685091
 118.5613121  52.9512928  31.4088646 111.7438141  54.7733363  20.2843021
 111.7208829  54.8721050  19.3324905 112.0538778  55.6198513  20.6060188
 114.4025519  56.8309518  24.3989636 115.3568773  56.7993460  24.3319567
 114.2038043  56.3700141  25.2139862 114.9924901  55.4010634  26.9660434
 115.8117790  55.8954712  26.9895271 115.2661709  54.4842602  26.9378001
 112.7575748  62.3729137  21.4159834 112.6230216  61.6129538  20.8497832
 112.3407810  63.0970037  20.9488623 115.9144874  63.2698454  21.6278276
 115.7977258  64.2143887  21.5256967 115.0937320  62.9672016  22.0164076
 110.2459816  49.7348768  27.6652631 110.8918679  49.2247722  28.1539856
 110.0376967  50.4717449  28.2396056 116.9399388  63.9226716  24.8434205
 117.8426635  63.9550326  25.1600700 116.7136758  62.9927167  24.8580541
 118.6952990  62.6757703  21.5044283 117.7448621  62.6759564  21.3908656
 118.9985476  61.9290437  20.9880318 114.5857307  46.8816385  31.7627645
 115.4488768  46.5253189  31.9730969 114.0122717  46.5430279  32.4503049
 118.6575784  69.0810524  20.2809236 119.3446824  68.7672254  19.6930251
 118.5023913  69.9851889  20.0076487 118.2343760  67.1611118  22.5526703
 118.2727860  66.6274708  23.3463821 117.7284053  66.6346323  21.9337680
 121.4857397  73.4894767  20.6534953 120.6489305  73.0616941  20.4718954
 121.4581042  73.6827210  21.5905744 120.8006893  66.5504115  20.4383885
 120.4809678  65.6969423  20.1458259 120.2540322  66.7652693  21.1941852
 120.6695153  70.1707026  22.4077007 119.9758625  69.7560979  21.8946961
 121.4168144  70.2127563  21.8110426   4.3554024  54.0100207 100.0716699
   3.6017732  53.4407605  99.9160703   4.4901565  53.9762871 101.0187334
   0.7202636  55.4508195 100.3682813   1.5549528  55.8897999 100.5320374
   0.8561765  54.9746848  99.5491059   4.7660439  54.1675817 102.8036943
   5.4963827  53.9061105 103.3644647   4.1567384  53.4304539 102.8439011
   2.8475736  52.3083679 103.4011394   2.1208900  52.1739644 102.7927886
   2.4323023  52.6160508 104.2068112   0.4653531  48.5295532 100.7544826
   1.0598022  48.2891267 100.0438134   0.5380115  47.8102662 101.3818362
   2.7724604  51.8361732  99.5288247   2.2124162  51.9054922 100.3019809
   2.1668107  51.6602717  98.8087743   4.3580622  68.5118246 102.2218203
   4.9959032  68.3924994 101.5181543   4.2401465  69.4599090 102.2806155
   1.1670328  68.4645674 102.1579728   0.8288840  68.3486739 101.2700263
   2.0360097  68.0636840 102.1380734   2.6056703  73.9852119  93.4591084
   1.9544683  74.5706199  93.0725097   3.4001066  74.5158313  93.5186121
   3.9121891  66.2369700  99.2971411   4.6984980  65.8189123  98.9461828
   4.1760595  67.1415792  99.4653059   4.0831968  71.6742550  93.9960068
   3.4477801  71.7477177  94.7080972   3.7529374  72.2636149  93.3179147
   9.3130318  66.1744933 100.2004390  10.0455490  65.6044150 100.4342219
   8.5569673  65.7866534 100.6410895   0.9306437  68.5972175  97.3967732
   0.5664645  68.0702796  98.1080653   1.7873553  68.2070644  97.2234217
   6.8355738  59.8866507 104.6598998   6.5039063  60.7561918 104.4360213
   6.2401351  59.5702791 105.3393029   3.3287258  72.0879053 104.0594911
   3.0287981  72.9904092 103.9510718   2.9838317  71.8211237 104.9116064
   6.7284401  64.6061594 101.7392348   5.8201279  64.5377002 101.4451109
   6.6771997  65.0833539 102.5674174   8.5946048  62.8078032 103.5170222
   7.9520428  63.1010565 102.8710017   8.0900976  62.6930952 104.3223419
   6.2486211  66.5541205  94.2056081   7.1604068  66.7868592  94.0303779
   5.7395859  67.1378249  93.6431160   0.8858049  65.9138440 105.2150931
   1.7319244  66.3377853 105.3585580   0.8256687  65.2572064 105.9089494
   4.8555794  71.5367024 101.5969663   4.2264656  71.7012738 100.8945731
   4.4681456  71.9508633 102.3680627   8.7345026  72.4721462  98.9514027
   8.0496064  72.8520363  98.4011060   8.8188875  73.0816788  99.6845974
   4.0357495  63.5742808 106.8732105   3.7918426  64.3284869 106.3366380
   4.3117425  63.9528156 107.7079352   5.9895957  70.1181421 105.5509370
   6.2012853  70.7613180 104.8743751   5.9425706  69.2843737 105.0831300
   3.5922186  62.7299241 102.4545942   2.7306665  63.0280495 102.7462680
   3.6184621  62.9469640 101.5226975   7.1041785  72.9953376 103.7231727
   7.9259229  72.5933563 103.4414409   7.1004188  72.8921610 104.6747843
  15.1947778  69.3392124 100.0716699  14.4411487  68.7699523  99.9160703
  15.3295319  69.3054789 101.0187334   0.5846406  74.2105527  95.7471418
   0.4492081  75.0557062  96.1756266   1.1256219  74.4124804  94.9837352
   3.9338870  57.7336089 104.2770312   3.5903139  58.6237730 104.2009422
   4.3017833  57.5437746 103.4139897   3.8989153  67.7244700  92.7842747
   3.3835776  68.4949304  93.0231134   3.6266461  67.0509836  93.4075808
   1.4836264  62.5694401  97.8427985   0.6277860  62.1801251  97.6633624
   1.8963215  62.6486361  96.9827771   3.0135410  60.1040744 102.2419545
   2.5100206  60.0670879 101.4287350   3.3066017  61.0133487 102.3016202
   8.8723427  70.4777054  94.7195920   8.0952870  70.1388214  94.2751082
   9.5514908  70.4829678  94.0450885   3.6875456  65.5971792  94.6102528
   3.3825591  65.9117941  95.4612671   4.6405898  65.6753212  94.6529861
   2.1321888  71.7562015  96.2595482   1.6043249  71.0214775  95.9468719
   1.6309390  72.5336692  96.0135450   7.1114734  69.9511036 101.3762528
   6.4538408  70.6410297 101.4642657   7.9155133  70.3407468 101.7196515
   5.9220192  68.3055408  99.4266470   6.4352074  68.9385400  99.9288180
   6.5721416  67.7056604  99.0609830   3.1842567  78.2839733  92.1827141
   2.5104265  78.5871429  92.7912099   3.5708389  79.0868813  91.8332598
   2.4001023  65.7804864 101.6724811   1.4823585  66.0019811 101.5146499
   2.8161167  65.8551174 100.8136518   3.1836071  67.1796280  96.8027491
   3.9307890  67.6917677  96.4934613   3.4527661  66.8580332  97.6631884
   1.4562721  69.6754820  93.7854445   0.5473941  69.3913853  93.8826915
   1.4857805  70.0953899  92.9257752   6.6881989  73.2861410  97.5545613
   6.2344316  72.4452320  97.6110803   6.0575955  73.9222808  97.8920393
   5.6314908  64.2153396  98.7846280   4.8937665  63.7030782  99.1156523
   5.8841682  63.7753777  97.9729557   5.1314928  75.1237906  98.4895431
   5.4237902  75.6842964  97.7707796   5.6413548  75.4166467  99.2448590
   5.7326536  56.9929648  99.3788049   6.0385412  56.1327011  99.0913964
   6.4579140  57.5847268  99.1787043   1.1538809  71.2163564  91.1242524
   0.7158239  70.4999423  90.6648161   1.8949250  71.4439679  90.5627615
   3.5414187  66.3702325 106.4769513   3.8963575  66.5973798 107.3363979
   4.1886318  66.7020702 105.8546769   9.2711924  69.4920761  97.1818842
   9.1329822  69.6822357  96.2540031   8.9148143  70.2540144  97.6386893
   9.2981303  71.5597288 102.1930114   9.7317810  71.4672577 103.0413168
  10.0112884  71.5354788 101.5550130  10.1596853  71.6020989 104.7262999
  10.3532743  72.5066799 104.9722274  10.0597471  71.1428408 105.5601584
   1.8133164  61.4878879 107.2253327   1.1661079  62.1868829 107.1317803
   2.5834179  61.9215023 107.5929575   1.9897298  69.3259644 105.2850146
   2.9189358  69.4770804 105.1119114   1.5688328  69.4143665 104.4298793
   1.3833782  78.4519405  94.3974220   1.5585538  77.9807448  95.2119843
   0.6966570  79.0785171  94.6255481   2.3390845  72.7291911 100.4437522
   2.0040678  72.6892681 101.3395172   1.8394791  72.0636627  99.9707932
   5.2750037  70.0747946  90.7174581   4.6579207  69.3494774  90.6207634
   4.8066525  70.8357306  90.3741656   6.9321576  72.7486438 106.6094341
   6.0448354  72.4112360 106.7320740   7.5020127  72.0169469 106.8463107
   3.5609159  62.4554290  99.7292611   4.0577858  61.7024252  99.4093682
   2.7896140  62.4918606  99.1635821  11.4138916  68.1594655 101.3710903
  11.4028792  69.0419371 101.0004836  10.5456296  67.8066206 101.1765440
   4.6438939  71.2125977  97.3031035   3.7095218  71.3327439  97.1335739
   4.8215608  70.3098444  97.0391045   8.0311491  67.0543296  97.8381069
   8.4971943  67.8871288  97.7641372   8.4818991  66.5888278  98.5426327
   6.0987722  73.3987118  94.8367221   6.3747566  73.2843712  95.7461095
   5.2292221  73.0004602  94.7979394   6.0028154  59.4223883 101.8771970
   5.0891233  59.6528110 102.0454177   6.4321255  59.5062327 102.7286003
   5.7734612  67.6113775 104.3771864   5.1206062  67.8589683 103.7224317
   6.1514992  66.7977913 104.0434342   2.7341786  77.6473468  98.4800035
   2.9164180  76.8295124  98.9427787   3.5574772  77.8641161  98.0424925
   3.0683951  76.5741653  95.7415083   3.5971718  76.0634108  95.1285245
   3.3312171  76.2584184  96.6060616   3.7013355  77.6082489 102.0859200
   3.5764495  76.8072229 101.5770145   4.3592446  78.1028683 101.5973170
   5.7648264  75.4091509 103.7138750   4.8178599  75.2896860 103.6417076
   6.1131037  74.5214007 103.7965011   2.7694697  75.2044226  99.9143102
   2.6219659  74.2760933 100.0950672   3.5948190  75.2264316  99.4300177
   6.3728819  76.0272784 101.0007975   7.2975366  75.8215646 100.8632426
   6.2044122  75.7789185 101.9097316   2.7656211  63.0582063  94.9075219
   2.9819826  63.9406701  94.6064047   2.2850278  62.6668277  94.1780861
   1.2177946  63.4407665 103.5779981   0.9595724  64.3624735 103.5764311
   0.6862987  63.0438099 104.2680445   6.1624135  76.5458452  96.3570066
   6.3361012  75.9804874  95.6043919   6.6553026  77.3459347  96.1749556
   1.6379902  59.5739615  99.9381143   1.6601599  59.6378948  98.9833123
   2.0547961  58.7344124 100.1321649  12.0163526  69.3094875  97.9760366
  12.4594672  68.5602200  97.5779489  11.1390036  69.3005011  97.5934098
   7.1499307  75.8625216  93.4566964   7.8450212  76.4831909  93.6754279
   7.4922458  75.0120567  93.7319342   9.0490731  73.3124922  94.9854295
   9.5742055  73.6512194  94.2603615   8.9613083  72.3771937  94.8017430
   8.8582512  70.7950292 107.6038222   8.9080517  70.6300299 108.5453744
   8.7496435  69.9277551 107.2136102   6.1486274  66.7781220 108.9197528
   7.0496137  66.6387685 108.6281526   6.2234249  66.9435675 109.8595706
  10.3600708  73.2147233 107.8480243  10.0685517  73.5777214 108.6843704
   9.7472840  72.5014241 107.6693575  11.5596391  70.7800113 100.3682813
  12.3943282  71.2189917 100.5320374  11.6955520  70.3038766  99.5491059
   8.6087897  68.3379848 106.3160301   9.0842018  68.5307494 105.5079153
   7.6853462  68.3939034 106.0703685   3.1868113  60.3727691 105.2816135
   3.7050057  61.1088718 104.9562624   2.8323246  60.6791685 106.1162894
   3.4380707  56.7927974 100.8017032   3.7182461  56.1251163 101.4277458
   4.2231314  56.9857070 100.2891696   1.2414176  75.9686968  92.3642058
   0.6688143  76.5877155  91.9112530   1.8146970  76.5186329  92.8981980
   7.3089566  65.2145608 104.5488607   8.2606989  65.3143706 104.5700831
   7.1393016  64.4223876 105.0586691   5.3303945  62.3001191 104.7348008
   4.7353877  62.5806204 104.0394496   5.0453642  62.7895092 105.5064749
   4.4611436  76.2524118  93.4950640   5.3942109  76.1869680  93.6983516
   4.3734648  77.0880385  93.0365173   7.0899452  75.5689988  90.4554588
   7.0113084  75.2349852  91.3490346   7.9109119  76.0611756  90.4546060
   9.7877644  68.4351728 103.6630906   9.7553964  67.4967728 103.8490590
  10.3978267  68.5135764 102.9296731   1.6260974  67.3047781  89.7058110
   2.5720079  67.1753989  89.7746529   1.2475219  66.5662442  90.1827539
   9.9372132  65.2262771 103.7089190   9.4211181  64.4421228 103.5219118
  10.8212081  64.8981488 103.8735709   7.5982859  58.9703787  99.6685002
   7.4007680  58.6618875 100.5528334   8.2082564  59.6965425  99.7982932
  15.6054193  69.4967734 102.8036943  16.3357582  69.2353023 103.3644647
  14.9961139  68.7596456 102.8439011  13.6869490  67.6375597 103.4011394
  12.9602654  67.5031562 102.7927886  13.2716777  67.9452426 104.2068112
   1.4265957  59.7734647  95.7957237   0.6166686  59.4281732  96.1712483
   2.1150374  59.4642190  96.3844849   3.3556506  58.8512693  97.4181534
   3.9087544  59.2708147  98.0771557   3.5926592  57.9248442  97.4604490
   6.7335313  60.9613219  96.9260198   6.1533982  61.6198023  96.5438250
   6.4671245  60.1390563  96.5147615   5.1838879  60.3618276  99.1281518
   5.6838657  60.4734811  98.3195837   5.8274487  60.0579329  99.7682327
   5.5160191  63.1213309  95.9816546   4.6286046  63.4062960  95.7636741
   5.9314180  62.9607072  95.1343823   8.8674727  63.1459830  99.6970885
   9.6435117  63.6356282  99.9695502   8.1422861  63.5717884 100.1542755
  11.3047285  63.8587449 100.7544826  11.8991776  63.6183185 100.0438134
  11.3773869  63.1394580 101.3818362   4.6603404  72.8857984  90.0764566
   5.3639254  73.0907986  90.6922222   3.9366053  73.4534746  90.3413650
   5.4901214  68.6367845  96.1966836   5.4336416  69.0936396  95.3574469
   6.0429557  67.8758530  96.0189679   9.3006020  64.4257577  97.0216956
   9.0442955  64.0254212  97.8525164   8.6758888  65.1401371  96.8967095
  13.6118358  67.1653650  99.5288247  13.0517916  67.2346839 100.3019809
  13.0061862  66.9894635  98.8087743   6.5690102  73.3240513  92.1263026
   7.4035705  72.8921711  91.9440501   6.4074444  73.1522527  93.0539921
   6.2235994  69.8272626  93.4919366   6.1684797  69.6616898  92.5507810
   5.5982049  70.5348659  93.6481555   3.3484239  55.9223512  97.3250621
   2.5816634  55.3681999  97.4707303   3.7594944  55.9945381  98.1864772
  15.1974377  83.8410164 102.2218203  15.8352787  83.7216911 101.5181543
  15.0795220  84.7891008 102.2806155  12.0064083  83.7937592 102.1579728
  11.6682594  83.6778657 101.2700263  12.8753851  83.3928757 102.1380734
   7.8650899  85.6473069  98.1476619   7.3015764  85.5563005  97.3792906
   7.7503294  84.8272973  98.6279111  13.4450457  89.3144036  93.4591084
  12.7938437  89.8998117  93.0725097  14.2394820  89.8450231  93.5186121
   7.3706084  86.4033173  93.8578218   8.1436960  85.8562160  93.7191094
   7.7231483  87.2677423  94.0692679  10.1347334  85.1086404 103.6546477
  10.7310906  84.8842427 102.9403440  10.1922305  84.3671150 104.2571925
   9.7072362  82.5625839  91.4896668   9.9597883  82.0407361  90.7280131
   8.7696921  82.3991985  91.5923351  14.7515645  81.5661618  99.2971411
  15.5378734  81.1481041  98.9461828  15.0154349  82.4707710  99.4653059
  14.9225722  87.0034468  93.9960068  14.2871555  87.0769095  94.7080972
  14.5923129  87.5928067  93.3179147  20.1524072  81.5036851 100.2004390
  20.8849244  80.9336068 100.4342219  19.3963428  81.1158451 100.6410895
   9.4268651  84.4653945  93.6921043   9.3104909  83.7898849  94.3602127
   9.5370911  83.9786319  92.8753196  11.7700192  83.9264093  97.3967732
  11.4058399  83.3994714  98.1080653  12.6267308  83.5362562  97.2234217
  17.6749493  75.2158425 104.6598998  17.3432817  76.0853836 104.4360213
  17.0795106  74.8994709 105.3393029  11.4105679  78.9553992  92.3929080
  11.5780081  79.8234229  92.7599552  11.2202848  79.1181274  91.4690370
  14.1681012  87.4170971 104.0594911  13.8681735  88.3196010 103.9510718
  13.8232072  87.1503154 104.9116064   7.6193494  83.8684768 100.0931615
   6.6943990  83.7360982 100.3009307   7.8677907  84.6478987 100.5901558
  17.5678156  79.9353511 101.7392348  16.6595033  79.8668920 101.4451109
  17.5165752  80.4125456 102.5674174  11.3894900  81.4111650  93.3775747
  11.2694525  81.8568700  94.2161228  10.6947488  81.7596967  92.8189285
   9.1501792  94.1815291  97.0265879   9.0725822  95.1323117  97.1054359
   8.5463435  93.8361164  97.6840805  19.4339802  78.1369950 103.5170222
  18.7914183  78.4302483 102.8710017  18.9294731  78.0222870 104.3223419
  17.0879966  81.8833123  94.2056081  17.9997822  82.1160510  94.0303779
  16.5789613  82.4670167  93.6431160  11.7251804  81.2430357 105.2150931
  12.5712999  81.6669771 105.3585580  11.6650441  80.5863982 105.9089494
  15.6949548  86.8658941 101.5969663  15.0658411  87.0304655 100.8945731
  15.3075210  87.2800551 102.3680627  19.5738780  87.8013379  98.9514027
  18.8889818  88.1812281  98.4011060  19.6582629  88.4108706  99.6845974
  14.8751249  78.9034726 106.8732105  14.6312181  79.6576786 106.3366380
  15.1511180  79.2820073 107.7079352  16.8289712  85.4473338 105.5509370
  17.0406607  86.0905098 104.8743751  16.7819460  84.6135655 105.0831300
  14.4315941  78.0591159 102.4545942  13.5700420  78.3572412 102.7462680
  14.4578375  78.2761558 101.5226975  11.2477510  86.6033349  98.8619748
  11.7115856  86.8821052  98.0724370  10.9834308  85.7016794  98.6792839
   8.1401591  86.1504831 101.7999511   8.7102948  86.5792099 101.1616996
   8.7309703  85.8687416 102.4983697  10.1846396  82.7256502  95.6709313
  10.8870440  83.1777545  96.1383239   9.8527025  82.0840321  96.2989206
   3.9271730  80.9840054 100.9726447   3.1370784  81.2397583 100.4966557
   4.4182978  81.7988392 101.0778487  17.9435540  88.3245294 103.7231727
  18.7652983  87.9225481 103.4414409  17.9397943  88.2213528 104.6747843
   5.8786476  81.3484634  97.9309923   5.0817639  81.4603328  98.4493419
   5.6512068  81.6871286  97.0650814  26.0341533  84.6684042 100.0716699
  25.2805241  84.0991440  99.9160703  26.1689074  84.6346707 101.0187334
  11.4240161  89.5397444  95.7471418  11.2885836  90.3848980  96.1756266
  11.9649973  89.7416722  94.9837352   4.8769558  87.0572882  96.3199343
   5.3894079  87.8516133  96.4704908   5.5292271  86.3599173  96.2532945
   6.6864443  90.1738639  98.4022097   6.8631071  91.0956603  98.2143080
   7.4821276  89.8597058  98.8316476  14.7732624  73.0628006 104.2770312
  14.4296894  73.9529648 104.2009422  15.1411587  72.8729664 103.4139897
   2.8418475  85.3861537  97.0958914   3.6793697  85.7958545  96.8792622
   3.0196743  84.4460979  97.0659108  14.7382907  83.0536617  92.7842747
  14.2229531  83.8241222  93.0231134  14.4660216  82.3801754  93.4075808
  12.3230018  77.8986318  97.8427985  11.4671614  77.5093169  97.6633624
  12.7356970  77.9778279  96.9827771  13.8529165  75.4332661 102.2419545
  13.3493960  75.3962797 101.4287350  14.1459772  76.3425404 102.3016202
  10.0972051  75.5171391 101.2485727  10.9625047  75.3214200 100.8891616
  10.1649560  75.2881743 102.1755083  19.7117181  85.8068972  94.7195920
  18.9346624  85.4680132  94.2751082  20.3908662  85.8121595  94.0450885
  14.5269210  80.9263710  94.6102528  14.2219346  81.2409859  95.4612671
  15.4799652  81.0045129  94.6529861  12.9715642  87.0853933  96.2595482
  12.4437004  86.3506692  95.9468719  12.4703145  87.8628609  96.0135450
  17.9508488  85.2802953 101.3762528  17.2932163  85.9702215 101.4642657
  18.7548887  85.6699385 101.7196515   7.7034370  77.7473599  98.6202094
   8.2778122  77.5248781  97.8875286   8.2905352  77.8162294  99.3730695
  16.7613947  83.6347326  99.4266470  17.2745829  84.2677318  99.9288180
  17.4115171  83.0348522  99.0609830   8.0303957  79.7778060  92.6397979
   7.1941269  80.1152747  92.9607254   7.8908726  79.6427040  91.7025116
  10.0057037  74.6214848  97.3477163   9.3521450  74.3063865  96.7233778
   9.9637512  73.9990588  98.0736986  11.1168242  84.9034143  89.2630455
  10.2095304  84.6723397  89.4621604  11.6139274  84.1071762  89.4504437
  14.0236321  93.6131650  92.1827141  13.3498020  93.9163347  92.7912099
  14.4102143  94.4160731  91.8332598  13.2394778  81.1096782 101.6724811
  12.3217339  81.3311729 101.5146499  13.6554921  81.1843092 100.8136518
  14.0229826  82.5088197  96.8027491  14.7701645  83.0209594  96.4934613
  14.2921415  82.1872250  97.6631884  12.2956476  85.0046738  93.7854445
  11.3867695  84.7205771  93.8826915  12.3251560  85.4245817  92.9257752
  17.5275743  88.6153327  97.5545613  17.0738070  87.7744237  97.6110803
  16.8969710  89.2514726  97.8920393  16.4708663  79.5445314  98.7846280
  15.7331420  79.0322700  99.1156523  16.7235436  79.1045695  97.9729557
  15.9708682  90.4529824  98.4895431  16.2631657  91.0134881  97.7707796
  16.4807303  90.7458385  99.2448590  16.5720290  72.3221566  99.3788049
  16.8779167  71.4618929  99.0913964  17.2972895  72.9139186  99.1787043
   2.8644646  82.7252252  97.7669647   2.6669046  82.1321613  97.0420714
   2.3091310  82.4204462  98.4845586  10.8441370  82.6175359  99.8864240
  10.8989980  81.6649195  99.8106717  10.0332572  82.7734798 100.3705539
  11.9932564  86.5455482  91.1242524  11.5551993  85.8291341  90.6648161
  12.7343004  86.7731596  90.5627615   8.7833730  81.2352418  97.6454619
   7.9701595  81.5346589  98.0519811   9.2792724  80.8408107  98.3629102
  10.9342308  91.2310175  99.5788884  10.8918486  91.4571022  98.6497416
  11.8505006  90.9973550  99.7274685  14.3807941  81.6994243 106.4769513
  14.7357329  81.9265716 107.3363979  15.0280073  82.0312620 105.8546769
  20.1105678  84.8212679  97.1818842  19.9723577  85.0114275  96.2540031
  19.7541897  85.5832061  97.6386893   8.2747804  78.8070774 103.2615854
   8.9147184  78.6659533 102.5638818   7.4425335  78.5205287 102.8854456
  20.1375058  86.8889206 102.1930114  20.5711565  86.7964495 103.0413168
  20.8506639  86.8646706 101.5550130   9.0508108  88.1073204  99.3750847
   9.8448707  87.6123524  99.1733422   8.3399801  87.5791067  99.0118552
   5.3590872  82.2516286  95.4510599   4.4288460  82.1900741  95.6680562
   5.4548344  81.7292239  94.6547241   5.2776421  78.7771099  98.0388841
   5.5383238  79.6916432  97.9298002   6.0993593  78.3095541  98.1885454
  20.9990608  86.9312906 104.7262999  21.1926498  87.8358717 104.9722274
  20.8991226  86.4720325 105.5601584  12.6526918  76.8170797 107.2253327
  12.0054833  77.5160747 107.1317803  13.4227934  77.2506941 107.5929575
  12.8291053  84.6551562 105.2850146  13.7583113  84.8062721 105.1119114
  12.4082083  84.7435583 104.4298793  12.2227536  93.7811323  94.3974220
  12.3979292  93.3099366  95.2119843  11.5360324  94.4077089  94.6255481
  13.1784600  88.0583829 100.4437522  12.8434432  88.0184599 101.3395172
  12.6788545  87.3928545  99.9707932  16.1143791  85.4039863  90.7174581
  15.4972962  84.6786691  90.6207634  15.6460280  86.1649224  90.3741656
   7.9042337  79.6225288  89.8395886   7.0271803  79.5014088  89.4758132
   8.3800090  78.8311366  89.5874774  17.7715330  88.0778356 106.6094341
  16.8842109  87.7404277 106.7320740  18.3413881  87.3461387 106.8463107
  11.0906263  91.9751578  97.0858406  10.3073785  92.5173258  97.1796631
  11.7899008  92.4925558  97.4852647  14.4002913  77.7846207  99.7292611
  14.8971613  77.0316170  99.4093682  13.6289895  77.8210524  99.1635821
  22.2532671  83.4886573 101.3710903  22.2422547  84.3711288 101.0004836
  21.3850050  83.1358124 101.1765440  15.4832694  86.5417895  97.3031035
  14.5488973  86.6619357  97.1335739  15.6609362  85.6390361  97.0391045
  10.9837882  79.9263590  99.4564296  10.6135670  79.3734631 100.1445202
  11.4796974  79.3221724  98.9039296  18.8705245  82.3835214  97.8381069
  19.3365697  83.2163206  97.7641372  19.3212746  81.9180195  98.5426327
  16.9381476  88.7279035  94.8367221  17.2141320  88.6135630  95.7461095
  16.0685975  88.3296520  94.7979394  16.8421908  74.7515801 101.8771970
  15.9284988  74.9820028 102.0454177  17.2715009  74.8354245 102.7286003
  16.6128367  82.9405693 104.3771864  15.9599817  83.1881600 103.7224317
  16.9908746  82.1269831 104.0434342  13.5735540  92.9765386  98.4800035
  13.7557935  92.1587042  98.9427787  14.3968526  93.1933078  98.0424925
  13.9077706  91.9033571  95.7415083  14.4365472  91.3926026  95.1285245
  14.1705925  91.5876101  96.6060616   6.3803216  77.3367581 105.7017402
   6.4444542  78.1982412 105.2894800   6.3170336  76.7241583 104.9689761
   2.6321031  81.2167143  95.2808791   2.9274472  80.3077821  95.2275845
   1.7309067  81.1954882  94.9589794  14.5407110  92.9374407 102.0859200
  14.4158249  92.1364147 101.5770145  15.1986201  93.4320600 101.5973170
   6.1615278  79.2923139 101.2636340   5.4401864  79.9059107 101.1243813
   6.9508534  79.8280904 101.1852986  16.6042018  90.7383427 103.7138750
  15.6572354  90.6188778 103.6417076  16.9524791  89.8505925 103.7965011
   8.9641591  76.6277566 107.5376992   9.4875993  76.8739862 108.3003301
   8.7453925  77.4597601 107.1180129   4.3608873  78.8981240  95.4048116
   4.0321579  78.0178619  95.2223222   4.7148243  78.8428909  96.2924506
  13.6088451  90.5336143  99.9143102  13.4613414  89.6052851 100.0950672
  14.4341945  90.5556234  99.4300177   7.4750696  79.1854210  95.7723594
   7.8146768  79.7140132  95.0502202   7.9222816  79.5234616  96.5482161
  17.2122573  91.3564702 101.0007975  18.1369121  91.1507563 100.8632426
  17.0437877  91.1081103 101.9097316  10.1694136  77.5691261 105.2226662
   9.8290957  76.7699074 105.6247342   9.4633143  77.8692972 104.6503495
  10.8210608  74.6540573 103.6753985  11.6436678  74.1801052 103.5532875
  11.0648672  75.4331057 104.1752671   9.4618843  77.6828832  93.9716887
  10.1827205  78.0610085  93.4680604   8.8384147  78.4017709  94.0751865
  13.6049966  78.3873981  94.9075219  13.8213580  79.2698619  94.6064047
  13.1244033  77.9960194  94.1780861   8.3449187  81.3459694 101.4845964
   8.1993768  81.6599997 102.3770245   7.8674391  81.9644594 100.9316862
  10.2045570  78.3362242 101.5326853  10.1907139  77.4403335 101.1959151
  10.9217998  78.3432906 102.1665139  12.0571701  78.7699582 103.5779981
  11.7989478  79.6916653 103.5764311  11.5256741  78.3730017 104.2680445
  17.0017889  91.8750369  96.3570066  17.1754767  91.3096792  95.6043919
  17.4946781  92.6751264  96.1749556   9.6082466  77.2176622  96.8014423
   9.7298377  76.2893269  97.0005311   9.3184508  77.2315308  95.8892739
  12.4773656  74.9031533  99.9381143  12.4995353  74.9670866  98.9833123
  12.8941715  74.0636041 100.1321649  22.8557281  84.6386792  97.9760366
  23.2988427  83.8894118  97.5779489  21.9783791  84.6296929  97.5934098
  17.9893062  91.1917134  93.4566964  18.6843967  91.8123826  93.6754279
  18.3316212  90.3412485  93.7319342  19.8884485  88.6416839  94.9854295
  20.4135809  88.9804112  94.2603615  19.8006838  87.7063855  94.8017430
  19.6976266  86.1242209 107.6038222  19.7474271  85.9592217 108.5453744
  19.5890189  85.2569468 107.2136102   8.5812525  88.8030755  94.8930311
   8.7300645  89.4866219  94.2396983   9.3878968  88.7835845  95.4079766
  16.9880029  82.1073137 108.9197528  17.8889891  81.9679602 108.6281526
  17.0628003  82.2727592 109.8595706  11.3222834  79.4839992 107.7650715
  10.4526143  79.7773558 107.4933303  11.5582314  80.0680437 108.4857978
  21.1994463  88.5439151 107.8480243  20.9079271  88.9069131 108.6843704
  20.5866594  87.8306159 107.6693575  22.3990145  86.1092031 100.3682813
  23.2337037  86.5481835 100.5320374  22.5349274  85.6330684  99.5491059
  19.4481651  83.6671765 106.3160301  19.9235773  83.8599412 105.5079153
  18.5247217  83.7230951 106.0703685   6.3365158  84.8295933  95.8991379
   6.0911200  83.9258263  96.0971590   6.5061072  84.8313083  94.9570857
  14.0261868  75.7019609 105.2816135  14.5443812  76.4380636 104.9562624
  13.6717000  76.0083602 106.1162894   5.6060805  80.5624290  93.3977541
   4.9130050  80.6368645  92.7417577   5.3612557  79.7984634  93.9199058
  14.2774462  72.1219892 100.8017032  14.5576216  71.4543081 101.4277458
  15.0625069  72.3148987 100.2891696  12.0807930  91.2978885  92.3642058
  11.5081897  91.9169073  91.9112530  12.6540724  91.8478247  92.8981980
  18.1483320  80.5437526 104.5488607  19.1000743  80.6435623 104.5700831
  17.9786771  79.7515794 105.0586691  16.1697700  77.6293109 104.7348008
  15.5747632  77.9098121 104.0394496  15.8847396  78.1187010 105.5064749
  15.3005190  91.5816036  93.4950640  16.2335863  91.5161597  93.6983516
  15.2128403  92.4172302  93.0365173  17.9293207  90.8981906  90.4554588
  17.8506838  90.5641770  91.3490346  18.7502874  91.3903674  90.4546060
  20.6271398  83.7643645 103.6630906  20.5947718  82.8259646 103.8490590
  21.2372022  83.8427682 102.9296731  12.4654729  82.6339698  89.7058110
  13.4113834  82.5045906  89.7746529  12.0868974  81.8954360  90.1827539
  20.7765886  80.5554689 103.7089190  20.2604935  79.7713145 103.5219118
  21.6605835  80.2273405 103.8735709  18.4376613  74.2995704  99.6685002
  18.2401435  73.9910792 100.5528334  19.0476319  75.0257343  99.7982932
  26.4447948  84.8259652 102.8036943  27.1751336  84.5644940 103.3644647
  25.8354893  84.0888374 102.8439011  24.5263245  82.9667515 103.4011394
  23.7996409  82.8323480 102.7927886  24.1110532  83.2744343 104.2068112
  10.6497646  80.5589675  89.6412996   9.7429101  80.2622787  89.7175709
  10.9273627  80.2619493  88.7747282  12.2659712  75.1026564  95.7957237
  11.4560440  74.7573649  96.1712483  12.9544129  74.7934108  96.3844849
  14.1950260  74.1804611  97.4181534  14.7481299  74.6000065  98.0771557
  14.4320346  73.2540359  97.4604490   9.4196431  77.4176610  89.7824975
  10.2815595  77.7431508  90.0420792   9.6046775  76.6308106  89.2698041
  17.5729067  76.2905136  96.9260198  16.9927736  76.9489940  96.5438250
  17.3065000  75.4682481  96.5147615  16.0232633  75.6910194  99.1281518
  16.5232412  75.8026729  98.3195837  16.6668241  75.3871247  99.7682327
  16.3553945  78.4505227  95.9816546  15.4679800  78.7354877  95.7636741
  16.7707934  78.2898990  95.1343823  19.7068481  78.4751748  99.6970885
  20.4828871  78.9648200  99.9695502  18.9816615  78.9009802 100.1542755
  22.1441040  79.1879367 100.7544826  22.7385531  78.9475103 100.0438134
  22.2167624  78.4686497 101.3818362  15.4997159  88.2149901  90.0764566
  16.2033009  88.4199904  90.6922222  14.7759807  88.7826663  90.3413650
  16.3294969  83.9659763  96.1966836  16.2730170  84.4228314  95.3574469
  16.8823311  83.2050447  96.0189679  20.1399775  79.7549494  97.0216956
  19.8836709  79.3546130  97.8525164  19.5152643  80.4693288  96.8967095
  24.4512113  82.4945568  99.5288247  23.8911671  82.5638757 100.3019809
  23.8455616  82.3186552  98.8087743  17.4083856  88.6532431  92.1263026
  18.2429460  88.2213629  91.9440501  17.2468199  88.4814444  93.0539921
  17.0629748  85.1564544  93.4919366  17.0078552  84.9908815  92.5507810
  16.4375803  85.8640577  93.6481555  10.3725874  74.6572653  93.0704684
  10.3604543  75.6014493  93.2272955  11.2649296  74.4742798  92.7764145
  14.1877993  71.2515429  97.3250621  13.4210389  70.6973916  97.4707303
  14.5988698  71.3237298  98.1864772  26.0368131  99.1702082 102.2218203
  26.6746541  99.0508829 101.5181543  25.9188974 100.1182926 102.2806155
  22.8457837  99.1229510 102.1579728  22.5076349  99.0070574 101.2700263
  23.7147606  98.7220675 102.1380734  18.7044653 100.9764986  98.1476619
  18.1409518 100.8854923  97.3792906  18.5897048 100.1564891  98.6279111
  24.2844212 104.6435954  93.4591084  23.6332192 105.2290034  93.0725097
  25.0788575 105.1742149  93.5186121  18.2099839 101.7325091  93.8578218
  18.9830715 101.1854078  93.7191094  18.5625238 102.5969340  94.0692679
  20.9741088 100.4378322 103.6546477  21.5704661 100.2134344 102.9403440
  21.0316060  99.6963067 104.2571925  20.5466117  97.8917757  91.4896668
  20.7991637  97.3699278  90.7280131  19.6090676  97.7283903  91.5923351
  25.5909400  96.8953536  99.2971411  26.3772489  96.4772959  98.9461828
  25.8548104  97.7999628  99.4653059  25.7619477 102.3326386  93.9960068
  25.1265310 102.4061012  94.7080972  25.4316883 102.9219985  93.3179147
  30.9917827  96.8328769 100.2004390  31.7242999  96.2627986 100.4342219
  30.2357182  96.4450369 100.6410895  20.2662406  99.7945863  93.6921043
  20.1498664  99.1190766  94.3602127  20.3764665  99.3078237  92.8753196
  22.6093946  99.2556010  97.3967732  22.2452154  98.7286631  98.1080653
  23.4661062  98.8654479  97.2234217  28.5143247  90.5450343 104.6598998
  28.1826572  91.4145754 104.4360213  27.9188860  90.2286627 105.3393029
  22.2499433  94.2845910  92.3929080  22.4173836  95.1526146  92.7599552
  22.0596602  94.4473192  91.4690370  25.0074767 102.7462889 104.0594911
  24.7075490 103.6487928 103.9510718  24.6625826 102.4795072 104.9116064
  18.4587248  99.1976686 100.0931615  17.5337745  99.0652900 100.3009307
  18.7071661  99.9770905 100.5901558  28.4071910  95.2645429 101.7392348
  27.4988788  95.1960837 101.4451109  28.3559506  95.7417374 102.5674174
  22.2288654  96.7403567  93.3775747  22.1088279  97.1860618  94.2161228
  21.5341243  97.0888885  92.8189285  19.9895546 109.5107209  97.0265879
  19.9119576 110.4615034  97.1054359  19.3857190 109.1653082  97.6840805
  30.2733557  93.4661867 103.5170222  29.6307937  93.7594401 102.8710017
  29.7688485  93.3514788 104.3223419  27.9273720  97.2125041  94.2056081
  28.8391577  97.4452427  94.0303779  27.4183368  97.7962085  93.6431160
  22.5645558  96.5722275 105.2150931  23.4106753  96.9961689 105.3585580
  22.5044196  95.9155899 105.9089494  26.5343303 102.1950859 101.5969663
  25.9052165 102.3596573 100.8945731  26.1468965 102.6092469 102.3680627
  30.4132535 103.1305297  98.9514027  29.7283573 103.5104198  98.4011060
  30.4976384 103.7400624  99.6845974  25.7145003  94.2326644 106.8732105
  25.4705935  94.9868704 106.3366380  25.9904934  94.6111991 107.7079352
  27.6683466 100.7765256 105.5509370  27.8800362 101.4197016 104.8743751
  27.6213215  99.9427572 105.0831300  25.2709695  93.3883077 102.4545942
  24.4094174  93.6864330 102.7462680  25.2972130  93.6053475 101.5226975
  22.0871265 101.9325267  98.8619748  22.5509610 102.2112970  98.0724370
  21.8228063 101.0308712  98.6792839  18.9795346 101.4796749 101.7999511
  19.5496703 101.9084017 101.1616996  19.5703458 101.1979333 102.4983697
  21.0240151  98.0548419  95.6709313  21.7264194  98.5069463  96.1383239
  20.6920779  97.4132238  96.2989206  14.7665485  96.3131972 100.9726447
  13.9764539  96.5689501 100.4966557  15.2576732  97.1280310 101.0778487
  28.7829294 103.6537211 103.7231727  29.6046738 103.2517399 103.4414409
  28.7791697 103.5505445 104.6747843  16.7180230  96.6776551  97.9309923
  15.9211393  96.7895246  98.4493419  16.4905822  97.0163204  97.0650814
  36.8735287  99.9975960 100.0716699  36.1198996  99.4283358  99.9160703
  37.0082828  99.9638624 101.0187334  22.2633915 104.8689362  95.7471418
  22.1279590 105.7140898  96.1756266  22.8043728 105.0708640  94.9837352
  15.7163313 102.3864800  96.3199343  16.2287833 103.1808050  96.4704908
  16.3686026 101.6891091  96.2532945  17.5258197 105.5030556  98.4022097
  17.7024826 106.4248521  98.2143080  18.3215031 105.1888976  98.8316476
  25.6126379  88.3919924 104.2770312  25.2690648  89.2821566 104.2009422
  25.9805341  88.2021582 103.4139897  13.6812229 100.7153454  97.0958914
  14.5187451 101.1250463  96.8792622  13.8590497  99.7752897  97.0659108
  25.5776662  98.3828535  92.7842747  25.0623285  99.1533140  93.0231134
  25.3053970  97.7093671  93.4075808  23.1623773  93.2278236  97.8427985
  22.3065369  92.8385086  97.6633624  23.5750724  93.3070197  96.9827771
  24.6922919  90.7624579 102.2419545  24.1887715  90.7254714 101.4287350
  24.9853526  91.6717322 102.3016202  20.9365805  90.8463309 101.2485727
  21.8018802  90.6506118 100.8891616  21.0043314  90.6173661 102.1755083
  30.5510936 101.1360890  94.7195920  29.7740379 100.7972049  94.2751082
  31.2302417 101.1413513  94.0450885  25.3662965  96.2555627  94.6102528
  25.0613100  96.5701776  95.4612671  26.3193407  96.3337047  94.6529861
  23.8109397 102.4145851  96.2595482  23.2830758 101.6798610  95.9468719
  23.3096899 103.1920527  96.0135450  28.7902243 100.6094871 101.3762528
  28.1325917 101.2994132 101.4642657  29.5942642 100.9991303 101.7196515
  18.5428124  93.0765517  98.6202094  19.1171876  92.8540698  97.8875286
  19.1299107  93.1454211  99.3730695  27.6007701  98.9639244  99.4266470
  28.1139583  99.5969236  99.9288180  28.2508925  98.3640439  99.0609830
  18.8697711  95.1069978  92.6397979  18.0335024  95.4444664  92.9607254
  18.7302481  94.9718958  91.7025116  20.8450792  89.9506766  97.3477163
  20.1915204  89.6355783  96.7233778  20.8031266  89.3282506  98.0736986
  21.9561997 100.2326061  89.2630455  21.0489059 100.0015314  89.4621604
  22.4533029  99.4363680  89.4504437  24.8630076 108.9423568  92.1827141
  24.1891774 109.2455265  92.7912099  25.2495898 109.7452648  91.8332598
  24.0788532  96.4388699 101.6724811  23.1611094  96.6603646 101.5146499
  24.4948676  96.5135010 100.8136518  24.8623580  97.8380115  96.8027491
  25.6095399  98.3501512  96.4934613  25.1315170  97.5164168  97.6631884
  23.1350230 100.3338656  93.7854445  22.2261450 100.0497688  93.8826915
  23.1645314 100.7537734  92.9257752  28.3669498 103.9445245  97.5545613
  27.9131825 103.1036155  97.6110803  27.7363464 104.5806644  97.8920393
  27.3102417  94.8737231  98.7846280  26.5725174  94.3614617  99.1156523
  27.5629191  94.4337613  97.9729557  26.8102437 105.7821742  98.4895431
  27.1025411 106.3426799  97.7707796  27.3201057 106.0750303  99.2448590
  27.4114045  87.6513483  99.3788049  27.7172921  86.7910847  99.0913964
  28.1366649  88.2431103  99.1787043  13.7038401  98.0544170  97.7669647
  13.5062800  97.4613530  97.0420714  13.1485065  97.7496380  98.4845586
  21.6835124  97.9467276  99.8864240  21.7383734  96.9941113  99.8106717
  20.8726326  98.1026715 100.3705539  22.8326318 101.8747399  91.1242524
  22.3945748 101.1583258  90.6648161  23.5736759 102.1023514  90.5627615
  19.6227484  96.5644336  97.6454619  18.8095350  96.8638507  98.0519811
  20.1186478  96.1700025  98.3629102  21.7736062 106.5602093  99.5788884
  21.7312241 106.7862939  98.6497416  22.6898761 106.3265468  99.7274685
  25.2201696  97.0286160 106.4769513  25.5751084  97.2557634 107.3363979
  25.8673827  97.3604537 105.8546769  30.9499433 100.1504596  97.1818842
  30.8117331 100.3406192  96.2540031  30.5935652 100.9123979  97.6386893
  19.1141559  94.1362692 103.2615854  19.7540938  93.9951451 102.5638818
  18.2819090  93.8497205 102.8854456  30.9768812 102.2181123 102.1930114
  31.4105319 102.1256412 103.0413168  31.6900393 102.1938624 101.5550130
  19.8901863 103.4365122  99.3750847  20.6842461 102.9415442  99.1733422
  19.1793555 102.9082985  99.0118552  16.1984626  97.5808204  95.4510599
  15.2682214  97.5192659  95.6680562  16.2942098  97.0584156  94.6547241
  16.1170175  94.1063017  98.0388841  16.3776993  95.0208350  97.9298002
  16.9387348  93.6387459  98.1885454  31.8384362 102.2604824 104.7262999
  32.0320252 103.1650635 104.9722274  31.7384980 101.8012243 105.5601584
  23.4920673  92.1462715 107.2253327  22.8448588  92.8452664 107.1317803
  24.2621688  92.5798859 107.5929575  23.6684807  99.9843480 105.2850146
  24.5976867 100.1354639 105.1119114  23.2475837 100.0727500 104.4298793
  23.0621291 109.1103240  94.3974220  23.2373047 108.6391284  95.2119843
  22.3754079 109.7369007  94.6255481  24.0178354 103.3875747 100.4437522
  23.6828187 103.3476517 101.3395172  23.5182300 102.7220463  99.9707932
  26.9537546 100.7331781  90.7174581  26.3366716 100.0078609  90.6207634
  26.4854034 101.4941141  90.3741656  18.7436092  94.9517205  89.8395886
  17.8665558  94.8306006  89.4758132  19.2193845  94.1603284  89.5874774
  28.6109085 103.4070273 106.6094341  27.7235863 103.0696195 106.7320740
  29.1807636 102.6753304 106.8463107  21.9300018 107.3043496  97.0858406
  21.1467539 107.8465176  97.1796631  22.6292763 107.8217475  97.4852647
  25.2396668  93.1138125  99.7292611  25.7365367  92.3608087  99.4093682
  24.4683649  93.1502442  99.1635821  33.0926425  98.8178491 101.3710903
  33.0816301  99.7003206 101.0004836  32.2243805  98.4650041 101.1765440
  26.3226448 101.8709812  97.3031035  25.3882727 101.9911275  97.1335739
  26.5003117 100.9682279  97.0391045  21.8231636  95.2555508  99.4564296
  21.4529424  94.7026548 100.1445202  22.3190729  94.6513642  98.9039296
  29.7099000  97.7127132  97.8381069  30.1759452  98.5455123  97.7641372
  30.1606500  97.2472113  98.5426327  27.7775231 104.0570953  94.8367221
  28.0535075 103.9427547  95.7461095  26.9079730 103.6588438  94.7979394
  27.6815663  90.0807719 101.8771970  26.7678742  90.3111945 102.0454177
  28.1108764  90.1646163 102.7286003  27.4522121  98.2697611 104.3771864
  26.7993571  98.5173518 103.7224317  27.8302501  97.4561749 104.0434342
  24.4129295 108.3057304  98.4800035  24.5951689 107.4878960  98.9427787
  25.2362281 108.5224996  98.0424925  24.7471460 107.2325489  95.7415083
  25.2759227 106.7217943  95.1285245  25.0099680 106.9168019  96.6060616
  17.2196970  92.6659499 105.7017402  17.2838297  93.5274330 105.2894800
  17.1564090  92.0533501 104.9689761  13.4714785  96.5459061  95.2808791
  13.7668226  95.6369739  95.2275845  12.5702821  96.5246800  94.9589794
  25.3800864 108.2666325 102.0859200  25.2552004 107.4656064 101.5770145
  26.0379955 108.7612518 101.5973170  17.0009032  94.6215057 101.2636340
  16.2795618  95.2351025 101.1243813  17.7902288  95.1572822 101.1852986
  27.4435773 106.0675345 103.7138750  26.4966108 105.9480696 103.6417076
  27.7918546 105.1797843 103.7965011  19.8035346  91.9569484 107.5376992
  20.3269748  92.2031780 108.3003301  19.5847679  92.7889518 107.1180129
  15.2002627  94.2273158  95.4048116  14.8715333  93.3470537  95.2223222
  15.5541998  94.1720827  96.2924506  24.4482206 105.8628061  99.9143102
  24.3007168 104.9344768 100.0950672  25.2735699 105.8848152  99.4300177
  18.3144450  94.5146128  95.7723594  18.6540523  95.0432049  95.0502202
  18.7616571  94.8526534  96.5482161  28.0516328 106.6856620 101.0007975
  28.9762875 106.4799481 100.8632426  27.8831631 106.4373021 101.9097316
  21.0087891  92.8983179 105.2226662  20.6684711  92.0990992 105.6247342
  20.3026897  93.1984890 104.6503495  21.6604363  89.9832491 103.6753985
  22.4830432  89.5092969 103.5532875  21.9042426  90.7622975 104.1752671
  20.3012597  93.0120750  93.9716887  21.0220960  93.3902002  93.4680604
  19.6777901  93.7309626  94.0751865  24.4443720  93.7165899  94.9075219
  24.6607335  94.5990536  94.6064047  23.9637787  93.3252112  94.1780861
  19.1842942  96.6751612 101.4845964  19.0387522  96.9891915 102.3770245
  18.7068145  97.2936512 100.9316862  21.0439324  93.6654160 101.5326853
  21.0300893  92.7695253 101.1959151  21.7611753  93.6724823 102.1665139
  22.8965455  94.0991500 103.5779981  22.6383233  95.0208571 103.5764311
  22.3650496  93.7021934 104.2680445  27.8411644 107.2042287  96.3570066
  28.0148521 106.6388710  95.6043919  28.3340535 108.0043182  96.1749556
  20.4476220  92.5468540  96.8014423  20.5692132  91.6185186  97.0005311
  20.1578263  92.5607226  95.8892739  23.3167411  90.2323450  99.9381143
  23.3389108  90.2962784  98.9833123  23.7335470  89.3927959 100.1321649
  33.6951035  99.9678710  97.9760366  34.1382181  99.2186035  97.5779489
  32.8177545  99.9588846  97.5934098  28.8286816 106.5209051  93.4566964
  29.5237721 107.1415744  93.6754279  29.1709967 105.6704403  93.7319342
  30.7278240 103.9708757  94.9854295  31.2529564 104.3096030  94.2603615
  30.6400592 103.0355772  94.8017430  30.5370021 101.4534127 107.6038222
  30.5868026 101.2884134 108.5453744  30.4283944 100.5861386 107.2136102
  19.4206279 104.1322673  94.8930311  19.5694400 104.8158137  94.2396983
  20.2272723 104.1127763  95.4079766  27.8273783  97.4365055 108.9197528
  28.7283646  97.2971520 108.6281526  27.9021758  97.6019510 109.8595706
  22.1616588  94.8131910 107.7650715  21.2919898  95.1065476 107.4933303
  22.3976069  95.3972355 108.4857978  32.0388217 103.8731069 107.8480243
  31.7473026 104.2361049 108.6843704  31.4260349 103.1598077 107.6693575
  33.2383900 101.4383948 100.3682813  34.0730791 101.8773752 100.5320374
  33.3743029 100.9622602  99.5491059  30.2875406  98.9963683 106.3160301
  30.7629527  99.1891329 105.5079153  29.3640971  99.0522869 106.0703685
  17.1758912 100.1587850  95.8991379  16.9304954  99.2550180  96.0971590
  17.3454827 100.1605001  94.9570857  24.8655622  91.0311527 105.2816135
  25.3837566  91.7672554 104.9562624  24.5110755  91.3375520 106.1162894
  16.4454560  95.8916208  93.3977541  15.7523805  95.9660563  92.7417577
  16.2006312  95.1276552  93.9199058  25.1168216  87.4511809 100.8017032
  25.3969970  86.7834998 101.4277458  25.9018823  87.6440905 100.2891696
  22.9201685 106.6270803  92.3642058  22.3475652 107.2460990  91.9112530
  23.4934479 107.1770165  92.8981980  28.9877075  95.8729443 104.5488607
  29.9394498  95.9727541 104.5700831  28.8180525  95.0807712 105.0586691
  27.0091454  92.9585026 104.7348008  26.4141386  93.2390039 104.0394496
  26.7241151  93.4478927 105.5064749  26.1398945 106.9107953  93.4950640
  27.0729618 106.8453515  93.6983516  26.0522157 107.7464220  93.0365173
  28.7686961 106.2273824  90.4554588  28.6900593 105.8933687  91.3490346
  29.5896628 106.7195592  90.4546060  31.4665152  99.0935563 103.6630906
  31.4341473  98.1551564 103.8490590  32.0765776  99.1719600 102.9296731
  23.3048483  97.9631616  89.7058110  24.2507588  97.8337824  89.7746529
  22.9262728  97.2246278  90.1827539  31.6159641  95.8846606 103.7089190
  31.0998690  95.1005063 103.5219118  32.4999590  95.5565323 103.8735709
  29.2770368  89.6287622  99.6685002  29.0795189  89.3202710 100.5528334
  29.8870073  90.3549261  99.7982932  37.2841702 100.1551570 102.8036943
  38.0145091  99.8936858 103.3644647  36.6748648  99.4180292 102.8439011
  35.3656999  98.2959432 103.4011394  34.6390163  98.1615397 102.7927886
  34.9504286  98.6036261 104.2068112  21.4891401  95.8881592  89.6412996
  20.5822856  95.5914705  89.7175709  21.7667382  95.5911410  88.7747282
  23.1053466  90.4318482  95.7957237  22.2954195  90.0865567  96.1712483
  23.7937883  90.1226026  96.3844849  25.0344015  89.5096529  97.4181534
  25.5875053  89.9291982  98.0771557  25.2714101  88.5832277  97.4604490
  20.2590185  92.7468528  89.7824975  21.1209349  93.0723426  90.0420792
  20.4440529  91.9600023  89.2698041  28.4122822  91.6197054  96.9260198
  27.8321491  92.2781858  96.5438250  28.1458754  90.7974399  96.5147615
  26.8626388  91.0202112  99.1281518  27.3626166  91.1318646  98.3195837
  27.5061996  90.7163165  99.7682327  27.1947700  93.7797144  95.9816546
  26.3073555  94.0646795  95.7636741  27.6101689  93.6190908  95.1343823
  30.5462236  93.8043665  99.6970885  31.3222626  94.2940118  99.9695502
  29.8210370  94.2301720 100.1542755  32.9834794  94.5171285 100.7544826
  33.5779285  94.2767021 100.0438134  33.0561378  93.7978415 101.3818362
  26.3390913 103.5441819  90.0764566  27.0426763 103.7491822  90.6922222
  25.6153562 104.1118581  90.3413650  27.1688723  99.2951680  96.1966836
  27.1123925  99.7520232  95.3574469  27.7217066  98.5342365  96.0189679
  30.9793529  95.0841412  97.0216956  30.7230464  94.6838048  97.8525164
  30.3546397  95.7985206  96.8967095  35.2905867  97.8237485  99.5288247
  34.7305425  97.8930675 100.3019809  34.6849371  97.6478470  98.8087743
  28.2477611 103.9824348  92.1263026  29.0823214 103.5505547  91.9440501
  28.0861953 103.8106362  93.0539921  27.9023503 100.4856462  93.4919366
  27.8472306 100.3200733  92.5507810  27.2769558 101.1932494  93.6481555
  21.2119628  89.9864571  93.0704684  21.1998298  90.9306410  93.2272955
  22.1043050  89.8034716  92.7764145  25.0271748  86.5807347  97.3250621
  24.2604143  86.0265834  97.4707303  25.4382453  86.6529216  98.1864772
  36.8761886 114.4993999 102.2218203  37.5140296 114.3800747 101.5181543
  36.7582728 115.4474843 102.2806155  33.6851592 114.4521427 102.1579728
  33.3470103 114.3362492 101.2700263  34.5541360 114.0512593 102.1380734
  31.3859871 113.2209675  91.4896668  31.6385392 112.6991196  90.7280131
  30.4484430 113.0575820  91.5923351  36.4303154 112.2245453  99.2971411
  37.2166243 111.8064876  98.9461828  36.6941858 113.1291545  99.4653059
  41.8311581 112.1620686 100.2004390  42.5636753 111.5919903 100.4342219
  41.0750937 111.7742287 100.6410895  33.4487701 114.5847928  97.3967732
  33.0845908 114.0578549  98.1080653  34.3054817 114.1946397  97.2234217
  39.3537002 105.8742260 104.6598998  39.0220326 106.7437671 104.4360213
  38.7582615 105.5578544 105.3393029  33.0893188 109.6137828  92.3929080
  33.2567590 110.4818064  92.7599552  32.8990357 109.7765109  91.4690370
  39.2465665 110.5937347 101.7392348  38.3382542 110.5252755 101.4451109
  39.1953261 111.0709292 102.5674174  33.0682409 112.0695485  93.3775747
  32.9482034 112.5152536  94.2161228  32.3734997 112.4180803  92.8189285
  41.1127311 108.7953785 103.5170222  40.4701692 109.0886318 102.8710017
  40.6082240 108.6806705 104.3223419  38.7667475 112.5416958  94.2056081
  39.6785331 112.7744345  94.0303779  38.2577122 113.1254002  93.6431160
  33.4039313 111.9014193 105.2150931  34.2500508 112.3253606 105.3585580
  33.3437950 111.2447817 105.9089494  36.5538758 109.5618561 106.8732105
  36.3099690 110.3160622 106.3366380  36.8298688 109.9403909 107.7079352
  38.5077221 116.1057174 105.5509370  38.7194116 116.7488933 104.8743751
  38.4606969 115.2719490 105.0831300  36.1103450 108.7174994 102.4545942
  35.2487929 109.0156248 102.7462680  36.1365884 108.9345393 101.5226975
  31.8633905 113.3840337  95.6709313  32.5657949 113.8361381  96.1383239
  31.5314534 112.7424156  96.2989206  25.6059239 111.6423890 100.9726447
  24.8158293 111.8981418 100.4966557  26.0970487 112.4572228 101.0778487
  27.5573985 112.0068469  97.9309923  26.7605148 112.1187163  98.4493419
  27.3299577 112.3455121  97.0650814  47.7129042 115.3267877 100.0716699
  46.9592750 114.7575276  99.9160703  47.8476583 115.2930542 101.0187334
  36.4520133 103.7211842 104.2770312  36.1084403 104.6113483 104.2009422
  36.8199096 103.5313499 103.4139897  36.4170416 113.7120453  92.7842747
  35.9017040 114.4825057  93.0231134  36.1447725 113.0385589  93.4075808
  34.0017527 108.5570154  97.8427985  33.1459123 108.1677004  97.6633624
  34.4144479 108.6362114  96.9827771  35.5316674 106.0916497 102.2419545
  35.0281469 106.0546632 101.4287350  35.8247281 107.0009240 102.3016202
  31.7759560 106.1755227 101.2485727  32.6412556 105.9798035 100.8891616
  31.8437069 105.9465578 102.1755083  41.3904690 116.4652807  94.7195920
  40.6134133 116.1263967  94.2751082  42.0696171 116.4705431  94.0450885
  36.2056719 111.5847545  94.6102528  35.9006855 111.8993694  95.4612671
  37.1587161 111.6628965  94.6529861  39.6295997 115.9386789 101.3762528
  38.9719672 116.6286050 101.4642657  40.4336396 116.3283221 101.7196515
  29.3821879 108.4057434  98.6202094  29.9565631 108.1832616  97.8875286
  29.9692861 108.4746129  99.3730695  38.4401456 114.2931161  99.4266470
  38.9533338 114.9261153  99.9288180  39.0902680 113.6932357  99.0609830
  29.7091466 110.4361896  92.6397979  28.8728778 110.7736582  92.9607254
  29.5696235 110.3010875  91.7025116  31.6844546 105.2798683  97.3477163
  31.0308959 104.9647701  96.7233778  31.6425021 104.6574424  98.0736986
  34.9182287 111.7680617 101.6724811  34.0004848 111.9895564 101.5146499
  35.3342430 111.8426927 100.8136518  35.7017335 113.1672033  96.8027491
  36.4489154 113.6793430  96.4934613  35.9708924 112.8456085  97.6631884
  38.1496172 110.2029149  98.7846280  37.4118929 109.6906535  99.1156523
  38.4022945 109.7629530  97.9729557  38.2507799 102.9805401  99.3788049
  38.5566676 102.1202764  99.0913964  38.9760404 103.5723021  99.1787043
  32.5228879 113.2759194  99.8864240  32.5777489 112.3233030  99.8106717
  31.7120081 113.4318633 100.3705539  30.4621239 111.8936254  97.6454619
  29.6489104 112.1930424  98.0519811  30.9580233 111.4991942  98.3629102
  36.0595450 112.3578078 106.4769513  36.4144838 112.5849551 107.3363979
  36.7067582 112.6896455 105.8546769  41.7893187 115.4796514  97.1818842
  41.6511086 115.6698110  96.2540031  41.4329406 116.2415897  97.6386893
  29.9535313 109.4654609 103.2615854  30.5934693 109.3243368 102.5638818
  29.1212844 109.1789123 102.8854456  41.8162567 117.5473041 102.1930114
  42.2499074 117.4548330 103.0413168  42.5294148 117.5230542 101.5550130
  27.0378381 112.9100121  95.4510599  26.1075969 112.8484577  95.6680562
  27.1335853 112.3876074  94.6547241  26.9563930 109.4354934  98.0388841
  27.2170747 110.3500267  97.9298002  27.7781102 108.9679377  98.1885454
  42.6778116 117.5896742 104.7262999  42.8714007 118.4942552 104.9722274
  42.5778735 117.1304161 105.5601584  34.3314427 107.4754632 107.2253327
  33.6842342 108.1744582 107.1317803  35.1015443 107.9090776 107.5929575
  34.5078562 115.3135397 105.2850146  35.4370622 115.4646557 105.1119114
  34.0869592 115.4019418 104.4298793  37.7931300 116.0623699  90.7174581
  37.1760471 115.3370527  90.6207634  37.3247789 116.8233059  90.3741656
  29.5829846 110.2809123  89.8395886  28.7059312 110.1597924  89.4758132
  30.0587599 109.4895201  89.5874774  36.0790422 108.4430043  99.7292611
  36.5759122 107.6900005  99.4093682  35.3077404 108.4794359  99.1635821
  43.9320180 114.1470408 101.3710903  43.9210056 115.0295124 101.0004836
  43.0637559 113.7941959 101.1765440  32.6625391 110.5847426  99.4564296
  32.2923178 110.0318466 100.1445202  33.1584483 109.9805559  98.9039296
  40.5492754 113.0419049  97.8381069  41.0153206 113.8747041  97.7641372
  41.0000255 112.5764031  98.5426327  38.5209417 105.4099636 101.8771970
  37.6072497 105.6403863 102.0454177  38.9502518 105.4938080 102.7286003
  38.2915875 113.5989528 104.3771864  37.6387326 113.8465436 103.7224317
  38.6696255 112.7853666 104.0434342  28.0590725 107.9951417 105.7017402
  28.1232051 108.8566247 105.2894800  27.9957845 107.3825418 104.9689761
  24.3108540 111.8750978  95.2808791  24.6061981 110.9661657  95.2275845
  23.4096576 111.8538718  94.9589794  27.8402787 109.9506975 101.2636340
  27.1189373 110.5642942 101.1243813  28.6296043 110.4864740 101.1852986
  30.6429100 107.2861401 107.5376992  31.1663502 107.5323698 108.3003301
  30.4241434 108.1181436 107.1180129  26.0396381 109.5565076  95.4048116
  25.7109088 108.6762455  95.2223222  26.3935752 109.5012745  96.2924506
  29.1538205 109.8438046  95.7723594  29.4934277 110.3723967  95.0502202
  29.6010325 110.1818452  96.5482161  31.8481645 108.2275096 105.2226662
  31.5078466 107.4282909 105.6247342  31.1420652 108.5276807 104.6503495
  32.4998117 105.3124409 103.6753985  33.3224187 104.8384887 103.5532875
  32.7436181 106.0914893 104.1752671  31.1406352 108.3412667  93.9716887
  31.8614714 108.7193920  93.4680604  30.5171656 109.0601544  94.0751865
  35.2837475 109.0457816  94.9075219  35.5001089 109.9282454  94.6064047
  34.8031542 108.6544030  94.1780861  30.0236696 112.0043529 101.4845964
  29.8781277 112.3183832 102.3770245  29.5461900 112.6228430 100.9316862
  31.8833079 108.9946077 101.5326853  31.8694648 108.0987171 101.1959151
  32.6005507 109.0016741 102.1665139  33.7359210 109.4283418 103.5779981
  33.4776987 110.3500488 103.5764311  33.2044250 109.0313852 104.2680445
  31.2869975 107.8760458  96.8014423  31.4085886 106.9477104  97.0005311
  30.9972017 107.8899144  95.8892739  34.1561165 105.5615368  99.9381143
  34.1782862 105.6254701  98.9833123  34.5729224 104.7219877 100.1321649
  44.5344790 115.2970628  97.9760366  44.9775936 114.5477953  97.5779489
  43.6571300 115.2880764  97.5934098  41.3763775 116.7826045 107.6038222
  41.4261780 116.6176052 108.5453744  41.2677698 115.9153304 107.2136102
  38.6667538 112.7656973 108.9197528  39.5677400 112.6263438 108.6281526
  38.7415512 112.9311428 109.8595706  33.0010343 110.1423827 107.7650715
  32.1313652 110.4357394 107.4933303  33.2369823 110.7264272 108.4857978
  44.0777654 116.7675866 100.3682813  44.9124546 117.2065670 100.5320374
  44.2136783 116.2914519  99.5491059  41.1269160 114.3255601 106.3160301
  41.6023282 114.5183247 105.5079153  40.2034726 114.3814787 106.0703685
  35.7049377 106.3603444 105.2816135  36.2231321 107.0964471 104.9562624
  35.3504509 106.6667438 106.1162894  27.2848314 111.2208126  93.3977541
  26.5917559 111.2952481  92.7417577  27.0400066 110.4568469  93.9199058
  35.9561971 102.7803727 100.8017032  36.2363725 102.1126916 101.4277458
  36.7412578 102.9732823 100.2891696  39.8270829 111.2021361 104.5488607
  40.7788252 111.3019459 104.5700831  39.6574280 110.4099629 105.0586691
  37.8485209 108.2876944 104.7348008  37.2535141 108.5681957 104.0394496
  37.5634905 108.7770845 105.5064749  42.3058907 114.4227481 103.6630906
  42.2735227 113.4843481 103.8490590  42.9159531 114.5011517 102.9296731
  34.1442238 113.2923534  89.7058110  35.0901343 113.1629742  89.7746529
  33.7656483 112.5538195  90.1827539  42.4553395 111.2138524 103.7089190
  41.9392444 110.4296981 103.5219118  43.3393344 110.8857241 103.8735709
  40.1164122 104.9579540  99.6685002  39.9188944 104.6494628 100.5528334
  40.7263828 105.6841179  99.7982932  48.1235457 115.4843487 102.8036943
  48.8538845 115.2228776 103.3644647  47.5142402 114.7472209 102.8439011
  46.2050754 113.6251350 103.4011394  45.4783918 113.4907315 102.7927886
  45.7898041 113.9328179 104.2068112  32.3285155 111.2173510  89.6412996
  31.4216610 110.9206623  89.7175709  32.6061136 110.9203328  88.7747282
  33.9447221 105.7610400  95.7957237  33.1347949 105.4157485  96.1712483
  34.6331638 105.4517943  96.3844849  35.8737769 104.8388446  97.4181534
  36.4268808 105.2583900  98.0771557  36.1107855 103.9124195  97.4604490
  31.0983940 108.0760445  89.7824975  31.9603104 108.4015344  90.0420792
  31.2834284 107.2891941  89.2698041  39.2516576 106.9488972  96.9260198
  38.6715245 107.6073776  96.5438250  38.9852509 106.1266316  96.5147615
  37.7020142 106.3494029  99.1281518  38.2019921 106.4610564  98.3195837
  38.3455750 106.0455082  99.7682327  38.0341454 109.1089062  95.9816546
  37.1467309 109.3938713  95.7636741  38.4495443 108.9482825  95.1343823
  41.3855990 109.1335583  99.6970885  42.1616380 109.6232035  99.9695502
  40.6604124 109.5593637 100.1542755  43.8228549 109.8463202 100.7544826
  44.4173040 109.6058938 100.0438134  43.8955133 109.1270333 101.3818362
  38.0082478 114.6243598  96.1966836  37.9517679 115.0812149  95.3574469
  38.5610820 113.8634283  96.0189679  41.8187284 110.4133330  97.0216956
  41.5624218 110.0129965  97.8525164  41.1940152 111.1277124  96.8967095
  46.1299622 113.1529403  99.5288247  45.5699180 113.2222592 100.3019809
  45.5243125 112.9770388  98.8087743  38.7417257 115.8148379  93.4919366
  38.6866061 115.6492651  92.5507810  38.1163312 116.5224412  93.6481555
  32.0513383 105.3156488  93.0704684  32.0392052 106.2598328  93.2272955
  32.9436805 105.1326634  92.7764145  35.8665502 101.9099265  97.3250621
  35.0997898 101.3557752  97.4707303  36.2776207 101.9821134  98.1864772
  47.2913888 119.0503759 104.2770312  46.9478157 119.9405401 104.2009422
  47.6592850 118.8605417 103.4139897  49.0901554 118.3097319  99.3788049
  49.3960430 117.4494682  99.0913964  49.8154158 118.9014939  99.1787043
  46.7955725 118.1095645 100.8017032  47.0757479 117.4418834 101.4277458
  47.5806332 118.3024740 100.2891696  50.9557877 120.2871457  99.6685002
  50.7582698 119.9786545 100.5528334  51.5657582 121.0133096  99.7982932
  46.7059257 117.2391183  97.3250621  45.9391652 116.6849669  97.4707303
  47.1169962 117.3113051  98.1864772   4.3554025  31.0162329  86.7962006
   3.6017733  30.4469727  86.6406010   4.4901566  30.9824994  87.7432640
   0.7202638  32.4570318  87.0928120   1.5549529  32.8960122  87.2565680
   0.8561766  31.9808971  86.2736366   4.7660440  31.1737939  89.5282250
   5.4963829  30.9123227  90.0889953   4.1567386  30.4366661  89.5684318
   2.8475737  29.3145802  90.1256701   2.1208901  29.1801767  89.5173193
   2.4323024  29.6222631  90.9313419   0.4653532  25.5357654  87.4790133
   1.0598023  25.2953390  86.7683441   0.5380116  24.8164785  88.1063669
   2.7724605  28.8423855  86.2533554   2.2124163  28.9117044  87.0265116
   2.1668108  28.6664840  85.5333050   4.3580623  45.5180369  88.9463510
   4.9959033  45.3987116  88.2426850   4.2401466  46.4661213  89.0051462
   1.1670330  45.4707797  88.8825034   0.8288841  45.3548862  87.9945569
   2.0360098  45.0698962  88.8626040   1.6490113  46.6242649  94.8411240
   1.6378753  46.2295447  93.9691743   1.8110752  45.8908721  95.4345011
   2.6056704  50.9914241  80.1836390   1.9544684  51.5768322  79.7970404
   3.4001067  51.5220436  80.2431428   3.9121892  43.2431823  86.0216718
   4.6984981  42.8251246  85.6707135   4.1760596  44.1477915  86.1898366
   4.0831969  48.6804673  80.7205374   3.4477802  48.7539300  81.4326279
   3.7529376  49.2698272  80.0424454   9.3130319  43.1807056  86.9249696
  10.0455491  42.6106273  87.1587526   8.5569675  42.7928656  87.3656202
   0.9306439  45.6034297  84.1213039   0.5664646  45.0764918  84.8325960
   1.7873555  45.2132767  83.9479524   6.8355739  36.8928630  91.3844305
   6.5039064  37.7624041  91.1605520   6.2401353  36.5764914  92.0638335
   3.3287259  49.0941176  90.7840217   3.0287982  49.9966215  90.6756025
   2.9838318  48.8273359  91.6361370   6.7284403  41.6123716  88.4637655
   5.8201280  41.5439125  88.1696416   6.6771998  42.0895661  89.2919480
   8.5946049  39.8140155  90.2415529   7.9520429  40.1072688  89.5955323
   8.0900978  39.6993075  91.0468725   6.2486213  43.5603328  80.9301388
   7.1604069  43.7930715  80.7549086   5.7395860  44.1440372  80.3676467
   4.5326980  47.9827956  94.5662681   4.9410336  47.5410366  93.8217313
   3.8104242  47.4080583  94.8196873   0.8858050  42.9200562  91.9396238
   1.7319246  43.3439976  92.0830887   0.8256688  42.2634187  92.6334801
   4.8555795  48.5429146  88.3214969   4.2264657  48.7074860  87.6191037
   4.4681457  48.9570756  89.0925933   8.7345027  49.4783584  85.6759333
   8.0496065  49.8582485  85.1256367   8.8188876  50.0878911  86.4091281
   4.0357496  40.5804931  93.5977411   3.7918428  41.3346991  93.0611687
   4.3117426  40.9590278  94.4324658   5.9895959  47.1243543  92.2754677
   6.2012854  47.7675303  91.5989058   5.9425707  46.2905860  91.8076607
   3.5922188  39.7361364  89.1791249   2.7306667  40.0342617  89.4707986
   3.6184622  39.9531763  88.2472282   7.1041786  50.0015499  90.4477034
   7.9259230  49.5995686  90.1659716   7.1004189  49.8983733  91.3993150
  15.1947780  46.3454247  86.7962006  14.4411488  45.7761645  86.6406010
  15.3295321  46.3116912  87.7432640   0.5846408  51.2167649  82.4716725
   0.4492082  52.0619185  82.9001573   1.1256220  51.4186927  81.7082659
   2.2114884  51.8391216  96.6017067   1.7678738  51.0527594  96.2837971
   2.8732098  52.0270366  95.9360958   4.3096122  52.1194016  94.6298468
   4.2914597  52.9402897  94.1378737   5.2316042  51.9948091  94.8548609
   3.9338871  34.7398211  91.0015618   3.5903141  35.6299853  90.9254729
   4.3017834  34.5499869  90.1385203   3.8989154  44.7306822  79.5088053
   3.3835777  45.5011427  79.7476441   3.6266462  44.0571959  80.1321115
   1.4836265  39.5756523  84.5673292   0.6277861  39.1863374  84.3878931
   1.8963217  39.6548484  83.7073077   3.0135412  37.1102866  88.9664852
   2.5100207  37.0733002  88.1532657   3.3066018  38.0195609  89.0261508
   8.8723428  47.4839177  81.4441227   8.0952871  47.1450336  80.9996389
   9.5514909  47.4891800  80.7696192   3.6875457  42.6033914  81.3347835
   3.3825593  42.9180064  82.1857978   4.6405899  42.6815334  81.3775168
   2.1321889  48.7624138  82.9840789   1.6043250  48.0276897  82.6714026
   1.6309392  49.5398814  82.7380757   7.1114735  46.9573158  88.1007835
   6.4538409  47.6472420  88.1887964   7.9155134  47.3469590  88.4441821
   5.9220194  45.3117531  86.1511777   6.4352075  45.9447523  86.6533486
   6.5721418  44.7118726  85.7855137   3.1842568  55.2901855  78.9072448
   2.5104267  55.5933552  79.5157406   3.5708390  56.0930936  78.5577905
   2.4001025  42.7866986  88.3970117   1.4823586  43.0081933  88.2391805
   2.8161168  42.8613297  87.5381825   3.1836072  44.1858402  83.5272797
   3.9307891  44.6979799  83.2179920   3.4527662  43.8642455  84.3877191
   1.4562723  46.6816943  80.5099752   0.5473942  46.3975976  80.6072222
   1.4857806  47.1016021  79.6503059   6.6881990  50.2923532  84.2790919
   6.2344317  49.4514442  84.3356110   6.0575957  50.9284931  84.6165699
   5.6314909  41.2215518  85.5091587   4.8937666  40.7092905  85.8401829
   5.8841683  40.7815900  84.6974864   5.1314929  52.1300029  85.2140737
   5.4237904  52.6905086  84.4953103   5.6413550  52.4228590  85.9693897
   5.7326537  33.9991770  86.1033356   6.0385414  33.1389134  85.8159271
   6.4579142  34.5909391  85.9032350   1.1538810  48.2225687  77.8487830
   0.7158240  47.5061545  77.3893468   1.8949251  48.4501801  77.2872922
   3.5414188  43.3764448  93.2014820   3.8963576  43.6035921  94.0609286
   4.1886319  43.7082824  92.5792075   9.2711925  46.4982884  83.9064149
   9.1329824  46.6884480  82.9785338   8.9148144  47.2602266  84.3632200
   9.2981305  48.5659411  88.9175420   9.7317811  48.4734700  89.7658474
  10.0112885  48.5416911  88.2795436   3.0309200  52.1661505  90.4508521
   3.0846222  52.7352441  91.2186237   2.1623981  52.3363390  90.0862558
  10.1596854  48.6083111  91.4508306  10.3532744  49.5128922  91.6967581
  10.0597472  48.1490530  92.2846891   1.8133165  38.4941002  93.9498633
   1.1661080  39.1930951  93.8563110   2.5834180  38.9277146  94.3174881
   5.2211963  48.7589854  97.0249186   5.0697469  48.5300406  96.1079270
   5.2116642  49.7160455  97.0380531   1.9897299  46.3321767  92.0095453
   2.9189359  46.4832926  91.8364420   1.5688329  46.4205788  91.1544099
   1.3833783  55.4581528  81.1219527   1.5585539  54.9869571  81.9365150
   0.6966571  56.0847294  81.3500788   2.3390846  49.7354034  87.1682828
   2.0040679  49.6954804  88.0640478   1.8394792  49.0698750  86.6953239
   5.2750038  47.0810068  77.4419888   4.6579209  46.3556896  77.3452941
   4.8066526  47.8419428  77.0986962   6.9304170  51.7908977  95.1025668
   6.8716716  51.1068197  94.4356251   7.3323688  52.5327967  94.6506294
   6.9321577  49.7548560  93.3339648   6.0448356  49.4174482  93.4566047
   7.5020128  49.0231592  93.5708413   3.5609160  39.4616412  86.4537918
   4.0577860  38.7086375  86.1338988   2.7896141  39.4980729  85.8881127
  11.4138917  45.1656778  88.0956210  11.4028794  46.0481493  87.7250143
  10.5456297  44.8128329  87.9010747   2.9221414  54.3136847  92.4559050
   3.6349386  54.9484312  92.3834951   2.4311442  54.4100713  91.6399052
   4.6438941  48.2188100  84.0276341   3.7095219  48.3389562  83.8581046
   4.8215609  47.3160566  83.7636351   8.0311492  44.0605419  84.5626376
   8.4971944  44.8933410  84.4886678   8.4818993  43.5950400  85.2671634
   6.0987723  50.4049240  81.5612528   6.3747567  50.2905835  82.4706402
   5.2292222  50.0066725  81.5224701   6.0028155  36.4286006  88.6017277
   5.0891235  36.6590233  88.7699484   6.4321256  36.5124450  89.4531309
   5.7734613  44.6175898  91.1017171   5.1206064  44.8651805  90.4469624
   6.1514993  43.8040036  90.7679648   2.7341787  54.6535591  85.2045341
   2.9164182  53.8357247  85.6673094   3.5574773  54.8703283  84.7670231
   3.0683953  53.5803776  82.4660390   3.5971719  53.0696231  81.8530552
   3.3312172  53.2646306  83.3305923   1.8222186  45.3595709  97.5883208
   1.1462823  45.2589838  98.2585583   2.6449820  45.2034923  98.0519205
   0.5644969  56.6662636  91.8240824   1.1163277  56.8294258  92.5889909
   0.9051163  57.2567074  91.1520849   5.4155844  51.4923894  97.6789479
   5.9595747  52.1053852  97.1844433   4.8342688  52.0503472  98.1956492
   3.7013356  54.6144612  88.8104506   3.5764496  53.8134352  88.3015452
   4.3592448  55.1090805  88.3218476   5.7648265  52.4153632  90.4384056
   4.8178600  52.2958983  90.3662383   6.1131038  51.5276130  90.5210318
   2.7694698  52.2106348  86.6388409   2.6219661  51.2823056  86.8195979
   3.5948192  52.2326439  86.1545484   6.3728820  53.0334907  87.7253281
   7.2975367  52.8277768  87.5877732   6.2044123  52.7851308  88.6342623
   2.7656212  40.0644186  81.6320526   2.9819827  40.9468824  81.3309354
   2.2850280  39.6730399  80.9026168   1.2177947  40.4469787  90.3025287
   0.9595725  41.3686858  90.3009618   0.6862988  40.0500222  90.9925752
   6.1624136  53.5520574  83.0815373   6.3361014  52.9866997  82.3289225
   6.6553027  54.3521469  82.8994863   1.6379903  36.5801738  86.6626450
   1.6601600  36.6441071  85.7078429   2.0547962  35.7406246  86.8566956
  12.0163527  46.3156997  84.7005673  12.4594673  45.5664322  84.3024796
  11.1390038  46.3067134  84.3179404   7.1499309  52.8687339  80.1812271
   7.8450213  53.4894031  80.3999586   7.4922459  52.0182690  80.4564649
   9.0490732  50.3187044  81.7099602   9.5742056  50.6574317  80.9848922
   8.9613084  49.3834060  81.5262736   0.7110780  54.2321118  93.8389478
   1.0197907  53.9870265  94.7112178   1.5086263  54.4367756  93.3508349
   8.7384638  50.9519948  97.0150800   7.9480182  50.9344087  96.4755299
   8.5017992  51.4908242  97.7699836   8.8582513  47.8012414  94.3283528
   8.9080518  47.6362422  95.2699051   8.7496436  46.9339673  93.9381409
   6.1486275  43.7843342  95.6442835   7.0496138  43.6449807  95.3526833
   6.2234250  43.9497797  96.5841012  10.3600710  50.2209356  94.5725550
  10.0685518  50.5839336  95.4089011   9.7472841  49.5076364  94.3938882
  11.5596392  47.7862236  87.0928120  12.3943283  48.2252040  87.2565680
  11.6955521  47.3100889  86.2736366   8.6087898  45.3441970  93.0405608
   9.0842020  45.5369617  92.2324459   7.6853463  45.4001156  92.7948991
   3.1868114  37.3789814  92.0061442   3.7050058  38.1150841  91.6807930
   2.8323247  37.6853807  92.8408201   3.4380709  33.7990096  87.5262338
   3.7182462  33.1313286  88.1522765   4.2231316  33.9919192  87.0137002
   1.2414177  52.9749090  79.0887365   0.6688144  53.5939278  78.6357836
   1.8146971  53.5248452  79.6227287   7.3089567  42.2207730  91.2733913
   8.2606990  42.3205828  91.2946137   7.1393017  41.4285999  91.7831998
   5.3303946  39.3063314  91.4593314   4.7353879  39.5868326  90.7639803
   5.0453643  39.7957215  92.2310055   4.4611437  53.2586241  80.2195947
   5.3942110  53.1931802  80.4228822   4.3734650  54.0942507  79.7610480
   7.0899454  52.5752111  77.1799894   7.0113085  52.2411974  78.0735652
   7.9109120  53.0673879  77.1791367   9.7877645  45.4413850  90.3876213
   9.7553965  44.5029851  90.5735897  10.3978268  45.5197887  89.6542038
   1.6260976  44.3109903  76.4303417   2.5720080  44.1816111  76.4991835
   1.2475221  43.5724565  76.9072845   9.9372133  42.2324894  90.4334496
   9.4211182  41.4483350  90.2464425  10.8212082  41.9043610  90.5981016
   7.5982860  35.9765909  86.3930309   7.4007681  35.6680997  87.2773641
   8.2082566  36.7027548  86.5228239  15.6054195  46.5029857  89.5282250
  16.3357583  46.2415145  90.0889953  14.9961140  45.7658579  89.5684318
  13.6869492  44.6437720  90.1256701  12.9602655  44.5093685  89.5173193
  13.2716779  44.9514548  90.9313419   1.5099668  48.3627649  97.8904074
   2.4302678  48.5406248  98.0844121   1.4749251  47.4183695  97.7383773
   1.4265959  36.7796769  82.5202544   0.6166687  36.4343854  82.8957790
   2.1150375  36.4704313  83.1090155   3.3556507  35.8574816  84.1426840
   3.9087545  36.2770269  84.8016863   3.5926593  34.9310564  84.1849796
   6.7335314  37.9675341  83.6505505   6.1533983  38.6260145  83.2683557
   6.4671247  37.1452686  83.2392922   5.1838880  37.3680399  85.8526825
   5.6838659  37.4796933  85.0441144   5.8274488  37.0641452  86.4927633
   5.5160192  40.1275432  82.7061853   4.6286047  40.4125082  82.4882048
   5.9314181  39.9669195  81.8589130   8.8674728  40.1521953  86.4216192
   9.6435118  40.6418405  86.6940809   8.1422862  40.5780007  86.8788062
  11.3047287  40.8649572  87.4790133  11.8991777  40.6245308  86.7683441
  11.3773870  40.1456702  88.1063669   4.6603405  49.8920106  76.8009873
   5.3639255  50.0970109  77.4167528   3.9366054  50.4596868  77.0658956
   5.4901216  45.6429968  82.9212143   5.4336417  46.0998519  82.0819775
   6.0429558  44.8820652  82.7434986   9.3006022  41.4319699  83.7462262
   9.0442956  41.0316335  84.5770470   8.6758890  42.1463493  83.6212402
  13.6118359  44.1715773  86.2533554  13.0517917  44.2408962  87.0265116
  13.0061863  43.9956757  85.5333050   6.5690103  50.3302635  78.8508333
   7.4035707  49.8983834  78.6685808   6.4074446  50.1584649  79.7785227
   6.2235995  46.8334749  80.2164672   6.1684799  46.6679020  79.2753116
   5.5982050  47.5410782  80.3726862   3.5381902  49.1383661  99.5418235
   4.4073062  49.3124313  99.1804870   3.0588654  49.9578077  99.4193964
   3.3484240  32.9285634  84.0495927   2.5816636  32.3744121  84.1952610
   3.7594945  33.0007503  84.9110079  15.1974378  60.8472287  88.9463510
  15.8352788  60.7279034  88.2426850  15.0795221  61.7953131  89.0051462
  12.0064084  60.7999715  88.8825034  11.6682596  60.6840779  87.9945569
  12.8753852  60.3990880  88.8626040   7.8650900  62.6535191  84.8721925
   7.3015765  62.5625128  84.1038213   7.7503295  61.8335096  85.3524418
  12.4883867  61.9534566  94.8411240  12.4772508  61.5587365  93.9691743
  12.6504507  61.2200639  95.4345011   5.4115332  64.1486383  87.7106146
   6.2036624  63.8077207  87.2952445   5.6511982  64.2581358  88.6308299
  13.4450459  66.3206159  80.1836390  12.7938438  66.9060239  79.7970404
  14.2394821  66.8512354  80.2431428   7.3706086  63.4095296  80.5823524
   8.1436962  62.8624283  80.4436400   7.7231485  64.2739545  80.7937986
   9.2091128  64.7371678  93.7890424   8.9180994  65.6417309  93.6737090
   9.8448113  64.7788206  94.5034493  10.1347335  62.1148527  90.3791783
  10.7310907  61.8904549  89.6648746  10.1922307  61.3733272  90.9817231
   9.7072364  59.5687962  78.2141974   9.9597884  59.0469483  77.4525437
   8.7696923  59.4054108  78.3168658  14.7515646  58.5723740  86.0216718
  15.5378736  58.1543164  85.6707135  15.0154351  59.4769833  86.1898366
  14.9225724  64.0096591  80.7205374  14.2871557  64.0831217  81.4326279
  14.5923130  64.5990190  80.0424454  20.1524073  58.5098974  86.9249696
  20.8849245  57.9398190  87.1587526  19.3963429  58.1220574  87.3656202
   9.4268652  61.4716068  80.4166349   9.3104910  60.7960971  81.0847434
   9.5370912  60.9848442  79.5998502  11.7700193  60.9326215  84.1213039
  11.4058400  60.4056836  84.8325960  12.6267309  60.5424684  83.9479524
  17.6749494  52.2220548  91.3844305  17.3432819  53.0915959  91.1605520
  17.0795107  51.9056832  92.0638335  11.4105680  55.9616115  79.1174387
  11.5780083  56.8296351  79.4844858  11.2202849  56.1243397  78.1935676
  14.1681013  64.4233094  90.7840217  13.8681736  65.3258133  90.6756025
  13.8232073  64.1565277  91.6361370   7.6193495  60.8746891  86.8176922
   6.6943991  60.7423105  87.0254614   7.8677908  61.6541110  87.3146864
  17.5678157  56.9415634  88.4637655  16.6595034  56.8731042  88.1696416
  17.5165753  57.4187579  89.2919480  11.3894901  58.4173772  80.1021054
  11.2694526  58.8630823  80.9406534  10.6947489  58.7659090  79.5434592
   4.9802306  60.5180164  87.6520711   5.1094687  60.7714643  88.5660123
   4.2999757  61.1107872  87.3325366   9.1501793  71.1877414  83.7511185
   9.0725823  72.1385239  83.8299666   8.5463437  70.8423287  84.4086111
  11.6419023  58.3605280  96.4072552  10.8652357  58.9199200  96.3975417
  12.2809586  58.8462062  96.9287422  19.4339804  55.1432072  90.2415529
  18.7914184  55.4364605  89.5955323  18.9294732  55.0284993  91.0468725
  17.0879967  58.8895246  80.9301388  17.9997823  59.1222632  80.7549086
  16.5789614  59.4732290  80.3676467   9.8965395  61.1690733  95.9690519
  10.6380080  61.7075777  95.6925343   9.1902381  61.7957022  96.1262071
  15.3720735  63.3119873  94.5662681  15.7804091  62.8702284  93.8217313
  14.6497996  62.7372501  94.8196873  11.7251805  58.2492480  91.9396238
  12.5713000  58.6731894  92.0830887  11.6650443  57.5926104  92.6334801
  15.6949550  63.8721064  88.3214969  15.0658412  64.0366778  87.6191037
  15.3075212  64.2862674  89.0925933  19.5738781  64.8075502  85.6759333
  18.8889820  65.1874403  85.1256367  19.6582631  65.4170828  86.4091281
  14.8751250  55.9096848  93.5977411  14.6312182  56.6638909  93.0611687
  15.1511181  56.2882196  94.4324658  16.8289713  62.4535461  92.2754677
  17.0406608  63.0967221  91.5989058  16.7819461  61.6197777  91.8076607
  14.4315942  55.0653281  89.1791249  13.5700421  55.3634535  89.4707986
  14.4578377  55.2823680  88.2472282  11.2477511  63.6095472  85.5865055
  11.7115857  63.8883175  84.7969677  10.9834310  62.7078917  85.4038145
   8.1401592  63.1566954  88.5244818   8.7102950  63.5854222  87.8862302
   8.7309704  62.8749538  89.2229003  10.1846397  59.7318624  82.3954620
  10.8870441  60.1839668  82.8628546   9.8527026  59.0902443  83.0234513
   8.6326759  58.3230381  96.7705829   8.0025420  59.0046662  97.0041226
   8.5262847  58.2113463  95.8258967   3.9271731  57.9902177  87.6971753
   3.1370785  58.2459706  87.2211864   4.4182979  58.8050515  87.8023794
  17.9435541  65.3307416  90.4477034  18.7652985  64.9287604  90.1659716
  17.9397944  65.2275650  91.3993150   5.8786477  58.3546756  84.6555230
   5.0817640  58.4665451  85.1738726   5.6512069  58.6933409  83.7896120
  11.7092144  64.8791460  92.6037745  11.7736577  65.3411867  93.4395916
  11.0003068  64.2488824  92.7320054   2.2109434  58.2432668  90.1286744
   2.4617473  59.1279677  90.3944320   2.7468983  58.0637269  89.3561836
  26.0341534  61.6746165  86.7962006  25.2805242  61.1053563  86.6406010
  26.1689075  61.6408829  87.7432640  11.4240162  66.5459567  82.4716725
  11.2885837  67.3911103  82.9001573  11.9649975  66.7478845  81.7082659
   7.9107502  52.6251147  99.1331080   7.5174447  52.0717345  99.8078724
   8.7273642  52.9361725  99.5237598   4.8769559  64.0635005  83.0444650
   5.3894080  64.8578255  83.1950215   5.5292272  63.3661296  82.9778251
   6.6864444  67.1800761  85.1267403   6.8631073  68.1018726  84.9388387
   7.4821278  66.8659181  85.5561783  10.8275463  54.0409026  96.7251337
  11.5685176  54.6416179  96.6455799  11.0593386  53.2986664  96.1669379
   5.9716801  59.2265393  95.0029566   5.8570316  58.3250650  95.3036665
   5.1161318  59.4729090  94.6514383  13.0508638  67.1683134  96.6017067
  12.6072493  66.3819512  96.2837971  13.7125852  67.3562284  95.9360958
   7.8095760  68.6978935  91.1277745   8.3603185  68.5695998  90.3554739
   6.9707236  68.9973824  90.7772638  15.1489877  67.4485933  94.6298468
  15.1308352  68.2694815  94.1378737  16.0709797  67.3240009  94.8548609
  11.6062931  64.9630063  95.4721977  12.1391267  64.2018351  95.2421285
  11.0777012  64.6703715  96.2146131  14.7732626  50.0690129  91.0015618
  14.4296895  50.9591771  90.9254729  15.1411588  49.8791787  90.1385203
   2.8418476  62.3923659  83.8204221   3.6793698  62.8020668  83.6037928
   3.0196744  61.4523102  83.7904414  14.7382908  60.0598740  79.5088053
  14.2229532  60.8303345  79.7476441  14.4660217  59.3863876  80.1321115
  12.3230019  54.9048441  84.5673292  11.4671616  54.5155291  84.3878931
  12.7356971  54.9840402  83.7073077  13.8529166  52.4394784  88.9664852
  13.3493962  52.4024919  88.1532657  14.1459773  53.3487527  89.0261508
  10.0972052  52.5233514  87.9731033  10.9625049  52.3276322  87.6136923
  10.1649561  52.2943866  88.9000390  19.7117183  62.8131095  81.4441227
  18.9346625  62.4742254  80.9996389  20.3908663  62.8183718  80.7696192
  14.5269212  57.9325832  81.3347835  14.2219347  58.2471981  82.1857978
  15.4799654  58.0107252  81.3775168  12.9715643  64.0916055  82.9840789
  12.4437005  63.3568815  82.6714026  12.4703146  64.8690732  82.7380757
  17.9508489  62.2865076  88.1007835  17.2932164  62.9764337  88.1887964
  18.7548889  62.6761508  88.4441821   7.7034371  54.7535722  85.3447400
   8.2778123  54.5310903  84.6120593   8.2905353  54.8224416  86.0976001
  16.7613948  60.6409449  86.1511777  17.2745830  61.2739440  86.6533486
  17.4115172  60.0410644  85.7855137   8.0303958  56.7840183  79.3643285
   7.1941270  57.1214869  79.6852560   7.8908728  56.6489163  78.4270422
  10.0057039  51.6276971  84.0722470   9.3521451  51.3125988  83.4479084
   9.9637513  51.0052711  84.7982293  11.1168244  61.9096266  75.9875762
  10.2095305  61.6785519  76.1866911  11.6139276  61.1133885  76.1749743
  14.0236322  70.6193773  78.9072448  13.3498021  70.9225470  79.5157406
  14.4102144  71.4222853  78.5577905  13.2394779  58.1158904  88.3970117
  12.3217340  58.3373851  88.2391805  13.6554923  58.1905215  87.5381825
  14.0229827  59.5150320  83.5272797  14.7701646  60.0271717  83.2179920
  14.2921416  59.1934373  84.3877191  12.2956477  62.0108861  80.5099752
  11.3867696  61.7267893  80.6072222  12.3251561  62.4307939  79.6503059
  17.5275744  65.6215450  84.2790919  17.0738072  64.7806360  84.3356110
  16.8969711  66.2576848  84.6165699  16.4708664  56.5507436  85.5091587
  15.7331421  56.0384822  85.8401829  16.7235438  56.1107818  84.6974864
  15.9708684  67.4591947  85.2140737  16.2631658  68.0197004  84.4953103
  16.4807304  67.7520508  85.9693897  16.5720291  49.3283688  86.1033356
  16.8779168  48.4681052  85.8159271  17.2972896  49.9201308  85.9032350
   2.8644647  59.7314375  84.4914954   2.6669047  59.1383735  83.7666021
   2.3091311  59.4266585  85.2090893  10.8441371  59.6237481  86.6109547
  10.8989981  58.6711318  86.5352024  10.0332573  59.7796920  87.0950846
  11.9932565  63.5517604  77.8487830  11.5551995  62.8353463  77.3893468
  12.7343006  63.7793719  77.2872922   8.7833731  58.2414541  84.3699926
   7.9701597  58.5408711  84.7765118   9.2792725  57.8470230  85.0874408
  10.9342309  68.2372298  86.3034191  10.8918488  68.4633144  85.3742723
  11.8505008  68.0035672  86.4519992  14.3807943  58.7056365  93.2014820
  14.7357330  58.9327839  94.0609286  15.0280074  59.0374742  92.5792075
  20.1105680  61.8274801  83.9064149  19.9723578  62.0176397  82.9785338
  19.7541898  62.5894184  84.3632200   8.2747806  55.8132896  89.9861161
   8.9147185  55.6721656  89.2884124   7.4425336  55.5267410  89.6099763
  20.1375059  63.8951328  88.9175420  20.5711566  63.8026617  89.7658474
  20.8506640  63.8708829  88.2795436   9.0508110  65.1135327  86.0996153
   9.8448708  64.6185647  85.8978728   8.3399802  64.5853190  85.7363859
  13.8702954  67.4953422  90.4508521  13.9239976  68.0644359  91.2186237
  13.0017735  67.6655307  90.0862558   5.3590873  59.2578409  82.1755906
   4.4288461  59.1962864  82.3925868   5.4548345  58.7354361  81.3792547
   5.2776422  55.7833221  84.7634148   5.5383239  56.6978555  84.6543308
   6.0993594  55.3157664  84.9130761   6.7501347  57.1970979  91.9332972
   7.4224401  56.9888341  91.2845621   5.9231134  56.9993065  91.4938205
  20.9990609  63.9375029  91.4508306  21.1926499  64.8420839  91.6967581
  20.8991227  63.4782448  92.2846891  12.6526919  53.8232920  93.9498633
  12.0054835  54.5222869  93.8563110  13.4227935  54.2569063  94.3174881
  16.0605717  64.0881772  97.0249186  15.9091224  63.8592323  96.1079270
  16.0510397  65.0452373  97.0380531  12.8291054  61.6613684  92.0095453
  13.7583114  61.8124844  91.8364420  12.4082084  61.7497705  91.1544099
  11.6279386  65.6864349  89.7793990  11.4890471  65.3183133  90.6519929
  10.8393982  66.2011988  89.6077948  12.2227538  70.7873445  81.1219527
  12.3979293  70.3161489  81.9365150  11.5360326  71.4139212  81.3500788
  13.1784601  65.0645952  87.1682828  12.8434433  65.0246722  88.0640478
  12.6788546  64.3990667  86.6953239   7.1528845  60.4713582  92.6935409
   7.0148643  59.7393820  93.2946948   8.0633768  60.3822482  92.4119597
  16.1143792  62.4101986  77.4419888  15.4972963  61.6848814  77.3452941
  15.6460281  63.1711346  77.0986962   9.7811145  60.1833541  92.1819089
  10.4910764  59.5426733  92.1405708   9.7380454  60.4346436  93.1045270
  17.7697924  67.1200894  95.1025668  17.7110470  66.4360114  94.4356251
  18.1717442  67.8619884  94.6506294   8.4940079  57.1698759  94.0014729
   7.9577436  56.7189497  94.6536325   7.9056788  57.3044668  93.2585193
   6.7888623  73.9362808  87.8959387   7.0285221  74.5681332  88.5738406
   5.9457819  73.5850848  88.1824746   7.9042338  56.6287410  76.5641192
   7.0271805  56.5076211  76.2003439   8.3800091  55.8373488  76.3120081
  17.7715331  65.0840478  93.3339648  16.8842110  64.7466400  93.4566047
  18.3413882  64.3523509  93.5708413   4.2279201  56.3054766  91.0867723
   4.1437389  55.6980436  90.3518133   3.4061907  56.7963785  91.0877219
  11.3016485  69.7441931  90.3000891  11.2286656  70.5496902  90.8120196
  10.8593878  69.9433896  89.4748913  11.0906264  68.9813701  83.8103713
  10.3073786  69.5235381  83.9041937  11.7899010  69.4987680  84.2097954
  14.4002914  54.7908330  86.4537918  14.8971614  54.0378292  86.1338988
  13.6289896  54.8272647  85.8881127  22.2532672  60.4948696  88.0956210
  22.2422548  61.3773411  87.7250143  21.3850051  60.1420246  87.9010747
  13.7615168  69.6428765  92.4559050  14.4743140  70.2776229  92.3834951
  13.2705197  69.7392631  91.6399052  15.4832695  63.5480017  84.0276341
  14.5488974  63.6681480  83.8581046  15.6609364  62.6452484  83.7636351
  10.9837883  56.9325713  86.1809603  10.6135671  56.3796753  86.8690508
  11.4796976  56.3283846  85.6284603  18.8705247  59.3897337  84.5626376
  19.3365699  60.2225328  84.4886678  19.3212747  58.9242318  85.2671634
   8.8127082  67.3923208  93.2764621   9.5136541  68.0259691  93.4294015
   8.3422197  67.7337940  92.5160260  16.9381478  65.7341158  81.5612528
  17.2141322  65.6197752  82.4706402  16.0685976  65.3358643  81.5224701
  16.8421909  51.7577923  88.6017277  15.9284989  51.9882150  88.7699484
  17.2715011  51.8416368  89.4531309  16.6128368  59.9467815  91.1017171
  15.9599818  60.1943723  90.4469624  16.9908748  59.1331954  90.7679648
  13.5735542  69.9827509  85.2045341  13.7557936  69.1649165  85.6673094
  14.3968528  70.1995201  84.7670231  13.9077707  68.9095694  82.4660390
  14.4365474  68.3988148  81.8530552  14.1705927  68.5938224  83.3305923
  12.6615941  60.6887627  97.5883208  11.9856578  60.5881756  98.2585583
  13.4843575  60.5326840  98.0519205   4.4094800  66.9259563  90.2095723
   4.9948237  66.1803251  90.3423628   4.2119638  67.2363520  91.0932387
   7.2633455  69.9610810  85.2258166   6.5943830  70.4456938  84.7422206
   7.1246325  70.2080031  86.1401544  11.4038724  71.9954554  91.8240824
  11.9557032  72.1586175  92.5889909  11.7444917  72.5858992  91.1520849
   6.3803217  54.3429704  92.4262709   6.4444543  55.2044535  92.0140106
   6.3170337  53.7303705  91.6935067   5.8555489  56.4152836  96.0735743
   6.4827528  56.0329914  96.6873267   4.9983408  56.1967038  96.4391436
  16.2549598  66.8215811  97.6789479  16.7989502  67.4345770  97.1844433
  15.6736443  67.3795390  98.1956492   2.6321032  58.2229265  82.0054098
   2.9274473  57.3139944  81.9521152   1.7309068  58.2017005  81.6835100
  14.5407111  69.9436529  88.8104506  14.4158250  69.1426269  88.3015452
  15.1986202  70.4382723  88.3218476   6.1615279  56.2985262  87.9881646
   5.4401865  56.9121230  87.8489120   6.9508535  56.8343027  87.9098292
  16.6042019  67.7445550  90.4384056  15.6572355  67.6250901  90.3662383
  16.9524792  66.8568048  90.5210318   8.9641593  53.6339688  94.2622298
   9.4875995  53.8801985  95.0248608   8.7453926  54.4659723  93.8425436
   4.3608874  55.9043363  82.1293423   4.0321580  55.0240742  81.9468529
   4.7148244  55.8491032  83.0169812  13.6088453  67.5398266  86.6388409
  13.4613415  66.6114973  86.8195979  14.4341946  67.5618357  86.1545484
   7.4750697  56.1916333  82.4968901   7.8146769  56.7202254  81.7747509
   7.9222817  56.5296739  83.2727467  17.2122574  68.3626825  87.7253281
  18.1369122  68.1569686  87.5877732  17.0437878  68.1143226  88.6342623
  10.1694138  54.5753384  91.9471969   9.8290958  53.7761197  92.3492649
   9.4633144  54.8755094  91.3748802  10.8210610  51.6602696  90.3999292
  11.6436679  51.1863174  90.2778182  11.0648673  52.4393180  90.8997978
   9.4618844  54.6890954  80.6962193  10.1827207  55.0672207  80.1925910
   8.8384148  55.4079831  80.7997171  13.6049967  55.3936103  81.6320526
  13.8213581  56.2760741  81.3309354  13.1244034  55.0022317  80.9026168
   8.3449188  58.3521817  88.2091270   8.1993769  58.6662120  89.1015552
   7.8674392  58.9706717  87.6562169  10.2045571  55.3424365  88.2572160
  10.1907140  54.4465458  87.9204458  10.9217999  55.3495028  88.8910446
  12.0571702  55.7761705  90.3025287  11.7989480  56.6978776  90.3009618
  11.5256742  55.3792139  90.9925752  17.0017891  68.8812492  83.0815373
  17.1754768  68.3158914  82.3289225  17.4946782  69.6813387  82.8994863
   2.8194850  60.8927161  91.1478932   2.2748319  61.6686969  91.2799206
   3.6974200  61.2397966  90.9898053   9.6082467  54.2238745  83.5259730
   9.7298378  53.2955391  83.7250618   9.3184510  54.2377431  82.6138046
  12.4773658  51.9093655  86.6626450  12.4995354  51.9732988  85.7078429
  12.8941717  51.0698164  86.8566956  22.8557282  61.6448915  84.7005673
  23.2988428  60.8956240  84.3024796  21.9783792  61.6359051  84.3179404
  17.9893063  68.1979256  80.1812271  18.6843968  68.8185949  80.3999586
  18.3316213  67.3474608  80.4564649   3.6060872  60.0197057  94.0409088
   2.8642608  60.1679693  94.6273719   3.2853617  60.2805323  93.1775838
  19.8884486  65.6478962  81.7099602  20.4135810  65.9866235  80.9848922
  19.8006839  64.7125977  81.5262736  11.5504535  69.5613036  93.8389478
  11.8591661  69.3162182  94.7112178  12.3480017  69.7659674  93.3508349
  11.5725147  71.7150945  86.0694855  11.1330137  71.2227324  86.7627712
  12.3233264  71.1723913  85.8286930   4.0517486  67.9062486  86.0719483
   4.8775506  67.6066258  85.6918127   3.7011538  67.1370108  86.5209272
   9.0199019  67.2588954  88.1417157   8.3979028  66.5959659  87.8419385
   9.6903886  67.2850086  87.4590804   2.2526091  65.8248813  87.0308417
   1.4157999  65.3970987  86.8492418   2.2249736  66.0181256  87.9679208
   9.0923547  55.7370742  97.7349663   9.1411702  56.6132865  97.3527432
   9.6346061  55.1948135  97.1621306  19.5778392  66.2811866  97.0150800
  18.7873936  66.2636004  96.4755299  19.3411747  66.8200159  97.7699836
  19.6976267  63.1304332  94.3283528  19.7474272  62.9654339  95.2699051
  19.5890191  62.2631591  93.9381409   8.5812526  65.8092878  81.6175617
   8.7300646  66.4928342  80.9642290   9.3878970  65.7897968  82.1325073
  16.9880030  59.1135260  95.6442835  17.8889893  58.9741725  95.3526833
  17.0628004  59.2789715  96.5841012  11.3222835  56.4902115  94.4896021
  10.4526145  56.7835681  94.2178610  11.5582315  57.0742560  95.2103285
  21.1994464  65.5501273  94.5725550  20.9079273  65.9131254  95.4089011
  20.5866596  64.8368282  94.3938882  22.3990147  63.1154153  87.0928120
  23.2337038  63.5543957  87.2565680  22.5349275  62.6392806  86.2736366
  19.4481652  60.6733888  93.0405608  19.9235774  60.8661534  92.2324459
  18.5247218  60.7293074  92.7948991   6.3365159  61.8358055  82.6236686
   6.0911201  60.9320385  82.8216896   6.5061074  61.8375206  81.6816164
  14.0261869  52.7081732  92.0061442  14.5443813  53.4442759  91.6807930
  13.6717002  53.0145725  92.8408201   5.6060807  57.5686413  80.1222848
   4.9130052  57.6430768  79.4662884   5.3612559  56.8046756  80.6444364
  14.2774463  49.1282014  87.5262338  14.5576217  48.4605203  88.1522765
  15.0625070  49.3211110  87.0137002  12.0807932  68.3041008  79.0887365
  11.5081899  68.9231195  78.6357836  12.6540725  68.8540370  79.6227287
  18.1483321  57.5499648  91.2733913  19.1000744  57.6497746  91.2946137
  17.9786772  56.7577917  91.7831998  16.1697701  54.6355231  91.4593314
  15.5747633  54.9160244  90.7639803  15.8847398  55.1249132  92.2310055
  15.3005191  68.5878158  80.2195947  16.2335865  68.5223720  80.4228822
  15.2128404  69.4234425  79.7610480  17.9293208  67.9044029  77.1799894
  17.8506840  67.5703892  78.0735652  18.7502875  68.3965796  77.1791367
  20.6271399  60.7705768  90.3876213  20.5947719  59.8321769  90.5735897
  21.2372023  60.8489805  89.6542038  12.4654730  59.6401821  76.4303417
  13.4113835  59.5108029  76.4991835  12.0868975  58.9016483  76.9072845
  20.7765888  57.5616811  90.4334496  20.2604936  56.7775268  90.2464425
  21.6605836  57.2335528  90.5981016  18.4376615  51.3057827  86.3930309
  18.2401436  50.9972915  87.2773641  19.0476320  52.0319466  86.5228239
  26.4447949  61.8321775  89.5282250  27.1751338  61.5707063  90.0889953
  25.8354895  61.0950497  89.5684318  24.5263246  59.9729637  90.1256701
  23.7996410  59.8385602  89.5173193  24.1110533  60.2806466  90.9313419
  12.3493423  63.6919567  97.8904074  13.2696432  63.8698166  98.0844121
  12.3143006  62.7475612  97.7383773  10.6497647  57.5651797  76.3658302
   9.7429103  57.2684910  76.4421016  10.9273628  57.2681615  75.4992589
   1.5675588  58.8858161  86.8157349   1.2478372  58.0323469  86.5231723
   1.0209016  59.1006739  87.5715316   5.3455495  61.6020602  90.5326855
   5.5641505  62.5337709  90.5514889   5.7581269  61.2428576  91.3181659
  12.2659713  52.1088687  82.5202544  11.4560441  51.7635772  82.8957790
  12.9544130  51.7996231  83.1090155  14.1950261  51.1866734  84.1426840
  14.7481300  51.6062187  84.8016863  14.4320348  50.2602482  84.1849796
  10.2183361  57.1753807  99.9229604  10.1180087  58.1248164  99.8541695
  10.0004903  56.8472046  99.0505674   9.4196432  54.4238732  76.5070282
  10.2815596  54.7493631  76.7666099   9.6046776  53.6370228  75.9943347
   1.4363848  62.5061072  88.7850470   0.7427319  62.0915025  88.2720425
   2.1836839  62.5481609  88.1883889  17.5729068  53.2967259  83.6505505
  16.9927737  53.9552063  83.2683557  17.3065001  52.4744603  83.2392922
  16.0232635  52.6972317  85.8526825  16.5232413  52.8088851  85.0441144
  16.6668243  52.3933369  86.4927633  10.0814631  60.6050946  98.7394666
   9.5981712  61.4051306  98.9458555  10.1675570  60.6158891  97.7862110
   3.3500590  62.4379326  86.6616485   3.3271278  62.5367013  85.7098368
   3.6601227  63.2844477  86.9833651   6.0087968  64.4955481  90.7763100
   6.9631222  64.4639423  90.7093031   5.8100492  64.0346105  91.5913326
   6.5987350  63.0656597  93.3433897   7.4180239  63.5600676  93.3668735
   6.8724158  62.1488565  93.3151465  16.3553946  55.4567349  82.7061853
  15.4679801  55.7417000  82.4882048  16.7707935  55.2961113  81.8589130
  19.7068483  55.4813870  86.4216192  20.4828873  55.9710323  86.6940809
  18.9816617  55.9071924  86.8788062  22.1441041  56.1941489  87.4790133
  22.7385532  55.9537225  86.7683441  22.2167625  55.4748620  88.1063669
   4.3638197  70.0375100  87.7933298   4.2292665  69.2775501  87.2271296
   3.9470259  70.7616000  87.3262086  15.4997160  65.2212024  76.8009873
  16.2033010  65.4262026  77.4167528  14.7759809  65.7888786  77.0658956
  16.3294970  60.9721885  82.9212143  16.2730172  61.4290437  82.0819775
  16.8823313  60.2112570  82.7434986  20.1399776  56.7611617  83.7462262
  19.8836710  56.3608253  84.5770470  19.5152644  57.4755411  83.6212402
  24.4512114  59.5007690  86.2533554  23.8911672  59.5700880  87.0265116
  23.8455617  59.3248675  85.5333050   7.5207323  70.9344417  88.0051740
   7.4039707  71.8789850  87.9030430   6.6999769  70.6317979  88.3937539
  17.4083857  65.6594553  78.8508333  18.2429461  65.2275752  78.6685808
  17.2468200  65.4876567  79.7785227  17.0629749  62.1626666  80.2164672
  17.0078553  61.9970938  79.2753116  16.4375805  62.8702699  80.3726862
   1.8522264  57.3994731  94.0426094   2.4981128  56.8893685  94.5313320
   1.6439416  58.1363412  94.6169520  14.3775657  64.4675578  99.5418235
  15.2466816  64.6416231  99.1804870  13.8982408  65.2869995  99.4193964
  10.3725875  51.6634775  79.7949991  10.3604545  52.6076615  79.9518261
  11.2649297  51.4804921  79.5009452   8.5461837  71.5872679  91.2207669
   9.4489084  71.6196290  91.5374164   8.3199207  70.6573130  91.2354004
  10.3015439  70.3403666  87.8817747   9.3511070  70.3405527  87.7682119
  10.6047925  69.5936400  87.3653782  14.1877994  48.2577552  84.0495927
  13.4210390  47.7036039  84.1952610  14.5988699  48.3299421  84.9110079
   6.1919755  54.5462348  98.1401109   7.0551217  54.1899153  98.3504433
   5.6185166  54.2076243  98.8276513  26.0368132  76.1764204  88.9463510
  26.6746542  76.0570952  88.2426850  25.9188975  77.1245048  89.0051462
  22.8457839  76.1291632  88.8825034  22.5076350  76.0132697  87.9945569
  23.7147607  75.7282797  88.8626040  18.7044654  77.9827109  84.8721925
  18.1409519  77.8917046  84.1038213  18.5897049  77.1627013  85.3524418
  23.3277622  77.2826484  94.8411240  23.3166262  76.8879282  93.9691743
  23.4898261  76.5492557  95.4345011  16.2509086  79.4778300  87.7106146
  17.0430378  79.1369125  87.2952445  16.4905736  79.5873275  88.6308299
  24.2844213  81.6498076  80.1836390  23.6332193  82.2352157  79.7970404
  25.0788576  82.1804271  80.2431428  18.2099840  78.7387214  80.5823524
  18.9830716  78.1916201  80.4436400  18.5625239  79.6031463  80.7937986
  20.0484883  80.0663596  93.7890424  19.7574749  80.9709227  93.6737090
  20.6841867  80.1080124  94.5034493  20.9741090  77.4440444  90.3791783
  21.5704662  77.2196467  89.6648746  21.0316061  76.7025190  90.9817231
  20.5466118  74.8979880  78.2141974  20.7991639  74.3761401  77.4525437
  19.6090677  74.7346025  78.3168658  25.5909401  73.9015658  86.0216718
  26.3772490  73.4835081  85.6707135  25.8548105  74.8061750  86.1898366
  25.7619478  79.3388508  80.7205374  25.1265311  79.4123135  81.4326279
  25.4316885  79.9282107  80.0424454  20.2662407  76.8007986  80.4166349
  20.1498665  76.1252889  81.0847434  20.3764667  76.3140360  79.5998502
  22.6093948  76.2618133  84.1213039  22.2452155  75.7348754  84.8325960
  23.4661064  75.8716602  83.9479524  22.2499435  71.2908032  79.1174387
  22.4173837  72.1588269  79.4844858  22.0596604  71.4535314  78.1935676
  25.0074768  79.7525011  90.7840217  24.7075491  80.6550050  90.6756025
  24.6625827  79.4857195  91.6361370  18.4587249  76.2038808  86.8176922
  17.5337746  76.0715022  87.0254614  18.7071663  76.9833027  87.3146864
  22.2288656  73.7465690  80.1021054  22.1088281  74.1922741  80.9406534
  21.5341244  74.0951008  79.5434592  15.8196060  75.8472082  87.6520711
  15.9488442  76.1006561  88.5660123  15.1393512  76.4399790  87.3325366
  19.9895548  86.5169332  83.7511185  19.9119577  87.4677157  83.8299666
  19.3857191  86.1715204  84.4086111  22.4812777  73.6897197  96.4072552
  21.7046111  74.2491117  96.3975417  23.1203340  74.1753980  96.9287422
  27.9273722  74.2187163  80.9301388  28.8391578  74.4514550  80.7549086
  27.4183369  74.8024207  80.3676467  20.7359150  76.4982651  95.9690519
  21.4773834  77.0367695  95.6925343  20.0296135  77.1248939  96.1262071
  26.2114489  78.6411791  94.5662681  26.6197845  78.1994202  93.8217313
  25.4891751  78.0664419  94.8196873  22.5645559  73.5784398  91.9396238
  23.4106755  74.0023811  92.0830887  22.5044197  72.9218022  92.6334801
  26.5343304  79.2012982  88.3214969  25.9052166  79.3658696  87.6191037
  26.1468966  79.6154591  89.0925933  30.4132536  80.1367419  85.6759333
  29.7283574  80.5166321  85.1256367  30.4976385  80.7462746  86.4091281
  27.6683468  77.7827379  92.2754677  27.8800363  78.4259138  91.5989058
  27.6213216  76.9489695  91.8076607  25.2709696  70.3945199  89.1791249
  24.4094176  70.6926453  89.4707986  25.2972131  70.6115598  88.2472282
  22.0871266  78.9387390  85.5865055  22.5509611  79.2175093  84.7969677
  21.8228064  78.0370834  85.4038145  18.9795347  78.4858871  88.5244818
  19.5496704  78.9146140  87.8862302  19.5703459  78.2041456  89.2229003
  21.0240152  75.0610542  82.3954620  21.7264195  75.5131586  82.8628546
  20.6920780  74.4194361  83.0234513  19.4720513  73.6522299  96.7705829
  18.8419174  74.3338580  97.0041226  19.3656601  73.5405380  95.8258967
  14.7665486  73.3194095  87.6971753  13.9764540  73.5751623  87.2211864
  15.2576733  74.1342433  87.8023794  28.7829295  80.6599334  90.4477034
  29.6046739  80.2579521  90.1659716  28.7791698  80.5567568  91.3993150
  16.7180231  73.6838674  84.6555230  15.9211395  73.7957368  85.1738726
  16.4905823  74.0225326  83.7896120  22.5485899  80.2083377  92.6037745
  22.6130331  80.6703784  93.4395916  21.8396823  79.5780742  92.7320054
  13.0503189  73.5724585  90.1286744  13.3011227  74.4571595  90.3944320
  13.5862737  73.3929187  89.3561836  22.2633917  81.8751485  82.4716725
  22.1279591  82.7203020  82.9001573  22.8043729  82.0770762  81.7082659
  18.7501256  67.9543065  99.1331080  18.3568202  67.4009263  99.8078724
  19.5667397  68.2653643  99.5237598  15.7163314  79.3926923  83.0444650
  16.2287835  80.1870173  83.1950215  16.3686027  78.6953213  82.9778251
  17.5258199  82.5092679  85.1267403  17.7024827  83.4310644  84.9388387
  18.3215032  82.1951098  85.5561783  21.6669217  69.3700944  96.7251337
  22.4078931  69.9708097  96.6455799  21.8987140  68.6278581  96.1669379
  16.8110555  74.5557311  95.0029566  16.6964070  73.6542568  95.3036665
  15.9555073  74.8021008  94.6514383  23.8902393  82.4975051  96.6017067
  23.4466247  81.7111430  96.2837971  24.5519607  82.6854202  95.9360958
  18.6489514  84.0270853  91.1277745  19.1996939  83.8987916  90.3554739
  17.8100990  84.3265742  90.7772638  25.9883631  82.7777851  94.6298468
  25.9702106  83.5986732  94.1378737  26.9103551  82.6531926  94.8548609
  22.4456685  80.2921981  95.4721977  22.9785022  79.5310269  95.2421285
  21.9170766  79.9995632  96.2146131  25.6126380  65.3982047  91.0015618
  25.2690650  66.2883688  90.9254729  25.9805343  65.2083704  90.1385203
  13.6812231  77.7215577  83.8204221  14.5187453  78.1312585  83.6037928
  13.8590498  76.7815019  83.7904414  25.5776663  75.3890658  79.5088053
  25.0623286  76.1595262  79.7476441  25.3053971  74.7155794  80.1321115
  23.1623774  70.2340358  84.5673292  22.3065370  69.8447209  84.3878931
  23.5750726  70.3132319  83.7073077  24.6922921  67.7686702  88.9664852
  24.1887716  67.7316837  88.1532657  24.9853527  68.6779444  89.0261508
  20.9365806  67.8525431  87.9731033  21.8018803  67.6568240  87.6136923
  21.0043315  67.6235783  88.9000390  30.5510937  78.1423012  81.4441227
  29.7740380  77.8034172  80.9996389  31.2302418  78.1475636  80.7696192
  25.3662966  73.2617750  81.3347835  25.0613102  73.5763899  82.1857978
  26.3193408  73.3399170  81.3775168  23.8109398  79.4207973  82.9840789
  23.2830759  78.6860733  82.6714026  23.3096901  80.1982649  82.7380757
  28.7902244  77.6156994  88.1007835  28.1325918  78.3056255  88.1887964
  29.5942643  78.0053426  88.4441821  18.5428125  70.0827639  85.3447400
  19.1171877  69.8602821  84.6120593  19.1299108  70.1516334  86.0976001
  27.6007703  75.9701366  86.1511777  28.1139584  76.6031358  86.6533486
  28.2508927  75.3702562  85.7855137  18.8697713  72.1132100  79.3643285
  18.0335025  72.4506787  79.6852560  18.7302482  71.9781080  78.4270422
  20.8450793  66.9568888  84.0722470  20.1915206  66.6417905  83.4479084
  20.8031267  66.3344629  84.7982293  21.9561998  77.2388183  75.9875762
  21.0489060  77.0077437  76.1866911  22.4533030  76.4425803  76.1749743
  24.8630077  85.9485691  78.9072448  24.1891776  86.2517387  79.5157406
  25.2495899  86.7514771  78.5577905  24.0788534  73.4450822  88.3970117
  23.1611095  73.6665769  88.2391805  24.4948677  73.5197132  87.5381825
  24.8623581  74.8442238  83.5272797  25.6095400  75.3563635  83.2179920
  25.1315171  74.5226290  84.3877191  23.1350231  77.3400778  80.5099752
  22.2261451  77.0559811  80.6072222  23.1645315  77.7599857  79.6503059
  28.3669499  80.9507368  84.2790919  27.9131826  80.1098278  84.3356110
  27.7363466  81.5868766  84.6165699  27.3102418  71.8799354  85.5091587
  26.5725175  71.3676740  85.8401829  27.5629192  71.4399735  84.6974864
  26.8102438  82.7883864  85.2140737  27.1025413  83.3488922  84.4953103
  27.3201059  83.0812425  85.9693897  27.4114046  64.6575606  86.1033356
  27.7172923  63.7972969  85.8159271  28.1366651  65.2493226  85.9032350
  13.7038402  75.0606292  84.4914954  13.5062802  74.4675653  83.7666021
  13.1485066  74.7558503  85.2090893  21.6835126  74.9529399  86.6109547
  21.7383735  74.0003235  86.5352024  20.8726328  75.1088838  87.0950846
  22.8326319  78.8809522  77.8487830  22.3945749  78.1645381  77.3893468
  23.5736760  79.1085637  77.2872922  19.6227485  73.5706459  84.3699926
  18.8095351  73.8700629  84.7765118  20.1186480  73.1762147  85.0874408
  21.7736063  83.5664216  86.3034191  21.7312242  83.7925062  85.3742723
  22.6898762  83.3327590  86.4519992  25.2201697  74.0348283  93.2014820
  25.5751085  74.2619756  94.0609286  25.8673828  74.3666660  92.5792075
  30.9499434  77.1566719  83.9064149  30.8117333  77.3468315  82.9785338
  30.5935653  77.9186102  84.3632200  19.1141560  71.1424814  89.9861161
  19.7540940  71.0013573  89.2884124  18.2819091  70.8559327  89.6099763
  19.8901864  80.4427245  86.0996153  20.6842463  79.9477565  85.8978728
  19.1793557  79.9145108  85.7363859  24.7096709  82.8245340  90.4508521
  24.7633731  83.3936276  91.2186237  23.8411490  82.9947225  90.0862558
  16.1984628  74.5870326  82.1755906  15.2682216  74.5254782  82.3925868
  16.2942100  74.0646279  81.3792547  16.1170177  71.1125139  84.7634148
  16.3776994  72.0270472  84.6543308  16.9387349  70.6449582  84.9130761
  17.5895102  72.5262896  91.9332972  18.2618155  72.3180258  91.2845621
  16.7624888  72.3284982  91.4938205  23.4920674  69.1524837  93.9498633
  22.8448589  69.8514787  93.8563110  24.2621689  69.5860981  94.3174881
  26.8999472  79.4173689  97.0249186  26.7484978  79.1884241  96.1079270
  26.8904151  80.3744291  97.0380531  23.6684808  76.9905602  92.0095453
  24.5976868  77.1416762  91.8364420  23.2475838  77.0789623  91.1544099
  22.4673140  81.0156267  89.7793990  22.3284226  80.6475051  90.6519929
  21.6787736  81.5303906  89.6077948  23.0621292  86.1165363  81.1219527
  23.2373048  85.6453406  81.9365150  22.3754080  86.7431129  81.3500788
  24.0178355  80.3937869  87.1682828  23.6828188  80.3538639  88.0640478
  23.5182301  79.7282585  86.6953239  17.9922599  75.8005499  92.6935409
  17.8542397  75.0685738  93.2946948  18.9027523  75.7114399  92.4119597
  26.9537547  77.7393904  77.4419888  26.3366718  77.0140732  77.3452941
  26.4854035  78.5003264  77.0986962  20.6204900  75.5125459  92.1819089
  21.3304518  74.8718651  92.1405708  20.5774208  75.7638353  93.1045270
  28.6091679  82.4492812  95.1025668  28.5504225  81.7652032  94.4356251
  29.0111197  83.1911802  94.6506294  19.3333834  72.4990676  94.0014729
  18.7971191  72.0481415  94.6536325  18.7450542  72.6336585  93.2585193
  17.6282377  89.2654726  87.8959387  17.8678976  89.8973250  88.5738406
  16.7851574  88.9142766  88.1824746  18.7436093  71.9579328  76.5641192
  17.8665559  71.8368129  76.2003439  19.2193846  71.1665406  76.3120081
  28.6109086  80.4132396  93.3339648  27.7235865  80.0758318  93.4566047
  29.1807637  79.6815427  93.5708413  10.2638233  76.7456488  86.6582699
  10.9509273  76.4318218  86.0703715  10.1086362  77.6497852  86.3849951
  15.0672955  71.6346684  91.0867723  14.9831144  71.0272354  90.3518133
  14.2455662  72.1255702  91.0877219  22.1410239  85.0733848  90.3000891
  22.0680411  85.8788820  90.8120196  21.6987632  85.2725814  89.4748913
  21.9300019  84.3105618  83.8103713  21.1467541  84.8527298  83.9041937
  22.6292764  84.8279598  84.2097954  25.2396669  70.1200248  86.4537918
  25.7365369  69.3670210  86.1338988  24.4683650  70.1564564  85.8881127
  24.6008923  84.9720682  92.4559050  25.3136895  85.6068147  92.3834951
  24.1098951  85.0684548  91.6399052  26.3226450  78.8771935  84.0276341
  25.3882728  78.9973397  83.8581046  26.5003118  77.9744402  83.7636351
  21.8231638  72.2617631  86.1809603  21.4529425  71.7088671  86.8690508
  22.3190730  71.6575764  85.6284603  29.7099001  74.7189254  84.5626376
  30.1759453  75.5517246  84.4886678  30.1606502  74.2534236  85.2671634
  19.6520836  82.7215126  93.2764621  20.3530296  83.3551609  93.4294015
  19.1815951  83.0629857  92.5160260  27.7775232  81.0633075  81.5612528
  28.0535076  80.9489670  82.4706402  26.9079731  80.6650560  81.5224701
  27.6815664  67.0869841  88.6017277  26.7678744  67.3174068  88.7699484
  28.1108765  67.1708285  89.4531309  24.4129296  85.3119426  85.2045341
  24.5951691  84.4941082  85.6673094  25.2362282  85.5287119  84.7670231
  24.7471462  84.2387611  82.4660390  25.2759228  83.7280066  81.8530552
  25.0099681  83.9230142  83.3305923  23.5009695  76.0179544  97.5883208
  22.8250332  75.9173674  98.2585583  24.3237329  75.8618758  98.0519205
  15.2488554  82.2551481  90.2095723  15.8341991  81.5095169  90.3423628
  15.0513393  82.5655437  91.0932387  18.1027210  85.2902728  85.2258166
  17.4337585  85.7748856  84.7422206  17.9640079  85.5371949  86.1401544
   9.8406209  74.8257081  88.9300166   9.8790309  74.2920672  89.7237285
   9.3346502  74.2992286  88.3111144  22.2432478  87.3246472  91.8240824
  22.7950786  87.4878093  92.5889909  22.5838672  87.9150909  91.1520849
  17.2196971  69.6721621  92.4262709  17.2838298  70.5336452  92.0140106
  17.1564092  69.0595623  91.6935067  16.6949244  71.7444754  96.0735743
  17.3221283  71.3621831  96.6873267  15.8377163  71.5258956  96.4391436
  27.0943352  82.1507729  97.6789479  27.6383256  82.7637687  97.1844433
  26.5130197  82.7087308  98.1956492  13.4714787  73.5521183  82.0054098
  13.7668228  72.6431862  81.9521152  12.5702822  73.5308923  81.6835100
  25.3800865  85.2728447  88.8104506  25.2552005  84.4718187  88.3015452
  26.0379957  85.7674641  88.3218476  17.0009034  71.6277180  87.9881646
  16.2795619  72.2413147  87.8489120  17.7902289  72.1634944  87.9098292
  27.4435774  83.0737467  90.4384056  26.4966109  82.9542818  90.3662383
  27.7918547  82.1859965  90.5210318  19.8035347  68.9631606  94.2622298
  20.3269749  69.2093903  95.0248608  19.5847680  69.7951641  93.8425436
  15.2002628  71.2335281  82.1293423  14.8715334  70.3532660  81.9468529
  15.5541999  71.1782949  83.0169812  24.4482207  82.8690183  86.6388409
  24.3007170  81.9406891  86.8195979  25.2735701  82.8910274  86.1545484
  18.3144451  71.5208251  82.4968901  18.6540524  72.0494172  81.7747509
  18.7616572  71.8588657  83.2727467  28.0516329  83.6918742  87.7253281
  28.9762876  83.4861604  87.5877732  27.8831632  83.4435143  88.6342623
  21.0087892  69.9045301  91.9471969  20.6684713  69.1053114  92.3492649
  20.3026899  70.2047012  91.3748802  21.6604364  66.9894614  90.3999292
  22.4830433  66.5155092  90.2778182  21.9042428  67.7685097  90.8997978
  20.3012599  70.0182872  80.6962193  21.0220961  70.3964125  80.1925910
  19.6777903  70.7371749  80.7997171  24.4443721  70.7228021  81.6320526
  24.6607336  71.6052659  81.3309354  23.9637789  70.3314235  80.9026168
  19.1842943  73.6813734  88.2091270  19.0387524  73.9954037  89.1015552
  18.7068146  74.2998635  87.6562169  21.0439326  70.6716282  88.2572160
  21.0300894  69.7757376  87.9204458  21.7611754  70.6786946  88.8910446
  22.8965456  71.1053623  90.3025287  22.6383234  72.0270693  90.3009618
  22.3650497  70.7084057  90.9925752  27.8411645  84.2104410  83.0815373
  28.0148523  83.6450832  82.3289225  28.3340536  85.0105305  82.8994863
  13.6588605  76.2219079  91.1478932  13.1142073  76.9978887  91.2799206
  14.5367955  76.5689883  90.9898053  20.4476222  69.5530663  83.5259730
  20.5692133  68.6247309  83.7250618  20.1578264  69.5669349  82.6138046
  23.3167412  67.2385573  86.6626450  23.3389109  67.3024906  85.7078429
  23.7335471  66.3990082  86.8566956  33.6951036  76.9740833  84.7005673
  34.1382182  76.2248158  84.3024796  32.8177547  76.9650969  84.3179404
  28.8286818  83.5271174  80.1812271  29.5237722  84.1477867  80.3999586
  29.1709968  82.6766525  80.4564649  14.4454627  75.3488975  94.0409088
  13.7036363  75.4971610  94.6273719  14.1247371  75.6097241  93.1775838
  30.7278241  80.9770880  81.7099602  31.2529565  81.3158152  80.9848922
  30.6400593  80.0417895  81.5262736  22.3898289  84.8904953  93.8389478
  22.6985416  84.6454100  94.7112178  23.1873772  85.0951592  93.3508349
  22.4118902  87.0442863  86.0694855  21.9723892  86.5519242  86.7627712
  23.1627018  86.5015831  85.8286930  14.8911241  83.2354404  86.0719483
  15.7169260  82.9358176  85.6918127  14.5405293  82.4662026  86.5209272
  19.8592774  82.5880872  88.1417157  19.2372783  81.9251577  87.8419385
  20.5297641  82.6142004  87.4590804  13.0919846  81.1540730  87.0308417
  12.2551754  80.7262905  86.8492418  13.0643491  81.3473174  87.9679208
  19.9317301  71.0662660  97.7349663  19.9805457  71.9424783  97.3527432
  20.4739815  70.5240053  97.1621306  19.4206281  81.1384795  81.6175617
  19.5694401  81.8220260  80.9642290  20.2272724  81.1189885  82.1325073
  22.1616590  71.8194032  94.4896021  21.2919899  72.1127598  94.2178610
  22.3976070  72.4034477  95.2103285  33.2383901  78.4446071  87.0928120
  34.0730792  78.8835875  87.2565680  33.3743030  77.9684724  86.2736366
  17.1758914  77.1649973  82.6236686  16.9304956  76.2612303  82.8216896
  17.3454828  77.1667123  81.6816164  24.8655623  68.0373649  92.0061442
  25.3837567  68.7734676  91.6807930  24.5110756  68.3437643  92.8408201
  16.4454561  72.8978331  80.1222848  15.7523806  72.9722685  79.4662884
  16.2006313  72.1338674  80.6444364  25.1168218  64.4573932  87.5262338
  25.3969971  63.7897121  88.1522765  25.9018825  64.6503027  87.0137002
  22.9201686  83.6332926  79.0887365  22.3475653  84.2523113  78.6357836
  23.4934480  84.1832287  79.6227287  26.1398946  83.9170076  80.2195947
  27.0729619  83.8515638  80.4228822  26.0522159  84.7526343  79.7610480
  28.7686963  83.2335946  77.1799894  28.6900594  82.8995810  78.0735652
  29.5896629  83.7257714  77.1791367  23.3048485  74.9693739  76.4303417
  24.2507589  74.8399947  76.4991835  22.9262730  74.2308400  76.9072845
  29.2770369  66.6349745  86.3930309  29.0795190  66.3264833  87.2773641
  29.8870075  67.3611383  86.5228239  23.1887177  79.0211485  97.8904074
  24.1090187  79.1990084  98.0844121  23.1536760  78.0767530  97.7383773
  21.4891402  72.8943715  76.3658302  20.5822857  72.5976828  76.4421016
  21.7667383  72.5973533  75.4992589  12.4069342  74.2150078  86.8157349
  12.0872126  73.3615386  86.5231723  11.8602770  74.4298656  87.5715316
  16.1849250  76.9312519  90.5326855  16.4035259  77.8629627  90.5514889
  16.5975024  76.5720494  91.3181659  23.1053467  67.4380605  82.5202544
  22.2954196  67.0927690  82.8957790  23.7937884  67.1288148  83.1090155
  25.0344016  66.5158651  84.1426840  25.5875054  66.9354105  84.8016863
  25.2714102  65.5894400  84.1849796  21.0577115  72.5045725  99.9229604
  20.9573842  73.4540082  99.8541695  20.8398657  72.1763964  99.0505674
  20.2590186  69.7530650  76.5070282  21.1209350  70.0785548  76.7666099
  20.4440531  68.9662146  75.9943347  12.2757602  77.8352990  88.7850470
  11.5821074  77.4206943  88.2720425  13.0230593  77.8773526  88.1883889
  28.4122823  68.6259177  83.6505505  27.8321492  69.2843981  83.2683557
  28.1458756  67.8036521  83.2392922  26.8626389  68.0264234  85.8526825
  27.3626168  68.1380769  85.0441144  27.5061997  67.7225287  86.4927633
  20.9208385  75.9342864  98.7394666  20.4375467  76.7343224  98.9458555
  21.0069324  75.9450809  97.7862110  14.1894345  77.7671244  86.6616485
  14.1665033  77.8658931  85.7098368  14.4994981  78.6136394  86.9833651
  16.8481723  79.8247399  90.7763100  17.8024976  79.7931341  90.7093031
  16.6494246  79.3638022  91.5913326  17.4381105  78.3948515  93.3433897
  18.2573994  78.8892593  93.3668735  17.7117912  77.4780483  93.3151465
  27.1947701  70.7859267  82.7061853  26.3073556  71.0708918  82.4882048
  27.6101690  70.6253030  81.8589130  15.2031951  85.3667018  87.7933298
  15.0686419  84.6067419  87.2271296  14.7864014  86.0907918  87.3262086
  26.3390914  80.5503942  76.8009873  27.0426764  80.7553944  77.4167528
  25.6153563  81.1180704  77.0658956  27.1688725  76.3013803  82.9212143
  27.1123926  76.7582354  82.0819775  27.7217067  75.5404487  82.7434986
  30.9793531  72.0903535  83.7462262  30.7230465  71.6900170  84.5770470
  30.3546399  72.8047329  83.6212402  18.3601077  86.2636335  88.0051740
  18.2433461  87.2081768  87.9030430  17.5393523  85.9609897  88.3937539
  28.2477612  80.9886471  78.8508333  29.0823216  80.5567669  78.6685808
  28.0861955  80.8168485  79.7785227  27.9023504  77.4918584  80.2164672
  27.8472308  77.3262856  79.2753116  27.2769559  78.1994617  80.3726862
  12.6916019  72.7286649  94.0426094  13.3374883  72.2185602  94.5313320
  12.4833170  73.4655330  94.6169520  25.2169411  79.7967496  99.5418235
  26.0860571  79.9708148  99.1804870  24.7376163  80.6161913  99.4193964
  21.2119629  66.9926693  79.7949991  21.1998299  67.9368533  79.9518261
  22.1043051  66.8096839  79.5009452  19.3855591  86.9164597  91.2207669
  20.2882838  86.9488207  91.5374164  19.1592961  85.9865048  91.2354004
  21.1409193  85.6695584  87.8817747  20.1904824  85.6697445  87.7682119
  21.4441680  84.9228318  87.3653782  25.0271749  63.5869470  84.0495927
  24.2604145  63.0327956  84.1952610  25.4382454  63.6591339  84.9110079
  17.0313510  69.8754266  98.1401109  17.8944971  69.5191070  98.3504433
  16.4578921  69.5368160  98.8276513  36.8761887  91.5056122  88.9463510
  37.5140297  91.3862869  88.2426850  36.7582730  92.4536966  89.0051462
  33.6851593  91.4583550  88.8825034  33.3470105  91.3424615  87.9945569
  34.5541361  91.0574715  88.8626040  29.5438409  93.3119026  84.8721925
  28.9803274  93.2208963  84.1038213  29.4290804  92.4918931  85.3524418
  34.1671376  92.6118402  94.8411240  34.1560017  92.2171200  93.9691743
  34.3292016  91.8784474  95.4345011  27.0902841  94.8070218  87.7106146
  27.8824133  94.4661043  87.2952445  27.3299491  94.9165193  88.6308299
  35.1237968  96.9789994  80.1836390  34.4725947  97.5644075  79.7970404
  35.9182330  97.5096189  80.2431428  29.0493595  94.0679131  80.5823524
  29.8224471  93.5208118  80.4436400  29.4018994  94.9323381  80.7937986
  30.8878637  95.3955514  93.7890424  30.5968503  96.3001144  93.6737090
  31.5235622  95.4372041  94.5034493  31.8134844  92.7732362  90.3791783
  32.4098416  92.5488384  89.6648746  31.8709816  92.0317108  90.9817231
  31.3859873  90.2271797  78.2141974  31.6385393  89.7053319  77.4525437
  30.4484432  90.0637943  78.3168658  36.4303155  89.2307576  86.0216718
  37.2166245  88.8126999  85.6707135  36.6941860  90.1353668  86.1898366
  36.6013233  94.6680426  80.7205374  35.9659066  94.7415053  81.4326279
  36.2710639  95.2574025  80.0424454  41.8311582  89.1682809  86.9249696
  42.5636754  88.5982026  87.1587526  41.0750938  88.7804409  87.3656202
  31.1056161  92.1299903  80.4166349  30.9892419  91.4544807  81.0847434
  31.2158421  91.6432277  79.5998502  33.4487702  91.5910050  84.1213039
  33.0845909  91.0640671  84.8325960  34.3054818  91.2008520  83.9479524
  39.3537003  82.8804383  91.3844305  39.0220328  83.7499794  91.1605520
  38.7582616  82.5640667  92.0638335  33.0893189  86.6199950  79.1174387
  33.2567592  87.4880187  79.4844858  32.8990358  86.7827232  78.1935676
  35.8468522  95.0816929  90.7840217  35.5469245  95.9841968  90.6756025
  35.5019582  94.8149112  91.6361370  29.2981004  91.5330726  86.8176922
  28.3731500  91.4006940  87.0254614  29.5465417  92.3124945  87.3146864
  39.2465666  87.5999469  88.4637655  38.3382543  87.5314878  88.1696416
  39.1953262  88.0771414  89.2919480  33.0682410  89.0757608  80.1021054
  32.9482035  89.5214658  80.9406534  32.3734998  89.4242925  79.5434592
  26.6589815  91.1763999  87.6520711  26.7882196  91.4298478  88.5660123
  25.9787266  91.7691707  87.3325366  30.8289302 101.8461249  83.7511185
  30.7513332 102.7969075  83.8299666  30.2250946 101.5007122  84.4086111
  33.3206532  89.0189115  96.4072552  32.5439866  89.5783035  96.3975417
  33.9597095  89.5045898  96.9287422  41.1127313  85.8015908  90.2415529
  40.4701693  86.0948441  89.5955323  40.6082241  85.6868828  91.0468725
  38.7667476  89.5479081  80.9301388  39.6785332  89.7806468  80.7549086
  38.2577123  90.1316125  80.3676467  31.5752904  91.8274568  95.9690519
  32.3167589  92.3659612  95.6925343  30.8689890  92.4540857  96.1262071
  37.0508244  93.9703709  94.5662681  37.4591600  93.5286119  93.8217313
  36.3285505  93.3956336  94.8196873  33.4039314  88.9076315  91.9396238
  34.2500509  89.3315729  92.0830887  33.3437952  88.2509940  92.6334801
  37.3737059  94.5304899  88.3214969  36.7445921  94.6950613  87.6191037
  36.9862721  94.9446509  89.0925933  41.2526290  95.4659337  85.6759333
  40.5677329  95.8458239  85.1256367  41.3370140  96.0754664  86.4091281
  36.5538759  86.5680684  93.5977411  36.3099691  87.3222744  93.0611687
  36.8298690  86.9466031  94.4324658  38.5077222  93.1119296  92.2754677
  38.7194117  93.7551056  91.5989058  38.4606970  92.2781613  91.8076607
  36.1103451  85.7237117  89.1791249  35.2487930  86.0218370  89.4707986
  36.1365886  85.9407516  88.2472282  32.9265020  94.2679307  85.5865055
  33.3903366  94.5467010  84.7969677  32.6621818  93.3662752  85.4038145
  29.8189101  93.8150789  88.5244818  30.3890459  94.2438057  87.8862302
  30.4097213  93.5333374  89.2229003  31.8633906  90.3902460  82.3954620
  32.5657950  90.8423503  82.8628546  31.5314535  89.7486279  83.0234513
  30.3114268  88.9814216  96.7705829  29.6812929  89.6630497  97.0041226
  30.2050356  88.8697298  95.8258967  25.6059240  88.6486012  87.6971753
  24.8158294  88.9043541  87.2211864  26.0970488  89.4634350  87.8023794
  39.6223050  95.9891252  90.4477034  40.4440494  95.5871439  90.1659716
  39.6185453  95.8859486  91.3993150  27.5573986  89.0130592  84.6555230
  26.7605149  89.1249286  85.1738726  27.3299578  89.3517244  83.7896120
  33.3879653  95.5375295  92.6037745  33.4524086  95.9995702  93.4395916
  32.6790577  94.9072660  92.7320054  23.8896943  88.9016503  90.1286744
  24.1404982  89.7863513  90.3944320  24.4256492  88.7221104  89.3561836
  47.7129043  92.3330000  86.7962006  46.9592751  91.7637398  86.6406010
  47.8476584  92.2992665  87.7432640  33.1027671  97.2043402  82.4716725
  32.9673346  98.0494938  82.9001573  33.6437484  97.4062680  81.7082659
  26.5557068  94.7218840  83.0444650  27.0681589  95.5162091  83.1950215
  27.2079781  94.0245131  82.9778251  28.3651953  97.8384597  85.1267403
  28.5418581  98.7602561  84.9388387  29.1608787  97.5243016  85.5561783
  27.6504310  89.8849229  95.0029566  27.5357825  88.9834486  95.3036665
  26.7948827  90.1312925  94.6514383  34.7296147  97.8266969  96.6017067
  34.2860002  97.0403347  96.2837971  35.3913361  98.0146119  95.9360958
  29.4883269  99.3562770  91.1277745  30.0390694  99.2279834  90.3554739
  28.6494745  99.6557660  90.7772638  36.8277386  98.1069769  94.6298468
  36.8095861  98.9278650  94.1378737  37.7497306  97.9823844  94.8548609
  33.2850440  95.6213898  95.4721977  33.8178776  94.8602186  95.2421285
  32.7564521  95.3287550  96.2146131  24.5205985  93.0507495  83.8204221
  25.3581207  93.4604503  83.6037928  24.6984253  92.1106937  83.7904414
  36.4170417  90.7182575  79.5088053  35.9017041  91.4887180  79.7476441
  36.1447726  90.0447712  80.1321115  34.0017528  85.5632276  84.5673292
  33.1459125  85.1739127  84.3878931  34.4144480  85.6424237  83.7073077
  31.7759561  83.1817349  87.9731033  32.6412558  82.9860158  87.6136923
  31.8437070  82.9527701  88.9000390  41.3904691  93.4714930  81.4441227
  40.6134134  93.1326090  80.9996389  42.0696172  93.4767553  80.7696192
  36.2056721  88.5909667  81.3347835  35.9006856  88.9055817  82.1857978
  37.1587163  88.6691087  81.3775168  34.6503152  94.7499891  82.9840789
  34.1224514  94.0152650  82.6714026  34.1490655  95.5274567  82.7380757
  39.6295998  92.9448911  88.1007835  38.9719673  93.6348173  88.1887964
  40.4336398  93.3345343  88.4441821  29.3821880  85.4119557  85.3447400
  29.9565632  85.1894739  84.6120593  29.9692862  85.4808252  86.0976001
  38.4401457  91.2993284  86.1511777  38.9533339  91.9323276  86.6533486
  39.0902681  90.6994479  85.7855137  29.7091467  87.4424018  79.3643285
  28.8728779  87.7798705  79.6852560  29.5696237  87.3072998  78.4270422
  31.6844548  82.2860806  84.0722470  31.0308960  81.9709823  83.4479084
  31.6425022  81.6636546  84.7982293  32.7955753  92.5680101  75.9875762
  31.8882814  92.3369355  76.1866911  33.2926785  91.7717720  76.1749743
  35.7023831 101.2777608  78.9072448  35.0285530 101.5809305  79.5157406
  36.0889653 102.0806689  78.5577905  34.9182288  88.7742740  88.3970117
  34.0004849  88.9957687  88.2391805  35.3342432  88.8489050  87.5381825
  35.7017336  90.1734155  83.5272797  36.4489155  90.6855552  83.2179920
  35.9708925  89.8518208  84.3877191  33.9743986  92.6692696  80.5099752
  33.0655205  92.3851729  80.6072222  34.0039070  93.0891774  79.6503059
  39.2063253  96.2799285  84.2790919  38.7525581  95.4390195  84.3356110
  38.5757220  96.9160684  84.6165699  38.1496173  87.2091271  85.5091587
  37.4118930  86.6968658  85.8401829  38.4022946  86.7691653  84.6974864
  37.6496193  98.1175782  85.2140737  37.9419167  98.6780839  84.4953103
  38.1594813  98.4104343  85.9693897  38.2507800  79.9867523  86.1033356
  38.5566677  79.1264887  85.8159271  38.9760405  80.5785144  85.9032350
  24.5432156  90.3898210  84.4914954  24.3456556  89.7967571  83.7666021
  23.9878820  90.0850420  85.2090893  32.5228880  90.2821317  86.6109547
  32.5777490  89.3295153  86.5352024  31.7120082  90.4380756  87.0950846
  33.6720074  94.2101440  77.8487830  33.2339504  93.4937299  77.3893468
  34.4130515  94.4377554  77.2872922  30.4621240  88.8998376  84.3699926
  29.6489105  89.1992547  84.7765118  30.9580234  88.5054065  85.0874408
  32.6129818  98.8956133  86.3034191  32.5705997  99.1216980  85.3742723
  33.5292517  98.6619508  86.4519992  36.0595452  89.3640201  93.2014820
  36.4144839  89.5911674  94.0609286  36.7067583  89.6958578  92.5792075
  41.7893189  92.4858637  83.9064149  41.6511087  92.6760233  82.9785338
  41.4329407  93.2478019  84.3632200  29.9535315  86.4716732  89.9861161
  30.5934694  86.3305491  89.2884124  29.1212845  86.1851245  89.6099763
  41.8162568  94.5535164  88.9175420  42.2499075  94.4610453  89.7658474
  42.5294149  94.5292664  88.2795436  30.7295619  95.7719162  86.0996153
  31.5236217  95.2769482  85.8978728  30.0187311  95.2437025  85.7363859
  35.5490463  98.1537258  90.4508521  35.6027485  98.7228194  91.2186237
  34.6805244  98.3239143  90.0862558  27.0378382  89.9162244  82.1755906
  26.1075970  89.8546699  82.3925868  27.1335854  89.3938197  81.3792547
  26.9563931  86.4417057  84.7634148  27.2170748  87.3562390  84.6543308
  27.7781103  85.9741499  84.9130761  28.4288856  87.8554814  91.9332972
  29.1011910  87.6472176  91.2845621  27.6018643  87.6576900  91.4938205
  42.6778118  94.5958864  91.4508306  42.8714008  95.5004675  91.6967581
  42.5778736  94.1366283  92.2846891  34.3314428  84.4816755  93.9498633
  33.6842344  85.1806705  93.8563110  35.1015444  84.9152899  94.3174881
  37.7393226  94.7465607  97.0249186  37.5878733  94.5176159  96.1079270
  37.7297906  95.7036208  97.0380531  34.5078563  92.3197520  92.0095453
  35.4370623  92.4708679  91.8364420  34.0869593  92.4081541  91.1544099
  33.3066895  96.3448184  89.7793990  33.1677980  95.9766969  90.6519929
  32.5181491  96.8595824  89.6077948  33.9015047 101.4457281  81.1219527
  34.0766802 100.9745324  81.9365150  33.2147835 102.0723047  81.3500788
  34.8572110  95.7229787  87.1682828  34.5221942  95.6830557  88.0640478
  34.3576055  95.0574503  86.6953239  28.8316354  91.1297417  92.6935409
  28.6936152  90.3977656  93.2946948  29.7421277  91.0406317  92.4119597
  37.7931301  93.0685821  77.4419888  37.1760472  92.3432649  77.3452941
  37.3247790  93.8295182  77.0986962  31.4598654  90.8417376  92.1819089
  32.1698273  90.2010568  92.1405708  31.4167963  91.0930271  93.1045270
  39.4485433  97.7784730  95.1025668  39.3897979  97.0943950  94.4356251
  39.8504951  98.5203720  94.6506294  30.1727588  87.8282594  94.0014729
  29.6364945  87.3773333  94.6536325  29.5844297  87.9628503  93.2585193
  28.4676132 104.5946643  87.8959387  28.7072730 105.2265168  88.5738406
  27.6245328 104.2434683  88.1824746  29.5829847  87.2871246  76.5641192
  28.7059314  87.1660046  76.2003439  30.0587600  86.4957324  76.3120081
  39.4502840  95.7424314  93.3339648  38.5629619  95.4050235  93.4566047
  40.0201391  95.0107345  93.5708413  21.1031987  92.0748405  86.6582699
  21.7903027  91.7610135  86.0703715  20.9480116  92.9789770  86.3849951
  25.9066710  86.9638602  91.0867723  25.8224898  86.3564271  90.3518133
  25.0849416  87.4547620  91.0877219  32.9803994 100.4025766  90.3000891
  32.9074165 101.2080737  90.8120196  32.5381387 100.6017732  89.4748913
  32.7693773  99.6397536  83.8103713  31.9861295 100.1819216  83.9041937
  33.4686519 100.1571516  84.2097954  36.0790423  85.4492165  86.4537918
  36.5759123  84.6962128  86.1338988  35.3077405  85.4856482  85.8881127
  43.9320181  91.1532531  88.0956210  43.9210057  92.0357246  87.7250143
  43.0637560  90.8004082  87.9010747  35.4402677 100.3012600  92.4559050
  36.1530649 100.9360065  92.3834951  34.9492706 100.3976466  91.6399052
  37.1620204  94.2063853  84.0276341  36.2276483  94.3265315  83.8581046
  37.3396873  93.3036319  83.7636351  32.6625392  87.5909548  86.1809603
  32.2923180  87.0380589  86.8690508  33.1584485  86.9867682  85.6284603
  40.5492756  90.0481172  84.5626376  41.0153208  90.8809163  84.4886678
  41.0000256  89.5826153  85.2671634  30.4914591  98.0507043  93.2764621
  31.1924050  98.6843526  93.4294015  30.0209706  98.3921775  92.5160260
  38.6168987  96.3924993  81.5612528  38.8928831  96.2781588  82.4706402
  37.7473485  95.9942478  81.5224701  38.5209418  82.4161759  88.6017277
  37.6072498  82.6465986  88.7699484  38.9502520  82.5000203  89.4531309
  38.2915877  90.6051651  91.1017171  37.6387327  90.8527558  90.4469624
  38.6696257  89.7915789  90.7679648  35.2523051 100.6411344  85.2045341
  35.4345445  99.8233000  85.6673094  36.0756037 100.8579036  84.7670231
  35.5865216  99.5679529  82.4660390  36.1152983  99.0571984  81.8530552
  35.8493436  99.2522059  83.3305923  34.3403450  91.3471462  97.5883208
  33.6644087  91.2465591  98.2585583  35.1631084  91.1910676  98.0519205
  26.0882309  97.5843398  90.2095723  26.6735746  96.8387086  90.3423628
  25.8907147  97.8947355  91.0932387  28.9420964 100.6194646  85.2258166
  28.2731339 101.1040773  84.7422206  28.8033834 100.8663866  86.1401544
  20.6799964  90.1548999  88.9300166  20.7184063  89.6212589  89.7237285
  20.1740256  89.6284204  88.3111144  33.0826233 102.6538389  91.8240824
  33.6344541 102.8170011  92.5889909  33.4232426 103.2442827  91.1520849
  28.0590726  85.0013539  92.4262709  28.1232052  85.8628370  92.0140106
  27.9957846  84.3887541  91.6935067  27.5342998  87.0736672  96.0735743
  28.1615037  86.6913749  96.6873267  26.6770917  86.8550874  96.4391436
  37.9337107  97.4799647  97.6789479  38.4777011  98.0929605  97.1844433
  37.3523952  98.0379225  98.1956492  24.3108541  88.8813101  82.0054098
  24.6061982  87.9723779  81.9521152  23.4096577  88.8600840  81.6835100
  36.2194620 100.6020365  88.8104506  36.0945759  99.8010105  88.3015452
  36.8773711 101.0966558  88.3218476  27.8402788  86.9569097  87.9881646
  27.1189374  87.5705065  87.8489120  28.6296044  87.4926862  87.9098292
  38.2829528  98.4029385  90.4384056  37.3359864  98.2834736  90.3662383
  38.6312301  97.5151883  90.5210318  30.6429102  84.2923524  94.2622298
  31.1663503  84.5385820  95.0248608  30.4241435  85.1243559  93.8425436
  26.0396383  86.5627198  82.1293423  25.7109089  85.6824577  81.9468529
  26.3935753  86.5074867  83.0169812  35.2875962  98.1982101  86.6388409
  35.1400924  97.2698809  86.8195979  36.1129455  98.2202192  86.1545484
  29.1538206  86.8500168  82.4968901  29.4934278  87.3786089  81.7747509
  29.6010326  87.1880574  83.2727467  38.8910083  99.0210660  87.7253281
  39.8156631  98.8153521  87.5877732  38.7225387  98.7727061  88.6342623
  31.8481647  85.2337219  91.9471969  31.5078467  84.4345032  92.3492649
  31.1420653  85.5338930  91.3748802  31.1406353  85.3474790  80.6962193
  31.8614716  85.7256043  80.1925910  30.5171657  86.0663667  80.7997171
  35.2837476  86.0519939  81.6320526  35.5001090  86.9344577  81.3309354
  34.8031543  85.6606152  80.9026168  30.0236697  89.0105652  88.2091270
  29.8781278  89.3245955  89.1015552  29.5461901  89.6290552  87.6562169
  31.8833080  86.0008200  88.2572160  31.8694649  85.1049293  87.9204458
  32.6005508  86.0078864  88.8910446  33.7359211  86.4345540  90.3025287
  33.4776989  87.3562611  90.3009618  33.2044251  86.0375975  90.9925752
  38.6805400  99.5396327  83.0815373  38.8542277  98.9742750  82.3289225
  39.1734291 100.3397222  82.8994863  24.4982359  91.5510996  91.1478932
  23.9535828  92.3270804  91.2799206  25.3761709  91.8981801  90.9898053
  31.2869976  84.8822580  83.5259730  31.4085887  83.9539226  83.7250618
  30.9972018  84.8961266  82.6138046  34.1561167  82.5677491  86.6626450
  34.1782863  82.6316824  85.7078429  34.5729226  81.7281999  86.8566956
  44.5344791  92.3032750  84.7005673  44.9775937  91.5540075  84.3024796
  43.6571301  92.2942887  84.3179404  39.6680572  98.8563092  80.1812271
  40.3631477  99.4769784  80.3999586  40.0103722  98.0058443  80.4564649
  25.2848381  90.6780893  94.0409088  24.5430117  90.8263528  94.6273719
  24.9641126  90.9389158  93.1775838  41.5671995  96.3062797  81.7099602
  42.0923319  96.6450070  80.9848922  41.4794348  95.3709813  81.5262736
  33.2292044 100.2196871  93.8389478  33.5379170  99.9746018  94.7112178
  34.0267526 100.4243509  93.3508349  33.2512656 102.3734781  86.0694855
  32.8117646 101.8811159  86.7627712  34.0020773 101.8307748  85.8286930
  25.7304995  98.5646321  86.0719483  26.5563015  98.2650093  85.6918127
  25.3799047  97.7953944  86.5209272  30.6986528  97.9172790  88.1417157
  30.0766537  97.2543495  87.8419385  31.3691395  97.9433922  87.4590804
  23.9313600  96.4832648  87.0308417  23.0945508  96.0554822  86.8492418
  23.9037245  96.6765091  87.9679208  30.7711056  86.3954578  97.7349663
  30.8199211  87.2716700  97.3527432  31.3133570  85.8531971  97.1621306
  41.2565901  96.9395701  97.0150800  40.4661445  96.9219840  96.4755299
  41.0199256  97.4783995  97.7699836  41.3763776  93.7888167  94.3283528
  41.4261781  93.6238175  95.2699051  41.2677700  92.9215426  93.9381409
  30.2600035  96.4676713  81.6175617  30.4088155  97.1512177  80.9642290
  31.0666479  96.4481803  82.1325073  38.6667539  89.7719095  95.6442835
  39.5677402  89.6325560  95.3526833  38.7415513  89.9373550  96.5841012
  33.0010344  87.1485950  94.4896021  32.1313654  87.4419516  94.2178610
  33.2369824  87.7326395  95.2103285  42.8781973  96.2085109  94.5725550
  42.5866782  96.5715089  95.4089011  42.2654104  95.4952117  94.3938882
  44.0777656  93.7737989  87.0928120  44.9124547  94.2127793  87.2565680
  44.2136784  93.2976642  86.2736366  41.1269161  91.3317723  93.0405608
  41.6023283  91.5245370  92.2324459  40.2034727  91.3876909  92.7948991
  28.0152668  92.4941891  82.6236686  27.7698710  91.5904221  82.8216896
  28.1848583  92.4959041  81.6816164  27.2848316  88.2270248  80.1222848
  26.5917561  88.3014603  79.4662884  27.0400067  87.4630592  80.6444364
  35.9561972  79.7865850  87.5262338  36.2363726  79.1189039  88.1522765
  36.7412579  79.9794945  87.0137002  33.7595441  98.9624843  79.0887365
  33.1869408  99.5815031  78.6357836  34.3328234  99.5124205  79.6227287
  39.8270830  88.2083484  91.2733913  40.7788253  88.3081581  91.2946137
  39.6574281  87.4161752  91.7831998  37.8485210  85.2939067  91.4593314
  37.2535142  85.5744079  90.7639803  37.5634907  85.7832968  92.2310055
  36.9792700  99.2461994  80.2195947  37.9123374  99.1807555  80.4228822
  36.8915913 100.0818260  79.7610480  39.6080717  98.5627864  77.1799894
  39.5294349  98.2287727  78.0735652  40.4290384  99.0549632  77.1791367
  42.3058908  91.4289603  90.3876213  42.2735228  90.4905604  90.5735897
  42.9159532  91.5073640  89.6542038  34.1442239  90.2985656  76.4303417
  35.0901344  90.1691864  76.4991835  33.7656484  89.5600318  76.9072845
  42.4553397  88.2200647  90.4334496  41.9392445  87.4359103  90.2464425
  43.3393345  87.8919363  90.5981016  40.1164124  81.9641662  86.3930309
  39.9188945  81.6556750  87.2773641  40.7263829  82.6903301  86.5228239
  48.1235458  92.4905610  89.5282250  48.8538847  92.2290898  90.0889953
  47.5142404  91.7534332  89.5684318  46.2050755  90.6313473  90.1256701
  45.4783919  90.4969438  89.5173193  45.7898042  90.9390301  90.9313419
  34.0280932  94.3503402  97.8904074  34.9483941  94.5282001  98.0844121
  33.9930515  93.4059448  97.7383773  32.3285156  88.2235633  76.3658302
  31.4216612  87.9268745  76.4421016  32.6061137  87.9265451  75.4992589
  23.2463097  89.5441996  86.8157349  22.9265881  88.6907304  86.5231723
  22.6996525  89.7590574  87.5715316  27.0243004  92.2604437  90.5326855
  27.2429014  93.1921545  90.5514889  27.4368778  91.9012411  91.3181659
  33.9447222  82.7672522  82.5202544  33.1347950  82.4219607  82.8957790
  34.6331639  82.4580066  83.1090155  35.8737770  81.8450569  84.1426840
  36.4268809  82.2646023  84.8016863  36.1107857  80.9186317  84.1849796
  31.8970869  87.8337643  99.9229604  31.7967596  88.7832000  99.8541695
  31.6792412  87.5055882  99.0505674  31.0983941  85.0822568  76.5070282
  31.9603105  85.4077466  76.7666099  31.2834285  84.2954064  75.9943347
  23.1151357  93.1644907  88.7850470  22.4214828  92.7498860  88.2720425
  23.8624348  93.2065444  88.1883889  39.2516577  83.9551094  83.6505505
  38.6715246  84.6135898  83.2683557  38.9852510  83.1328439  83.2392922
  37.7020144  83.3556152  85.8526825  38.2019922  83.4672686  85.0441144
  38.3455752  83.0517205  86.4927633  31.7602140  91.2634782  98.7394666
  31.2769221  92.0635142  98.9458555  31.8463079  91.2742726  97.7862110
  25.0288099  93.0963161  86.6616485  25.0058787  93.1950849  85.7098368
  25.3388736  93.9428312  86.9833651  27.6875477  95.1539316  90.7763100
  28.6418731  95.1223259  90.7093031  27.4888001  94.6929940  91.5913326
  28.2774859  93.7240432  93.3433897  29.0967748  94.2184511  93.3668735
  28.5511667  92.8072400  93.3151465  38.0341455  86.1151185  82.7061853
  37.1467310  86.4000835  82.4882048  38.4495444  85.9544948  81.8589130
  41.3855992  86.1397706  86.4216192  42.1616382  86.6294158  86.6940809
  40.6604126  86.5655760  86.8788062  43.8228550  86.8525325  87.4790133
  44.4173041  86.6121061  86.7683441  43.8955134  86.1332455  88.1063669
  26.0425706 100.6958936  87.7933298  25.9080174  99.9359337  87.2271296
  25.6257768 101.4199836  87.3262086  37.1784669  95.8795859  76.8009873
  37.8820519  96.0845862  77.4167528  36.4547318  96.4472621  77.0658956
  38.0082479  91.6305721  82.9212143  37.9517681  92.0874272  82.0819775
  38.5610822  90.8696405  82.7434986  41.8187285  87.4195452  83.7462262
  41.5624219  87.0192088  84.5770470  41.1940153  88.1339246  83.6212402
  46.1299623  90.1591526  86.2533554  45.5699181  90.2284715  87.0265116
  45.5243126  89.9832510  85.5333050  29.1994832 101.5928253  88.0051740
  29.0827216 102.5373685  87.9030430  28.3787278 101.2901814  88.3937539
  39.0871366  96.3178388  78.8508333  39.9216970  95.8859587  78.6685808
  38.9255709  96.1460402  79.7785227  38.7417258  92.8210502  80.2164672
  38.6866062  92.6554773  79.2753116  38.1163314  93.5286535  80.3726862
  23.5309773  88.0578566  94.0426094  24.1768637  87.5477520  94.5313320
  23.3226925  88.7947248  94.6169520  36.0563166  95.1259414  99.5418235
  36.9254325  95.3000066  99.1804870  35.5769917  95.9453830  99.4193964
  32.0513384  82.3218611  79.7949991  32.0392054  83.2660451  79.9518261
  32.9436806  82.1388756  79.5009452  30.2249346 102.2456515  91.2207669
  31.1276593 102.2780125  91.5374164  29.9986716 101.3156966  91.2354004
  31.9802948 100.9987501  87.8817747  31.0298579 100.9989363  87.7682119
  32.2835434 100.2520236  87.3653782  27.8707264  85.2046183  98.1401109
  28.7338726  84.8482988  98.3504433  27.2972675  84.8660078  98.8276513
  47.7155641 106.8348040  88.9463510  48.3534051 106.7154787  88.2426850
  47.5976484 107.7828884  89.0051462  44.5245348 106.7875468  88.8825034
  44.1863859 106.6716532  87.9945569  45.3935116 106.3866633  88.8626040
  40.3832163 108.6410944  84.8721925  39.8197028 108.5500881  84.1038213
  40.2684558 107.8210849  85.3524418  45.0065131 107.9410319  94.8411240
  44.9953771 107.5463118  93.9691743  45.1685770 107.2076392  95.4345011
  37.9296595 110.1362136  87.7106146  38.7217887 109.7952960  87.2952445
  38.1693245 110.2457111  88.6308299  45.9631722 112.3081912  80.1836390
  45.3119702 112.8935992  79.7970404  46.7576085 112.8388107  80.2431428
  39.8887349 109.3971049  80.5823524  40.6618225 108.8500036  80.4436400
  40.2412748 110.2615298  80.7937986  41.7272392 110.7247431  93.7890424
  41.4362258 111.6293062  93.6737090  42.3629376 110.7663959  94.5034493
  42.6528599 108.1024280  90.3791783  43.2492171 107.8780302  89.6648746
  42.7103570 107.3609025  90.9817231  42.2253627 105.5563715  78.2141974
  42.4779148 105.0345236  77.4525437  41.2878186 105.3929861  78.3168658
  47.2696910 104.5599493  86.0216718  48.0559999 104.1418917  85.6707135
  47.5335614 105.4645586  86.1898366  47.4406987 109.9972344  80.7205374
  46.8052820 110.0706970  81.4326279  47.1104394 110.5865943  80.0424454
  52.6705337 104.4974727  86.9249696  53.4030509 103.9273943  87.1587526
  51.9144693 104.1096327  87.3656202  41.9449916 107.4591821  80.4166349
  41.8286174 106.7836724  81.0847434  42.0552176 106.9724195  79.5998502
  44.2881457 106.9201968  84.1213039  43.9239664 106.3932589  84.8325960
  45.1448573 106.5300437  83.9479524  50.1930757  98.2096301  91.3844305
  49.8614082  99.0791712  91.1605520  49.5976371  97.8932585  92.0638335
  43.9286944 101.9491868  79.1174387  44.0961346 102.8172104  79.4844858
  43.7384113 102.1119150  78.1935676  46.6862277 110.4108847  90.7840217
  46.3863000 111.3133886  90.6756025  46.3413336 110.1441030  91.6361370
  40.1374758 106.8622644  86.8176922  39.2125255 106.7298858  87.0254614
  40.3859172 107.6416863  87.3146864  50.0859421 102.9291387  88.4637655
  49.1776298 102.8606795  88.1696416  50.0347016 103.4063332  89.2919480
  43.9076165 104.4049525  80.1021054  43.7875790 104.8506576  80.9406534
  43.2128753 104.7534843  79.5434592  37.4983569 106.5055917  87.6520711
  37.6275951 106.7590396  88.5660123  36.8181021 107.0983625  87.3325366
  41.6683057 117.1753167  83.7511185  41.5907086 118.1260992  83.8299666
  41.0644700 116.8299040  84.4086111  44.1600286 104.3481033  96.4072552
  43.3833620 104.9074953  96.3975417  44.7990849 104.8337816  96.9287422
  51.9521067 101.1307825  90.2415529  51.3095447 101.4240358  89.5955323
  51.4475996 101.0160746  91.0468725  49.6061231 104.8770999  80.9301388
  50.5179087 105.1098385  80.7549086  49.0970878 105.4608043  80.3676467
  42.4146659 107.1566486  95.9690519  43.1561343 107.6951530  95.6925343
  41.7083644 107.7832775  96.1262071  47.8901998 109.2995626  94.5662681
  48.2985354 108.8578037  93.8217313  47.1679260 108.7248254  94.8196873
  44.2433068 104.2368233  91.9396238  45.0894264 104.6607647  92.0830887
  44.1831706 103.5801857  92.6334801  48.2130813 109.8596817  88.3214969
  47.5839675 110.0242531  87.6191037  47.8256475 110.2738427  89.0925933
  52.0920045 110.7951255  85.6759333  51.4071083 111.1750156  85.1256367
  52.1763894 111.4046581  86.4091281  47.3932514 101.8972601  93.5977411
  47.1493446 102.6514662  93.0611687  47.6692444 102.2757949  94.4324658
  49.3470977 108.4411214  92.2754677  49.5587872 109.0842974  91.5989058
  49.3000725 107.6073530  91.8076607  46.9497205 101.0529034  89.1791249
  46.0881684 101.3510288  89.4707986  46.9759640 101.2699433  88.2472282
  43.7658775 109.5971225  85.5865055  44.2297120 109.8758928  84.7969677
  43.5015573 108.6954670  85.4038145  40.6582856 109.1442707  88.5244818
  41.2284213 109.5729975  87.8862302  41.2490968 108.8625291  89.2229003
  42.7027661 105.7194377  82.3954620  43.4051704 106.1715421  82.8628546
  42.3708289 105.0778196  83.0234513  41.1508022 104.3106134  96.7705829
  40.5206683 104.9922415  97.0041226  41.0444110 104.1989216  95.8258967
  36.4452995 103.9777930  87.6971753  35.6552049 104.2335459  87.2211864
  36.9364242 104.7926268  87.8023794  50.4616804 111.3183169  90.4477034
  51.2834248 110.9163357  90.1659716  50.4579207 111.2151403  91.3993150
  38.3967740 104.3422509  84.6555230  37.5998904 104.4541204  85.1738726
  38.1693332 104.6809162  83.7896120  44.2273408 110.8667213  92.6037745
  44.2917840 111.3287620  93.4395916  43.5184332 110.2364577  92.7320054
  34.7290698 104.2308421  90.1286744  34.9798736 105.1155430  90.3944320
  35.2650246 104.0513022  89.3561836  58.5522798 107.6621918  86.7962006
  57.7986506 107.0929316  86.6406010  58.6870339 107.6284582  87.7432640
  43.9421426 112.5335320  82.4716725  43.8067100 113.3786856  82.9001573
  44.4831238 112.7354598  81.7082659  40.4288765  98.6126900  99.1331080
  40.0355711  98.0593098  99.8078724  41.2454906  98.9237478  99.5237598
  37.3950823 110.0510758  83.0444650  37.9075344 110.8454008  83.1950215
  38.0473536 109.3537049  82.9778251  39.2045708 113.1676514  85.1267403
  39.3812336 114.0894479  84.9388387  40.0002541 112.8534934  85.5561783
  43.3456726 100.0284779  96.7251337  44.0866440 100.6291932  96.6455799
  43.5774649  99.2862417  96.1669379  38.4898064 105.2141146  95.0029566
  38.3751579 104.3126403  95.3036665  37.6342582 105.4604843  94.6514383
  45.5689902 113.1558887  96.6017067  45.1253756 112.3695265  96.2837971
  46.2307116 113.3438037  95.9360958  40.3277023 114.6854688  91.1277745
  40.8784448 114.5571752  90.3554739  39.4888499 114.9849577  90.7772638
  47.6671140 113.4361686  94.6298468  47.6489615 114.2570568  94.1378737
  48.5891060 113.3115762  94.8548609  44.1244194 110.9505816  95.4721977
  44.6572531 110.1894104  95.2421285  43.5958275 110.6579468  96.2146131
  47.2913889  96.0565882  91.0015618  46.9478159  96.9467524  90.9254729
  47.6592852  95.8667540  90.1385203  35.3599740 108.3799412  83.8204221
  36.1974962 108.7896421  83.6037928  35.5378007 107.4398855  83.7904414
  47.2564172 106.0474493  79.5088053  46.7410795 106.8179098  79.7476441
  46.9841480 105.3739629  80.1321115  44.8411283 100.8924194  84.5673292
  43.9852879 100.5031044  84.3878931  45.2538235 100.9716155  83.7073077
  46.3710430  98.4270537  88.9664852  45.8675225  98.3900672  88.1532657
  46.6641036  99.3363280  89.0261508  42.6153315  98.5109267  87.9731033
  43.4806312  98.3152075  87.6136923  42.6830824  98.2819619  88.9000390
  52.2298446 108.8006848  81.4441227  51.4527889 108.4618007  80.9996389
  52.9089927 108.8059471  80.7696192  47.0450475 103.9201585  81.3347835
  46.7400611 104.2347734  82.1857978  47.9980917 103.9983005  81.3775168
  45.4896907 110.0791808  82.9840789  44.9618268 109.3444568  82.6714026
  44.9884410 110.8566485  82.7380757  50.4689753 108.2740829  88.1007835
  49.8113427 108.9640090  88.1887964  51.2730152 108.6637261  88.4441821
  40.2215634 100.7411475  85.3447400  40.7959386 100.5186656  84.6120593
  40.8086617 100.8100169  86.0976001  49.2795212 106.6285202  86.1511777
  49.7927093 107.2615193  86.6533486  49.9296436 106.0286397  85.7855137
  40.5485222 102.7715936  79.3643285  39.7122534 103.1090622  79.6852560
  40.4089991 102.6364916  78.4270422  42.5238302  97.6152724  84.0722470
  41.8702715  97.3001741  83.4479084  42.4818776  96.9928464  84.7982293
  43.6349507 107.8972019  75.9875762  42.7276569 107.6661272  76.1866911
  44.1320539 107.1009638  76.1749743  46.5417586 116.6069526  78.9072448
  45.8679285 116.9101223  79.5157406  46.9283408 117.4098606  78.5577905
  45.7576043 104.1034657  88.3970117  44.8398604 104.3249604  88.2391805
  46.1736186 104.1780968  87.5381825  46.5411090 105.5026073  83.5272797
  47.2882909 106.0147470  83.2179920  46.8102680 105.1810126  84.3877191
  44.8137740 107.9984614  80.5099752  43.9048960 107.7143646  80.6072222
  44.8432824 108.4183692  79.6503059  50.0457008 111.6091203  84.2790919
  49.5919335 110.7682113  84.3356110  49.4150975 112.2452601  84.6165699
  48.9889927 102.5383189  85.5091587  48.2512684 102.0260575  85.8401829
  49.2416701 102.0983571  84.6974864  48.4889947 113.4467700  85.2140737
  48.7812922 114.0072757  84.4953103  48.9988568 113.7396261  85.9693897
  49.0901555  95.3159441  86.1033356  49.3960432  94.4556805  85.8159271
  49.8154160  95.9077061  85.9032350  35.3825911 105.7190128  84.4914954
  35.1850311 105.1259488  83.7666021  34.8272575 105.4142338  85.2090893
  43.3622635 105.6113234  86.6109547  43.4171244 104.6587071  86.5352024
  42.5513837 105.7672673  87.0950846  44.5113828 109.5393357  77.8487830
  44.0733258 108.8229216  77.3893468  45.2524269 109.7669472  77.2872922
  41.3014994 104.2290294  84.3699926  40.4882860 104.5284464  84.7765118
  41.7973989 103.8345983  85.0874408  43.4523572 114.2248051  86.3034191
  43.4099751 114.4508897  85.3742723  44.3686271 113.9911425  86.4519992
  46.8989206 104.6932118  93.2014820  47.2538594 104.9203592  94.0609286
  47.5461337 105.0250495  92.5792075  52.6286943 107.8150554  83.9064149
  52.4904842 108.0052150  82.9785338  52.2723162 108.5769937  84.3632200
  40.7929069 101.8008649  89.9861161  41.4328449 101.6597409  89.2884124
  39.9606600 101.5143163  89.6099763  52.6556323 109.8827081  88.9175420
  53.0892829 109.7902370  89.7658474  53.3687903 109.8584582  88.2795436
  41.5689373 111.1011080  86.0996153  42.3629972 110.6061400  85.8978728
  40.8581065 110.5728943  85.7363859  46.3884218 113.4829175  90.4508521
  46.4421240 114.0520112  91.2186237  45.5198999 113.6531060  90.0862558
  37.8772137 105.2454162  82.1755906  36.9469725 105.1838617  82.3925868
  37.9729609 104.7230114  81.3792547  37.7957686 101.7708974  84.7634148
  38.0564503 102.6854308  84.6543308  38.6174858 101.3033417  84.9130761
  39.2682611 103.1846732  91.9332972  39.9405664 102.9764094  91.2845621
  38.4412397 102.9868818  91.4938205  53.5171872 109.9250782  91.4508306
  53.7107762 110.8296592  91.6967581  53.4172490 109.4658201  92.2846891
  45.1708183  99.8108673  93.9498633  44.5236098 100.5098622  93.8563110
  45.9409198 100.2444816  94.3174881  48.5786981 110.0757525  97.0249186
  48.4272487 109.8468076  96.1079270  48.5691660 111.0328126  97.0380531
  45.3472317 107.6489437  92.0095453  46.2764377 107.8000597  91.8364420
  44.9263347 107.7373458  91.1544099  44.1460649 111.6740102  89.7793990
  44.0071735 111.3058886  90.6519929  43.3575245 112.1887741  89.6077948
  44.7408801 116.7749198  81.1219527  44.9160557 116.3037242  81.9365150
  44.0541589 117.4014965  81.3500788  45.6965864 111.0521705  87.1682828
  45.3615697 111.0122475  88.0640478  45.1969810 110.3866420  86.6953239
  39.6710108 106.4589335  92.6935409  39.5329906 105.7269573  93.2946948
  40.5815032 106.3698235  92.4119597  48.6325056 108.3977739  77.4419888
  48.0154227 107.6724567  77.3452941  48.1641544 109.1587099  77.0986962
  42.2992409 106.1709294  92.1819089  43.0092027 105.5302486  92.1405708
  42.2561717 106.4222189  93.1045270  50.2879188 113.1076647  95.1025668
  50.2291734 112.4235867  94.4356251  50.6898706 113.8495637  94.6506294
  41.0121343 103.1574512  94.0014729  40.4758700 102.7065250  94.6536325
  40.4238051 103.2920421  93.2585193  40.4223602 102.6163163  76.5641192
  39.5453068 102.4951964  76.2003439  40.8981355 101.8249242  76.3120081
  50.2896595 111.0716231  93.3339648  49.4023374 110.7342153  93.4566047
  50.8595146 110.3399262  93.5708413  31.9425742 107.4040323  86.6582699
  32.6296782 107.0902053  86.0703715  31.7873871 108.3081688  86.3849951
  36.7460464 102.2930520  91.0867723  36.6618653 101.6856189  90.3518133
  35.9243170 102.7839538  91.0877219  43.8197748 115.7317684  90.3000891
  43.7467920 116.5372655  90.8120196  43.3775141 115.9309649  89.4748913
  43.6087528 114.9689454  83.8103713  42.8255050 115.5111134  83.9041937
  44.3080273 115.4863433  84.2097954  46.9184178 100.7784083  86.4537918
  47.4152877 100.0254045  86.1338988  46.1471159 100.8148400  85.8881127
  54.7713935 106.4824449  88.0956210  54.7603812 107.3649164  87.7250143
  53.9031315 106.1295999  87.9010747  46.2796432 115.6304518  92.4559050
  46.9924404 116.2651982  92.3834951  45.7886460 115.7268384  91.6399052
  48.0013959 109.5355770  84.0276341  47.0670237 109.6557233  83.8581046
  48.1790627 108.6328237  83.7636351  43.5019147 102.9201466  86.1809603
  43.1316934 102.3672506  86.8690508  43.9978239 102.3159600  85.6284603
  51.3886510 105.3773090  84.5626376  51.8546962 106.2101081  84.4886678
  51.8394010 104.9118071  85.2671634  41.3308345 113.3798961  93.2764621
  42.0317805 114.0135444  93.4294015  40.8603460 113.7213693  92.5160260
  49.4562741 111.7216911  81.5612528  49.7322585 111.6073505  82.4706402
  48.5867240 111.3234396  81.5224701  49.3603173  97.7453677  88.6017277
  48.4466253  97.9757903  88.7699484  49.7896274  97.8292121  89.4531309
  49.1309631 105.9343568  91.1017171  48.4781081 106.1819476  90.4469624
  49.5090011 105.1207707  90.7679648  46.0916805 115.9703262  85.2045341
  46.2739200 115.1524918  85.6673094  46.9149791 116.1870954  84.7670231
  46.4258971 114.8971447  82.4660390  46.9546737 114.3863901  81.8530552
  46.6887190 114.5813977  83.3305923  45.1797204 106.6763380  97.5883208
  44.5037841 106.5757509  98.2585583  46.0024838 106.5202593  98.0519205
  36.9276063 112.9135316  90.2095723  37.5129500 112.1679004  90.3423628
  36.7300902 113.2239273  91.0932387  39.7814719 115.9486563  85.2258166
  39.1125094 116.4332691  84.7422206  39.6427588 116.1955784  86.1401544
  31.5193718 105.4840916  88.9300166  31.5577818 104.9504507  89.7237285
  31.0134011 104.9576122  88.3111144  43.9219987 117.9830307  91.8240824
  44.4738295 118.1461928  92.5889909  44.2626181 118.5734745  91.1520849
  38.8984480 100.3305457  92.4262709  38.9625807 101.1920288  92.0140106
  38.8351601  99.7179458  91.6935067  38.3736753 102.4028589  96.0735743
  39.0008792 102.0205667  96.6873267  37.5164672 102.1842791  96.4391436
  48.7730861 112.8091565  97.6789479  49.3170765 113.4221523  97.1844433
  48.1917706 113.3671143  98.1956492  35.1502296 104.2105018  82.0054098
  35.4455737 103.3015697  81.9521152  34.2490331 104.1892758  81.6835100
  47.0588374 115.9312283  88.8104506  46.9339514 115.1302022  88.3015452
  47.7167466 116.4258476  88.3218476  38.6796543 102.2861015  87.9881646
  37.9583128 102.8996983  87.8489120  39.4689798 102.8218780  87.9098292
  49.1223283 113.7321303  90.4384056  48.1753618 113.6126654  90.3662383
  49.4706056 112.8443801  90.5210318  41.4822856  99.6215442  94.2622298
  42.0057258  99.8677738  95.0248608  41.2635189 100.4535476  93.8425436
  36.8790137 101.8919116  82.1293423  36.5502843 101.0116495  81.9468529
  37.2329508 101.8366785  83.0169812  46.1269716 113.5274019  86.6388409
  45.9794679 112.5990726  86.8195979  46.9523210 113.5494110  86.1545484
  39.9931960 102.1792086  82.4968901  40.3328033 102.7078007  81.7747509
  40.4404081 102.5172492  83.2727467  49.7303838 114.3502578  87.7253281
  50.6550385 114.1445439  87.5877732  49.5619141 114.1018979  88.6342623
  42.6875401 100.5629137  91.9471969  42.3472222  99.7636950  92.3492649
  41.9814407 100.8630847  91.3748802  43.3391873  97.6478449  90.3999292
  44.1617942  97.1738927  90.2778182  43.5829937  98.4268933  90.8997978
  41.9800108 100.6766708  80.6962193  42.7008470 101.0547960  80.1925910
  41.3565412 101.3955584  80.7997171  46.1231230 101.3811856  81.6320526
  46.3394845 102.2636494  81.3309354  45.6425298 100.9898070  80.9026168
  40.8630452 104.3397570  88.2091270  40.7175033 104.6537873  89.1015552
  40.3855655 104.9582470  87.6562169  42.7226835 101.3300118  88.2572160
  42.7088403 100.4341211  87.9204458  43.4399263 101.3370781  88.8910446
  44.5752965 101.7637458  90.3025287  44.3170743 102.6854529  90.3009618
  44.0438006 101.3667892  90.9925752  49.5199154 114.8688245  83.0815373
  49.6936032 114.3034667  82.3289225  50.0128045 115.6689140  82.8994863
  35.3376114 106.8802914  91.1478932  34.7929582 107.6562722  91.2799206
  36.2155464 107.2273719  90.9898053  42.1263731 100.2114498  83.5259730
  42.2479642  99.2831144  83.7250618  41.8365773 100.2253184  82.6138046
  44.9954921  97.8969408  86.6626450  45.0176618  97.9608741  85.7078429
  45.4122980  97.0573917  86.8566956  55.3738545 107.6324668  84.7005673
  55.8169691 106.8831993  84.3024796  54.4965056 107.6234804  84.3179404
  50.5074327 114.1855009  80.1812271  51.2025231 114.8061702  80.3999586
  50.8497477 113.3350361  80.4564649  36.1242136 106.0072810  94.0409088
  35.3823872 106.1555446  94.6273719  35.8034880 106.2681076  93.1775838
  52.4065750 111.6354715  81.7099602  52.9317074 111.9741988  80.9848922
  52.3188102 110.7001730  81.5262736  44.0685798 115.5488789  93.8389478
  44.3772925 115.3037935  94.7112178  44.8661280 115.7535427  93.3508349
  44.0906411 117.7026698  86.0694855  43.6511401 117.2103077  86.7627712
  44.8414527 117.1599666  85.8286930  36.5698749 113.8938239  86.0719483
  37.3956769 113.5942011  85.6918127  36.2192801 113.1245862  86.5209272
  41.5380283 113.2464707  88.1417157  40.9160292 112.5835412  87.8419385
  42.2085150 113.2725839  87.4590804  34.7707355 111.8124566  87.0308417
  33.9339263 111.3846740  86.8492418  34.7431000 112.0057009  87.9679208
  41.6104810 101.7246495  97.7349663  41.6592966 102.6008618  97.3527432
  42.1527324 101.1823888  97.1621306  52.0959656 112.2687619  97.0150800
  51.3055200 112.2511757  96.4755299  51.8593010 112.8075912  97.7699836
  52.2157531 109.1180085  94.3283528  52.2655536 108.9530092  95.2699051
  52.1071454 108.2507344  93.9381409  41.0993790 111.7968631  81.6175617
  41.2481910 112.4804095  80.9642290  41.9060233 111.7773721  82.1325073
  49.5061293 105.1011013  95.6442835  50.4071156 104.9617478  95.3526833
  49.5809268 105.2665468  96.5841012  43.8404099 102.4777868  94.4896021
  42.9707408 102.7711434  94.2178610  44.0763579 103.0618313  95.2103285
  53.7175728 111.5377026  94.5725550  53.4260536 111.9007007  95.4089011
  53.1047859 110.8244035  94.3938882  54.9171410 109.1029906  87.0928120
  55.7518301 109.5419710  87.2565680  55.0530539 108.6268559  86.2736366
  51.9662916 106.6609641  93.0405608  52.4417038 106.8537287  92.2324459
  51.0428481 106.7168827  92.7948991  38.8546423 107.8233808  82.6236686
  38.6092464 106.9196138  82.8216896  39.0242337 107.8250959  81.6816164
  46.5443132  98.6957485  92.0061442  47.0625076  99.4318512  91.6807930
  46.1898265  99.0021478  92.8408201  38.1242070 103.5562166  80.1222848
  37.4311315 103.6306521  79.4662884  37.8793822 102.7922509  80.6444364
  46.7955727  95.1157767  87.5262338  47.0757480  94.4480956  88.1522765
  47.5806334  95.3086863  87.0137002  44.5989195 114.2916761  79.0887365
  44.0263162 114.9106948  78.6357836  45.1721989 114.8416123  79.6227287
  50.6664585 103.5375401  91.2733913  51.6182008 103.6373499  91.2946137
  50.4968035 102.7453670  91.7831998  48.6878964 100.6230984  91.4593314
  48.0928897 100.9035997  90.7639803  48.4028661 101.1124885  92.2310055
  47.8186455 114.5753911  80.2195947  48.7517128 114.5099473  80.4228822
  47.7309668 115.4110178  79.7610480  50.4474472 113.8919782  77.1799894
  50.3688103 113.5579645  78.0735652  51.2684138 114.3841549  77.1791367
  53.1452663 106.7581521  90.3876213  53.1128983 105.8197522  90.5735897
  53.7553286 106.8365558  89.6542038  44.9835994 105.6277574  76.4303417
  45.9295098 105.4983782  76.4991835  44.6050239 104.8892236  76.9072845
  53.2947151 103.5492564  90.4334496  52.7786200 102.7651021  90.2464425
  54.1787100 103.2211281  90.5981016  50.9557878  97.2933580  86.3930309
  50.7582699  96.9848668  87.2773641  51.5657584  98.0195219  86.5228239
  58.9629213 107.8197528  89.5282250  59.6932601 107.5582816  90.0889953
  58.3536158 107.0826250  89.5684318  57.0444510 105.9605390  90.1256701
  56.3177673 105.8261355  89.5173193  56.6291797 106.2682219  90.9313419
  44.8674686 109.6795320  97.8904074  45.7877696 109.8573919  98.0844121
  44.8324269 108.7351365  97.7383773  43.1678911 103.5527550  76.3658302
  42.2610366 103.2560663  76.4421016  43.4454892 103.2557368  75.4992589
  34.0856851 104.8733914  86.8157349  33.7659635 104.0199222  86.5231723
  33.5390279 105.0882492  87.5715316  37.8636759 107.5896355  90.5326855
  38.0822768 108.5213462  90.5514889  38.2762532 107.2304329  91.3181659
  44.7840976  98.0964440  82.5202544  43.9741705  97.7511525  82.8957790
  45.4725393  97.7871984  83.1090155  46.7131525  97.1742487  84.1426840
  47.2662563  97.5937940  84.8016863  46.9501611  96.2478235  84.1849796
  42.7364624 103.1629560  99.9229604  42.6361351 104.1123917  99.8541695
  42.5186166 102.8347799  99.0505674  41.9377695 100.4114485  76.5070282
  42.7996859 100.7369384  76.7666099  42.1228040  99.6245981  75.9943347
  33.9545111 108.4936825  88.7850470  33.2608583 108.0790778  88.2720425
  34.7018102 108.5357362  88.1883889  50.0910332  99.2843012  83.6505505
  49.5109001  99.9427816  83.2683557  49.8246265  98.4620357  83.2392922
  48.5413898  98.6848070  85.8526825  49.0413677  98.7964604  85.0441144
  49.1849506  98.3809122  86.4927633  42.5995894 106.5926699  98.7394666
  42.1162976 107.3927059  98.9458555  42.6856833 106.6034644  97.7862110
  35.8681854 108.4255079  86.6616485  35.8452542 108.5242766  85.7098368
  36.1782490 109.2720230  86.9833651  38.5269232 110.4831234  90.7763100
  39.4812485 110.4515176  90.7093031  38.3281755 110.0221858  91.5913326
  39.1168614 109.0532350  93.3433897  39.9361503 109.5476429  93.3668735
  39.3905421 108.1364318  93.3151465  48.8735210 101.4443102  82.7061853
  47.9861065 101.7292753  82.4882048  49.2889199 101.2836866  81.8589130
  52.2249746 101.4689623  86.4216192  53.0010136 101.9586076  86.6940809
  51.4997880 101.8947677  86.8788062  54.6622305 102.1817243  87.4790133
  55.2566795 101.9412978  86.7683441  54.7348888 101.4624373  88.1063669
  48.0178423 111.2087777  76.8009873  48.7214273 111.4137779  77.4167528
  47.2941072 111.7764539  77.0658956  48.8476234 106.9597638  82.9212143
  48.7911435 107.4166190  82.0819775  49.4004576 106.1988323  82.7434986
  52.6581040 102.7487370  83.7462262  52.4017974 102.3484006  84.5770470
  52.0333908 103.4631164  83.6212402  56.9693377 105.4883443  86.2533554
  56.4092935 105.5576633  87.0265116  56.3636881 105.3124428  85.5333050
  49.9265121 111.6470306  78.8508333  50.7610725 111.2151505  78.6685808
  49.7649464 111.4752320  79.7785227  49.5811013 108.1502419  80.2164672
  49.5259817 107.9846691  79.2753116  48.9557068 108.8578452  80.3726862
  34.3703528 103.3870484  94.0426094  35.0162392 102.8769438  94.5313320
  34.1620679 104.1239166  94.6169520  46.8956920 110.4551331  99.5418235
  47.7648080 110.6291984  99.1804870  46.4163672 111.2745748  99.4193964
  42.8907138  97.6510528  79.7949991  42.8785808  98.5952368  79.9518261
  43.7830560  97.4680674  79.5009452  41.0643100 117.5748432  91.2207669
  41.9670347 117.6072043  91.5374164  40.8380470 116.6448883  91.2354004
  42.8196702 116.3279419  87.8817747  41.8692333 116.3281281  87.7682119
  43.1229188 115.5812153  87.3653782  46.7059258  94.2453305  84.0495927
  45.9391654  93.6911792  84.1952610  47.1169963  94.3175174  84.9110079
  38.7101019 100.5338101  98.1401109  39.5732480 100.1774906  98.3504433
  38.1366430 100.1951996  98.8276513  58.5549396 122.1639957  88.9463510
  59.1927806 122.0446705  88.2426850  58.4370239 123.1120801  89.0051462
  55.3639102 122.1167385  88.8825034  55.0257614 122.0008450  87.9945569
  56.2328870 121.7158550  88.8626040  55.8458885 123.2702237  94.8411240
  55.8347526 122.8755035  93.9691743  56.0079525 122.5368310  95.4345011
  53.0647382 120.8855633  78.2141974  53.3172902 120.3637154  77.4525437
  52.1271941 120.7221778  78.3168658  58.1090664 119.8891411  86.0216718
  58.8953754 119.4710834  85.6707135  58.3729369 120.7937503  86.1898366
  63.5099091 119.8266644  86.9249696  64.2424263 119.2565861  87.1587526
  62.7538447 119.4388245  87.3656202  55.1275211 122.2493886  84.1213039
  54.7633418 121.7224507  84.8325960  55.9842327 121.8592355  83.9479524
  61.0324512 113.5388218  91.3844305  60.7007837 114.4083629  91.1605520
  60.4370125 113.2224502  92.0638335  54.7680698 117.2783786  79.1174387
  54.9355100 118.1464022  79.4844858  54.5777867 117.4411067  78.1935676
  60.9253175 118.2583305  88.4637655  60.0170052 118.1898713  88.1696416
  60.8740771 118.7355250  89.2919480  54.7469919 119.7341443  80.1021054
  54.6269544 120.1798494  80.9406534  54.0522507 120.0826761  79.5434592
  54.9994041 119.6772950  96.4072552  54.2227375 120.2366870  96.3975417
  55.6384604 120.1629733  96.9287422  62.7914822 116.4599743  90.2415529
  62.1489202 116.7532276  89.5955323  62.2869750 116.3452663  91.0468725
  60.4454985 120.2062916  80.9301388  61.3572841 120.4390303  80.7549086
  59.9364632 120.7899960  80.3676467  55.0826823 119.5660151  91.9396238
  55.9288018 119.9899564  92.0830887  55.0225461 118.9093775  92.6334801
  58.2326268 117.2264519  93.5977411  57.9887200 117.9806580  93.0611687
  58.5086199 117.6049867  94.4324658  60.1864731 123.7703132  92.2754677
  60.3981626 124.4134891  91.5989058  60.1394479 122.9365448  91.8076607
  57.7890960 116.3820952  89.1791249  56.9275439 116.6802206  89.4707986
  57.8153395 116.5991351  88.2472282  53.5421415 121.0486295  82.3954620
  54.2445459 121.5007339  82.8628546  53.2102044 120.4070114  83.0234513
  51.9901777 119.6398052  96.7705829  51.3600438 120.3214333  97.0041226
  51.8837865 119.5281133  95.8258967  47.2846749 119.3069848  87.6971753
  46.4945803 119.5627376  87.2211864  47.7757997 120.1218186  87.8023794
  49.2361495 119.6714427  84.6555230  48.4392658 119.7833121  85.1738726
  49.0087087 120.0101079  83.7896120  69.3916552 122.9913835  86.7962006
  68.6380260 122.4221234  86.6406010  69.5264093 122.9576500  87.7432640
  51.2682520 113.9418818  99.1331080  50.8749465 113.3885016  99.8078724
  52.0848660 114.2529396  99.5237598  54.1850481 115.3576697  96.7251337
  54.9260194 115.9583850  96.6455799  54.4168403 114.6154334  96.1669379
  58.1307644 111.3857800  91.0015618  57.7871913 112.2759441  90.9254729
  58.4986606 111.1959457  90.1385203  58.0957926 121.3766411  79.5088053
  57.5804550 122.1471015  79.7476441  57.8235235 120.7031547  80.1321115
  55.6805037 116.2216112  84.5673292  54.8246634 115.8322962  84.3878931
  56.0931989 116.3008072  83.7073077  57.2104184 113.7562455  88.9664852
  56.7068980 113.7192590  88.1532657  57.5034791 114.6655197  89.0261508
  53.4547070 113.8401184  87.9731033  54.3200067 113.6443993  87.6136923
  53.5224579 113.6111536  88.9000390  63.0692200 124.1298765  81.4441227
  62.2921643 123.7909925  80.9996389  63.7483681 124.1351389  80.7696192
  57.8844229 119.2493503  81.3347835  57.5794365 119.5639652  82.1857978
  58.8374672 119.3274923  81.3775168  61.3083507 123.6032747  88.1007835
  60.6507182 124.2932008  88.1887964  62.1123907 123.9929179  88.4441821
  51.0609389 116.0703392  85.3447400  51.6353141 115.8478574  84.6120593
  51.6480371 116.1392087  86.0976001  60.1188966 121.9577119  86.1511777
  60.6320848 122.5907111  86.6533486  60.7690190 121.3578315  85.7855137
  51.3878976 118.1007853  79.3643285  50.5516288 118.4382540  79.6852560
  51.2483746 117.9656833  78.4270422  53.3632057 112.9444641  84.0722470
  52.7096469 112.6293658  83.4479084  53.3212531 112.3220382  84.7982293
  56.5969797 119.4326575  88.3970117  55.6792358 119.6541522  88.2391805
  57.0129941 119.5072885  87.5381825  57.3804845 120.8317991  83.5272797
  58.1276664 121.3439388  83.2179920  57.6496434 120.5102043  84.3877191
  59.8283682 117.8675107  85.5091587  59.0906439 117.3552493  85.8401829
  60.0810455 117.4275488  84.6974864  59.9295309 110.6451359  86.1033356
  60.2354186 109.7848722  85.8159271  60.6547914 111.2368979  85.9032350
  54.2016389 120.9405152  86.6109547  54.2564999 119.9878988  86.5352024
  53.3907591 121.0964591  87.0950846  52.1408749 119.5582212  84.3699926
  51.3276614 119.8576382  84.7765118  52.6367743 119.1637900  85.0874408
  57.7382961 120.0224036  93.2014820  58.0932348 120.2495509  94.0609286
  58.3855092 120.3542413  92.5792075  63.4680698 123.1442472  83.9064149
  63.3298596 123.3344068  82.9785338  63.1116916 123.9061855  84.3632200
  51.6322824 117.1300567  89.9861161  52.2722203 116.9889326  89.2884124
  50.8000354 116.8435081  89.6099763  63.4950077 125.2118999  88.9175420
  63.9286584 125.1194288  89.7658474  64.2081658 125.1876499  88.2795436
  48.7165891 120.5746079  82.1755906  47.7863479 120.5130535  82.3925868
  48.8123363 120.0522032  81.3792547  48.6351440 117.1000892  84.7634148
  48.8958257 118.0146225  84.6543308  49.4568612 116.6325335  84.9130761
  50.1076365 118.5138649  91.9332972  50.7799419 118.3056011  91.2845621
  49.2806152 118.3160735  91.4938205  64.3565627 125.2542700  91.4508306
  64.5501517 126.1588510  91.6967581  64.2566245 124.7950119  92.2846891
  56.0101937 115.1400590  93.9498633  55.3629852 115.8390540  93.8563110
  56.7802953 115.5736734  94.3174881  56.1866072 122.9781355  92.0095453
  57.1158132 123.1292515  91.8364420  55.7657102 123.0665376  91.1544099
  59.4718810 123.7269657  77.4419888  58.8547981 123.0016485  77.3452941
  59.0035299 124.4879017  77.0986962  53.1386163 121.5001212  92.1819089
  53.8485782 120.8594404  92.1405708  53.0955472 121.7514106  93.1045270
  51.8515097 118.4866429  94.0014729  51.3152454 118.0357168  94.6536325
  51.2631806 118.6212338  93.2585193  51.2617356 117.9455081  76.5641192
  50.3846823 117.8243882  76.2003439  51.7375109 117.1541159  76.3120081
  47.5854219 117.6222437  91.0867723  47.5012407 117.0148107  90.3518133
  46.7636925 118.1131455  91.0877219  57.7577932 116.1076001  86.4537918
  58.2546632 115.3545963  86.1338988  56.9864914 116.1440317  85.8881127
  65.6107690 121.8116366  88.0956210  65.5997566 122.6941082  87.7250143
  64.7425069 121.4587917  87.9010747  54.3412901 118.2493384  86.1809603
  53.9710689 117.6964424  86.8690508  54.8371994 117.6451517  85.6284603
  62.2280264 120.7065007  84.5626376  62.6940717 121.5392999  84.4886678
  62.6787765 120.2409989  85.2671634  60.1996927 113.0745594  88.6017277
  59.2860007 113.3049821  88.7699484  60.6290029 113.1584038  89.4531309
  59.9703386 121.2635486  91.1017171  59.3174836 121.5111394  90.4469624
  60.3483766 120.4499624  90.7679648  56.0190959 122.0055297  97.5883208
  55.3431596 121.9049427  98.2585583  56.8418593 121.8494511  98.0519205
  49.7378235 115.6597374  92.4262709  49.8019561 116.5212205  92.0140106
  49.6745355 115.0471376  91.6935067  49.2130507 117.7320507  96.0735743
  49.8402546 117.3497584  96.6873267  48.3558426 117.5134709  96.4391436
  45.9896050 119.5396936  82.0054098  46.2849491 118.6307615  81.9521152
  45.0884086 119.5184676  81.6835100  49.5190297 117.6152933  87.9881646
  48.7976883 118.2288900  87.8489120  50.3083553 118.1510698  87.9098292
  52.3216611 114.9507359  94.2622298  52.8451012 115.1969656  95.0248608
  52.1028944 115.7827394  93.8425436  47.7183892 117.2211034  82.1293423
  47.3896598 116.3408413  81.9468529  48.0723262 117.1658702  83.0169812
  50.8325715 117.5084004  82.4968901  51.1721787 118.0369925  81.7747509
  51.2797835 117.8464410  83.2727467  53.5269156 115.8921054  91.9471969
  53.1865976 115.0928867  92.3492649  52.8208162 116.1922765  91.3748802
  54.1785628 112.9770367  90.3999292  55.0011697 112.5030845  90.2778182
  54.4223691 113.7560850  90.8997978  52.8193862 116.0058625  80.6962193
  53.5402225 116.3839878  80.1925910  52.1959166 116.7247502  80.7997171
  56.9624985 116.7103774  81.6320526  57.1788599 117.5928412  81.3309354
  56.4819052 116.3189988  80.9026168  51.7024206 119.6689487  88.2091270
  51.5568787 119.9829790  89.1015552  51.2249410 120.2874388  87.6562169
  53.5620589 116.6592035  88.2572160  53.5482158 115.7633129  87.9204458
  54.2793017 116.6662699  88.8910446  55.4146720 117.0929376  90.3025287
  55.1564498 118.0146446  90.3009618  54.8831760 116.6959810  90.9925752
  52.9657485 115.5406416  83.5259730  53.0873396 114.6123062  83.7250618
  52.6759527 115.5545102  82.6138046  55.8348675 113.2261326  86.6626450
  55.8570372 113.2900659  85.7078429  56.2516734 112.3865835  86.8566956
  66.2132300 122.9616586  84.7005673  66.6563446 122.2123911  84.3024796
  65.3358810 122.9526722  84.3179404  52.4498565 117.0538413  97.7349663
  52.4986720 117.9300536  97.3527432  52.9921079 116.5115806  97.1621306
  63.0551285 124.4472003  94.3283528  63.1049290 124.2822010  95.2699051
  62.9465209 123.5799262  93.9381409  60.3455048 120.4302931  95.6442835
  61.2464911 120.2909396  95.3526833  60.4203022 120.5957385  96.5841012
  54.6797853 117.8069785  94.4896021  53.8101162 118.1003351  94.2178610
  54.9157333 118.3910230  95.2103285  65.7565165 124.4321824  87.0928120
  66.5912056 124.8711628  87.2565680  65.8924293 123.9560477  86.2736366
  62.8056670 121.9901559  93.0405608  63.2810792 122.1829205  92.2324459
  61.8822236 122.0460745  92.7948991  57.3836887 114.0249402  92.0061442
  57.9018831 114.7610429  91.6807930  57.0292020 114.3313396  92.8408201
  48.9635825 118.8854084  80.1222848  48.2705070 118.9598439  79.4662884
  48.7187576 118.1214427  80.6444364  57.6349481 110.4449685  87.5262338
  57.9151235 109.7772874  88.1522765  58.4200088 110.6378780  87.0137002
  61.5058339 118.8667319  91.2733913  62.4575762 118.9665417  91.2946137
  61.3361790 118.0745587  91.7831998  59.5272719 115.9522902  91.4593314
  58.9322651 116.2327915  90.7639803  59.2422416 116.4416803  92.2310055
  63.9846417 122.0873439  90.3876213  63.9522737 121.1489439  90.5735897
  64.5947041 122.1657475  89.6542038  55.8229748 120.9569492  76.4303417
  56.7688853 120.8275700  76.4991835  55.4443993 120.2184153  76.9072845
  64.1340906 118.8784482  90.4334496  63.6179954 118.0942939  90.2464425
  65.0180854 118.5503199  90.5981016  61.7951633 112.6225498  86.3930309
  61.5976454 112.3140586  87.2773641  62.4051338 113.3487136  86.5228239
  69.8022967 123.1489445  89.5282250  70.5326356 122.8874734  90.0889953
  69.1929913 122.4118167  89.5684318  67.8838264 121.2897308  90.1256701
  67.1571428 121.1553273  89.5173193  67.4685551 121.5974137  90.9313419
  54.0072665 118.8819468  76.3658302  53.1004121 118.5852581  76.4421016
  54.2848646 118.5849286  75.4992589  55.6234731 113.4256358  82.5202544
  54.8135459 113.0803443  82.8957790  56.3119148 113.1163901  83.1090155
  57.5525279 112.5034404  84.1426840  58.1056318 112.9229858  84.8016863
  57.7895366 111.5770153  84.1849796  53.5758378 118.4921478  99.9229604
  53.4755105 119.4415835  99.8541695  53.3579921 118.1639717  99.0505674
  52.7771450 115.7406403  76.5070282  53.6390614 116.0661301  76.7666099
  52.9621794 114.9537899  75.9943347  60.9304086 114.6134930  83.6505505
  60.3502755 115.2719734  83.2683557  60.6640019 113.7912274  83.2392922
  59.3807653 114.0139987  85.8526825  59.8807431 114.1256522  85.0441144
  60.0243261 113.7101040  86.4927633  59.7128964 116.7735020  82.7061853
  58.8254819 117.0584671  82.4882048  60.1282953 116.6128783  81.8589130
  63.0643500 116.7981541  86.4216192  63.8403891 117.2877993  86.6940809
  62.3391635 117.2239595  86.8788062  65.5016059 117.5109160  87.4790133
  66.0960550 117.2704896  86.7683441  65.5742643 116.7916291  88.1063669
  59.6869988 122.2889556  82.9212143  59.6305190 122.7458107  82.0819775
  60.2398331 121.5280241  82.7434986  63.4974794 118.0779288  83.7462262
  63.2411728 117.6775923  84.5770470  62.8727662 118.7923082  83.6212402
  67.8087132 120.8175361  86.2533554  67.2486690 120.8868550  87.0265116
  67.2030635 120.6416346  85.5333050  60.4204767 123.4794337  80.2164672
  60.3653571 123.3138609  79.2753116  59.7950823 124.1870370  80.3726862
  45.2097282 118.7162402  94.0426094  45.8556146 118.2061356  94.5313320
  45.0014434 119.4531083  94.6169520  53.7300893 112.9802446  79.7949991
  53.7179563 113.9244286  79.9518261  54.6224315 112.7972592  79.5009452
  57.5453012 109.5745223  84.0495927  56.7785408 109.0203710  84.1952610
  57.9563717 109.6467092  84.9110079  49.5494773 115.8630019  98.1401109
  50.4126235 115.5066823  98.3504433  48.9760184 115.5243913  98.8276513
  68.9701398 126.7149717  91.0015618  68.6265667 127.6051359  90.9254729
  69.3380361 126.5251375  90.1385203  70.7689064 125.9743276  86.1033356
  71.0747941 125.1140640  85.8159271  71.4941669 126.5660897  85.9032350
  68.4743236 125.7741603  87.5262338  68.7544989 125.1064792  88.1522765
  69.2593843 125.9670698  87.0137002  72.6345387 127.9517415  86.3930309
  72.4370208 127.6432503  87.2773641  73.2445093 128.6779054  86.5228239
  68.3846767 124.9037140  84.0495927  67.6179163 124.3495627  84.1952610
  68.7957472 124.9759009  84.9110079   4.3580625  22.5242492  75.6708816
   4.9959035  22.4049239  74.9672156   4.2401468  23.4723335  75.7296768
   1.1670331  22.4769920  75.6070341   0.8288842  22.3610984  74.7190876
   2.0360099  22.0761085  75.5871347   1.6490114  23.6304771  81.5656546
   1.6378755  23.2357570  80.6937050   1.8110753  22.8970844  82.1590318
   2.6056705  27.9976364  66.9081697   1.9544685  28.5830444  66.5215711
   3.4001068  28.5282559  66.9676734   3.9121893  20.2493945  72.7462024
   4.6984982  19.8313369  72.3952441   4.1760597  21.1540038  72.9143673
   4.0831970  25.6866796  67.4450681   3.4477803  25.7601422  68.1571586
   3.7529377  26.2760394  66.7669760   9.3130320  20.1869179  73.6495003
  10.0455492  19.6168395  73.8832832   8.5569676  19.7990779  74.0901508
   0.9306440  22.6096420  70.8458345   0.5664647  22.0827041  71.5571267
   1.7873556  22.2194889  70.6724831   3.3287260  26.1003299  77.5085524
   3.0287983  27.0028337  77.4001331   2.9838320  25.8335482  78.3606677
   6.7284404  18.6185839  75.1882961   5.8201281  18.5501247  74.8941722
   6.6772000  19.0957784  76.0164787   8.5946050  16.8202277  76.9660835
   7.9520431  17.1134810  76.3200630   8.0900979  16.7055198  77.7714032
   6.2486214  20.5665450  67.6546695   7.1604070  20.7992837  67.4794392
   5.7395861  21.1502495  67.0921773   4.5326982  24.9890078  81.2907987
   4.9410338  24.5472489  80.5462620   3.8104243  24.4142706  81.5442180
   0.8858052  19.9262685  78.6641544   1.7319247  20.3502099  78.8076193
   0.8256689  19.2696309  79.3580107   4.8555796  25.5491269  75.0460276
   4.2264659  25.7136983  74.3436344   4.4681458  25.9632878  75.8171240
   8.7345028  26.4845707  72.4004640   8.0496066  26.8644608  71.8501673
   8.8188878  27.0941033  73.1336588   4.0357497  17.5867053  80.3222718
   3.7918429  18.3409114  79.7856993   4.3117428  17.9652401  81.1569965
   5.9895960  24.1305666  78.9999983   6.2012855  24.7737426  78.3234364
   5.9425708  23.2967982  78.5321913   3.5922189  16.7423486  75.9036556
   2.7306668  17.0404740  76.1953293   3.6184623  16.9593885  74.9717588
   7.1041788  27.0077621  77.1722341   7.9259231  26.6057808  76.8905022
   7.1004191  26.9045855  78.1238457  15.1947781  23.3516370  73.5207312
  14.4411489  22.7823768  73.3651317  15.3295322  23.3179034  74.4677947
   0.5846409  28.2229772  69.1962032   0.4492084  29.0681308  69.6246879
   1.1256221  28.4249050  68.4327965   2.2114885  28.8453338  83.3262374
   1.7678739  28.0589717  83.0083278   2.8732099  29.0332489  82.6606264
   4.3096123  29.1256138  81.3543775   4.2914599  29.9465019  80.8624044
   5.2316043  29.0010214  81.5793916   3.8989155  21.7368945  66.2333360
   3.3835779  22.5073550  66.4721748   3.6266464  21.0634081  66.8566422
   8.8723429  24.4901300  68.1686534   8.0952872  24.1512459  67.7241696
   9.5514910  24.4953923  67.4941499   3.6875458  19.6096037  68.0593141
   3.3825594  19.9242186  68.9103284   4.6405900  19.6877457  68.1020474
   2.1321890  25.7686260  69.7086095   1.6043252  25.0339020  69.3959333
   1.6309393  26.5460937  69.4626064   7.1114736  23.9635281  74.8253142
   6.4538411  24.6534542  74.9133270   7.9155135  24.3531713  75.1687128
   5.9220195  22.3179654  72.8757083   6.4352077  22.9509645  73.3778793
   6.5721419  21.7180849  72.5100443   3.1842569  32.2963978  65.6317754
   2.5104268  32.5995675  66.2402712   3.5708391  33.0993058  65.2823212
   2.4001026  19.7929109  75.1215424   1.4823587  20.0144056  74.9637112
   2.8161169  19.8675420  74.2627131   3.1836074  21.1920525  70.2518104
   3.9307893  21.7041922  69.9425226   3.4527663  20.8704577  71.1122498
   1.4562724  23.6879065  67.2345058   0.5473943  23.4038098  67.3317528
   1.4857808  24.1078144  66.3748365   6.6881991  27.2985655  71.0036226
   6.2344318  26.4576565  71.0601416   6.0575958  27.9347053  71.3411006
   5.6314911  18.2277641  72.2336893   4.8937668  17.7155027  72.5647136
   5.8841684  17.7878023  71.4220170   5.1314930  29.1362152  71.9386044
   5.4237905  29.6967209  71.2198410   5.6413551  29.4290713  72.6939203
   1.1538812  25.2287809  64.5733137   0.7158242  24.5123668  64.1138774
   1.8949252  25.4563924  64.0118228   3.5414189  20.3826570  79.9260127
   3.8963577  20.6098043  80.7854592   4.1886321  20.7144947  79.3037382
   9.2711926  23.5045006  70.6309456   9.1329825  23.6946602  69.7030645
   8.9148145  24.2664389  71.0877507   9.2981306  25.5721533  75.6420727
   9.7317813  25.4796822  76.4903781  10.0112887  25.5479034  75.0040743
   3.0309201  29.1723627  77.1753828   3.0846223  29.7414564  77.9431544
   2.1623982  29.3425512  76.8107865  10.1596856  25.6145234  78.1753612
  10.3532746  26.5191044  78.4212887  10.0597474  25.1552653  79.0092197
   5.2211964  25.7651977  83.7494493   5.0697471  25.5362528  82.8324577
   5.2116644  26.7222578  83.7625838   1.9897301  23.3383889  78.7340759
   2.9189361  23.4895049  78.5609727   1.5688331  23.4267910  77.8789406
   1.3833784  32.4643650  67.8464834   1.5585540  31.9931693  68.6610456
   0.6966572  33.0909416  68.0746094   2.3390848  26.7416156  73.8928135
   2.0040680  26.7016926  74.7885785   1.8394793  26.0760872  73.4198545
   5.2750039  24.0872191  64.1665195   4.6579210  23.3619019  64.0698247
   4.8066528  24.8481551  63.8232269   6.9304171  28.7971099  81.8270975
   6.8716717  28.1130319  81.1601558   7.3323689  29.5390089  81.3751601
   6.9321578  26.7610683  80.0584955   6.0448357  26.4236605  80.1811353
   7.5020129  26.0293714  80.2953720   3.5609161  16.4678535  73.1783225
   4.0577861  15.7148497  72.8584295   2.7896143  16.5042852  72.6126434
  11.4138919  22.1718900  74.8201516  11.4028795  23.0543616  74.4495449
  10.5456298  21.8190451  74.6256053   2.9221415  31.3198969  79.1804356
   3.6349387  31.9546434  79.1080258   2.4311444  31.4162835  78.3644358
   4.6438942  25.2250222  70.7521648   3.7095221  25.3451685  70.5826352
   4.8215610  24.3222689  70.4881658   8.0311493  21.0667541  71.2871682
   8.4971945  21.8995533  71.2131985   8.4818994  20.6012523  71.9916941
   6.0987724  27.4111363  68.2857834   6.3747568  27.2967957  69.1951708
   5.2292223  27.0128848  68.2470007   5.7734615  21.6238020  77.8262478
   5.1206065  21.8713928  77.1714930   6.1514994  20.8102159  77.4924955
   2.7341788  31.6597714  71.9290648   2.9164183  30.8419369  72.3918400
   3.5574774  31.8765406  71.4915538   3.0683954  30.5865899  69.1905696
   3.5971720  30.0758353  68.5775859   3.3312173  30.2708429  70.0551229
   1.8222188  22.3657831  84.3128515   1.1462825  22.2651961  84.9830890
   2.6449821  22.2097045  84.7764512   0.5644970  33.6724759  78.5486131
   1.1163278  33.8356380  79.3135216   0.9051164  34.2629197  77.8766156
   5.4155845  28.4986016  84.4034785   5.9595749  29.1115975  83.9089740
   4.8342690  29.0565595  84.9201798   3.7013358  31.6206734  75.5349813
   3.5764497  30.8196474  75.0260758   4.3592449  32.1152928  75.0463783
   5.7648266  29.4215755  77.1629363   4.8178602  29.3021106  77.0907690
   6.1131039  28.5338253  77.2455624   2.7694699  29.2168471  73.3633715
   2.6219662  28.2885178  73.5441285   3.5948193  29.2388561  72.8790790
   6.3728821  30.0397029  74.4498588   7.2975369  29.8339891  74.3123039
   6.2044125  29.7913431  75.3587929   6.1624137  30.5582697  69.8060679
   6.3361015  29.9929119  69.0534532   6.6553029  31.3583592  69.6240169
  12.0163529  23.3219120  71.4250979  12.4594675  22.5726445  71.0270102
  11.1390039  23.3129256  71.0424711   7.1499310  29.8749461  66.9057578
   7.8450215  30.4956154  67.1244892   7.4922460  29.0244813  67.1809956
   9.0490733  27.3249167  68.4344908   9.5742057  27.6636440  67.7094228
   8.9613086  26.3896182  68.2508043   0.7110782  31.2383240  80.5634785
   1.0197908  30.9932387  81.4357485   1.5086264  31.4429879  80.0753655
   8.7384639  27.9582070  83.7396106   7.9480183  27.9406209  83.2000606
   8.5017994  28.4970364  84.4945143   8.8582514  24.8074537  81.0528835
   8.9080519  24.6424544  81.9944358   8.7496438  23.9401796  80.6626716
   6.1486277  20.7905465  82.3688142   7.0496139  20.6511930  82.0772139
   6.2234251  20.9559920  83.3086319  10.3600711  27.2271478  81.2970856
  10.0685519  27.5901459  82.1334317   9.7472842  26.5138487  81.1184189
  11.5596393  24.7924358  73.8173427  12.3943285  25.2314162  73.9810987
  11.6955522  24.3163011  72.9981672   8.6087899  22.3504093  79.7650914
   9.0842021  22.5431739  78.9569766   7.6853465  22.4063279  79.5194298
   1.2414178  29.9811213  65.8132671   0.6688145  30.6001400  65.3603143
   1.8146972  30.5310575  66.3472593   7.3089568  19.2269853  77.9979220
   8.2606991  19.3267951  78.0191444   7.1393019  18.4348122  78.5077304
   5.3303948  16.3125436  78.1838621   4.7353880  16.5930449  77.4885110
   5.0453644  16.8019337  78.9555362   4.4611438  30.2648363  66.9441254
   5.3942111  30.1993925  67.1474129   4.3734651  31.1004630  66.4855786
   7.0899455  29.5814233  63.9045201   7.0113086  29.2474097  64.7980959
   7.9109122  30.0736001  63.9036673   9.7877646  22.4475973  77.1121520
   9.7553966  21.5091973  77.2981204  10.3978270  22.5260009  76.3787345
   1.6260977  21.3172026  63.1548724   2.5720082  21.1878234  63.2237142
   1.2475222  20.5786688  63.6318152   9.9372135  19.2387016  77.1579803
   9.4211183  18.4545473  76.9709732  10.8212083  18.9105733  77.3226322
  15.6054196  23.5091980  76.2527557  16.3357584  23.2477268  76.8135260
  14.9961141  22.7720702  76.2929624  13.6869493  21.6499842  76.8502008
  12.9602657  21.5155807  76.2418499  13.2716780  21.9576671  77.6558726
   1.5099669  25.3689772  84.6149381   2.4302679  25.5468371  84.8089427
   1.4749252  24.4245817  84.4629080   6.7335315  14.9737464  70.3750811
   6.1533984  15.6322268  69.9928864   6.4671248  14.1514808  69.9638229
   5.5160193  17.1337554  69.4307159   4.6286048  17.4187205  69.2127354
   5.9314182  16.9731318  68.5834436   8.8674729  17.1584075  73.1461499
   9.6435119  17.6480528  73.4186116   8.1422863  17.5842129  73.6033368
  11.3047288  17.8711694  74.2035439  11.8991779  17.6307430  73.4928748
  11.3773872  17.1518825  74.8308976   4.6603407  26.8982229  63.5255179
   5.3639257  27.1032231  64.1412835   3.9366055  27.4658991  63.7904263
   5.4901217  22.6492090  69.6457450   5.4336418  23.1060642  68.8065082
   6.0429559  21.8882775  69.4680292   9.3006023  18.4381822  70.4707569
   9.0442957  18.0378458  71.3015777   8.6758891  19.1525616  70.3457708
  13.6118361  21.1777895  72.9778860  13.0517919  21.2471085  73.7510423
  13.0061864  21.0018880  72.2578357   6.5690104  27.3364758  65.5753639
   7.4035708  26.9045957  65.3931114   6.4074447  27.1646772  66.5030534
   6.2235996  23.8396871  66.9409979   6.1684800  23.6741143  65.9998423
   5.5982051  24.5472904  67.0972168   3.5381903  26.1445783  86.2663542
   4.4073063  26.3186436  85.9050176   3.0588655  26.9640200  86.1439271
  15.1974379  37.8534409  75.6708816  15.8352789  37.7341157  74.9672156
  15.0795222  38.8015253  75.7296768  12.0064085  37.8061837  75.6070341
  11.6682597  37.6902902  74.7190876  12.8753854  37.4053002  75.5871347
   7.8650901  39.6597314  71.5967232   7.3015766  39.5687251  70.8283520
   7.7503296  38.8397218  72.0769724  12.4883868  38.9596689  81.5656546
  12.4772509  38.5649487  80.6937050  12.6504508  38.2262762  82.1590318
   5.4115333  41.1548505  74.4351452   6.2036625  40.8139330  74.0197752
   5.6511983  41.2643480  75.3553606  13.4450460  43.3268281  66.9081697
  12.7938440  43.9122362  66.5215711  14.2394823  43.8574476  66.9676734
   7.3706087  40.4157419  67.3068831   8.1436963  39.8686406  67.1681707
   7.7231486  41.2801668  67.5183293   9.2091130  41.7433801  80.5135730
   8.9180996  42.6479432  80.3982397   9.8448114  41.7850328  81.2279800
  10.1347336  39.1210649  77.1037090  10.7310909  38.8966672  76.3894053
  10.1922308  38.3795395  77.7062538   9.7072365  36.5750085  64.9387281
   9.9597885  36.0531606  64.1770744   8.7696924  36.4116230  65.0413965
  14.7515648  35.5785863  72.7462024  15.5378737  35.1605286  72.3952441
  15.0154352  36.4831955  72.9143673  14.9225725  41.0158713  67.4450681
  14.2871558  41.0893340  68.1571586  14.5923131  41.6052312  66.7669760
  20.1524075  35.5161096  73.6495003  20.8849247  34.9460313  73.8832832
  19.3963430  35.1282697  74.0901508   9.4268654  38.4778191  67.1411656
   9.3104912  37.8023094  67.8092740   9.5370913  37.9910565  66.3243809
  11.7700194  37.9388338  70.8458345  11.4058402  37.4118959  71.5571267
  12.6267310  37.5486807  70.6724831  17.6749495  29.2282670  78.1089611
  17.3432820  30.0978081  77.8850826  17.0795108  28.9118954  78.7883642
  11.4105681  32.9678237  65.8419694  11.5780084  33.8358474  66.2090165
  11.2202851  33.1305519  64.9180983  14.1681015  41.4295216  77.5085524
  13.8681738  42.3320255  77.4001331  13.8232074  41.1627400  78.3606677
   7.6193496  37.8809013  73.5422229   6.6943993  37.7485227  73.7499920
   7.8677909  38.6603232  74.0392171  17.5678158  33.9477757  75.1882961
  16.6595036  33.8793165  74.8941722  17.5165754  34.4249701  76.0164787
  11.3894902  35.4235895  66.8266361  11.2694528  35.8692946  67.6651841
  10.6947491  35.7721213  66.2679899   4.9802307  37.5242287  74.3766018
   5.1094688  37.7776766  75.2905429   4.2999758  38.1169995  74.0570673
   9.1501794  48.1939537  70.4756492   9.0725824  49.1447362  70.5544972
   8.5463438  47.8485409  71.1331418  11.6419024  35.3667402  83.1317859
  10.8652358  35.9261322  83.1220723  12.2809587  35.8524185  83.6532729
  19.4339805  32.1494195  76.9660835  18.7914185  32.4426728  76.3200630
  18.9294733  32.0347115  77.7714032  17.0879968  35.8957368  67.6546695
  17.9997825  36.1284755  67.4794392  16.5789616  36.4794412  67.0921773
   9.8965397  38.1752855  82.6935826  10.6380081  38.7137899  82.4170649
   9.1902382  38.8019144  82.8507378  15.3720736  40.3181996  81.2907987
  15.7804092  39.8764406  80.5462620  14.6497998  39.7434623  81.5442180
  11.7251806  35.2554603  78.6641544  12.5713001  35.6794016  78.8076193
  11.6650444  34.5988227  79.3580107  15.6949551  40.8783187  75.0460276
  15.0658413  41.0428901  74.3436344  15.3075213  41.2924796  75.8171240
  19.5738783  41.8137624  72.4004640  18.8889821  42.1936526  71.8501673
  19.6582632  42.4232951  73.1336588  14.8751252  32.9158971  80.3222718
  14.6312183  33.6701032  79.7856993  15.1511182  33.2944319  81.1569965
  16.8289714  39.4597583  78.9999983  17.0406610  40.1029343  78.3234364
  16.7819463  38.6259900  78.5321913  14.4315943  32.0715404  75.9036556
  13.5700422  32.3696658  76.1953293  14.4578378  32.2885803  74.9717588
  11.2477513  40.6157595  72.3110361  11.7115858  40.8945298  71.5214984
  10.9834311  39.7141039  72.1283452   8.1401594  40.1629076  75.2490124
   8.7102951  40.5916345  74.6107609   8.7309706  39.8811661  75.9474310
  10.1846399  36.7380747  69.1199926  10.8870442  37.1901791  69.5873853
   9.8527027  36.0964566  69.7479819   8.6326760  35.3292504  83.4951136
   8.0025421  36.0108784  83.7286533   8.5262848  35.2175585  82.5504274
   3.9271733  34.9964300  74.4217060   3.1370787  35.2521828  73.9457170
   4.4182980  35.8112638  74.5269100  17.9435542  42.3369539  77.1722341
  18.7652986  41.9349726  76.8905022  17.9397945  42.2337773  78.1238457
   5.8786478  35.3608879  71.3800537   5.0817641  35.4727573  71.8984032
   5.6512070  35.6995531  70.5141427  11.7092146  41.8853582  79.3283051
  11.7736578  42.3473989  80.1641223  11.0003070  41.2550947  79.4565361
   2.2109436  35.2494790  76.8532051   2.4617474  36.1341800  77.1189627
   2.7468984  35.0699392  76.0807143  26.0341535  38.6808287  73.5207312
  25.2805244  38.1115685  73.3651317  26.1689077  38.6470952  74.4677947
  11.4240163  43.5521690  69.1962032  11.2885838  44.3973225  69.6246879
  11.9649976  43.7540967  68.4327965   7.9107503  29.6313269  85.8576387
   7.5174449  29.0779468  86.5324031   8.7273643  29.9423848  86.2482904
   4.8769561  41.0697128  69.7689957   5.3894081  41.8640378  69.9195521
   5.5292274  40.3723418  69.7023558   6.6864445  44.1862884  71.8512710
   6.8631074  45.1080849  71.6633694   7.4821279  43.8721303  72.2807090
  10.8275464  31.0471149  83.4496643  11.5685177  31.6478302  83.3701106
  11.0593387  30.3048786  82.8914686   5.9716802  36.2327516  81.7274873
   5.8570317  35.3312773  82.0281972   5.1161320  36.4791213  81.3759690
  13.0508640  44.1745256  83.3262374  12.6072494  43.3881635  83.0083278
  13.7125853  44.3624407  82.6606264   7.8095761  45.7041058  77.8523052
   8.3603186  45.5758121  77.0800046   6.9707237  46.0035947  77.5017945
  15.1489878  44.4548056  81.3543775  15.1308353  45.2756937  80.8624044
  16.0709798  44.3302131  81.5793916  11.6062932  41.9692186  82.1967283
  12.1391269  41.2080474  81.9666591  11.0777013  41.6765837  82.9391438
  14.7732627  27.0752252  77.7260925  14.4296896  27.9653893  77.6500036
  15.1411590  26.8853909  76.8630510   2.8418478  39.3985782  70.5449527
   3.6793700  39.8082790  70.3283235   3.0196745  38.4585224  70.5149721
  14.7382910  37.0660863  66.2333360  14.2229533  37.8365467  66.4721748
  14.4660218  36.3925999  66.8566422  12.3230021  31.9110563  71.2918598
  11.4671617  31.5217414  71.1124237  12.7356972  31.9902524  70.4318384
  13.8529167  29.4456907  75.6910158  13.3493963  29.4087042  74.8777964
  14.1459774  30.3549649  75.7506815  10.0972053  29.5295636  74.6976340
  10.9625050  29.3338445  74.3382229  10.1649562  29.3005988  75.6245697
  19.7117184  39.8193217  68.1686534  18.9346627  39.4804377  67.7241696
  20.3908665  39.8245840  67.4941499  14.5269213  34.9387955  68.0593141
  14.2219348  35.2534104  68.9103284  15.4799655  35.0169375  68.1020474
  12.9715645  41.0978178  69.7086095  12.4437006  40.3630938  69.3959333
  12.4703147  41.8752854  69.4626064  17.9508491  39.2927199  74.8253142
  17.2932165  39.9826460  74.9133270  18.7548890  39.6823630  75.1687128
   7.7034372  31.7597844  72.0692707   8.2778124  31.5373026  71.3365900
   8.2905355  31.8286539  72.8221308  16.7613949  37.6471571  72.8757083
  17.2745831  38.2801563  73.3778793  17.4115173  37.0472767  72.5100443
   8.0303959  33.7902305  66.0888592   7.1941272  34.1276992  66.4097867
   7.8908729  33.6551285  65.1515729  10.0057040  28.6339093  70.7967776
   9.3521452  28.3188110  70.1724391   9.9637514  28.0114834  71.5227599
  11.1168245  38.9158388  62.7121068  10.2095307  38.6847642  62.9112217
  11.6139277  38.1196008  62.8995050  14.0236324  47.6255895  65.6317754
  13.3498022  47.9287592  66.2402712  14.4102146  48.4284976  65.2823212
  13.2394780  35.1221027  75.1215424  12.3217342  35.3435974  74.9637112
  13.6554924  35.1967337  74.2627131  14.0229828  36.5212442  70.2518104
  14.7701647  37.0333840  69.9425226  14.2921418  36.1996495  71.1122498
  12.2956478  39.0170983  67.2345058  11.3867698  38.7330016  67.3317528
  12.3251562  39.4370062  66.3748365  17.5275746  42.6277573  71.0036226
  17.0738073  41.7868483  71.0601416  16.8969712  43.2638971  71.3411006
  16.4708665  33.5569559  72.2336893  15.7331422  33.0446945  72.5647136
  16.7235439  33.1169940  71.4220170  15.9708685  44.4654069  71.9386044
  16.2631659  45.0259126  71.2198410  16.4807305  44.7582630  72.6939203
  16.5720293  26.3345811  72.8278663  16.8779169  25.4743174  72.5404578
  17.2972897  26.9263431  72.6277657   2.8644649  36.7376497  71.2160261
   2.6669048  36.1445858  70.4911327   2.3091313  36.4328707  71.9336199
  10.8441372  36.6299604  73.3354854  10.8989982  35.6773440  73.2597330
  10.0332574  36.7859043  73.8196152  11.9932566  40.5579727  64.5733137
  11.5551996  39.8415586  64.1138774  12.7343007  40.7855842  64.0118228
   8.7833732  35.2476664  71.0945233   7.9701598  35.5470834  71.5010425
   9.2792726  34.8532352  71.8119715  10.9342310  45.2434420  73.0279497
  10.8918489  45.4695267  72.0988029  11.8505009  45.0097795  73.1765298
  14.3807944  35.7118488  79.9260127  14.7357332  35.9389961  80.7854592
  15.0280075  36.0436865  79.3037382  20.1105681  38.8336924  70.6309456
  19.9723579  39.0238520  69.7030645  19.7541900  39.5956307  71.0877507
   8.2747807  32.8195019  76.7106468   8.9147186  32.6783778  76.0129431
   7.4425338  32.5329532  76.3345070  20.1375060  40.9013451  75.6420727
  20.5711567  40.8088740  76.4903781  20.8506641  40.8770951  75.0040743
   9.0508111  42.1197449  72.8241460   9.8448709  41.6247770  72.6224035
   8.3399803  41.5915313  72.4609166  13.8702955  44.5015545  77.1753828
  13.9239978  45.0706481  77.9431544  13.0017737  44.6717430  76.8107865
   5.3590874  36.2640531  68.9001213   4.4288462  36.2024987  69.1171175
   5.4548346  35.7416484  68.1037854   5.2776423  32.7895344  71.4879454
   5.5383241  33.7040677  71.3788615   6.0993596  32.3219787  71.6376067
   6.7501349  34.2033101  78.6578279   7.4224402  33.9950463  78.0090928
   5.9231135  34.0055187  78.2183511  20.9990610  40.9437152  78.1753612
  21.1926500  41.8482962  78.4212887  20.8991228  40.4844571  79.0092197
  12.6526921  30.8295042  80.6743940  12.0054836  31.5284992  80.5808416
  13.4227936  31.2631186  81.0420188  16.0605719  41.0943894  83.7494493
  15.9091225  40.8654446  82.8324577  16.0510398  42.0514496  83.7625838
  12.8291055  38.6675807  78.7340759  13.7583115  38.8186967  78.5609727
  12.4082085  38.7559828  77.8789406  11.6279387  42.6926471  76.5039297
  11.4890473  42.3245256  77.3765235  10.8393983  43.2074111  76.3323255
  12.2227539  47.7935568  67.8464834  12.3979295  47.3223611  68.6610456
  11.5360327  48.4201334  68.0746094  13.1784602  42.0708074  73.8928135
  12.8434435  42.0308844  74.7885785  12.6788548  41.4052790  73.4198545
   7.1528846  37.4775704  79.4180716   7.0148644  36.7455943  80.0192255
   8.0633769  37.3884604  79.1364904  16.1143794  39.4164108  64.1665195
  15.4972964  38.6910937  64.0698247  15.6460282  40.1773469  63.8232269
   9.7811147  37.1895663  78.9064396  10.4910765  36.5488856  78.8651014
   9.7380455  37.4408558  79.8290576  17.7697925  44.1263017  81.8270975
  17.7110471  43.4422237  81.1601558  18.1717444  44.8682007  81.3751601
   8.4940081  34.1760881  80.7260035   7.9577438  33.7251620  81.3781632
   7.9056789  34.3106790  79.9830500   6.7888624  50.9424931  74.6204694
   7.0285222  51.5743455  75.2983712   5.9457821  50.5912971  74.9070053
   7.9042340  33.6349533  63.2886499   7.0271806  33.5138334  62.9248746
   8.3800093  32.8435611  63.0365387  17.7715333  42.0902601  80.0584955
  16.8842111  41.7528523  80.1811353  18.3413884  41.3585632  80.2953720
   4.2279202  33.3116889  77.8113030   4.1437391  32.7042559  77.0763440
   3.4061908  33.8025907  77.8122526  11.3016486  46.7504053  77.0246198
  11.2286657  47.5559025  77.5365502  10.8593879  46.9496019  76.1994219
  11.0906266  45.9875823  70.5349019  10.3073788  46.5297503  70.6287244
  11.7899011  46.5049803  70.9343261  14.4002916  31.7970453  73.1783225
  14.8971615  31.0440415  72.8584295  13.6289897  31.8334769  72.6126434
  22.2532673  37.5010818  74.8201516  22.2422549  38.3835534  74.4495449
  21.3850053  37.1482369  74.6256053  13.7615170  46.6490887  79.1804356
  14.4743142  47.2838352  79.1080258  13.2705198  46.7454753  78.3644358
  15.4832696  40.5542140  70.7521648  14.5488975  40.6743602  70.5826352
  15.6609365  39.6514607  70.4881658  10.9837884  33.9387836  72.9054909
  10.6135672  33.3858876  73.5935815  11.4796977  33.3345969  72.3529909
  18.8705248  36.3959459  71.2871682  19.3365700  37.2287451  71.2131985
  19.3212748  35.9304441  71.9916941   8.8127083  44.3985331  80.0009927
   9.5136543  45.0321814  80.1539322   8.3422198  44.7400062  79.2405567
  16.9381479  42.7403280  68.2857834  17.2141323  42.6259875  69.1951708
  16.0685978  42.3420765  68.2470007  16.8421911  28.7640046  75.3262584
  15.9284990  28.9944273  75.4944791  17.2715012  28.8478490  76.1776616
  16.6128369  36.9529938  77.8262478  15.9599819  37.2005846  77.1714930
  16.9908749  36.1394076  77.4924955  13.5735543  46.9889631  71.9290648
  13.7557937  46.1711287  72.3918400  14.3968529  47.2057323  71.4915538
  13.9077708  45.9157816  69.1905696  14.4365475  45.4050271  68.5775859
  14.1705928  45.6000347  70.0551229  12.6615942  37.6949749  84.3128515
  11.9856579  37.5943878  84.9830890  13.4843576  37.5388963  84.7764512
   4.4094801  43.9321686  76.9341030   4.9948238  43.1865374  77.0668934
   4.2119640  44.2425642  77.8177694   7.2633456  46.9672933  71.9503472
   6.5943832  47.4519061  71.4667512   7.1246326  47.2142153  72.8646851
  11.4038725  49.0016677  78.5486131  11.9557033  49.1648298  79.3135216
  11.7444918  49.5921114  77.8766156   6.3803218  31.3491826  79.1508015
   6.4444545  32.2106657  78.7385413   6.3170338  30.7365828  78.4180374
   5.8555491  33.4214959  82.7981050   6.4827529  33.0392036  83.4118574
   4.9983410  33.2029161  83.1636742  16.2549599  43.8277934  84.4034785
  16.7989503  44.4407892  83.9089740  15.6736444  44.3857512  84.9201798
   2.6321033  35.2291388  68.7299404   2.9274475  34.3202066  68.6766458
   1.7309069  35.2079127  68.4080407  14.5407112  46.9498652  75.5349813
  14.4158252  46.1488392  75.0260758  15.1986203  47.4444845  75.0463783
   6.1615280  33.3047385  74.7126953   5.4401866  33.9183352  74.5734426
   6.9508536  33.8405149  74.6343599  16.6042021  44.7507672  77.1629363
  15.6572356  44.6313023  77.0907690  16.9524794  43.8630170  77.2455624
   8.9641594  30.6401811  80.9867605   9.4875996  30.8864108  81.7493914
   8.7453927  31.4721846  80.5670742   4.3608875  32.9105486  68.8538730
   4.0321581  32.0302865  68.6713836   4.7148246  32.8553154  69.7415119
  13.6088454  44.5460388  73.3633715  13.4613416  43.6177096  73.5441285
  14.4341947  44.5680479  72.8790790   7.4750698  33.1978455  69.2214207
   7.8146771  33.7264377  68.4992816   7.9222819  33.5358862  69.9972774
  17.2122576  45.3688947  74.4498588  18.1369123  45.1631808  74.3123039
  17.0437879  45.1205348  75.3587929  10.1694139  31.5815506  78.6717275
   9.8290959  30.7823319  79.0737955   9.4633145  31.8817217  78.0994109
  10.8210611  28.6664819  77.1244598  11.6436680  28.1925297  77.0023489
  11.0648674  29.4455302  77.6243285   9.4618845  31.6953077  67.4207500
  10.1827208  32.0734330  66.9171217   8.8384149  32.4141954  67.5242478
  13.6049968  32.3998226  68.3565832  13.8213583  33.2822864  68.0554661
  13.1244035  32.0084439  67.6271474   8.3449190  35.3583939  74.9336577
   8.1993770  35.6724242  75.8260859   7.8674393  35.9768840  74.3807476
  10.2045572  32.3486487  74.9817467  10.1907141  31.4527581  74.6449765
  10.9218001  32.3557151  75.6155753  12.0571703  32.7823827  77.0270594
  11.7989481  33.7040898  77.0254924  11.5256744  32.3854262  77.7171058
  17.0017892  45.8874615  69.8060679  17.1754769  45.3221037  69.0534532
  17.4946783  46.6875509  69.6240169   2.8194852  37.8989284  77.8724238
   2.2748320  38.6749092  78.0044513   3.6974202  38.2460088  77.7143360
   9.6082468  31.2300868  70.2505037   9.7298380  30.3017514  70.4495924
   9.3184511  31.2439553  69.3383352  12.4773659  28.9155778  73.3871757
  12.4995356  28.9795111  72.4323736  12.8941718  28.0760287  73.5812263
  22.8557283  38.6511038  71.4250979  23.2988429  37.9018363  71.0270102
  21.9783793  38.6421174  71.0424711  17.9893064  45.2041379  66.9057578
  18.6843969  45.8248072  67.1244892  18.3316215  44.3536730  67.1809956
   3.6060874  37.0259180  80.7654395   2.8642610  37.1741815  81.3519025
   3.2853618  37.2867446  79.9021144  19.8884488  42.6541085  68.4344908
  20.4135812  42.9928357  67.7094228  19.8006840  41.7188100  68.2508043
  11.5504536  46.5675158  80.5634785  11.8591663  46.3224305  81.4357485
  12.3480018  46.7721797  80.0753655  11.5725148  48.7213068  72.7940162
  11.1330139  48.2289446  73.4873018  12.3233265  48.1786035  72.5532237
   4.0517487  44.9124609  72.7964790   4.8775507  44.6128381  72.4163433
   3.7011539  44.1432231  73.2454578   9.0199020  44.2651077  74.8662463
   8.3979030  43.6021782  74.5664691   9.6903887  44.2912209  74.1836111
   2.2526092  42.8310935  73.7553723   1.4158001  42.4033109  73.5737725
   2.2249738  43.0243378  74.6924514   9.0923548  32.7432865  84.4594969
   9.1411703  33.6194988  84.0772739   9.6346062  32.2010258  83.8866613
  19.5778394  43.2873988  83.7396106  18.7873937  43.2698127  83.2000606
  19.3411748  43.8262282  84.4945143  19.6976269  40.1366455  81.0528835
  19.7474274  39.9716462  81.9944358  19.5890192  39.2693714  80.6626716
   8.5812527  42.8155000  68.3420924   8.7300648  43.4990465  67.6887597
   9.3878971  42.7960090  68.8570380  16.9880031  36.1197383  82.3688142
  17.8889894  35.9803847  82.0772139  17.0628006  36.2851837  83.3086319
  11.3222836  33.4964237  81.2141328  10.4526146  33.7897803  80.9423917
  11.5582317  34.0804682  81.9348592  21.1994465  42.5563396  81.2970856
  20.9079274  42.9193377  82.1334317  20.5866597  41.8430404  81.1184189
  22.3990148  40.1216276  73.8173427  23.2337039  40.5606080  73.9810987
  22.5349277  39.6454929  72.9981672  19.4481654  37.6796011  79.7650914
  19.9235775  37.8723657  78.9569766  18.5247219  37.7355196  79.5194298
   6.3365160  38.8420178  69.3481993   6.0911202  37.9382508  69.5462203
   6.5061075  38.8437328  68.4061471  14.0261870  29.7143854  78.7306748
  14.5443814  30.4504881  78.4053237  13.6717003  30.0207848  79.5653507
   5.6060808  34.5748535  66.8468154   4.9130053  34.6492890  66.1908190
   5.3612560  33.8108879  67.3689671  14.2774464  26.1344137  74.2507645
  14.5576218  25.4667326  74.8768071  15.0625071  26.3273232  73.7382309
  12.0807933  45.3103131  65.8132671  11.5081900  45.9293318  65.3603143
  12.6540727  45.8602492  66.3472593  18.1483323  34.5561771  77.9979220
  19.1000746  34.6559868  78.0191444  17.9786773  33.7640039  78.5077304
  16.1697702  31.6417354  78.1838621  15.5747634  31.9222367  77.4885110
  15.8847399  32.1311255  78.9555362  15.3005193  45.5940281  66.9441254
  16.2335866  45.5285842  67.1474129  15.2128405  46.4296548  66.4855786
  17.9293209  44.9106151  63.9045201  17.8506841  44.5766015  64.7980959
  18.7502876  45.4027919  63.9036673  20.6271401  37.7767890  77.1121520
  20.5947721  36.8383891  77.2981204  21.2372024  37.8551927  76.3787345
  12.4654731  36.6463943  63.1548724  13.4113836  36.5170152  63.2237142
  12.0868976  35.9078605  63.6318152  20.7765889  34.5678934  77.1579803
  20.2604938  33.7837391  76.9709732  21.6605838  34.2397650  77.3226322
  18.4376616  28.3119949  73.1175616  18.2401437  28.0035038  74.0018948
  19.0476322  29.0381588  73.2473545  26.4447950  38.8383897  76.2527557
  27.1751339  38.5769185  76.8135260  25.8354896  38.1012619  76.2929624
  24.5263247  36.9791760  76.8502008  23.7996411  36.8447725  76.2418499
  24.1110534  37.2868588  77.6558726  12.3493424  40.6981690  84.6149381
  13.2696433  40.8760289  84.8089427  12.3143007  39.7537735  84.4629080
  10.6497649  34.5713920  63.0903609   9.7429104  34.2747033  63.1666323
  10.9273630  34.2743738  62.2237895   1.5675589  35.8920283  73.5402655
   1.2478373  35.0385591  73.2477029   1.0209017  36.1068861  74.2960623
   5.3455496  38.6082724  77.2572162   5.5641506  39.5399832  77.2760196
   5.7581270  38.2490699  78.0426966  12.2659714  29.1150810  69.2447850
  11.4560443  28.7697894  69.6203096  12.9544131  28.8058353  69.8335462
  14.1950263  28.1928856  70.8672147  14.7481301  28.6124310  71.5262170
  14.4320349  27.2664604  70.9095103  10.2183362  34.1815930  86.6474911
  10.1180089  35.1310287  86.5787002  10.0004904  33.8534169  85.7750981
   9.4196433  31.4300855  63.2315588  10.2815597  31.7555753  63.4911406
   9.6046777  30.6432351  62.7188654   1.4363849  39.5123195  75.5095777
   0.7427320  39.0977147  74.9965731   2.1836840  39.5543731  74.9129196
  17.5729070  30.3029381  70.3750811  16.9927739  30.9614186  69.9928864
  17.3065002  29.4806726  69.9638229  16.0232636  29.7034439  72.5772132
  16.5232414  29.8150974  71.7686450  16.6668244  29.3995492  73.2172940
  10.0814632  37.6113069  85.4639972   9.5981714  38.4113429  85.6703862
  10.1675571  37.6221014  84.5107416   3.3500591  39.4441448  73.3861792
   3.3271280  39.5429136  72.4343675   3.6601228  40.2906599  73.7078958
   6.0087969  41.5017604  77.5008406   6.9631223  41.4701546  77.4338338
   5.8100493  41.0408227  78.3158632   6.5987351  40.0718720  80.0679204
   7.4180240  40.5662798  80.0914041   6.8724159  39.1550688  80.0396771
  16.3553948  32.4629472  69.4307159  15.4679803  32.7479122  69.2127354
  16.7707937  32.3023235  68.5834436  19.7068484  32.4875993  73.1461499
  20.4828874  32.9772445  73.4186116  18.9816618  32.9134047  73.6033368
  22.1441042  33.2003612  74.2035439  22.7385533  32.9599348  73.4928748
  22.2167626  32.4810743  74.8308976   4.3638198  47.0437223  74.5178604
   4.2292666  46.2837624  73.9516602   3.9470260  47.7678123  74.0507393
  15.4997161  42.2274147  63.5255179  16.2033011  42.4324149  64.1412835
  14.7759810  42.7950908  63.7904263  16.3294971  37.9784008  69.6457450
  16.2730173  38.4352559  68.8065082  16.8823314  37.2174692  69.4680292
  20.1399777  33.7673740  70.4707569  19.8836712  33.3670375  71.3015777
  19.5152645  34.4817534  70.3457708  24.4512115  36.5069813  72.9778860
  23.8911673  36.5763002  73.7510423  23.8455619  36.3310798  72.2578357
   7.5207324  47.9406540  74.7297047   7.4039708  48.8851973  74.6275737
   6.6999770  47.6380102  75.1182846  17.4083859  42.6656676  65.5753639
  18.2429462  42.2337874  65.3931114  17.2468201  42.4938689  66.5030534
  17.0629751  39.1688789  66.9409979  17.0078555  39.0033060  65.9998423
  16.4375806  39.8764822  67.0972168   1.8522266  34.4056853  80.7671401
   2.4981129  33.8955807  81.2558626   1.6439417  35.1425535  81.3414826
  14.3775658  41.4737701  86.2663542  15.2466818  41.6478353  85.9050176
  13.8982409  42.2932118  86.1439271  10.3725876  28.6696898  66.5195297
  10.3604546  29.6138738  66.6763568  11.2649298  28.4867043  66.2254758
   8.5461838  48.5934802  77.9452975   9.4489085  48.6258412  78.2619470
   8.3199208  47.6635253  77.9599311  10.3015440  47.3465788  74.6063054
   9.3511071  47.3467650  74.4927426  10.6047926  46.5998523  74.0899088
  14.1877996  25.2639675  70.7741234  13.4210391  24.7098161  70.9197916
  14.5988701  25.3361543  71.6355386   6.1919757  31.5524470  84.8646415
   7.0551218  31.1961275  85.0749740   5.6185167  31.2138365  85.5521819
  26.0368134  53.1826327  75.6708816  26.6746544  53.0633074  74.9672156
  25.9188977  54.1307171  75.7296768  22.8457840  53.1353755  75.6070341
  22.5076351  53.0194820  74.7190876  23.7147608  52.7344920  75.5871347
  18.7044656  54.9889231  71.5967232  18.1409521  54.8979168  70.8283520
  18.5897051  54.1689136  72.0769724  23.3277623  54.2888607  81.5656546
  23.3166264  53.8941405  80.6937050  23.4898262  53.5554679  82.1590318
  16.2509088  56.4840423  74.4351452  17.0430379  56.1431248  74.0197752
  16.4905738  56.5935398  75.3553606  24.2844214  58.6560199  66.9081697
  23.6332194  59.2414279  66.5215711  25.0788577  59.1866394  66.9676734
  18.2099841  55.7449336  67.3068831  18.9830717  55.1978323  67.1681707
  18.5625240  56.6093586  67.5183293  20.0484884  57.0725718  80.5135730
  19.7574750  57.9771349  80.3982397  20.6841868  57.1142246  81.2279800
  20.9741091  54.4502567  77.1037090  21.5704663  54.2258589  76.3894053
  21.0316062  53.7087312  77.7062538  20.5466119  51.9042002  64.9387281
  20.7991640  51.3823524  64.1770744  19.6090678  51.7408148  65.0413965
  25.5909402  50.9077781  72.7462024  26.3772491  50.4897204  72.3952441
  25.8548106  51.8123873  72.9143673  25.7619479  56.3450631  67.4450681
  25.1265312  56.4185258  68.1571586  25.4316886  56.9344230  66.7669760
  30.9917829  50.8453014  73.6495003  31.7243001  50.2752231  73.8832832
  30.2357185  50.4574614  74.0901508  20.2662408  53.8070108  67.1411656
  20.1498666  53.1315012  67.8092740  20.3764668  53.3202482  66.3243809
  22.6093949  53.2680255  70.8458345  22.2452156  52.7410876  71.5571267
  23.4661065  52.8778724  70.6724831  28.5143250  44.5574588  78.1089611
  28.1826574  45.4269999  77.8850826  27.9188863  44.2410872  78.7883642
  22.2499436  48.2970155  65.8419694  22.4173838  49.1650392  66.2090165
  22.0596605  48.4597437  64.9180983  25.0074769  56.7587134  77.5085524
  24.7075492  57.6612173  77.4001331  24.6625829  56.4919317  78.3606677
  18.4587251  53.2100931  73.5422229  17.5337747  53.0777145  73.7499920
  18.7071664  53.9895150  74.0392171  28.4071913  49.2769674  75.1882961
  27.4988790  49.2085083  74.8941722  28.3559509  49.7541619  76.0164787
  22.2288657  50.7527813  66.8266361  22.1088282  51.1984863  67.6651841
  21.5341245  51.1013130  66.2679899  15.8196062  52.8534204  74.3766018
  15.9488443  53.1068683  75.2905429  15.1393513  53.4461912  74.0570673
  19.9895549  63.5231454  70.4756492  19.9119579  64.4739279  70.5544972
  19.3857193  63.1777327  71.1331418  22.4812779  50.6959320  83.1317859
  21.7046113  51.2553240  83.1220723  23.1203342  51.1816103  83.6532729
  30.2733559  47.4786113  76.9660835  29.6307940  47.7718646  76.3200630
  29.7688488  47.3639033  77.7714032  27.9273723  51.2249286  67.6546695
  28.8391579  51.4576673  67.4794392  27.4183370  51.8086330  67.0921773
  20.7359151  53.5044773  82.6935826  21.4773835  54.0429817  82.4170649
  20.0296136  54.1311062  82.8507378  26.2114491  55.6473914  81.2907987
  26.6197847  55.2056324  80.5462620  25.4891752  55.0726541  81.5442180
  22.5645561  50.5846520  78.6641544  23.4106756  51.0085934  78.8076193
  22.5044198  49.9280145  79.3580107  26.5343305  56.2075104  75.0460276
  25.9052168  56.3720818  74.3436344  26.1468967  56.6216714  75.8171240
  30.4132537  57.1429542  72.4004640  29.7283575  57.5228443  71.8501673
  30.4976386  57.7524869  73.1336588  25.7145006  48.2450889  80.3222718
  25.4705938  48.9992949  79.7856993  25.9904937  48.6236236  81.1569965
  27.6683469  54.7889501  78.9999983  27.8800364  55.4321261  78.3234364
  27.6213217  53.9551818  78.5321913  25.2709698  47.4007322  75.9036556
  24.4094177  47.6988575  76.1953293  25.2972132  47.6177721  74.9717588
  22.0871267  55.9449512  72.3110361  22.5509613  56.2237215  71.5214984
  21.8228065  55.0432957  72.1283452  18.9795348  55.4920994  75.2490124
  19.5496705  55.9208262  74.6107609  19.5703460  55.2103579  75.9474310
  21.0240153  52.0672665  69.1199926  21.7264197  52.5193708  69.5873853
  20.6920782  51.4256484  69.7479819  19.4720515  50.6584421  83.4951136
  18.8419175  51.3400702  83.7286533  19.3656603  50.5467503  82.5504274
  14.7665487  50.3256217  74.4217060  13.9764541  50.5813746  73.9457170
  15.2576735  51.1404555  74.5269100  28.7829297  57.6661457  77.1722341
  29.6046740  57.2641644  76.8905022  28.7791700  57.5629691  78.1238457
  16.7180233  50.6900797  71.3800537  15.9211396  50.8019491  71.8984032
  16.4905825  51.0287449  70.5141427  22.5485900  57.2145500  79.3283051
  22.6130333  57.6765907  80.1641223  21.8396824  56.5842865  79.4565361
  13.0503190  50.5786708  76.8532051  13.3011229  51.4633718  77.1189627
  13.5862739  50.3991309  76.0807143  22.2633918  58.8813607  69.1962032
  22.1279593  59.7265143  69.6246879  22.8043730  59.0832885  68.4327965
  18.7501257  44.9605187  85.8576387  18.3568203  44.4071386  86.5324031
  19.5667398  45.2715766  86.2482904  15.7163315  56.3989045  69.7689957
  16.2287836  57.1932296  69.9195521  16.3686028  55.7015336  69.7023558
  17.5258200  59.5154802  71.8512710  17.7024828  60.4372766  71.6633694
  18.3215033  59.2013221  72.2807090  21.6669218  46.3763066  83.4496643
  22.4078932  46.9770219  83.3701106  21.8987141  45.6340704  82.8914686
  16.8110556  51.5619434  81.7274873  16.6964072  50.6604691  82.0281972
  15.9555074  51.8083130  81.3759690  23.8902394  59.5037174  83.3262374
  23.4466248  58.7173552  83.0083278  24.5519608  59.6916324  82.6606264
  18.6489515  61.0332975  77.8523052  19.1996941  60.9050039  77.0800046
  17.8100991  61.3327864  77.5017945  25.9883632  59.7839974  81.3543775
  25.9702108  60.6048855  80.8624044  26.9103552  59.6594049  81.5793916
  22.4456686  57.2984103  82.1967283  22.9785023  56.5372391  81.9666591
  21.9170768  57.0057755  82.9391438  25.6126381  42.4044169  77.7260925
  25.2690651  43.2945811  77.6500036  25.9805344  42.2145827  76.8630510
  13.6812232  54.7277700  70.5449527  14.5187454  55.1374708  70.3283235
  13.8590500  53.7877142  70.5149721  25.5776664  52.3952780  66.2333360
  25.0623288  53.1657385  66.4721748  25.3053973  51.7217916  66.8566422
  23.1623775  47.2402481  71.2918598  22.3065371  46.8509331  71.1124237
  23.5750727  47.3194442  70.4318384  24.6922922  44.7748824  75.6910158
  24.1887717  44.7378960  74.8777964  24.9853529  45.6841567  75.7506815
  20.9365808  44.8587554  74.6976340  21.8018804  44.6630363  74.3382229
  21.0043317  44.6297906  75.6245697  25.3662967  50.2679872  68.0593141
  25.0613103  50.5826022  68.9103284  26.3193409  50.3461292  68.1020474
  23.8109399  56.4270096  69.7086095  23.2830761  55.6922855  69.3959333
  23.3096902  57.2044772  69.4626064  28.7902245  54.6219116  74.8253142
  28.1325920  55.3118378  74.9133270  29.5942644  55.0115548  75.1687128
  18.5428127  47.0889762  72.0692707  19.1171879  46.8664943  71.3365900
  19.1299109  47.1578456  72.8221308  27.6007704  52.9763489  72.8757083
  28.1139586  53.6093481  73.3778793  28.2508928  52.3764684  72.5100443
  18.8697714  49.1194223  66.0888592  18.0335026  49.4568910  66.4097867
  18.7302484  48.9843203  65.1515729  20.8450794  43.9631011  70.7967776
  20.1915207  43.6480028  70.1724391  20.8031269  43.3406751  71.5227599
  21.9561999  54.2450306  62.7121068  21.0489061  54.0139559  62.9112217
  22.4533031  53.4487925  62.8995050  24.8630078  62.9547813  65.6317754
  24.1891777  63.2579510  66.2402712  25.2495900  63.7576894  65.2823212
  24.0788535  50.4512944  75.1215424  23.1611096  50.6727891  74.9637112
  24.4948678  50.5259255  74.2627131  24.8623583  51.8504360  70.2518104
  25.6095402  52.3625757  69.9425226  25.1315172  51.5288413  71.1122498
  23.1350233  54.3462901  67.2345058  22.2261452  54.0621934  67.3317528
  23.1645317  54.7661979  66.3748365  28.3669500  57.9569490  71.0036226
  27.9131827  57.1160400  71.0601416  27.7363467  58.5930889  71.3411006
  27.3102420  48.8861476  72.2336893  26.5725177  48.3738863  72.5647136
  27.5629193  48.4461858  71.4220170  26.8102439  59.7945987  71.9386044
  27.1025414  60.3551044  71.2198410  27.3201060  60.0874548  72.6939203
  27.4114047  41.6637728  72.8278663  27.7172924  40.8035092  72.5404578
  28.1366652  42.2555349  72.6277657  13.7038403  52.0668415  71.2160261
  13.5062803  51.4737776  70.4911327  13.1485067  51.7620625  71.9336199
  21.6835127  51.9591521  73.3354854  21.7383737  51.0065358  73.2597330
  20.8726329  52.1150961  73.8196152  22.8326321  55.8871645  64.5733137
  22.3945750  55.1707503  64.1138774  23.5736761  56.1147759  64.0118228
  19.6227487  50.5768581  71.0945233  18.8095352  50.8762752  71.5010425
  20.1186481  50.1824270  71.8119715  21.7736065  60.5726338  73.0279497
  21.7312243  60.7987184  72.0988029  22.6898763  60.3389713  73.1765298
  25.2201698  51.0410406  79.9260127  25.5751086  51.2681879  80.7854592
  25.8673830  51.3728782  79.3037382  30.9499435  54.1628842  70.6309456
  30.8117334  54.3530438  69.7030645  30.5935654  54.9248224  71.0877507
  19.1141561  48.1486937  76.7106468  19.7540941  48.0075696  76.0129431
  18.2819092  47.8621450  76.3345070  30.9768815  56.2305369  75.6420727
  31.4105322  56.1380658  76.4903781  31.6900396  56.2062869  75.0040743
  19.8901865  57.4489367  72.8241460  20.6842464  56.9539687  72.6224035
  19.1793558  56.9207230  72.4609166  24.7096710  59.8307463  77.1753828
  24.7633732  60.3998399  77.9431544  23.8411491  60.0009348  76.8107865
  16.1984629  51.5932449  68.9001213  15.2682217  51.5316904  69.1171175
  16.2942101  51.0708402  68.1037854  16.1170178  48.1187262  71.4879454
  16.3776995  49.0332595  71.3788615  16.9387350  47.6511704  71.6376067
  17.5895103  49.5325019  78.6578279  18.2618157  49.3242381  78.0090928
  16.7624890  49.3347105  78.2183511  31.8384365  56.2729069  78.1753612
  32.0320255  57.1774880  78.4212887  31.7384983  55.8136488  79.0092197
  23.4920675  46.1586960  80.6743940  22.8448590  46.8576909  80.5808416
  24.2621691  46.5923104  81.0420188  26.8999473  56.4235812  83.7494493
  26.7484980  56.1946364  82.8324577  26.8904153  57.3806413  83.7625838
  23.6684810  53.9967725  78.7340759  24.5976870  54.1478884  78.5609727
  23.2475840  54.0851745  77.8789406  22.4673141  58.0218389  76.5039297
  22.3284227  57.6537174  77.3765235  21.6787738  58.5366029  76.3323255
  23.0621293  63.1227486  67.8464834  23.2373049  62.6515529  68.6610456
  22.3754081  63.7493252  68.0746094  24.0178357  57.3999992  73.8928135
  23.6828189  57.3600762  74.7885785  23.5182302  56.7344708  73.4198545
  17.9922600  52.8067622  79.4180716  17.8542398  52.0747861  80.0192255
  18.9027524  52.7176522  79.1364904  26.9537548  54.7456026  64.1665195
  26.3366719  54.0202854  64.0698247  26.4854037  55.5065386  63.8232269
  20.6204901  52.5187581  78.9064396  21.3304520  51.8780773  78.8651014
  20.5774209  52.7700476  79.8290576  28.6091680  59.4554935  81.8270975
  28.5504226  58.7714155  81.1601558  29.0111198  60.1973925  81.3751601
  19.3333835  49.5052799  80.7260035  18.7971192  49.0543538  81.3781632
  18.7450544  49.6398708  79.9830500  17.6282379  66.2716848  74.6204694
  17.8678977  66.9035373  75.2983712  16.7851575  65.9204888  74.9070053
  18.7436094  48.9641450  63.2886499  17.8665560  48.8430251  62.9248746
  19.2193847  48.1727529  63.0365387  28.6109087  57.4194518  80.0584955
  27.7235866  57.0820440  80.1811353  29.1807638  56.6877550  80.2953720
  10.2638234  53.7518610  73.3828006  10.9509274  53.4380340  72.7949021
  10.1086363  54.6559975  73.1095257  15.0672956  48.6408807  77.8113030
  14.9831145  48.0334476  77.0763440  14.2455663  49.1317825  77.8122526
  22.1410241  62.0795971  77.0246198  22.0680412  62.8850942  77.5365502
  21.6987634  62.2787937  76.1994219  21.9300020  61.3167741  70.5349019
  21.1467542  61.8589421  70.6287244  22.6292765  61.8341720  70.9343261
  25.2396670  47.1262370  73.1783225  25.7365370  46.3732333  72.8584295
  24.4683652  47.1626687  72.6126434  33.0926428  52.8302736  74.8201516
  33.0816304  53.7127451  74.4495449  32.2243807  52.4774287  74.6256053
  24.6008924  61.9782805  79.1804356  25.3136896  62.6130270  79.1080258
  24.1098953  62.0746671  78.3644358  26.3226451  55.8834058  70.7521648
  25.3882730  56.0035520  70.5826352  26.5003119  54.9806524  70.4881658
  21.8231639  49.2679753  72.9054909  21.4529427  48.7150794  73.5935815
  22.3190731  48.6637887  72.3529909  29.7099002  51.7251377  71.2871682
  30.1759454  52.5579368  71.2131985  30.1606503  51.2596358  71.9916941
  19.6520838  59.7277248  80.0009927  20.3530297  60.3613731  80.1539322
  19.1815953  60.0691980  79.2405567  27.7775233  58.0695198  68.2857834
  28.0535077  57.9551793  69.1951708  26.9079732  57.6712683  68.2470007
  27.6815665  44.0931964  75.3262584  26.7678745  44.3236191  75.4944791
  28.1108766  44.1770408  76.1776616  27.4522124  52.2821856  77.8262478
  26.7993574  52.5297763  77.1714930  27.8302503  51.4685994  77.4924955
  24.4129297  62.3181549  71.9290648  24.5951692  61.5003205  72.3918400
  25.2362283  62.5349241  71.4915538  24.7471463  61.2449734  69.1905696
  25.2759229  60.7342189  68.5775859  25.0099682  60.9292264  70.0551229
  23.5009697  53.0241667  84.3128515  22.8250334  52.9235796  84.9830890
  24.3237330  52.8680881  84.7764512  15.2488556  59.2613603  76.9341030
  15.8341992  58.5157291  77.0668934  15.0513394  59.5717560  77.8177694
  18.1027211  62.2964851  71.9503472  17.4337586  62.7810978  71.4667512
  17.9640081  62.5434071  72.8646851   9.8406210  51.8319204  75.6545473
   9.8790310  51.2982794  76.4482591   9.3346503  51.3054409  75.0356450
  22.2432479  64.3308594  78.5486131  22.7950787  64.4940216  79.3135216
  22.5838673  64.9213032  77.8766156  17.2196973  46.6783744  79.1508015
  17.2838299  47.5398575  78.7385413  17.1564093  46.0657746  78.4180374
  16.6949245  48.7506877  82.7981050  17.3221284  48.3683954  83.4118574
  15.8377164  48.5321079  83.1636742  27.0943354  59.1569852  84.4034785
  27.6383258  59.7699810  83.9089740  26.5130199  59.7149430  84.9201798
  13.4714788  50.5583306  68.7299404  13.7668229  49.6493984  68.6766458
  12.5702824  50.5371045  68.4080407  25.3800867  62.2790570  75.5349813
  25.2552006  61.4780310  75.0260758  26.0379958  62.7736763  75.0463783
  17.0009035  48.6339302  74.7126953  16.2795621  49.2475270  74.5734426
  17.7902291  49.1697067  74.6343599  27.4435775  60.0799590  77.1629363
  26.4966111  59.9604941  77.0907690  27.7918548  59.1922088  77.2455624
  19.8035348  45.9693729  80.9867605  20.3269750  46.2156025  81.7493914
  19.5847682  46.8013764  80.5670742  15.2002630  48.2397403  68.8538730
  14.8715336  47.3594782  68.6713836  15.5542000  48.1845072  69.7415119
  24.4482208  59.8752306  73.3633715  24.3007171  58.9469013  73.5441285
  25.2735702  59.8972397  72.8790790  18.3144453  48.5270373  69.2214207
  18.6540525  49.0556294  68.4992816  18.7616573  48.8650779  69.9972774
  28.0516330  60.6980865  74.4498588  28.9762878  60.4923726  74.3123039
  27.8831634  60.4497266  75.3587929  21.0087893  46.9107424  78.6717275
  20.6684714  46.1115237  79.0737955  20.3026900  47.2109135  78.0994109
  21.6604365  43.9956736  77.1244598  22.4830435  43.5217214  77.0023489
  21.9042429  44.7747220  77.6243285  20.3012600  47.0244995  67.4207500
  21.0220962  47.4026248  66.9171217  19.6777904  47.7433872  67.5242478
  24.4443723  47.7290144  68.3565832  24.6607337  48.6114782  68.0554661
  23.9637790  47.3376357  67.6271474  19.1842944  50.6875857  74.9336577
  19.0387525  51.0016160  75.8260859  18.7068148  51.3060757  74.3807476
  21.0439327  47.6778405  74.9817467  21.0300896  46.7819498  74.6449765
  21.7611755  47.6849069  75.6155753  22.8965458  48.1115745  77.0270594
  22.6383235  49.0332816  77.0254924  22.3650498  47.7146180  77.7171058
  27.8411646  61.2166532  69.8060679  28.0148524  60.6512955  69.0534532
  28.3340538  62.0167427  69.6240169  13.6588606  53.2281201  77.8724238
  13.1142074  54.0041009  78.0044513  14.5367956  53.5752006  77.7143360
  20.4476223  46.5592785  70.2505037  20.5692134  45.6309431  70.4495924
  20.1578265  46.5731471  69.3383352  23.3167413  44.2447696  73.3871757
  23.3389110  44.3087029  72.4323736  23.7335472  43.4052204  73.5812263
  33.6951038  53.9802955  71.4250979  34.1382184  53.2310280  71.0270102
  32.8177548  53.9713092  71.0424711  28.8286819  60.5333297  66.9057578
  29.5237724  61.1539989  67.1244892  29.1709969  59.6828648  67.1809956
  14.4454628  52.3551098  80.7654395  13.7036364  52.5033733  81.3519025
  14.1247372  52.6159363  79.9021144  22.3898291  61.8967076  80.5634785
  22.6985417  61.6516223  81.4357485  23.1873773  62.1013714  80.0753655
  22.4118903  64.0504985  72.7940162  21.9723893  63.5581364  73.4873018
  23.1627020  63.5077953  72.5532237  14.8911242  60.2416526  72.7964790
  15.7169262  59.9420298  72.4163433  14.5405294  59.4724149  73.2454578
  19.8592775  59.5942995  74.8662463  19.2372784  58.9313700  74.5664691
  20.5297642  59.6204126  74.1836111  13.0919847  58.1602853  73.7553723
  12.2551755  57.7325027  73.5737725  13.0643492  58.3535296  74.6924514
  19.9317302  48.0724783  84.4594969  19.9805458  48.9486905  84.0772739
  20.4739817  47.5302176  83.8866613  30.4172148  58.6165906  83.7396106
  29.6267692  58.5990045  83.2000606  30.1805503  59.1554200  84.4945143
  30.5370023  55.4658372  81.0528835  30.5868028  55.3008380  81.9944358
  30.4283947  54.5985631  80.6626716  19.4206282  58.1446918  68.3420924
  19.5694402  58.8282382  67.6887597  20.2272725  58.1252008  68.8570380
  27.8273786  51.4489300  82.3688142  28.7283648  51.3095765  82.0772139
  27.9021760  51.6143755  83.3086319  22.1616591  48.8256155  81.2141328
  21.2919900  49.1189721  80.9423917  22.3976071  49.4096600  81.9348592
  32.0388220  57.8855314  81.2970856  31.7473028  58.2485294  82.1334317
  31.4260351  57.1722322  81.1184189  30.2875408  53.0087928  79.7650914
  30.7629530  53.2015575  78.9569766  29.3640974  53.0647114  79.5194298
  17.1758915  54.1712096  69.3481993  16.9304957  53.2674426  69.5462203
  17.3454829  54.1729246  68.4061471  24.8655625  45.0435772  78.7306748
  25.3837569  45.7796799  78.4053237  24.5110757  45.3499765  79.5653507
  16.4454562  49.9040453  66.8468154  15.7523807  49.9784808  66.1908190
  16.2006314  49.1400797  67.3689671  25.1168219  41.4636054  74.2507645
  25.3969973  40.7959244  74.8768071  25.9018826  41.6565150  73.7382309
  22.9201687  60.6395048  65.8132671  22.3475654  61.2585235  65.3603143
  23.4934481  61.1894410  66.3472593  28.9877077  49.8853688  77.9979220
  29.9394500  49.9851786  78.0191444  28.8180528  49.0931957  78.5077304
  27.0091457  46.9709272  78.1838621  26.4141389  47.2514284  77.4885110
  26.7241153  47.4603173  78.9555362  26.1398947  60.9232198  66.9441254
  27.0729620  60.8577760  67.1474129  26.0522160  61.7588465  66.4855786
  28.7686964  60.2398069  63.9045201  28.6900595  59.9057932  64.7980959
  29.5896631  60.7319837  63.9036673  31.4665155  53.1059808  77.1121520
  31.4341475  52.1675809  77.2981204  32.0765779  53.1843845  76.3787345
  23.3048486  51.9755861  63.1548724  24.2507591  51.8462069  63.2237142
  22.9262731  51.2370523  63.6318152  31.6159643  49.8970852  77.1579803
  31.0998692  49.1129308  76.9709732  32.4999592  49.5689568  77.3226322
  29.2770370  43.6411867  73.1175616  29.0795192  43.3326955  74.0018948
  29.8870076  44.3673506  73.2473545  23.1887178  56.0273607  84.6149381
  24.1090188  56.2052206  84.8089427  23.1536761  55.0829653  84.4629080
  21.4891403  49.9005837  63.0903609  20.5822858  49.6038950  63.1666323
  21.7667384  49.6035656  62.2237895  12.4069343  51.2212201  73.5402655
  12.0872128  50.3677509  73.2477029  11.8602772  51.4360779  74.2960623
  16.1849251  53.9374642  77.2572162  16.4035261  54.8691750  77.2760196
  16.5975025  53.5782616  78.0426966  23.1053469  44.4442727  69.2447850
  22.2954197  44.0989812  69.6203096  23.7937886  44.1350271  69.8335462
  25.0344017  43.5220774  70.8672147  25.5875056  43.9416227  71.5262170
  25.2714103  42.5956522  70.9095103  21.0577116  49.5107848  86.6474911
  20.9573843  50.4602205  86.5787002  20.8398658  49.1826087  85.7750981
  20.2590188  46.7592773  63.2315588  21.1209352  47.0847671  63.4911406
  20.4440532  45.9724269  62.7188654  12.2757603  54.8415112  75.5095777
  11.5821075  54.4269065  74.9965731  13.0230594  54.8835649  74.9129196
  28.4122824  45.6321299  70.3750811  27.8321493  46.2906103  69.9928864
  28.1458757  44.8098644  69.9638229  26.8626390  45.0326357  72.5772132
  27.3626169  45.1442891  71.7686450  27.5061998  44.7287410  73.2172940
  20.9208386  52.9404986  85.4639972  20.4375468  53.7405347  85.6703862
  21.0069325  52.9512931  84.5107416  14.1894346  54.7733366  73.3861792
  14.1665034  54.8721053  72.4343675  14.4994982  55.6198517  73.7078958
  16.8481724  56.8309521  77.5008406  17.8024977  56.7993464  77.4338338
  16.6494247  56.3700145  78.3158632  17.4381106  55.4010637  80.0679204
  18.2573995  55.8954716  80.0914041  17.7117914  54.4842605  80.0396771
  27.1947702  47.7921390  69.4307159  26.3073557  48.0771040  69.2127354
  27.6101691  47.6315153  68.5834436  30.5462238  47.8167911  73.1461499
  31.3222628  48.3064363  73.4186116  29.8210372  48.2425965  73.6033368
  32.9834797  48.5295530  74.2035439  33.5779288  48.2891266  73.4928748
  33.0561381  47.8102660  74.8308976  15.2031953  62.3729141  74.5178604
  15.0686421  61.6129542  73.9516602  14.7864015  63.0970041  74.0507393
  26.3390916  57.5566064  63.5255179  27.0426766  57.7616067  64.1412835
  25.6153564  58.1242826  63.7904263  27.1688726  53.3075925  69.6457450
  27.1123927  53.7644477  68.8065082  27.7217068  52.5466610  69.4680292
  30.9793532  49.0965657  70.4707569  30.7230466  48.6962293  71.3015777
  30.3546400  49.8109451  70.3457708  18.3601078  63.2698458  74.7297047
  18.2433463  64.2143890  74.6275737  17.5393525  62.9672019  75.1182846
  28.2477613  57.9948593  65.5753639  29.0823217  57.5629792  65.3931114
  28.0861956  57.8230607  66.5030534  27.9023505  54.4980707  66.9409979
  27.8472309  54.3324978  65.9998423  27.2769560  55.2056740  67.0972168
  12.6916020  49.7348771  80.7671401  13.3374884  49.2247725  81.2558626
  12.4833171  50.4717453  81.3414826  25.2169412  56.8029619  86.2663542
  26.0860572  56.9770271  85.9050176  24.7376164  57.6224035  86.1439271
  21.2119631  43.9988816  66.5195297  21.1998300  44.9430656  66.6763568
  22.1043053  43.8158961  66.2254758  19.3855593  63.9226720  77.9452975
  20.2882839  63.9550330  78.2619470  19.1592963  62.9927171  77.9599311
  21.1409195  62.6757706  74.6063054  20.1904826  62.6759568  74.4927426
  21.4441681  61.9290441  74.0899088  25.0271750  40.5931592  70.7741234
  24.2604146  40.0390079  70.9197916  25.4382455  40.6653461  71.6355386
  17.0313511  46.8816388  84.8646415  17.8944973  46.5253193  85.0749740
  16.4578922  46.5430283  85.5521819  27.0902842  71.8132341  74.4351452
  27.8824134  71.4723165  74.0197752  27.3299492  71.9227316  75.3553606
  30.8878639  72.4017636  80.5135730  30.5968505  73.3063267  80.3982397
  31.5235623  72.4434164  81.2279800  31.8134845  69.7794485  77.1037090
  32.4098418  69.5550507  76.3894053  31.8709817  69.0379230  77.7062538
  29.2981005  68.5392849  73.5422229  28.3731502  68.4069063  73.7499920
  29.5465418  69.3187068  74.0392171  26.6589816  68.1826122  74.3766018
  26.7882197  68.4360601  75.2905429  25.9787267  68.7753830  74.0570673
  31.5752905  68.8336691  82.6935826  32.3167590  69.3721735  82.4170649
  30.8689891  69.4602980  82.8507378  29.8189103  70.8212912  75.2490124
  30.3890460  71.2500180  74.6107609  30.4097215  70.5395496  75.9474310
  30.3114269  65.9876339  83.4951136  29.6812930  66.6692620  83.7286533
  30.2050357  65.8759421  82.5504274  25.6059242  65.6548135  74.4217060
  24.8158296  65.9105664  73.9457170  26.0970489  66.4696473  74.5269100
  27.5573987  66.0192714  71.3800537  26.7605150  66.1311409  71.8984032
  27.3299579  66.3579366  70.5141427  23.8896945  65.9078625  76.8532051
  24.1404983  66.7925635  77.1189627  24.4256493  65.7283227  76.0807143
  29.5895012  60.2897105  85.8576387  29.1961958  59.7363303  86.5324031
  30.4061152  60.6007683  86.2482904  32.5062973  61.7054984  83.4496643
  33.2472686  62.3062137  83.3701106  32.7380896  60.9632622  82.8914686
  27.6504311  66.8911351  81.7274873  27.5357826  65.9896608  82.0281972
  26.7948829  67.1375048  81.3759690  29.4883270  76.3624893  77.8523052
  30.0390695  76.2341956  77.0800046  28.6494746  76.6619782  77.5017945
  33.2850441  72.6276021  82.1967283  33.8178778  71.8664309  81.9666591
  32.7564522  72.3349673  82.9391438  24.5205986  70.0569617  70.5449527
  25.3581208  70.4666626  70.3283235  24.6984254  69.1169059  70.5149721
  31.7759562  60.1879472  74.6976340  32.6412559  59.9922280  74.3382229
  31.8437071  59.9589824  75.6245697  29.3821881  62.4181680  72.0692707
  29.9565633  62.1956861  71.3365900  29.9692864  62.4870374  72.8221308
  31.6844549  59.2922929  70.7967776  31.0308961  58.9771946  70.1724391
  31.6425023  58.6698669  71.5227599  24.5432158  67.3960333  71.2160261
  24.3456557  66.8029693  70.4911327  23.9878822  67.0912543  71.9336199
  29.9535316  63.4778854  76.7106468  30.5934695  63.3367613  76.0129431
  29.1212847  63.1913368  76.3345070  27.0378383  66.9224367  68.9001213
  26.1075971  66.8608822  69.1171175  27.1335855  66.4000319  68.1037854
  26.9563932  63.4479179  71.4879454  27.2170750  64.3624513  71.3788615
  27.7781105  62.9803622  71.6376067  28.4288858  64.8616937  78.6578279
  29.1011911  64.6534299  78.0090928  27.6018644  64.6639023  78.2183511
  34.3314430  61.4878877  80.6743940  33.6842345  62.1868827  80.5808416
  35.1015445  61.9215021  81.0420188  34.5078564  69.3259642  78.7340759
  35.4370624  69.4770802  78.5609727  34.0869594  69.4143663  77.8789406
  28.8316355  68.1359540  79.4180716  28.6936153  67.4039778  80.0192255
  29.7421278  68.0468440  79.1364904  31.4598656  67.8479499  78.9064396
  32.1698274  67.2072691  78.8651014  31.4167964  68.0992394  79.8290576
  30.1727590  64.8344717  80.7260035  29.6364947  64.3835455  81.3781632
  29.5844298  64.9690626  79.9830500  28.4676133  81.6008766  74.6204694
  28.7072731  82.2327290  75.2983712  27.6245330  81.2496806  74.9070053
  21.1031989  69.0810528  73.3828006  21.7903029  68.7672258  72.7949021
  20.9480117  69.9851893  73.1095257  25.9066711  63.9700724  77.8113030
  25.8224900  63.3626394  77.0763440  25.0849417  64.4609743  77.8122526
  30.4914592  75.0569166  80.0009927  31.1924052  75.6905649  80.1539322
  30.0209707  75.3983898  79.2405567  26.0882310  74.5905521  76.9341030
  26.6735747  73.8449209  77.0668934  25.8907149  74.9009478  77.8177694
  20.6799965  67.1611121  75.6545473  20.7184064  66.6274712  76.4482591
  20.1740258  66.6346327  75.0356450  33.0826234  79.6600512  78.5486131
  33.6344542  79.8232133  79.3135216  33.4232427  80.2504950  77.8766156
  28.0590727  62.0075662  79.1508015  28.1232054  62.8690493  78.7385413
  27.9957847  61.3949663  78.4180374  27.5343000  64.0798794  82.7981050
  28.1615038  63.6975872  83.4118574  26.6770919  63.8612996  83.1636742
  24.3108542  65.8875223  68.7299404  24.6061984  64.9785902  68.6766458
  23.4096578  65.8662963  68.4080407  27.8402789  63.9631220  74.7126953
  27.1189375  64.5767188  74.5734426  28.6296045  64.4988985  74.6343599
  30.6429103  61.2985646  80.9867605  31.1663505  61.5447943  81.7493914
  30.4241436  62.1305681  80.5670742  26.0396384  63.5689321  68.8538730
  25.7109090  62.6886700  68.6713836  26.3935755  63.5136990  69.7415119
  32.4998120  59.3248654  77.1244598  33.3224189  58.8509132  77.0023489
  32.7436183  60.1039138  77.6243285  30.0236699  66.0167775  74.9336577
  29.8781279  66.3308078  75.8260859  29.5461902  66.6352675  74.3807476
  24.4982361  68.5573119  77.8724238  23.9535829  69.3332927  78.0044513
  25.3761711  68.9043923  77.7143360  25.2848383  67.6843015  80.7654395
  24.5430119  67.8325651  81.3519025  24.9641127  67.9451281  79.9021144
  33.2512657  79.3796903  72.7940162  32.8117648  78.8873282  73.4873018
  34.0020774  78.8369871  72.5532237  30.6986529  74.9234912  74.8662463
  30.0766539  74.2605617  74.5664691  31.3691396  74.9496044  74.1836111
  23.9313601  73.4894770  73.7553723  23.0945510  73.0616945  73.5737725
  23.9037247  73.6827214  74.6924514  30.7711057  63.4016700  84.4594969
  30.8199212  64.2778823  84.0772739  31.3133571  62.8594093  83.8866613
  33.0010345  64.1548073  81.2141328  32.1313655  64.4481639  80.9423917
  33.2369826  64.7388518  81.9348592  23.2463098  66.5504119  73.5402655
  22.9265882  65.6969427  73.2477029  22.6996526  66.7652697  74.2960623
  27.0243005  69.2666560  77.2572162  27.2429015  70.1983667  77.2760196
  27.4368779  68.9074534  78.0426966  31.8970871  64.8399765  86.6474911
  31.7967598  65.7894122  86.5787002  31.6792413  64.5118004  85.7750981
  31.0983942  62.0884690  63.2315588  31.9603106  62.4139589  63.4911406
  31.2834286  61.3016186  62.7188654  23.1151358  70.1707030  75.5095777
  22.4214829  69.7560983  74.9965731  23.8624349  70.2127567  74.9129196
  25.0288100  70.1025284  73.3861792  25.0058789  70.2012971  72.4343675
  25.3388737  70.9490435  73.7078958  27.6875478  72.1601439  77.5008406
  28.6418732  72.1285381  77.4338338  27.4888002  71.6992063  78.3158632
  28.2774860  70.7302555  80.0679204  29.0967749  71.2246634  80.0914041
  28.5511668  69.8134523  80.0396771  26.0425707  77.7021058  74.5178604
  25.9080175  76.9421459  73.9516602  25.6257769  78.4261958  74.0507393
  29.1994833  78.5990375  74.7297047  29.0827217  79.5435808  74.6275737
  28.3787279  78.2963937  75.1182846  23.5309775  65.0640689  80.7671401
  24.1768638  64.5539643  81.2558626  23.3226926  65.8009370  81.3414826
  30.2249347  79.2518637  77.9452975  31.1276594  79.2842248  78.2619470
  29.9986717  78.3219088  77.9599311  31.9802949  78.0049624  74.6063054
  31.0298580  78.0051485  74.4927426  32.2835435  77.2582358  74.0899088
  27.8707266  62.2108306  84.8646415  28.7338727  61.8545111  85.0749740
  27.2972676  61.8722201  85.5521819  47.7155643  83.8410162  75.6708816
  48.3534053  83.7216910  74.9672156  47.5976485  84.7891006  75.7296768
  44.5245349  83.7937590  75.6070341  44.1863860  83.6778655  74.7190876
  45.3935117  83.3928755  75.5871347  40.3832165  85.6473067  71.5967232
  39.8197030  85.5563004  70.8283520  40.2684560  84.8272971  72.0769724
  45.0065132  84.9472442  81.5656546  44.9953773  84.5525240  80.6937050
  45.1685771  84.2138515  82.1590318  37.9296597  87.1424258  74.4351452
  38.7217888  86.8015083  74.0197752  38.1693247  87.2519233  75.3553606
  45.9631723  89.3144034  66.9081697  45.3119703  89.8998115  66.5215711
  46.7576086  89.8450229  66.9676734  39.8887350  86.4033172  67.3068831
  40.6618226  85.8562159  67.1681707  40.2412749  87.2677421  67.5183293
  41.7272393  87.7309554  80.5135730  41.4362259  88.6355185  80.3982397
  42.3629377  87.7726081  81.2279800  42.6528600  85.1086402  77.1037090
  43.2492172  84.8842425  76.3894053  42.7103571  84.3671148  77.7062538
  42.2253628  82.5625838  64.9387281  42.4779149  82.0407359  64.1770744
  41.2878187  82.3991983  65.0413965  47.4406988  87.0034466  67.4450681
  46.8052821  87.0769093  68.1571586  47.1104395  87.5928065  66.7669760
  41.9449917  84.4653944  67.1411656  41.8286175  83.7898847  67.8092740
  42.0552177  83.9786318  66.3243809  44.2881458  83.9264091  70.8458345
  43.9239665  83.3994712  71.5571267  45.1448574  83.5362560  70.6724831
  46.6862278  87.4170969  77.5085524  46.3863001  88.3196008  77.4001331
  46.3413338  87.1503153  78.3606677  43.9076166  81.4111648  66.8266361
  43.7875791  81.8568699  67.6651841  43.2128754  81.7596966  66.2679899
  37.4983571  83.5118040  74.3766018  37.6275952  83.7652519  75.2905429
  36.8181022  84.1045748  74.0570673  41.6683058  94.1815290  70.4756492
  41.5907088  95.1323115  70.5544972  41.0644701  93.8361162  71.1331418
  42.4146660  84.1628608  82.6935826  43.1561344  84.7013652  82.4170649
  41.7083645  84.7894897  82.8507378  47.8902000  86.3057749  81.2907987
  48.2985356  85.8640159  80.5462620  47.1679261  85.7310376  81.5442180
  44.2433070  81.2430356  78.6641544  45.0894265  81.6669769  78.8076193
  44.1831707  80.5863980  79.3580107  48.2130814  86.8658940  75.0460276
  47.5839677  87.0304654  74.3436344  47.8256476  87.2800549  75.8171240
  52.0920046  87.8013377  72.4004640  51.4071084  88.1812279  71.8501673
  52.1763895  88.4108704  73.1336588  49.3470978  85.4473336  78.9999983
  49.5587873  86.0905096  78.3234364  49.3000726  84.6135653  78.5321913
  43.7658776  86.6033348  72.3110361  44.2297122  86.8821051  71.5214984
  43.5015574  85.7016792  72.1283452  40.6582857  86.1504829  75.2490124
  41.2284214  86.5792098  74.6107609  41.2490969  85.8687414  75.9474310
  42.7027662  82.7256500  69.1199926  43.4051706  83.1777544  69.5873853
  42.3708291  82.0840319  69.7479819  41.1508024  81.3168257  83.4951136
  40.5206684  81.9984538  83.7286533  41.0444112  81.2051338  82.5504274
  50.4616806  88.3245292  77.1722341  51.2834249  87.9225479  76.8905022
  50.4579209  88.2213526  78.1238457  44.2273409  87.8729335  79.3283051
  44.2917842  88.3349742  80.1641223  43.5184333  87.2426700  79.4565361
  34.7290699  81.2370543  76.8532051  34.9798738  82.1217553  77.1189627
  35.2650248  81.0575145  76.0807143  43.9421427  89.5397443  69.1962032
  43.8067102  90.3848978  69.6246879  44.4831239  89.7416720  68.4327965
  37.3950824  87.0572881  69.7689957  37.9075345  87.8516131  69.9195521
  38.0473537  86.3599171  69.7023558  39.2045709  90.1738637  71.8512710
  39.3812337  91.0956602  71.6633694  40.0002542  89.8597056  72.2807090
  38.4898065  82.2203269  81.7274873  38.3751581  81.3188526  82.0281972
  37.6342583  82.4666966  81.3759690  45.5689903  90.1621009  83.3262374
  45.1253757  89.3757388  83.0083278  46.2307117  90.3500160  82.6606264
  40.3277024  91.6916811  77.8523052  40.8784449  91.5633874  77.0800046
  39.4888500  91.9911700  77.5017945  47.6671141  90.4423809  81.3543775
  47.6489617  91.2632690  80.8624044  48.5891061  90.3177884  81.5793916
  44.1244195  87.9567939  82.1967283  44.6572532  87.1956227  81.9666591
  43.5958277  87.6641590  82.9391438  35.3599741  85.3861535  70.5449527
  36.1974963  85.7958543  70.3283235  35.5378009  84.4460977  70.5149721
  47.2564173  83.0536616  66.2333360  46.7410797  83.8241220  66.4721748
  46.9841482  82.3801752  66.8566422  45.4896908  87.0853931  69.7086095
  44.9618270  86.3506691  69.3959333  44.9884411  87.8628607  69.4626064
  50.4689754  85.2802952  74.8253142  49.8113429  85.9702213  74.9133270
  51.2730153  85.6699383  75.1687128  43.6349508  84.9034141  62.7121068
  42.7276570  84.6723395  62.9112217  44.1320540  84.1071761  62.8995050
  46.5417587  93.6131649  65.6317754  45.8679286  93.9163345  66.2402712
  46.9283409  94.4160729  65.2823212  44.8137742  85.0046736  67.2345058
  43.9048961  84.7205769  67.3317528  44.8432826  85.4245815  66.3748365
  50.0457009  88.6153326  71.0036226  49.5919336  87.7744236  71.0601416
  49.4150976  89.2514724  71.3411006  48.4889948  90.4529822  71.9386044
  48.7812923  91.0134879  71.2198410  48.9988569  90.7458383  72.6939203
  35.3825912  82.7252250  71.2160261  35.1850312  82.1321611  70.4911327
  34.8272576  82.4204461  71.9336199  43.3622636  82.6175357  73.3354854
  43.4171246  81.6649193  73.2597330  42.5513838  82.7734796  73.8196152
  44.5113830  86.5455480  64.5733137  44.0733259  85.8291339  64.1138774
  45.2524270  86.7731595  64.0118228  43.4523574  91.2310173  73.0279497
  43.4099752  91.4571020  72.0988029  44.3686272  90.9973548  73.1765298
  46.8989207  81.6994241  79.9260127  47.2538595  81.9265714  80.7854592
  47.5461339  82.0312618  79.3037382  52.6556324  86.8889204  75.6420727
  53.0892831  86.7964493  76.4903781  53.3687905  86.8646704  75.0040743
  41.5689374  88.1073202  72.8241460  42.3629973  87.6123523  72.6224035
  40.8581067  87.5791066  72.4609166  46.3884219  90.4891298  77.1753828
  46.4421241  91.0582234  77.9431544  45.5199000  90.6593183  76.8107865
  39.2682612  80.1908854  78.6578279  39.9405666  79.9826216  78.0090928
  38.4412399  79.9930940  78.2183511  53.5171873  86.9312905  78.1753612
  53.7107764  87.8358715  78.4212887  53.4172492  86.4720324  79.0092197
  48.5786982  87.0819647  83.7494493  48.4272489  86.8530199  82.8324577
  48.5691662  88.0390249  83.7625838  45.3472319  84.6551560  78.7340759
  46.2764379  84.8062720  78.5609727  44.9263349  84.7435581  77.8789406
  44.1460650  88.6802224  76.5039297  44.0071736  88.3121009  77.3765235
  43.3575247  89.1949864  76.3323255  44.7408802  93.7811321  67.8464834
  44.9160558  93.3099364  68.6610456  44.0541590  94.4077087  68.0746094
  45.6965866  88.0583827  73.8928135  45.3615698  88.0184597  74.7885785
  45.1969811  87.3928543  73.4198545  39.6710109  83.4651457  79.4180716
  39.5329907  82.7331696  80.0192255  40.5815033  83.3760357  79.1364904
  42.2992410  83.1771417  78.9064396  43.0092029  82.5364609  78.8651014
  42.2561718  83.4284311  79.8290576  50.2879189  90.1138770  81.8270975
  50.2291735  89.4297990  81.1601558  50.6898707  90.8557760  81.3751601
  41.0121344  80.1636634  80.7260035  40.4758701  79.7127373  81.3781632
  40.4238053  80.2982543  79.9830500  39.3069888  96.9300684  74.6204694
  39.5466486  97.5619208  75.2983712  38.4639084  96.5788724  74.9070053
  50.2896596  88.0778354  80.0584955  49.4023375  87.7404276  80.1811353
  50.8595147  87.3461385  80.2953720  31.9425743  84.4102446  73.3828006
  32.6296783  84.0964176  72.7949021  31.7873872  85.3143810  73.1095257
  43.8197749  92.7379806  77.0246198  43.7467921  93.5434778  77.5365502
  43.3775143  92.9371772  76.1994219  43.6087529  91.9751576  70.5349019
  42.8255051  92.5173256  70.6287244  44.3080274  92.4925556  70.9343261
  46.2796433  92.6366640  79.1804356  46.9924405  93.2714105  79.1080258
  45.7886462  92.7330506  78.3644358  48.0013960  86.5417893  70.7521648
  47.0670239  86.6619355  70.5826352  48.1790628  85.6390360  70.4881658
  41.3308347  90.3861084  80.0009927  42.0317806  91.0197567  80.1539322
  40.8603462  90.7275815  79.2405567  49.4562742  88.7279033  68.2857834
  49.7322586  88.6135628  69.1951708  48.5867241  88.3296518  68.2470007
  49.1309632  82.9405691  77.8262478  48.4781083  83.1881599  77.1714930
  49.5090012  82.1269829  77.4924955  46.0916806  92.9765384  71.9290648
  46.2739201  92.1587040  72.3918400  46.9149792  93.1933077  71.4915538
  46.4258972  91.9033569  69.1905696  46.9546738  91.3926024  68.5775859
  46.6887191  91.5876100  70.0551229  45.1797206  83.6825502  84.3128515
  44.5037843  83.5819631  84.9830890  46.0024839  83.5264716  84.7764512
  36.9276065  89.9197439  76.9341030  37.5129501  89.1741127  77.0668934
  36.7300903  90.2301395  77.8177694  39.7814720  92.9548686  71.9503472
  39.1125095  93.4394814  71.4667512  39.6427590  93.2017907  72.8646851
  31.5193719  82.4903039  75.6545473  31.5577819  81.9566630  76.4482591
  31.0134012  81.9638244  75.0356450  43.9219988  94.9892430  78.5486131
  44.4738296  95.1524051  79.3135216  44.2626182  95.5796867  77.8766156
  38.3736754  79.4090712  82.7981050  39.0008793  79.0267789  83.4118574
  37.5164673  79.1904914  83.1636742  48.7730863  89.8153687  84.4034785
  49.3170767  90.4283645  83.9089740  48.1917708  90.3733266  84.9201798
  35.1502297  81.2167141  68.7299404  35.4455738  80.3077819  68.6766458
  34.2490333  81.1954880  68.4080407  47.0588376  92.9374405  75.5349813
  46.9339515  92.1364145  75.0260758  47.7167467  93.4320598  75.0463783
  49.1223284  90.7383425  77.1629363  48.1753620  90.6188776  77.0907690
  49.4706057  89.8505923  77.2455624  46.1269717  90.5336141  73.3633715
  45.9794680  89.6052849  73.5441285  46.9523211  90.5556232  72.8790790
  49.7303839  91.3564700  74.4498588  50.6550387  91.1507561  74.3123039
  49.5619143  91.1081101  75.3587929  49.5199155  91.8750368  69.8060679
  49.6936033  91.3096790  69.0534532  50.0128047  92.6751262  69.6240169
  35.3376115  83.8865037  77.8724238  34.7929583  84.6624845  78.0044513
  36.2155465  84.2335841  77.7143360  50.5074328  91.1917132  66.9057578
  51.2025233  91.8123825  67.1244892  50.8497478  90.3412483  67.1809956
  36.1242137  83.0134933  80.7654395  35.3823873  83.1617568  81.3519025
  35.8034881  83.2743199  79.9021144  44.0685800  92.5550911  80.5634785
  44.3772926  92.3100058  81.4357485  44.8661282  92.7597550  80.0753655
  44.0906412  94.7088821  72.7940162  43.6511402  94.2165200  73.4873018
  44.8414529  94.1661788  72.5532237  36.5698751  90.9000362  72.7964790
  37.3956771  90.6004134  72.4163433  36.2192803  90.1307984  73.2454578
  41.5380284  90.2526830  74.8662463  40.9160293  89.5897535  74.5664691
  42.2085151  90.2787962  74.1836111  34.7707356  88.8186688  73.7553723
  33.9339264  88.3908862  73.5737725  34.7431001  89.0119131  74.6924514
  52.0959657  89.2749741  83.7396106  51.3055201  89.2573880  83.2000606
  51.8593012  89.8138035  84.4945143  52.2157532  86.1242208  81.0528835
  52.2655537  85.9592215  81.9944358  52.1071455  85.2569467  80.6626716
  41.0993791  88.8030753  68.3420924  41.2481911  89.4866218  67.6887597
  41.9060234  88.7835843  68.8570380  49.5061295  82.1073136  82.3688142
  50.4071157  81.9679600  82.0772139  49.5809269  82.2727590  83.3086319
  53.7175729  88.5439149  81.2970856  53.4260537  88.9069130  82.1334317
  53.1047860  87.8306157  81.1184189  51.9662917  83.6671764  79.7650914
  52.4417039  83.8599410  78.9569766  51.0428483  83.7230950  79.5194298
  38.8546424  84.8295931  69.3481993  38.6092466  83.9258261  69.5462203
  39.0242338  84.8313081  68.4061471  44.5989196  91.2978884  65.8132671
  44.0263163  91.9169071  65.3603143  45.1721990  91.8478245  66.3472593
  47.8186456  91.5816034  66.9441254  48.7517129  91.5161596  67.1474129
  47.7309669  92.4172301  66.4855786  50.4474473  90.8981904  63.9045201
  50.3688104  90.5641768  64.7980959  51.2684140  91.3903672  63.9036673
  44.8674687  86.6857443  84.6149381  45.7877697  86.8636042  84.8089427
  44.8324270  85.7413488  84.4629080  34.0856852  81.8796036  73.5402655
  33.7659637  81.0261344  73.2477029  33.5390281  82.0944614  74.2960623
  37.8636760  84.5958477  77.2572162  38.0822770  85.5275585  77.2760196
  38.2762534  84.2366452  78.0426966  42.7364625  80.1691683  86.6474911
  42.6361352  81.1186040  86.5787002  42.5186167  79.8409922  85.7750981
  33.9545112  85.4998948  75.5095777  33.2608584  85.0852901  74.9965731
  34.7018103  85.5419484  74.9129196  42.5995895  83.5988822  85.4639972
  42.1162977  84.3989182  85.6703862  42.6856834  83.6096767  84.5107416
  35.8681855  85.4317202  73.3861792  35.8452543  85.5304889  72.4343675
  36.1782491  86.2782352  73.7078958  38.5269233  87.4893357  77.5008406
  39.4812486  87.4577299  77.4338338  38.3281756  87.0283980  78.3158632
  39.1168615  86.0594473  80.0679204  39.9361504  86.5538551  80.0914041
  39.3905423  85.1426441  80.0396771  36.8819462  93.0312976  74.5178604
  36.7473930  92.2713377  73.9516602  36.4651524  93.7553876  74.0507393
  48.0178425  88.2149900  63.5255179  48.7214275  88.4199902  64.1412835
  47.2941073  88.7826661  63.7904263  40.0388587  93.9282293  74.7297047
  39.9220972  94.8727726  74.6275737  39.2181034  93.6255855  75.1182846
  49.9265122  88.6532429  65.5753639  50.7610726  88.2213627  65.3931114
  49.7649465  88.4814442  66.5030534  49.5811014  85.1564542  66.9409979
  49.5259818  84.9908814  65.9998423  48.9557069  85.8640575  67.0972168
  34.3703529  80.3932606  80.7671401  35.0162393  79.8831560  81.2558626
  34.1620680  81.1301288  81.3414826  46.8956921  87.4613454  86.2663542
  47.7648081  87.6354106  85.9050176  46.4163673  88.2807871  86.1439271
  41.0643102  94.5810555  77.9452975  41.9670348  94.6134165  78.2619470
  40.8380472  93.6511006  77.9599311  42.8196704  93.3341541  74.6063054
  41.8692335  93.3343403  74.4927426  43.1229190  92.5874276  74.0899088
  58.5549397  99.1702080  75.6708816  59.1927807  99.0508827  74.9672156
  58.4370240 100.1182924  75.7296768  55.3639103  99.1229508  75.6070341
  55.0257615  99.0070573  74.7190876  56.2328872  98.7220673  75.5871347
  51.2225919 100.9764984  71.5967232  50.6590784 100.8854921  70.8283520
  51.1078314 100.1564889  72.0769724  55.8458886 100.2764360  81.5656546
  55.8347527  99.8817158  80.6937050  56.0079526  99.5430432  82.1590318
  48.7690351 102.4716176  74.4351452  49.5611643 102.1307001  74.0197752
  49.0087001 102.5811151  75.3553606  56.8025478 104.6435952  66.9081697
  56.1513458 105.2290033  66.5215711  57.5969841 105.1742147  66.9676734
  50.7281105 101.7325089  67.3068831  51.5011981 101.1854076  67.1681707
  51.0806504 102.5969339  67.5183293  52.5666148 103.0601472  80.5135730
  52.2756013 103.9647102  80.3982397  53.2023132 103.1017999  81.2279800
  53.4922354 100.4378320  77.1037090  54.0885927 100.2134342  76.3894053
  53.5497326  99.6963066  77.7062538  53.0647383  97.8917755  64.9387281
  53.3172903  97.3699277  64.1770744  52.1271942  97.7283901  65.0413965
  58.1090666  96.8953534  72.7462024  58.8953755  96.4772957  72.3952441
  58.3729370  97.7999626  72.9143673  58.2800743 102.3326384  67.4450681
  57.6446576 102.4061011  68.1571586  57.9498149 102.9219983  66.7669760
  63.5099093  96.8328767  73.6495003  64.2424265  96.2627984  73.8832832
  62.7538448  96.4450367  74.0901508  52.7843671  99.7945861  67.1411656
  52.6679930  99.1190765  67.8092740  52.8945931  99.3078235  66.3243809
  55.1275212  99.2556008  70.8458345  54.7633420  98.7286629  71.5571267
  55.9842328  98.8654477  70.6724831  61.0324513  90.5450341  78.1089611
  60.7007838  91.4145752  77.8850826  60.4370126  90.2286625  78.7883642
  54.7680699  94.2845908  65.8419694  54.9355102  95.1526145  66.2090165
  54.5777868  94.4473190  64.9180983  57.5256033 102.7462887  77.5085524
  57.2256756 103.6487926  77.4001331  57.1807092 102.4795070  78.3606677
  50.9768514  99.1976684  73.5422229  50.0519011  99.0652898  73.7499920
  51.2252927  99.9770903  74.0392171  60.9253176  95.2645427  75.1882961
  60.0170054  95.1960836  74.8941722  60.8740772  95.7417372  76.0164787
  54.7469920  96.7403566  66.8266361  54.6269545  97.1860616  67.6651841
  54.0522509  97.0888883  66.2679899  48.3377325  98.8409957  74.3766018
  48.4669706  99.0944436  75.2905429  47.6574776  99.4337665  74.0570673
  52.5076812 109.5107207  70.4756492  52.4300842 110.4615032  70.5544972
  51.9038456 109.1653080  71.1331418  54.9994042  96.6835073  83.1317859
  54.2227376  97.2428993  83.1220723  55.6384605  97.1691856  83.6532729
  62.7914823  93.4661866  76.9660835  62.1489203  93.7594399  76.3200630
  62.2869751  93.3514786  77.7714032  60.4454986  97.2125039  67.6546695
  61.3572843  97.4452426  67.4794392  59.9364634  97.7962083  67.0921773
  53.2540414  99.4920526  82.6935826  53.9955099 100.0305570  82.4170649
  52.5477400 100.1186815  82.8507378  58.7295754 101.6349667  81.2907987
  59.1379110 101.1932077  80.5462620  58.0073016 101.0602294  81.5442180
  55.0826824  96.5722273  78.6641544  55.9288019  96.9961687  78.8076193
  55.0225462  95.9155898  79.3580107  59.0524569 102.1950857  75.0460276
  58.4233431 102.3596571  74.3436344  58.6650231 102.6092467  75.8171240
  62.9313801 103.1305295  72.4004640  62.2464839 103.5104196  71.8501673
  63.0157650 103.7400622  73.1336588  58.2326269  94.2326642  80.3222718
  57.9887201  94.9868702  79.7856993  58.5086200  94.6111989  81.1569965
  60.1864732 100.7765254  78.9999983  60.3981627 101.4197014  78.3234364
  60.1394481  99.9427571  78.5321913  57.7890961  93.3883075  75.9036556
  56.9275440  93.6864328  76.1953293  57.8153396  93.6053474  74.9717588
  54.6052531 101.9325265  72.3110361  55.0690876 102.2112968  71.5214984
  54.3409329 101.0308710  72.1283452  51.4976612 101.4796747  75.2490124
  52.0677969 101.9084015  74.6107609  52.0884724 101.1979332  75.9474310
  53.5421417  98.0548418  69.1199926  54.2445460  98.5069461  69.5873853
  53.2102045  97.4132237  69.7479819  51.9901778  96.6460174  83.4951136
  51.3600439  97.3276455  83.7286533  51.8837866  96.5343256  82.5504274
  47.2846751  96.3131970  74.4217060  46.4945805  96.5689499  73.9457170
  47.7757998  97.1280308  74.5269100  61.3010560 103.6537210  77.1722341
  62.1228004 103.2517397  76.8905022  61.2972963 103.5505444  78.1238457
  49.2361496  96.6776550  71.3800537  48.4392659  96.7895244  71.8984032
  49.0087088  97.0163202  70.5141427  55.0667164 103.2021253  79.3283051
  55.1311596 103.6641660  80.1641223  54.3578088 102.5718618  79.4565361
  45.5684454  96.5662461  76.8532051  45.8192492  97.4509471  77.1189627
  46.1044002  96.3867062  76.0807143  69.3916553  99.9975958  73.5207312
  68.6380262  99.4283356  73.3651317  69.5264094  99.9638623  74.4677947
  54.7815181 104.8689360  69.1962032  54.6460856 105.7140896  69.6246879
  55.3224994 105.0708638  68.4327965  51.2682521  90.9480940  85.8576387
  50.8749467  90.3947139  86.5324031  52.0848661  91.2591519  86.2482904
  48.2344579 102.3864798  69.7689957  48.7469099 103.1808049  69.9195521
  48.8867292 101.6891089  69.7023558  50.0439463 105.5030555  71.8512710
  50.2206092 106.4248519  71.6633694  50.8396297 105.1888974  72.2807090
  54.1850482  92.3638819  83.4496643  54.9260195  92.9645972  83.3701106
  54.4168405  91.6216457  82.8914686  49.3291820  97.5495187  81.7274873
  49.2145335  96.6480444  82.0281972  48.4736338  97.7958883  81.3759690
  56.4083658 105.4912927  83.3262374  55.9647512 104.7049305  83.0083278
  57.0700871 105.6792077  82.6606264  51.1670779 107.0208728  77.8523052
  51.7178204 106.8925792  77.0800046  50.3282255 107.3203617  77.5017945
  58.5064896 105.7715727  81.3543775  58.4883371 106.5924608  80.8624044
  59.4284816 105.6469802  81.5793916  54.9637950 103.2859856  82.1967283
  55.4966287 102.5248144  81.9666591  54.4352031 102.9933508  82.9391438
  46.1993495 100.7153453  70.5449527  47.0368717 101.1250461  70.3283235
  46.3771763  99.7752895  70.5149721  58.0957928  98.3828533  66.2333360
  57.5804551  99.1533138  66.4721748  57.8235236  97.7093669  66.8566422
  55.6805039  93.2278234  71.2918598  54.8246635  92.8385084  71.1124237
  56.0931990  93.3070195  70.4318384  57.2104185  90.7624577  75.6910158
  56.7068981  90.7254713  74.8777964  57.5034792  91.6717320  75.7506815
  53.4547071  90.8463307  74.6976340  54.3200068  90.6506116  74.3382229
  53.5224580  90.6173659  75.6245697  63.0692202 101.1360888  68.1686534
  62.2921644 100.7972047  67.7241696  63.7483683 101.1413511  67.4941499
  57.8844231  96.2555625  68.0593141  57.5794366  96.5701775  68.9103284
  58.8374673  96.3337045  68.1020474  56.3290663 102.4145849  69.7086095
  55.8012024 101.6798608  69.3959333  55.8278165 103.1920525  69.4626064
  61.3083509 100.6094869  74.8253142  60.6507183 101.2994131  74.9133270
  62.1123908 100.9991301  75.1687128  51.0609390  93.0765515  72.0692707
  51.6353142  92.8540697  71.3365900  51.6480373  93.1454210  72.8221308
  60.1188967  98.9639242  72.8757083  60.6320849  99.5969234  73.3778793
  60.7690191  98.3640437  72.5100443  51.3878977  95.1069976  66.0888592
  50.5516290  95.4444663  66.4097867  51.2483747  94.9718956  65.1515729
  53.3632058  89.9506764  70.7967776  52.7096470  89.6355781  70.1724391
  53.3212532  89.3282504  71.5227599  54.4743263 100.2326059  62.7121068
  53.5670325 100.0015312  62.9112217  54.9714295  99.4363678  62.8995050
  57.3811342 108.9423566  65.6317754  56.7073040 109.2455263  66.2402712
  57.7677164 109.7452647  65.2823212  56.5969798  96.4388697  75.1215424
  55.6792360  96.6603644  74.9637112  57.0129942  96.5135008  74.2627131
  57.3804846  97.8380113  70.2518104  58.1276665  98.3501510  69.9425226
  57.6496436  97.5164166  71.1122498  55.6531496 100.3338654  67.2345058
  54.7442715 100.0497687  67.3317528  55.6826580 100.7537732  66.3748365
  60.8850764 103.9445243  71.0036226  60.4313091 103.1036153  71.0601416
  60.2544730 104.5806642  71.3411006  59.8283683  94.8737229  72.2336893
  59.0906440  94.3614616  72.5647136  60.0810457  94.4337611  71.4220170
  59.3283703 105.7821740  71.9386044  59.6206677 106.3426797  71.2198410
  59.8382323 106.0750301  72.6939203  46.2219667  98.0544168  71.2160261
  46.0244066  97.4613529  70.4911327  45.6666331  97.7496378  71.9336199
  54.2016390  97.9467274  73.3354854  54.2565000  96.9941111  73.2597330
  53.3907592  98.1026714  73.8196152  55.3507584 101.8747398  64.5733137
  54.9127014 101.1583256  64.1138774  56.0918025 102.1023512  64.0118228
  52.1408750  96.5644334  71.0945233  51.3276616  96.8638505  71.5010425
  52.6367744  96.1700023  71.8119715  54.2917328 106.5602091  73.0279497
  54.2493507 106.7862937  72.0988029  55.2080027 106.3265466  73.1765298
  57.7382962  97.0286159  79.9260127  58.0932350  97.2557632  80.7854592
  58.3855093  97.3604535  79.3037382  63.4680699 100.1504595  70.6309456
  63.3298597 100.3406191  69.7030645  63.1116918 100.9123977  71.0877507
  51.6322825  94.1362690  76.7106468  52.2722204  93.9951449  76.0129431
  50.8000355  93.8497203  76.3345070  63.4950078 102.2181122  75.6420727
  63.9286585 102.1256411  76.4903781  64.2081659 102.1938622  75.0040743
  52.4083129 103.4365120  72.8241460  53.2023727 102.9415440  72.6224035
  51.6974821 102.9082983  72.4609166  57.2277973 105.8183216  77.1753828
  57.2814996 106.3874152  77.9431544  56.3592755 105.9885101  76.8107865
  48.7165892  97.5808202  68.9001213  47.7863480  97.5192657  69.1171175
  48.8123364  97.0584155  68.1037854  48.6351441  94.1063015  71.4879454
  48.8958259  95.0208348  71.3788615  49.4568614  93.6387457  71.6376067
  50.1076367  95.5200772  78.6578279  50.7799420  95.3118134  78.0090928
  49.2806153  95.3222858  78.2183511  64.3565628 102.2604822  78.1753612
  64.5501518 103.1650633  78.4212887  64.2566246 101.8012241  79.0092197
  56.0101939  92.1462713  80.6743940  55.3629854  92.8452662  80.5808416
  56.7802954  92.5798857  81.0420188  59.4180737 102.4111565  83.7494493
  59.2666243 102.1822117  82.8324577  59.4085416 103.3682166  83.7625838
  56.1866073  99.9843478  78.7340759  57.1158133 100.1354637  78.5609727
  55.7657103 100.0727499  77.8789406  54.9854405 104.0094142  76.5039297
  54.8465491 103.6412927  77.3765235  54.1969001 104.5241782  76.3323255
  55.5802557 109.1103239  67.8464834  55.7554313 108.6391282  68.6610456
  54.8935345 109.7369005  68.0746094  56.5359620 103.3875745  73.8928135
  56.2009453 103.3476515  74.7885785  56.0363566 102.7220461  73.4198545
  50.5103864  98.7943375  79.4180716  50.3723662  98.0623614  80.0192255
  51.4208787  98.7052275  79.1364904  59.4718812 100.7331779  64.1665195
  58.8547982 100.0078607  64.0698247  59.0035300 101.4941139  63.8232269
  53.1386165  98.5063334  78.9064396  53.8485783  97.8656526  78.8651014
  53.0955473  98.7576229  79.8290576  61.1272943 105.4430688  81.8270975
  61.0685489 104.7589908  81.1601558  61.5292462 106.1849678  81.3751601
  51.8515099  95.4928552  80.7260035  51.3152456  95.0419291  81.3781632
  51.2631807  95.6274461  79.9830500  50.1463642 112.2592601  74.6204694
  50.3860240 112.8911126  75.2983712  49.3032839 111.9080641  74.9070053
  51.2617358  94.9517203  63.2886499  50.3846824  94.8306004  62.9248746
  51.7375111  94.1603282  63.0365387  61.1290351 103.4070271  80.0584955
  60.2417129 103.0696193  80.1811353  61.6988902 102.6753303  80.2953720
  42.7819498  99.7394363  73.3828006  43.4690538  99.4256093  72.7949021
  42.6267626 100.6435728  73.1095257  47.5854220  94.6284560  77.8113030
  47.5012409  94.0210229  77.0763440  46.7636926  95.1193578  77.8122526
  54.6591504 108.0671724  77.0246198  54.5861675 108.8726695  77.5365502
  54.2168897 108.2663690  76.1994219  54.4481284 107.3043494  70.5349019
  53.6648805 107.8465174  70.6287244  55.1474029 107.8217473  70.9343261
  57.7577934  93.1138123  73.1783225  58.2546633  92.3608086  72.8584295
  56.9864915  93.1502440  72.6126434  65.6107691  98.8178489  74.8201516
  65.5997567  99.7003204  74.4495449  64.7425071  98.4650040  74.6256053
  57.1190187 107.9658558  79.1804356  57.8318160 108.6006023  79.1080258
  56.6280216 108.0622424  78.3644358  58.8407714 101.8709811  70.7521648
  57.9063993 101.9911273  70.5826352  59.0184383 100.9682277  70.4881658
  54.3412902  95.2555506  72.9054909  53.9710690  94.7026547  73.5935815
  54.8371995  94.6513640  72.3529909  62.2280266  97.7127130  71.2871682
  62.6940718  98.5455121  71.2131985  62.6787766  97.2472111  71.9916941
  52.1702101 105.7153001  80.0009927  52.8711561 106.3489484  80.1539322
  51.6997216 106.0567733  79.2405567  60.2956497 104.0570951  68.2857834
  60.5716341 103.9427546  69.1951708  59.4260996 103.6588436  68.2470007
  60.1996928  90.0807717  75.3262584  59.2860008  90.3111944  75.4944791
  60.6290030  90.1646161  76.1776616  59.9703387  98.2697609  77.8262478
  59.3174837  98.5173516  77.1714930  60.3483767  97.4561747  77.4924955
  56.9310561 108.3057302  71.9290648  57.1132955 107.4878958  72.3918400
  57.7543547 108.5224994  71.4915538  57.2652726 107.2325487  69.1905696
  57.7940493 106.7217942  68.5775859  57.5280946 106.9168017  70.0551229
  56.0190960  99.0117420  84.3128515  55.3431597  98.9111549  84.9830890
  56.8418594  98.8556634  84.7764512  47.7669819 105.2489356  76.9341030
  48.3523256 104.5033044  77.0668934  47.5694658 105.5593313  77.8177694
  50.6208474 108.2840604  71.9503472  49.9518850 108.7686731  71.4667512
  50.4821344 108.5309824  72.8646851  42.3587474  97.8194957  75.6545473
  42.3971573  97.2858547  76.4482591  41.8527767  97.2930162  75.0356450
  54.7613743 110.3184347  78.5486131  55.3132051 110.4815969  79.3135216
  55.1019936 110.9088785  77.8766156  49.7378236  92.6659497  79.1508015
  49.8019563  93.5274328  78.7385413  49.6745356  92.0533499  78.4180374
  49.2130509  94.7382630  82.7981050  49.8402547  94.3559707  83.4118574
  48.3558427  94.5196832  83.1636742  59.6124617 105.1445605  84.4034785
  60.1564521 105.7575563  83.9089740  59.0311462 105.7025183  84.9201798
  45.9896051  96.5459059  68.7299404  46.2849492  95.6369737  68.6766458
  45.0884087  96.5246798  68.4080407  57.8982130 108.2666323  75.5349813
  57.7733270 107.4656063  75.0260758  58.5561221 108.7612516  75.0463783
  49.5190298  94.6215055  74.7126953  48.7976884  95.2351023  74.5734426
  50.3083554  95.1572820  74.6343599  59.9617039 106.0675343  77.1629363
  59.0147374 105.9480694  77.0907690  60.3099812 105.1797841  77.2455624
  52.3216612  91.9569482  80.9867605  52.8451014  92.2031778  81.7493914
  52.1028945  92.7889517  80.5670742  47.7183893  94.2273156  68.8538730
  47.3896599  93.3470535  68.6713836  48.0723264  94.1720825  69.7415119
  56.9663472 105.8628059  73.3633715  56.8188434 104.9344767  73.5441285
  57.7916965 105.8848150  72.8790790  50.8325716  94.5146126  69.2214207
  51.1721789  95.0432047  68.4992816  51.2797837  94.8526532  69.9972774
  60.5697594 106.6856618  74.4498588  61.4944141 106.4799479  74.3123039
  60.4012897 106.4373019  75.3587929  53.5269157  92.8983177  78.6717275
  53.1865977  92.0990990  79.0737955  52.8208163  93.1984888  78.0994109
  54.1785629  89.9832489  77.1244598  55.0011698  89.5092968  77.0023489
  54.4223692  90.7622973  77.6243285  52.8193863  93.0120748  67.4207500
  53.5402226  93.3902001  66.9171217  52.1959167  93.7309625  67.5242478
  56.9624986  93.7165897  68.3565832  57.1788601  94.5990535  68.0554661
  56.4819053  93.3252110  67.6271474  51.7024208  96.6751610  74.9336577
  51.5568788  96.9891913  75.8260859  51.2249411  97.2936510  74.3807476
  53.5620590  93.6654158  74.9817467  53.5482159  92.7695251  74.6449765
  54.2793019  93.6724822  75.6155753  55.4146721  94.0991498  77.0270594
  55.1564499  95.0208569  77.0254924  54.8831762  93.7021933  77.7171058
  60.3592910 107.2042285  69.8060679  60.5329787 106.6388708  69.0534532
  60.8521801 108.0043180  69.6240169  46.1769870  99.2156954  77.8724238
  45.6323338  99.9916762  78.0044513  47.0549220  99.5627759  77.7143360
  52.9657486  92.5468538  70.2505037  53.0873398  91.6185184  70.4495924
  52.6759529  92.5607224  69.3383352  55.8348677  90.2323449  73.3871757
  55.8570374  90.2962782  72.4323736  56.2516736  89.3927957  73.5812263
  66.2132301  99.9678708  71.4250979  66.6563447  99.2186033  71.0270102
  65.3358811  99.9588845  71.0424711  61.3468082 106.5209050  66.9057578
  62.0418987 107.1415742  67.1244892  61.6891233 105.6704401  67.1809956
  46.9635892  98.3426851  80.7654395  46.2217628  98.4909486  81.3519025
  46.6428636  98.6035116  79.9021144  63.2459506 103.9708755  68.4344908
  63.7710830 104.3096028  67.7094228  63.1581858 103.0355771  68.2508043
  54.9079554 107.8842829  80.5634785  55.2166681 107.6391976  81.4357485
  55.7055036 108.0889467  80.0753655  54.9300166 110.0380738  72.7940162
  54.4905157 109.5457117  73.4873018  55.6808283 109.4953706  72.5532237
  47.4092505 106.2292279  72.7964790  48.2350525 105.9296051  72.4163433
  47.0586557 105.4599902  73.2454578  52.3774038 105.5818748  74.8662463
  51.7554048 104.9189453  74.5664691  53.0478905 105.6079879  74.1836111
  45.6101110 104.1478606  73.7553723  44.7733019 103.7200780  73.5737725
  45.5824756 104.3411049  74.6924514  52.4498566  94.0600536  84.4594969
  52.4986721  94.9362658  84.0772739  52.9921080  93.5177929  83.8866613
  62.9353412 104.6041659  83.7396106  62.1448955 104.5865798  83.2000606
  62.6986766 105.1429953  84.4945143  63.0551287 101.4534125  81.0528835
  63.1049292 101.2884133  81.9944358  62.9465210 100.5861384  80.6626716
  51.9387545 104.1322671  68.3420924  52.0875666 104.8158135  67.6887597
  52.7453989 104.1127761  68.8570380  60.3455049  97.4365053  82.3688142
  61.2464912  97.2971518  82.0772139  60.4203024  97.6019508  83.3086319
  54.6797854  94.8131908  81.2141328  53.8101164  95.1065474  80.9423917
  54.9157335  95.3972353  81.9348592  64.5569483 103.8731067  81.2970856
  64.2654292 104.2361047  82.1334317  63.9441615 103.1598075  81.1184189
  65.7565166 101.4383947  73.8173427  66.5912057 101.8773751  73.9810987
  65.8924295 100.9622600  72.9981672  62.8056672  98.9963681  79.7650914
  63.2810793  99.1891328  78.9569766  61.8822237  99.0522867  79.5194298
  49.6940178 100.1587849  69.3481993  49.4486220  99.2550179  69.5462203
  49.8636093 100.1604999  68.4061471  57.3836888  91.0311525  78.7306748
  57.9018832  91.7672552  78.4053237  57.0292021  91.3375518  79.5653507
  48.9635826  95.8916206  66.8468154  48.2705071  95.9660561  66.1908190
  48.7187578  95.1276550  67.3689671  55.4382951 106.6270801  65.8132671
  54.8656918 107.2460989  65.3603143  56.0115745 107.1770163  66.3472593
  61.5058341  95.8729441  77.9979220  62.4575764  95.9727539  78.0191444
  61.3361791  95.0807710  78.5077304  59.5272720  92.9585025  78.1838621
  58.9322652  93.2390037  77.4885110  59.2422417  93.4478926  78.9555362
  58.6580211 106.9107952  66.9441254  59.5910884 106.8453513  67.1474129
  58.5703423 107.7464218  66.4855786  61.2868227 106.2273822  63.9045201
  61.2081859 105.8933685  64.7980959  62.1077894 106.7195590  63.9036673
  63.9846418  99.0935561  77.1121520  63.9522739  98.1551562  77.2981204
  64.5947042  99.1719598  76.3787345  55.8229749  97.9631614  63.1548724
  56.7688854  97.8337822  63.2237142  55.4443994  97.2246276  63.6318152
  64.1340907  95.8846605  77.1579803  63.6179956  95.1005061  76.9709732
  65.0180855  95.5565321  77.3226322  69.8022968 100.1551568  76.2527557
  70.5326357  99.8936856  76.8135260  69.1929914  99.4180290  76.2929624
  67.8838265  98.2959431  76.8502008  67.1571429  98.1615396  76.2418499
  67.4685552  98.6036259  77.6558726  55.7068442 102.0149360  84.6149381
  56.6271451 102.1927959  84.8089427  55.6718025 101.0705406  84.4629080
  54.0072666  95.8881591  63.0903609  53.1004122  95.5914703  63.1666323
  54.2848648  95.5911409  62.2237895  44.9250607  97.2087954  73.5402655
  44.6053391  96.3553262  73.2477029  44.3784035  97.4236532  74.2960623
  48.7030514  99.9250395  77.2572162  48.9216524 100.8567503  77.2760196
  49.1156288  99.5658369  78.0426966  53.5758380  95.4983601  86.6474911
  53.4755107  96.4477958  86.5787002  53.3579922  95.1701840  85.7750981
  52.7771451  92.7468526  63.2315588  53.6390615  93.0723424  63.4911406
  52.9621795  91.9600022  62.7188654  44.7938867 100.8290865  75.5095777
  44.1002338 100.4144818  74.9965731  45.5411858 100.8711402  74.9129196
  60.9304088  91.6197052  70.3750811  60.3502757  92.2781856  69.9928864
  60.6640020  90.7974397  69.9638229  59.3807654  91.0202110  72.5772132
  59.8807432  91.1318644  71.7686450  60.0243262  90.7163163  73.2172940
  53.4389650  98.9280740  85.4639972  52.9556731  99.7281100  85.6703862
  53.5250589  98.9388684  84.5107416  46.7075609 100.7609119  73.3861792
  46.6846298 100.8596806  72.4343675  47.0176246 101.6074270  73.7078958
  49.3662987 102.8185274  77.5008406  50.3206241 102.7869217  77.4338338
  49.1675511 102.3575898  78.3158632  49.9562369 101.3886390  80.0679204
  50.7755258 101.8830469  80.0914041  50.2299177 100.4718358  80.0396771
  59.7128966  93.7797143  69.4307159  58.8254821  94.0646793  69.2127354
  60.1282955  93.6190906  68.5834436  63.0643502  93.8043664  73.1461499
  63.8403892  94.2940116  73.4186116  62.3391636  94.2301718  73.6033368
  65.5016060  94.5171283  74.2035439  66.0960551  94.2767019  73.4928748
  65.5742644  93.7978413  74.8308976  47.7213216 108.3604894  74.5178604
  47.5867684 107.6005295  73.9516602  47.3045278 109.0845794  74.0507393
  58.8572179 103.5441817  63.5255179  59.5608029 103.7491820  64.1412835
  58.1334828 104.1118579  63.7904263  59.6869989  99.2951679  69.6457450
  59.6305191  99.7520230  68.8065082  60.2398332  98.5342363  69.4680292
  63.4974795  95.0841410  70.4707569  63.2411730  94.6838046  71.3015777
  62.8727663  95.7985204  70.3457708  67.8087133  97.8237484  72.9778860
  67.2486691  97.8930673  73.7510423  67.2030636  97.6478468  72.2578357
  50.8782342 109.2574211  74.7297047  50.7614726 110.2019643  74.6275737
  50.0574788 108.9547772  75.1182846  60.7658876 103.9824346  65.5753639
  61.6004480 103.5505545  65.3931114  60.6043219 103.8106360  66.5030534
  60.4204769 100.4856460  66.9409979  60.3653572 100.3200731  65.9998423
  59.7950824 101.1932493  67.0972168  45.2097284  95.7224524  80.7671401
  45.8556147  95.2123478  81.2558626  45.0014435  96.4593206  81.3414826
  57.7350676 102.7905372  86.2663542  58.6041835 102.9646024  85.9050176
  57.2557427 103.6099788  86.1439271  51.9036856 109.9102473  77.9452975
  52.8064103 109.9426083  78.2619470  51.6774226 108.9802924  77.9599311
  53.6590458 108.6633459  74.6063054  52.7086089 108.6635321  74.4927426
  53.9622944 107.9166194  74.0899088  49.5494775  92.8692141  84.8646415
  50.4126236  92.5128946  85.0749740  48.9760185  92.5306036  85.5521819
  69.3943152 114.4993998  75.6708816  70.0321562 114.3800745  74.9672156
  69.2763994 115.4474842  75.7296768  66.2032858 114.4521426  75.6070341
  65.8651369 114.3362490  74.7190876  67.0722626 114.0512591  75.5871347
  62.0619674 116.3056902  71.5967232  61.4984539 116.2146839  70.8283520
  61.9472069 115.4856807  72.0769724  66.6852641 115.6056277  81.5656546
  66.6741282 115.2109076  80.6937050  66.8473280 114.8722350  82.1590318
  59.6084105 117.8008094  74.4351452  60.4005397 117.4598918  74.0197752
  59.8480756 117.9103069  75.3553606  67.6419232 119.9727870  66.9081697
  66.9907212 120.5581950  66.5215711  68.4363595 120.5034065  66.9676734
  61.5674859 117.0617007  67.3068831  62.3405735 116.5145994  67.1681707
  61.9200258 117.9261256  67.5183293  63.4059902 118.3893389  80.5135730
  63.1149768 119.2939020  80.3982397  64.0416886 118.4309917  81.2279800
  64.3316109 115.7670238  77.1037090  64.9279681 115.5426260  76.3894053
  64.3891080 115.0254983  77.7062538  63.9041137 113.2209673  64.9387281
  64.1566658 112.6991194  64.1770744  62.9665696 113.0575818  65.0413965
  68.9484420 112.2245451  72.7462024  69.7347509 111.8064875  72.3952441
  69.2123124 113.1291544  72.9143673  69.1194497 117.6618302  67.4450681
  68.4840330 117.7352928  68.1571586  68.7891904 118.2511901  66.7669760
  74.3492847 112.1620685  73.6495003  75.0818019 111.5919901  73.8832832
  73.5932203 111.7742285  74.0901508  63.6237426 115.1237779  67.1411656
  63.5073684 114.4482682  67.8092740  63.7339686 114.6370153  66.3243809
  65.9668967 114.5847926  70.8458345  65.6027174 114.0578547  71.5571267
  66.8236083 114.1946395  70.6724831  71.8718268 105.8742259  78.1089611
  71.5401592 106.7437670  77.8850826  71.2763881 105.5578543  78.7883642
  65.6074454 109.6137826  65.8419694  65.7748856 110.4818062  66.2090165
  65.4171623 109.7765108  64.9180983  68.3649787 118.0754805  77.5085524
  68.0650510 118.9779844  77.4001331  68.0200847 117.8086988  78.3606677
  61.8162269 114.5268602  73.5422229  60.8912765 114.3944816  73.7499920
  62.0646682 115.3062821  74.0392171  71.7646931 110.5937345  75.1882961
  70.8563808 110.5252753  74.8941722  71.7134527 111.0709290  76.0164787
  65.5863675 112.0695483  66.8266361  65.4663300 112.5152534  67.6651841
  64.8916263 112.4180801  66.2679899  59.1771080 114.1701875  74.3766018
  59.3063461 114.4236354  75.2905429  58.4968531 114.7629583  74.0570673
  63.3470567 124.8399125  70.4756492  63.2694597 125.7906950  70.5544972
  62.7432210 124.4944998  71.1331418  65.8387797 112.0126990  83.1317859
  65.0621131 112.5720911  83.1220723  66.4778360 112.4983773  83.6532729
  73.6308577 108.7953783  76.9660835  72.9882958 109.0886316  76.3200630
  73.1263506 108.6806704  77.7714032  71.2848741 112.5416956  67.6546695
  72.1966597 112.7744343  67.4794392  70.7758388 113.1254001  67.0921773
  64.0934169 114.8212444  82.6935826  64.8348853 115.3597488  82.4170649
  63.3871154 115.4478733  82.8507378  69.5689509 116.9641584  81.2907987
  69.9772865 116.5223995  80.5462620  68.8466770 116.3894212  81.5442180
  65.9220579 111.9014191  78.6641544  66.7681774 112.3253605  78.8076193
  65.8619216 111.2447815  79.3580107  69.8918323 117.5242775  75.0460276
  69.2627186 117.6888489  74.3436344  69.5043985 117.9384384  75.8171240
  73.7707555 118.4597213  72.4004640  73.0858593 118.8396114  71.8501673
  73.8551404 119.0692539  73.1336588  69.0720024 109.5618559  80.3222718
  68.8280956 110.3160620  79.7856993  69.3479954 109.9403907  81.1569965
  71.0258487 116.1057172  78.9999983  71.2375382 116.7488932  78.3234364
  70.9788235 115.2719488  78.5321913  68.6284716 108.7174992  75.9036556
  67.7669195 109.0156246  76.1953293  68.6547150 108.9345391  74.9717588
  65.4446285 117.2617183  72.3110361  65.9084631 117.5404886  71.5214984
  65.1803083 116.3600628  72.1283452  62.3370366 116.8088665  75.2490124
  62.9071723 117.2375933  74.6107609  62.9278478 116.5271249  75.9474310
  64.3815171 113.3840335  69.1199926  65.0839215 113.8361379  69.5873853
  64.0495800 112.7424154  69.7479819  62.8295533 111.9752092  83.4951136
  62.1994193 112.6568373  83.7286533  62.7231621 111.8635174  82.5504274
  58.1240505 111.6423888  74.4217060  57.3339559 111.8981417  73.9457170
  58.6151752 112.4572226  74.5269100  72.1404315 118.9829127  77.1722341
  72.9621758 118.5809315  76.8905022  72.1366718 118.8797361  78.1238457
  60.0755251 112.0068467  71.3800537  59.2786414 112.1187162  71.8984032
  59.8480843 112.3455120  70.5141427  65.9060918 118.5313171  79.3283051
  65.9705351 118.9933578  80.1641223  65.1971842 117.9010535  79.4565361
  56.4078208 111.8954378  76.8532051  56.6586247 112.7801388  77.1189627
  56.9437757 111.7158980  76.0807143  80.2310308 115.3267876  73.5207312
  79.4774016 114.7575274  73.3651317  80.3657849 115.2930540  74.4677947
  65.6208936 120.1981278  69.1962032  65.4854611 121.0432814  69.6246879
  66.1618748 120.4000556  68.4327965  62.1076275 106.2772858  85.8576387
  61.7143221 105.7239056  86.5324031  62.9242416 106.5883436  86.2482904
  59.0738333 117.7156716  69.7689957  59.5862854 118.5099966  69.9195521
  59.7261046 117.0183006  69.7023558  60.8833218 120.8322472  71.8512710
  61.0599846 121.7540437  71.6633694  61.6790051 120.5180892  72.2807090
  65.0244236 107.6930737  83.4496643  65.7653950 108.2937890  83.3701106
  65.2562159 106.9508375  82.8914686  60.1685574 112.8787104  81.7274873
  60.0539090 111.9772361  82.0281972  59.3130092 113.1250801  81.3759690
  67.2477412 120.8204845  83.3262374  66.8041266 120.0341223  83.0083278
  67.9094626 121.0083995  82.6606264  62.0064533 122.3500646  77.8523052
  62.5571958 122.2217709  77.0800046  61.1676009 122.6495535  77.5017945
  69.3458650 121.1007644  81.3543775  69.3277126 121.9216525  80.8624044
  70.2678570 120.9761720  81.5793916  65.8031704 118.6151774  82.1967283
  66.3360041 117.8540062  81.9666591  65.2745785 118.3225426  82.9391438
  68.9701399 103.7211840  77.7260925  68.6265669 104.6113482  77.6500036
  69.3380362 103.5313498  76.8630510  57.0387250 116.0445370  70.5449527
  57.8762472 116.4542379  70.3283235  57.2165518 115.1044813  70.5149721
  68.9351682 113.7120451  66.2333360  68.4198306 114.4825056  66.4721748
  68.6628991 113.0385587  66.8566422  66.5198793 108.5570152  71.2918598
  65.6640389 108.1677002  71.1124237  66.9325745 108.6362113  70.4318384
  68.0497940 106.0916495  75.6910158  67.5462735 106.0546630  74.8777964
  68.3428547 107.0009238  75.7506815  64.2940826 106.1755225  74.6976340
  65.1593822 105.9798033  74.3382229  64.3618335 105.9465577  75.6245697
  73.9085956 116.4652806  68.1686534  73.1315399 116.1263965  67.7241696
  74.5877437 116.4705429  67.4941499  68.7237985 111.5847543  68.0593141
  68.4188121 111.8993692  68.9103284  69.6768427 111.6628963  68.1020474
  67.1684417 117.7437766  69.7086095  66.6405779 117.0090526  69.3959333
  66.6671920 118.5212443  69.4626064  72.1477263 115.9386787  74.8253142
  71.4900938 116.6286048  74.9133270  72.9517662 116.3283219  75.1687128
  61.9003145 108.4057433  72.0692707  62.4746897 108.1832614  71.3365900
  62.4874127 108.4746127  72.8221308  70.9582722 114.2931160  72.8757083
  71.4714604 114.9261151  73.3778793  71.6083946 113.6932355  72.5100443
  62.2272732 110.4361894  66.0888592  61.3910044 110.7736580  66.4097867
  62.0877501 110.3010874  65.1515729  64.2025812 105.2798682  70.7967776
  63.5490225 104.9647699  70.1724391  64.1606287 104.6574422  71.5227599
  65.3137017 115.5617977  62.7121068  64.4064079 115.3307230  62.9112217
  65.8108049 114.7655596  62.8995050  68.2205096 124.2715484  65.6317754
  67.5466795 124.5747181  66.2402712  68.6070918 125.0744564  65.2823212
  67.4363553 111.7680615  75.1215424  66.5186114 111.9895562  74.9637112
  67.8523696 111.8426926  74.2627131  68.2198601 113.1672031  70.2518104
  68.9670419 113.6793428  69.9425226  68.4890190 112.8456084  71.1122498
  66.4925251 115.6630572  67.2345058  65.5836470 115.3789604  67.3317528
  66.5220335 116.0829650  66.3748365  71.7244518 119.2737161  71.0036226
  71.2706845 118.4328071  71.0601416  71.0938485 119.9098559  71.3411006
  70.6677438 110.2029147  72.2336893  69.9300194 109.6906533  72.5647136
  70.9204211 109.7629529  71.4220170  70.1677457 121.1113658  71.9386044
  70.4600432 121.6718715  71.2198410  70.6776078 121.4042219  72.6939203
  70.7689065 102.9805399  72.8278663  71.0747942 102.1202763  72.5404578
  71.4941670 103.5723019  72.6277657  57.0613421 113.3836086  71.2160261
  56.8637821 112.7905446  70.4911327  56.5060085 113.0788296  71.9336199
  65.0410145 113.2759192  73.3354854  65.0958755 112.3233029  73.2597330
  64.2301347 113.4318631  73.8196152  66.1901339 117.2039315  64.5733137
  65.7520768 116.4875174  64.1138774  66.9311779 117.4315430  64.0118228
  62.9802505 111.8936252  71.0945233  62.1670370 112.1930422  71.5010425
  63.4761499 111.4991941  71.8119715  65.1311083 121.8894009  73.0279497
  65.0887261 122.1154855  72.0988029  66.0473781 121.6557383  73.1765298
  68.5776716 112.3578076  79.9260127  68.9326104 112.5849549  80.7854592
  69.2248848 112.6896453  79.3037382  74.3074453 115.4796512  70.6309456
  74.1692352 115.6698108  69.7030645  73.9510672 116.2415895  71.0877507
  62.4716579 109.4654607  76.7106468  63.1115959 109.3243367  76.0129431
  61.6394110 109.1789121  76.3345070  74.3343833 117.5473039  75.6420727
  74.7680340 117.4548328  76.4903781  75.0475414 117.5230540  75.0040743
  63.2476883 118.7657038  72.8241460  64.0417482 118.2707358  72.6224035
  62.5368576 118.2374901  72.4609166  68.0671728 121.1475133  77.1753828
  68.1208750 121.7166070  77.9431544  67.1986509 121.3177018  76.8107865
  59.5559647 112.9100120  68.9001213  58.6257235 112.8484575  69.1171175
  59.6517119 112.3876072  68.1037854  59.4745196 109.4354932  71.4879454
  59.7352013 110.3500266  71.3788615  60.2962368 108.9679375  71.6376067
  60.9470121 110.8492690  78.6578279  61.6193175 110.6410052  78.0090928
  60.1199908 110.6514776  78.2183511  75.1959382 117.5896740  78.1753612
  75.3895273 118.4942550  78.4212887  75.0960001 117.1304159  79.0092197
  66.8495693 107.4754630  80.6743940  66.2023608 108.1744580  80.5808416
  67.6196709 107.9090774  81.0420188  70.2574491 117.7403483  83.7494493
  70.1059998 117.5114034  82.8324577  70.2479171 118.6974084  83.7625838
  67.0259828 115.3135395  78.7340759  67.9551888 115.4646555  78.5609727
  66.6050858 115.4019416  77.8789406  65.8248159 119.3386060  76.5039297
  65.6859245 118.9704844  77.3765235  65.0362756 119.8533699  76.3323255
  66.4196311 124.4395156  67.8464834  66.5948067 123.9683199  68.6610456
  65.7329099 125.0660922  68.0746094  67.3753374 118.7167663  73.8928135
  67.0403207 118.6768432  74.7885785  66.8757320 118.0512378  73.4198545
  61.3497618 114.1235293  79.4180716  61.2117416 113.3915531  80.0192255
  62.2602542 114.0344193  79.1364904  70.3112566 116.0623697  64.1665195
  69.6941737 115.3370525  64.0698247  69.8429055 116.8233057  63.8232269
  63.9779919 113.8355252  78.9064396  64.6879538 113.1948444  78.8651014
  63.9349227 114.0868147  79.8290576  71.9666698 120.7722605  81.8270975
  71.9079244 120.0881825  81.1601558  72.3686216 121.5141595  81.3751601
  62.6908853 110.8220470  80.7260035  62.1546210 110.3711208  81.3781632
  62.1025562 110.9566379  79.9830500  62.1011112 110.2809121  63.2886499
  61.2240578 110.1597922  62.9248746  62.5768865 109.4895199  63.0365387
  71.9684105 118.7362189  80.0584955  71.0810884 118.3988111  80.1811353
  72.5382656 118.0045220  80.2953720  53.6213252 115.0686281  73.3828006
  54.3084292 114.7548011  72.7949021  53.4661381 115.9727646  73.1095257
  58.4247974 109.9576477  77.8113030  58.3406163 109.3502147  77.0763440
  57.6030681 110.4485496  77.8122526  65.4985258 123.3963641  77.0246198
  65.4255430 124.2018613  77.5365502  65.0562652 123.5955607  76.1994219
  65.2875038 122.6335412  70.5349019  64.5042560 123.1757092  70.6287244
  65.9867783 123.1509391  70.9343261  68.5971688 108.4430041  73.1783225
  69.0940388 107.6900003  72.8584295  67.8258670 108.4794358  72.6126434
  76.4501446 114.1470407  74.8201516  76.4391322 115.0295122  74.4495449
  75.5818825 113.7941957  74.6256053  67.9583942 123.2950476  79.1804356
  68.6711914 123.9297940  79.1080258  67.4673971 123.3914342  78.3644358
  69.6801469 117.2001728  70.7521648  68.7457748 117.3203191  70.5826352
  69.8578137 116.2974195  70.4881658  65.1806657 110.5847424  72.9054909
  64.8104444 110.0318464  73.5935815  65.6765749 109.9805557  72.3529909
  73.0674020 113.0419047  71.2871682  73.5334472 113.8747039  71.2131985
  73.5181521 112.5764029  71.9916941  63.0095856 121.0444919  80.0009927
  63.7105315 121.6781402  80.1539322  62.5390971 121.3859651  79.2405567
  71.1350251 119.3862869  68.2857834  71.4110095 119.2719463  69.1951708
  70.2654750 118.9880354  68.2470007  71.0390683 105.4099634  75.3262584
  70.1253763 105.6403861  75.4944791  71.4683784 105.4938079  76.1776616
  70.8097141 113.5989526  77.8262478  70.1568592 113.8465434  77.1714930
  71.1877521 112.7853665  77.4924955  67.7704315 123.6349220  71.9290648
  67.9526710 122.8170876  72.3918400  68.5937301 123.8516912  71.4915538
  68.1046481 122.5617405  69.1905696  68.6334247 122.0509859  68.5775859
  68.3674700 122.2459935  70.0551229  66.8584714 114.3409337  84.3128515
  66.1825352 114.2403467  84.9830890  67.6812348 114.1848551  84.7764512
  58.6063574 120.5781274  76.9341030  59.1917010 119.8324962  77.0668934
  58.4088412 120.8885231  77.8177694  61.4602229 123.6132521  71.9503472
  60.7912604 124.0978649  71.4667512  61.3215098 123.8601742  72.8646851
  53.1981228 113.1486874  75.6545473  53.2365328 112.6150465  76.4482591
  52.6921521 112.6222080  75.0356450  65.6007497 125.6476265  78.5486131
  66.1525805 125.8107886  79.3135216  65.9413691 126.2380703  77.8766156
  60.5771991 107.9951415  79.1508015  60.6413317 108.8566246  78.7385413
  60.5139111 107.3825416  78.4180374  60.0524263 110.0674547  82.7981050
  60.6796302 109.6851625  83.4118574  59.1952182 109.8488749  83.1636742
  70.4518372 120.4737522  84.4034785  70.9958276 121.0867481  83.9089740
  69.8705217 121.0317101  84.9201798  56.8289806 111.8750976  68.7299404
  57.1243247 110.9661655  68.6766458  55.9277842 111.8538716  68.4080407
  68.7375885 123.5958240  75.5349813  68.6127024 122.7947980  75.0260758
  69.3954976 124.0904434  75.0463783  60.3584053 109.9506973  74.7126953
  59.6370639 110.5642941  74.5734426  61.1477309 110.4864738  74.6343599
  70.8010793 121.3967261  77.1629363  69.8541129 121.2772612  77.0907690
  71.1493566 120.5089759  77.2455624  63.1610366 107.2861399  80.9867605
  63.6844768 107.5323696  81.7493914  62.9422700 108.1181434  80.5670742
  58.5577647 109.5565074  68.8538730  58.2290354 108.6762453  68.6713836
  58.9117018 109.5012743  69.7415119  67.8057226 121.1919977  73.3633715
  67.6582189 120.2636684  73.5441285  68.6310720 121.2140067  72.8790790
  61.6719471 109.8438044  69.2214207  62.0115543 110.3723965  68.4992816
  62.1191591 110.1818450  69.9972774  71.4091348 122.0148535  74.4498588
  72.3337896 121.8091397  74.3123039  71.2406652 121.7664937  75.3587929
  64.3662911 108.2275095  78.6717275  64.0259732 107.4282908  79.0737955
  63.6601918 108.5276805  78.0994109  65.0179383 105.3124407  77.1244598
  65.8405453 104.8384885  77.0023489  65.2617447 106.0914891  77.6243285
  63.6587618 108.3412665  67.4207500  64.3795980 108.7193918  66.9171217
  63.0352922 109.0601542  67.5242478  67.8018741 109.0457814  68.3565832
  68.0182355 109.9282452  68.0554661  67.3212808 108.6544028  67.6271474
  62.5417962 112.0043528  74.9336577  62.3962543 112.3183831  75.8260859
  62.0643166 112.6228428  74.3807476  64.4014345 108.9946076  74.9817467
  64.3875914 108.0987169  74.6449765  65.1186773 109.0016739  75.6155753
  66.2540476 109.4283416  77.0270594  65.9958253 110.3500486  77.0254924
  65.7225516 109.0313850  77.7171058  71.1986664 122.5334203  69.8060679
  71.3723542 121.9680625  69.0534532  71.6915556 123.3335098  69.6240169
  57.0163624 114.5448872  77.8724238  56.4717092 115.3208680  78.0044513
  57.8942974 114.8919677  77.7143360  63.8051241 107.8760456  70.2505037
  63.9267152 106.9477102  70.4495924  63.5153283 107.8899142  69.3383352
  66.6742431 105.5615366  73.3871757  66.6964128 105.6254699  72.4323736
  67.0910490 104.7219875  73.5812263  77.0526056 115.2970626  71.4250979
  77.4957202 114.5477951  71.0270102  76.1752566 115.2880762  71.0424711
  72.1861837 121.8500967  66.9057578  72.8812742 122.4707660  67.1244892
  72.5284987 120.9996319  67.1809956  57.8029646 113.6718768  80.7654395
  57.0611382 113.8201404  81.3519025  57.4822390 113.9327034  79.9021144
  74.0853260 119.3000673  68.4344908  74.6104584 119.6387946  67.7094228
  73.9975613 118.3647688  68.2508043  65.7473309 123.2134747  80.5634785
  66.0560435 122.9683893  81.4357485  66.5448791 123.4181385  80.0753655
  65.7693921 125.3672656  72.7940162  65.3298911 124.8749035  73.4873018
  66.5202038 124.8245624  72.5532237  58.2486260 121.5584197  72.7964790
  59.0744280 121.2587969  72.4163433  57.8980312 120.7891819  73.2454578
  63.2167793 120.9110665  74.8662463  62.5947802 120.2481370  74.5664691
  63.8872660 120.9371797  74.1836111  56.4494865 119.4770523  73.7553723
  55.6126773 119.0492698  73.5737725  56.4218510 119.6702967  74.6924514
  63.2892320 109.3892453  84.4594969  63.3380476 110.2654576  84.0772739
  63.8314835 108.8469846  83.8866613  73.7747166 119.9333577  83.7396106
  72.9842710 119.9157715  83.2000606  73.5380521 120.4721870  84.4945143
  73.8945041 116.7826043  81.0528835  73.9443046 116.6176050  81.9944358
  73.7858964 115.9153302  80.6626716  62.7781300 119.4614589  68.3420924
  62.9269420 120.1450053  67.6887597  63.5847743 119.4419679  68.8570380
  71.1848804 112.7656971  82.3688142  72.0858666 112.6263436  82.0772139
  71.2596778 112.9311426  83.3086319  65.5191609 110.1423826  81.2141328
  64.6494918 110.4357392  80.9423917  65.7551089 110.7264271  81.9348592
  75.3963238 119.2022984  81.2970856  75.1048046 119.5652965  82.1334317
  74.7835369 118.4889993  81.1184189  76.5958920 116.7675864  73.8173427
  77.4305812 117.2065668  73.9810987  76.7318049 116.2914517  72.9981672
  73.6450426 114.3255599  79.7650914  74.1204548 114.5183245  78.9569766
  72.7215992 114.3814785  79.5194298  60.5333933 115.4879766  69.3481993
  60.2879975 114.5842096  69.5462203  60.7029847 115.4896917  68.4061471
  68.2230643 106.3603443  78.7306748  68.7412587 107.0964470  78.4053237
  67.8685775 106.6667436  79.5653507  59.8029580 111.2208124  66.8468154
  59.1098825 111.2952479  66.1908190  59.5581332 110.4568467  67.3689671
  68.4743237 102.7803725  74.2507645  68.7544991 102.1126914  74.8768071
  69.2593844 102.9732821  73.7382309  66.2776705 121.9562719  65.8132671
  65.7050672 122.5752906  65.3603143  66.8509499 122.5062081  66.3472593
  72.3452095 111.2021359  77.9979220  73.2969518 111.3019457  78.0191444
  72.1755546 110.4099628  78.5077304  70.3666475 108.2876942  78.1838621
  69.7716407 108.5681955  77.4885110  70.0816171 108.7770843  78.9555362
  69.4973965 122.2399869  66.9441254  70.4304638 122.1745431  67.1474129
  69.4097178 123.0756136  66.4855786  72.1261982 121.5565740  63.9045201
  72.0475613 121.2225603  64.7980959  72.9471649 122.0487507  63.9036673
  74.8240173 114.4227479  77.1121520  74.7916493 113.4843480  77.2981204
  75.4340797 114.5011516  76.3787345  66.6623504 113.2923532  63.1548724
  67.6082609 113.1629740  63.2237142  66.2837749 112.5538194  63.6318152
  74.9734661 111.2138522  77.1579803  74.4573710 110.4296979  76.9709732
  75.8574610 110.8857239  77.3226322  72.6345388 104.9579538  73.1175616
  72.4370210 104.6494626  74.0018948  73.2445094 105.6841177  73.2473545
  80.6416723 115.4843486  76.2527557  81.3720111 115.2228774  76.8135260
  80.0323668 114.7472208  76.2929624  78.7232020 113.6251348  76.8502008
  77.9965184 113.4907313  76.2418499  78.3079307 113.9328177  77.6558726
  66.5462196 117.3441278  84.6149381  67.4665206 117.5219877  84.8089427
  66.5111779 116.3997323  84.4629080  64.8466421 111.2173508  63.0903609
  63.9397876 110.9206621  63.1666323  65.1242402 110.9203326  62.2237895
  55.7644361 112.5379872  73.5402655  55.4447146 111.6845180  73.2477029
  55.2177790 112.7528450  74.2960623  59.5424269 115.2542313  77.2572162
  59.7610279 116.1859420  77.2760196  59.9550043 114.8950287  78.0426966
  66.4628487 105.7610398  69.2447850  65.6529215 105.4157483  69.6203096
  67.1512904 105.4517942  69.8335462  68.3919035 104.8388445  70.8672147
  68.9450074 105.2583898  71.5262170  68.6289121 103.9124193  70.9095103
  64.4152134 110.8275518  86.6474911  64.3148861 111.7769875  86.5787002
  64.1973676 110.4993757  85.7750981  63.6165206 108.0760443  63.2315588
  64.4784370 108.4015342  63.4911406  63.8015550 107.2891939  62.7188654
  55.6332621 116.1582783  75.5095777  54.9396093 115.7436736  74.9965731
  56.3805612 116.2003320  74.9129196  71.7697842 106.9488970  70.3750811
  71.1896511 107.6073774  69.9928864  71.5033775 106.1266314  69.9638229
  70.2201408 106.3494028  72.5772132  70.7201187 106.4610562  71.7686450
  70.8637016 106.0455080  73.2172940  64.2783404 114.2572657  85.4639972
  63.7950486 115.0573017  85.6703862  64.3644343 114.2680602  84.5107416
  57.5469364 116.0901037  73.3861792  57.5240052 116.1888724  72.4343675
  57.8570000 116.9366188  73.7078958  60.2056742 118.1477192  77.5008406
  61.1599995 118.1161134  77.4338338  60.0069265 117.6867816  78.3158632
  60.7956124 116.7178308  80.0679204  61.6149013 117.2122387  80.0914041
  61.0692932 115.8010276  80.0396771  70.5522720 109.1089060  69.4307159
  69.6648575 109.3938711  69.2127354  70.9676709 108.9482824  68.5834436
  73.9037256 109.1335581  73.1461499  74.6797646 109.6232034  73.4186116
  73.1785390 109.5593635  73.6033368  76.3409815 109.8463200  74.2035439
  76.9354306 109.6058936  73.4928748  76.4136399 109.1270331  74.8308976
  69.6965934 118.8733735  63.5255179  70.4001784 119.0783737  64.1412835
  68.9728582 119.4410497  63.7904263  70.5263744 114.6243596  69.6457450
  70.4698945 115.0812148  68.8065082  71.0792086 113.8634281  69.4680292
  74.3368550 110.4133328  70.4707569  74.0805484 110.0129964  71.3015777
  73.7121418 111.1277122  70.3457708  78.6480888 113.1529401  72.9778860
  78.0880446 113.2222591  73.7510423  78.0424391 112.9770386  72.2578357
  71.6052631 119.3116264  65.5753639  72.4398235 118.8797463  65.3931114
  71.4436974 119.1398278  66.5030534  71.2598523 115.8148377  66.9409979
  71.2047327 115.6492649  65.9998423  70.6344578 116.5224410  67.0972168
  56.0491038 111.0516442  80.7671401  56.6949902 110.5415396  81.2558626
  55.8408189 111.7885123  81.3414826  68.5744430 118.1197289  86.2663542
  69.4435590 118.2937942  85.9050176  68.0951182 118.9391706  86.1439271
  64.5694649 105.3156486  66.5195297  64.5573318 106.2598326  66.6763568
  65.4618070 105.1326632  66.2254758  62.7430611 125.2394390  77.9452975
  63.6457857 125.2718001  78.2619470  62.5167981 124.3094841  77.9599311
  64.4984213 123.9925377  74.6063054  63.5479844 123.9927238  74.4927426
  64.8016699 123.2458111  74.0899088  68.3846768 101.9099263  70.7741234
  67.6179164 101.3557750  70.9197916  68.7957473 101.9821132  71.6355386
  60.3888529 108.1984059  84.8646415  61.2519991 107.8420864  85.0749740
  59.8153940 107.8597954  85.5521819  80.2336906 129.8285915  75.6708816
  80.8715316 129.7092663  74.9672156  80.1157749 130.7766759  75.7296768
  77.0426612 129.7813343  75.6070341  76.7045124 129.6654408  74.7190876
  77.9116381 129.3804508  75.5871347  77.5246395 130.9348195  81.5656546
  77.5135036 130.5400993  80.6937050  77.6867035 130.2014268  82.1590318
  74.7434892 128.5501591  64.9387281  74.9960412 128.0283112  64.1770744
  73.8059451 128.3867736  65.0413965  79.7878175 127.5537369  72.7462024
  80.5741264 127.1356792  72.3952441  80.0516879 128.4583461  72.9143673
  85.1886602 127.4912602  73.6495003  85.9211774 126.9211819  73.8832832
  84.4325957 127.1034203  74.0901508  76.8062721 129.9139844  70.8458345
  76.4420929 129.3870465  71.5571267  77.6629837 129.5238313  70.6724831
  82.7112022 121.2034176  78.1089611  82.3795347 122.0729587  77.8850826
  82.1157635 120.8870460  78.7883642  76.4468208 124.9429743  65.8419694
  76.6142611 125.8109980  66.2090165  76.2565377 125.1057025  64.9180983
  82.6040685 125.9229263  75.1882961  81.6957563 125.8544671  74.8941722
  82.5528281 126.4001207  76.0164787  76.4257429 127.3987401  66.8266361
  76.3057054 127.8444452  67.6651841  75.7310018 127.7472719  66.2679899
  76.6781551 127.3418908  83.1317859  75.9014885 127.9012828  83.1220723
  77.3172114 127.8275691  83.6532729  84.4702332 124.1245701  76.9660835
  83.8276712 124.4178234  76.3200630  83.9657260 124.0098621  77.7714032
  82.1242495 127.8708874  67.6546695  83.0360352 128.1036261  67.4794392
  81.6152142 128.4545918  67.0921773  76.7614333 127.2306109  78.6641544
  77.6075528 127.6545522  78.8076193  76.7012971 126.5739733  79.3580107
  79.9113778 124.8910477  80.3222718  79.6674710 125.6452538  79.7856993
  80.1873709 125.2695825  81.1569965  79.4678470 124.0466910  75.9036556
  78.6062949 124.3448164  76.1953293  79.4940905 124.2637309  74.9717588
  75.2208926 128.7132253  69.1199926  75.9232969 129.1653297  69.5873853
  74.8889554 128.0716072  69.7479819  73.6689287 127.3044010  83.4951136
  73.0387948 127.9860291  83.7286533  73.5625375 127.1927091  82.5504274
  68.9634260 126.9715806  74.4217060  68.1733314 127.2273334  73.9457170
  69.4545507 127.7864144  74.5269100  70.9149005 127.3360385  71.3800537
  70.1180168 127.4479079  71.8984032  70.6874597 127.6747037  70.5141427
  72.9470030 121.6064776  85.8576387  72.5536975 121.0530974  86.5324031
  73.7636170 121.9175354  86.2482904  75.8637991 123.0222655  83.4496643
  76.6047704 123.6229808  83.3701106  76.0955914 122.2800292  82.8914686
  79.8095154 119.0503758  77.7260925  79.4659423 119.9405399  77.6500036
  80.1774116 118.8605415  76.8630510  79.7745437 129.0412369  66.2333360
  79.2592060 129.8116973  66.4721748  79.5022745 128.3677505  66.8566422
  77.3592548 123.8862069  71.2918598  76.5034144 123.4968920  71.1124237
  77.7719499 123.9654030  70.4318384  78.8891694 121.4208413  75.6910158
  78.3856490 121.3838548  74.8777964  79.1822301 122.3301155  75.7506815
  75.1334580 121.5047142  74.6976340  75.9987577 121.3089951  74.3382229
  75.2012089 121.2757494  75.6245697  79.5631740 126.9139461  68.0593141
  79.2581875 127.2285610  68.9103284  80.5162182 126.9920881  68.1020474
  72.7396899 123.7349350  72.0692707  73.3140651 123.5124532  71.3365900
  73.3267882 123.8038045  72.8221308  81.7976476 129.6223077  72.8757083
  82.3108358 130.2553069  73.3778793  82.4477700 129.0224273  72.5100443
  73.0666486 125.7653811  66.0888592  72.2303799 126.1028498  66.4097867
  72.9271256 125.6302791  65.1515729  75.0419567 120.6090599  70.7967776
  74.3883979 120.2939616  70.1724391  75.0000041 119.9866340  71.5227599
  78.2757307 127.0972533  75.1215424  77.3579869 127.3187480  74.9637112
  78.6917451 127.1718843  74.2627131  79.0592355 128.4963948  70.2518104
  79.8064174 129.0085346  69.9425226  79.3283945 128.1748001  71.1122498
  81.5071192 125.5321065  72.2336893  80.7693949 125.0198451  72.5647136
  81.7597966 125.0921446  71.4220170  81.6082819 118.3097317  72.8278663
  81.9141696 117.4494680  72.5404578  82.3335424 118.9014937  72.6277657
  75.8803899 128.6051110  73.3354854  75.9352509 127.6524946  73.2597330
  75.0695101 128.7610549  73.8196152  73.8196259 127.2228170  71.0945233
  73.0064125 127.5222340  71.5010425  74.3155253 126.8283858  71.8119715
  79.4170471 127.6869994  79.9260127  79.7719859 127.9141467  80.7854592
  80.0642602 128.0188371  79.3037382  73.3110334 124.7946525  76.7106468
  73.9509713 124.6535284  76.0129431  72.4787864 124.5081038  76.3345070
  70.3953401 128.2392037  68.9001213  69.4650989 128.1776493  69.1171175
  70.4910873 127.7167990  68.1037854  70.3138950 124.7646850  71.4879454
  70.5745768 125.6792183  71.3788615  71.1356123 124.2971293  71.6376067
  71.7863876 126.1784607  78.6578279  72.4586929 125.9701969  78.0090928
  70.9593662 125.9806693  78.2183511  77.6889448 122.8046548  80.6743940
  77.0417363 123.5036498  80.5808416  78.4590463 123.2382692  81.0420188
  77.8653582 130.6427313  78.7340759  78.7945642 130.7938473  78.5609727
  77.4444612 130.7311334  77.8789406  81.1506321 131.3915615  64.1665195
  80.5335491 130.6662443  64.0698247  80.6822809 132.1524975  63.8232269
  74.8173674 129.1647170  78.9064396  75.5273292 128.5240362  78.8651014
  74.7742982 129.4160064  79.8290576  73.5302608 126.1512387  80.7260035
  72.9939965 125.7003126  81.3781632  72.9419316 126.2858296  79.9830500
  72.9404867 125.6101039  63.2886499  72.0634333 125.4889840  62.9248746
  73.4162620 124.8187117  63.0365387  69.2641729 125.2868395  77.8113030
  69.1799918 124.6794065  77.0763440  68.4424435 125.7777413  77.8122526
  79.4365443 123.7721959  73.1783225  79.9334142 123.0191921  72.8584295
  78.6652424 123.8086275  72.6126434  76.0200411 125.9139342  72.9054909
  75.6498199 125.3610382  73.5935815  76.5159504 125.3097475  72.3529909
  83.9067775 128.3710965  71.2871682  84.3728227 129.2038957  71.2131985
  84.3575275 127.9055947  71.9916941  81.8784437 120.7391552  75.3262584
  80.9647517 120.9695779  75.4944791  82.3077539 120.8229996  76.1776616
  81.6490896 128.9281444  77.8262478  80.9962346 129.1757352  77.1714930
  82.0271276 128.1145582  77.4924955  77.6978469 129.6701255  84.3128515
  77.0219106 129.5695384  84.9830890  78.5206103 129.5140469  84.7764512
  71.4165745 123.3243332  79.1508015  71.4807072 124.1858163  78.7385413
  71.3532865 122.7117334  78.4180374  70.8918018 125.3966465  82.7981050
  71.5190056 125.0143542  83.4118574  70.0345936 125.1780667  83.1636742
  67.6683560 127.2042894  68.7299404  67.9637001 126.2953572  68.6766458
  66.7671596 127.1830634  68.4080407  71.1977807 125.2798891  74.7126953
  70.4764393 125.8934858  74.5734426  71.9871063 125.8156655  74.6343599
  74.0004121 122.6153317  80.9867605  74.5238523 122.8615614  81.7493914
  73.7816454 123.4473352  80.5670742  69.3971402 124.8856992  68.8538730
  69.0684108 124.0054371  68.6713836  69.7510773 124.8304660  69.7415119
  72.5113225 125.1729962  69.2214207  72.8509298 125.7015883  68.4992816
  72.9585346 125.5110368  69.9972774  75.2056666 123.5567012  78.6717275
  74.8653486 122.7574825  79.0737955  74.4995672 123.8568723  78.0994109
  75.8573138 120.6416325  77.1244598  76.6799207 120.1676803  77.0023489
  76.1011201 121.4206808  77.6243285  74.4981372 123.6704583  67.4207500
  75.2189735 124.0485836  66.9171217  73.8746676 124.3893460  67.5242478
  78.6412495 124.3749732  68.3565832  78.8576110 125.2574370  68.0554661
  78.1606562 123.9835946  67.6271474  73.3811717 127.3335445  74.9336577
  73.2356297 127.6475748  75.8260859  72.9036920 127.9520346  74.3807476
  75.2408099 124.3237993  74.9817467  75.2269668 123.4279087  74.6449765
  75.9580528 124.3308657  75.6155753  77.0934230 124.7575334  77.0270594
  76.8352008 125.6792404  77.0254924  76.5619270 124.3605768  77.7171058
  74.6444995 123.2052374  70.2505037  74.7660907 122.2769020  70.4495924
  74.3547038 123.2191060  69.3383352  77.5136186 120.8907284  73.3871757
  77.5357883 120.9546617  72.4323736  77.9304245 120.0511793  73.5812263
  74.1286075 124.7184371  84.4594969  74.1774230 125.5946494  84.0772739
  74.6708589 124.1761764  83.8866613  82.0242558 128.0948889  82.3688142
  82.9252421 127.9555353  82.0772139  82.0990533 128.2603343  83.3086319
  76.3585363 125.4715743  81.2141328  75.4888673 125.7649309  80.9423917
  76.5944844 126.0556188  81.9348592  79.0624397 121.6895360  78.7306748
  79.5806341 122.4256387  78.4053237  78.7079530 121.9959354  79.5653507
  70.6423335 126.5500041  66.8468154  69.9492580 126.6244396  66.1908190
  70.3975087 125.7860385  67.3689671  79.3136991 118.1095643  74.2507645
  79.5938745 117.4418832  74.8768071  80.0987598 118.3024738  73.7382309
  83.1845850 126.5313277  77.9979220  84.1363273 126.6311374  78.0191444
  83.0149300 125.7391545  78.5077304  81.2060229 123.6168860  78.1838621
  80.6110161 123.8973873  77.4885110  80.9209926 124.1062761  78.9555362
  77.5017258 128.6215449  63.1548724  78.4476363 128.4921658  63.2237142
  77.1231503 127.8830111  63.6318152  85.8128416 126.5430440  77.1579803
  85.2967465 125.7588897  76.9709732  86.6968364 126.2149157  77.3226322
  83.4739143 120.2871456  73.1175616  83.2763964 119.9786544  74.0018948
  84.0838848 121.0133094  73.2473545  75.6860175 126.5465426  63.0903609
  74.7791631 126.2498539  63.1666323  75.9636156 126.2495244  62.2237895
  77.3022241 121.0902316  69.2447850  76.4922970 120.7449401  69.6203096
  77.9906658 120.7809859  69.8335462  79.2312789 120.1680362  70.8672147
  79.7843828 120.5875816  71.5262170  79.4682876 119.2416110  70.9095103
  75.2545889 126.1567436  86.6474911  75.1542616 127.1061793  86.5787002
  75.0367431 125.8285675  85.7750981  74.4558960 123.4052361  63.2315588
  75.3178124 123.7307259  63.4911406  74.6409304 122.6183857  62.7188654
  82.6091597 122.2780888  70.3750811  82.0290266 122.9365692  69.9928864
  82.3427529 121.4558232  69.9638229  81.0595163 121.6785945  72.5772132
  81.5594941 121.7902480  71.7686450  81.7030771 121.3746998  73.2172940
  81.3916475 124.4380978  69.4307159  80.5042330 124.7230629  69.2127354
  81.8070464 124.2774741  68.5834436  84.7431011 124.4627499  73.1461499
  85.5191401 124.9523951  73.4186116  84.0179145 124.8885553  73.6033368
  87.1803569 125.1755118  74.2035439  87.7748060 124.9350854  73.4928748
  87.2530153 124.4562249  74.8308976  81.3657498 129.9535514  69.6457450
  81.3092700 130.4104065  68.8065082  81.9185841 129.1926198  69.4680292
  85.1762304 125.7425246  70.4707569  84.9199238 125.3421881  71.3015777
  84.5515172 126.4569040  70.3457708  82.0992278 131.1440295  66.9409979
  82.0441081 130.9784567  65.9998423  81.4738333 131.8516328  67.0972168
  66.8884793 126.3808359  80.7671401  67.5343656 125.8707313  81.2558626
  66.6801944 127.1177041  81.3414826  75.4088403 120.6448404  66.5195297
  75.3967073 121.5890244  66.6763568  76.3011825 120.4618550  66.2254758
  79.2240523 117.2391181  70.7741234  78.4572918 116.6849667  70.9197916
  79.6351228 117.3113050  71.6355386  71.2282284 123.5275977  84.8646415
  72.0913745 123.1712781  85.0749740  70.6547694 123.1889871  85.5521819
  15.1974380  14.8596532  62.3954123  15.8352790  14.7403279  61.6917463
  15.0795223  15.8077376  62.4542075  12.0064087  14.8123960  62.3315648
  11.6682598  14.6965025  61.4436182  12.8753855  14.4115125  62.3116654
   7.8650902  16.6659436  58.3212539   7.3015767  16.5749373  57.5528826
   7.7503297  15.8459341  58.8015031  12.4883870  15.9658812  68.2901853
  12.4772510  15.5711610  67.4182357  12.6504509  15.2324884  68.8835625
   5.4115334  18.1610628  61.1596759   6.2036626  17.8201453  60.7443058
   5.6511984  18.2705603  62.0798912  13.4450461  20.3330404  53.6327003
  12.7938441  20.9184484  53.2461017  14.2394824  20.8636599  53.6922041
   7.3706088  17.4219541  54.0314138   8.1436964  16.8748528  53.8927014
   7.7231487  18.2863790  54.2428599   9.2091131  18.7495923  67.2381037
   8.9180997  19.6541554  67.1227703   9.8448115  18.7912451  67.9525107
  10.1347338  16.1272772  63.8282397  10.7310910  15.9028794  63.1139360
  10.1922309  15.3857517  64.4307845   9.7072366  13.5812207  51.6632588
   9.9597887  13.0593729  50.9016051   8.7696925  13.4178353  51.7659271
  14.7515649  12.5847986  59.4707331  15.5378738  12.1667409  59.1197748
  15.0154353  13.4894078  59.6388979  14.9225726  18.0220836  54.1695988
  14.2871559  18.0955462  54.8816892  14.5923133  18.6114435  53.4915067
  20.1524076  12.5223219  60.3740309  20.8849248  11.9522436  60.6078139
  19.3963432  12.1344819  60.8146815   9.4268655  15.4840313  53.8656963
   9.3104913  14.8085217  54.5338047   9.5370915  14.9972687  53.0489116
  11.7700196  14.9450460  57.5703652  11.4058403  14.4181081  58.2816573
  12.6267312  14.5548929  57.3970137  14.1681016  18.4357339  64.2330831
  13.8681739  19.3382378  64.1246638  13.8232075  18.1689522  65.0851984
   7.6193497  14.8871136  60.2667535   6.6943994  14.7547350  60.4745227
   7.8677911  15.6665355  60.7637478  17.5678160  10.9539879  61.9128268
  16.6595037  10.8855288  61.6187029  17.5165755  11.4311824  62.7410094
  11.3894904  12.4298018  53.5511667  11.2694529  12.8755068  54.3897147
  10.6947492  12.7783335  52.9925205   9.1501796  25.2001659  57.2001798
   9.0725825  26.1509484  57.2790279   8.5463439  24.8547532  57.8576725
  11.6419025  12.3729525  69.8563165  10.8652360  12.9323445  69.8466030
  12.2809589  12.8586308  70.3778035  19.4339806   9.1556318  63.6906142
  18.7914186   9.4488851  63.0445937  18.9294735   9.0409238  64.4959339
  17.0879970  12.9019491  54.3792001  17.9997826  13.1346877  54.2039699
  16.5789617  13.4856535  53.8167080   9.8965398  15.1814978  69.4181132
  10.6380082  15.7200022  69.1415956   9.1902383  15.8081267  69.5752684
  15.3720737  17.3244119  68.0153294  15.7804093  16.8826529  67.2707926
  14.6497999  16.7496746  68.2687487  11.7251807  12.2616725  65.3886851
  12.5713003  12.6856139  65.5321500  11.6650445  11.6050350  66.0825414
  15.6949552  17.8845309  61.7705583  15.0658414  18.0491023  61.0681651
  15.3075214  18.2986919  62.5416547  19.5738784  18.8199747  59.1249946
  18.8889822  19.1998648  58.5746980  19.6582633  19.4295074  59.8581894
  14.8751253   9.9221094  67.0468024  14.6312185  10.6763154  66.5102300
  15.1511183  10.3006441  67.8815271  16.8289716  16.4659706  65.7245290
  17.0406611  17.1091466  65.0479671  16.7819464  15.6322023  65.2567220
  14.4315945   9.0777527  62.6281862  13.5700424   9.3758780  62.9198600
  14.4578379   9.2947926  61.6962895  11.2477514  17.6219717  59.0355668
  11.7115859  17.9007420  58.2460290  10.9834312  16.7203162  58.8528759
   8.1401595  17.1691199  61.9735431   8.7102952  17.5978467  61.3352916
   8.7309707  16.8873783  62.6719617  10.1846400  13.7442870  55.8445233
  10.8870443  14.1963913  56.3119159   9.8527028  13.1026688  56.4725126
  17.9435543  19.3431661  63.8967647  18.7652987  18.9411849  63.6150329
  17.9397946  19.2399896  64.8483763  11.7092147  18.8915705  66.0528358
  11.7736579  19.3536112  66.8886530  11.0003071  18.2613070  66.1810668
  26.0341537  15.6870410  60.2452619  25.2805245  15.1177808  60.0896623
  26.1689078  15.6533074  61.1923254  11.4240165  20.5583812  55.9207338
  11.2885839  21.4035348  56.3492186  11.9649977  20.7603090  55.1573272
   4.8769562  18.0759250  56.4935263   5.3894083  18.8702501  56.6440828
   5.5292275  17.3785541  56.4268865   6.6864447  21.1925007  58.5758016
   6.8631075  22.1142971  58.3879000   7.4821280  20.8783426  59.0052396
  13.0508641  21.1807379  70.0507680  12.6072495  20.3943757  69.7328585
  13.7125855  21.3686529  69.3851571   7.8095762  22.7103180  64.5768359
   8.3603187  22.5820244  63.8045353   6.9707238  23.0098069  64.2263252
  15.1489879  21.4610179  68.0789082  15.1308354  22.2819060  67.5869351
  16.0709799  21.3364254  68.3039223  11.6062933  18.9754308  68.9212590
  12.1391270  18.2142596  68.6911898  11.0777014  18.6827960  69.6636744
  14.7382911  14.0722985  52.9578667  14.2229534  14.8427590  53.1967054
  14.4660219  13.3988121  53.5811728  19.7117185  16.8255340  54.8931840
  18.9346628  16.4866499  54.4487002  20.3908666  16.8307963  54.2186805
  14.5269214  11.9450077  54.7838448  14.2219350  12.2596226  55.6348591
  15.4799656  12.0231497  54.8265781  12.9715646  18.1040301  56.4331402
  12.4437007  17.3693060  56.1204639  12.4703149  18.8814977  56.1871370
  17.9508492  16.2989321  61.5498448  17.2932166  16.9888583  61.6378577
  18.7548891  16.6885753  61.8932435  16.7613951  14.6533694  59.6002390
  17.2745832  15.2863686  60.1024100  17.4115175  14.0534889  59.2345750
  11.1168246  15.9220511  49.4366375  10.2095308  15.6909764  49.6357524
  11.6139278  15.1258130  49.6240356  14.0236325  24.6318018  52.3563061
  13.3498024  24.9349715  52.9648019  14.4102147  25.4347098  52.0068518
  13.2394782  12.1283149  61.8460730  12.3217343  12.3498096  61.6882419
  13.6554925  12.2029460  60.9872438  14.0229829  13.5274565  56.9763411
  14.7701648  14.0395962  56.6670533  14.2921419  13.2058618  57.8367804
  12.2956480  16.0233106  53.9590365  11.3867699  15.7392139  54.0562835
  12.3251563  16.4432184  53.0993672  17.5275747  19.6339695  57.7281533
  17.0738074  18.7930605  57.7846723  16.8969714  20.2701094  58.0656313
  16.4708667  10.5631681  58.9582200  15.7331423  10.0509067  59.2892443
  16.7235440  10.1232063  58.1465477  15.9708686  21.4716192  58.6631351
  16.2631661  22.0321249  57.9443716  16.4807307  21.7644753  59.4184510
  10.8441374  13.6361726  60.0600160  10.8989983  12.6835563  59.9842637
  10.0332576  13.7921165  60.5441459  11.9932567  17.5641849  51.2978444
  11.5551997  16.8477708  50.8384081  12.7343008  17.7917964  50.7363535
  10.9342311  22.2496543  59.7524804  10.8918490  22.4757389  58.8233336
  11.8505010  22.0159918  59.9010605  14.3807945  12.7180611  66.6505433
  14.7357333  12.9452084  67.5099899  15.0280076  13.0498987  66.0282688
  20.1105682  15.8399046  57.3554762  19.9723581  16.0300642  56.4275951
  19.7541901  16.6018429  57.8122813  20.1375062  17.9075573  62.3666034
  20.5711568  17.8150863  63.2149088  20.8506642  17.8833074  61.7286050
   9.0508112  19.1259572  59.5486767   9.8448711  18.6309892  59.3469342
   8.3399805  18.5977435  59.1854472  13.8702957  21.5077668  63.8999134
  13.9239979  22.0768604  64.6676850  13.0017738  21.6779553  63.5353171
  20.9990611  17.9499274  64.8998919  21.1926501  18.8545085  65.1458194
  20.8991229  17.4906693  65.7337504  16.0605720  18.1006017  70.4739800
  15.9091226  17.8716569  69.5569883  16.0510399  19.0576618  70.4871145
  12.8291056  15.6737930  65.4586066  13.7583116  15.8249089  65.2855033
  12.4082086  15.7621950  64.6034713  11.6279388  19.6988594  63.2284604
  11.4890474  19.3307378  64.1010542  10.8393984  20.2136233  63.0568562
  12.2227540  24.7997690  54.5710140  12.3979296  24.3285734  55.3855763
  11.5360328  25.4263457  54.7991401  13.1784603  19.0770197  60.6173442
  12.8434436  19.0370967  61.5131091  12.6788549  18.4114913  60.1443852
   7.1528847  14.4837827  66.1426023   7.0148645  13.7518066  66.7437562
   8.0633771  14.3946727  65.8610210  16.1143795  16.4226231  50.8910501
  15.4972966  15.6973059  50.7943554  15.6460283  17.1835591  50.5477575
   9.7811148  14.1957786  65.6309702  10.4910766  13.5550978  65.5896321
   9.7380456  14.4470681  66.5535883  17.7697927  21.1325139  68.5516282
  17.7110473  20.4484360  67.8846865  18.1717445  21.8744129  68.0996908
   6.7888625  27.9487053  61.3450000   7.0285224  28.5805577  62.0229019
   5.9457822  27.5975093  61.6315360  17.7715334  19.0964723  66.7830261
  16.8842113  18.7590645  66.9056660  18.3413885  18.3647755  67.0199027
  11.3016487  23.7566176  63.7491504  11.2286659  24.5621147  64.2610809
  10.8593880  23.9558142  62.9239526  11.0906267  22.9937946  57.2594326
  10.3073789  23.5359626  57.3532551  11.7899012  23.5111925  57.6588567
  14.4002917   8.8032575  59.9028531  14.8971617   8.0502538  59.5829602
  13.6289899   8.8396892  59.3371741  22.2532674  14.5072941  61.5446823
  22.2422551  15.3897656  61.1740756  21.3850054  14.1544492  61.3501360
  13.7615171  23.6553010  65.9049663  14.4743143  24.2900475  65.8325565
  13.2705199  23.7516876  65.0889665  15.4832698  17.5604262  57.4766955
  14.5488976  17.6805725  57.3071659  15.6609366  16.6576729  57.2126965
  18.8705249  13.4021582  58.0116989  19.3365701  14.2349573  57.9377292
  19.3212750  12.9366563  58.7162247   8.8127084  21.4047453  66.7255234
   9.5136544  22.0383936  66.8784628   8.3422199  21.7462185  65.9650873
  16.9381480  19.7465403  55.0103141  17.2141324  19.6321998  55.9197015
  16.0685979  19.3482888  54.9715314  16.6128370  13.9592061  64.5507784
  15.9599821  14.2067968  63.8960237  16.9908750  13.1456199  64.2170262
  13.5735544  23.9951754  58.6535955  13.7557939  23.1773410  59.1163707
  14.3968530  24.2119446  58.2160845  13.9077710  22.9219939  55.9151003
  14.4365476  22.4112394  55.3021165  14.1705929  22.6062469  56.7796536
  12.6615943  14.7011872  71.0373821  11.9856580  14.6006001  71.7076197
  13.4843577  14.5451085  71.5009819   4.4094802  20.9383808  63.6586337
   4.9948239  20.1927496  63.7914241   4.2119641  21.2487765  64.5423001
   7.2633458  23.9735056  58.6748779   6.5943833  24.4581183  58.1912819
   7.1246327  24.2204276  59.5892158  11.4038726  26.0078799  65.2731437
  11.9557034  26.1710421  66.0380523  11.7444920  26.5983237  64.6011462
  16.2549601  20.8340057  71.1280092  16.7989504  21.4470015  70.6335047
  15.6736445  21.3919635  71.6447105  14.5407113  23.9560775  62.2595120
  14.4158253  23.1550515  61.7506065  15.1986205  24.4506968  61.7709089
  16.6042022  21.7569795  63.8874670  15.6572357  21.6375146  63.8152996
  16.9524795  20.8692293  63.9700931  13.6088455  21.5522511  60.0879022
  13.4613418  20.6239218  60.2686592  14.4341949  21.5742602  59.6036097
  17.2122577  22.3751070  61.1743895  18.1369124  22.1693931  61.0368346
  17.0437880  22.1267471  62.0833236  17.0017893  22.8936737  56.5305986
  17.1754771  22.3283160  55.7779838  17.4946784  23.6937632  56.3485476
  22.8557284  15.6573160  58.1496286  23.2988430  14.9080485  57.7515409
  21.9783795  15.6483296  57.7670018  17.9893066  22.2103502  53.6302884
  18.6843970  22.8310194  53.8490199  18.3316216  21.3598853  53.9055262
  19.8884489  19.6603207  55.1590215  20.4135813  19.9990480  54.4339535
  19.8006841  18.7250222  54.9753350  11.5504538  23.5737281  67.2880092
  11.8591664  23.3286428  68.1602791  12.3480020  23.7783919  66.7998962
  11.5725150  25.7275190  59.5185468  11.1330140  25.2351569  60.2118325
  12.3233267  25.1848158  59.2777544   4.0517489  21.9186731  59.5210096
   4.8775508  21.6190503  59.1408740   3.7011541  21.1494354  59.9699885
   9.0199022  21.2713199  61.5907770   8.3979031  20.6083904  61.2909998
   9.6903889  21.2974331  60.9081418   2.2526094  19.8373058  60.4799030
   1.4158002  19.4095232  60.2983031   2.2249739  20.0305501  61.4169821
  19.5778395  20.2936111  70.4641413  18.7873939  20.2760250  69.9245912
  19.3411749  20.8324404  71.2190450  19.6976270  17.1428577  67.7774142
  19.7474275  16.9778585  68.7189664  19.5890193  16.2755836  67.3872022
   8.5812529  19.8217123  55.0666230   8.7300649  20.5052587  54.4132903
   9.3878972  19.8022213  55.5815686  16.9880032  13.1259505  69.0933448
  17.8889895  12.9865970  68.8017446  17.0628007  13.2913960  70.0331626
  21.1994467  19.5625519  68.0216163  20.9079275  19.9255499  68.8579624
  20.5866598  18.8492527  67.8429495  22.3990149  17.1278398  60.5418733
  23.2337040  17.5668202  60.7056294  22.5349278  16.6517052  59.7226979
  19.4481655  14.6858133  66.4896221  19.9235777  14.8785780  65.6815072
  18.5247220  14.7417319  66.2439605   6.3365162  15.8482300  56.0727299
   6.0911204  14.9444630  56.2707510   6.5061076  15.8499451  55.1306777
  12.0807934  22.3165253  52.5377978  11.5081901  22.9355440  52.0848450
  12.6540728  22.8664615  53.0717900  18.1483324  11.5623893  64.7224527
  19.1000747  11.6621991  64.7436751  17.9786774  10.7702162  65.2322611
  16.1697703   8.6479477  64.9083928  15.5747636   8.9284489  64.2130416
  15.8847400   9.1373377  65.6800669  15.3005194  22.6002403  53.6686560
  16.2335867  22.5347965  53.8719436  15.2128407  23.4358670  53.2101093
  17.9293211  21.9168274  50.6290508  17.8506842  21.5828137  51.5226266
  18.7502877  22.4090042  50.6281980  20.6271402  14.7830013  63.8366826
  20.5947722  13.8446014  64.0226510  21.2372025  14.8614050  63.1032651
  12.4654733  13.6526066  49.8794030  13.4113837  13.5232274  49.9482448
  12.0868978  12.9140728  50.3563459  20.7765890  11.5741056  63.8825110
  20.2604939  10.7899513  63.6955038  21.6605839  11.2459773  64.0471629
  26.4447952  15.8446020  62.9772863  27.1751340  15.5831308  63.5380566
  25.8354897  15.1074742  63.0174931  24.5263249  13.9853882  63.5747314
  23.7996412  13.8509847  62.9663806  24.1110536  14.2930711  64.3804032
  12.3493425  17.7043812  71.3394687  13.2696435  17.8822411  71.5334734
  12.3143008  16.7599857  71.1874387   5.3455498  15.6144847  63.9817469
   5.5641508  16.5461955  64.0005502   5.7581272  15.2552821  64.7672272
  17.5729071   7.3091504  57.0996118  16.9927740   7.9676308  56.7174170
  17.3065004   6.4868849  56.6883535  10.0814633  14.6175191  72.1885279
   9.5981715  15.4175552  72.3949168  10.1675572  14.6283136  71.2352723
   3.3500593  16.4503571  60.1107098   3.3271281  16.5491258  59.1588982
   3.6601229  17.2968722  60.4324265   6.0087971  18.5079726  64.2253713
   6.9631224  18.4763668  64.1583644   5.8100494  18.0470350  65.0403939
   6.5987353  17.0780842  66.7924511   7.4180242  17.5724921  66.8159348
   6.8724160  16.1612810  66.7642078  16.3553949   9.4691594  56.1552466
  15.4679804   9.7541245  55.9372661  16.7707938   9.3085358  55.3079743
  19.7068485   9.4938115  59.8706805  20.4828875   9.9834568  60.1431422
  18.9816619   9.9196170  60.3278675  22.1441044  10.2065735  60.9280746
  22.7385534   9.9661471  60.2174054  22.2167627   9.4872865  61.5554282
   4.3638199  24.0499346  61.2423911   4.2292667  23.2899746  60.6761909
   3.9470262  24.7740245  60.7752700  15.4997162  19.2336269  50.2500486
  16.2033013  19.4386272  50.8658142  14.7759811  19.8013031  50.5149570
  16.3294973  14.9846130  56.3702756  16.2730174  15.4414682  55.5310389
  16.8823315  14.2236815  56.1925599  20.1399779  10.7735862  57.1952876
  19.8836713  10.3732498  58.0261083  19.5152647  11.4879656  57.0703015
  24.4512116  13.5131936  59.7024167  23.8911674  13.5825125  60.4755729
  23.8455620  13.3372920  58.9823663   7.5207325  24.9468663  61.4542353
   7.4039709  25.8914095  61.3521044   6.6999772  24.6442224  61.8428153
  17.4083860  19.6718798  52.2998946  18.2429464  19.2399997  52.1176421
  17.2468203  19.5000812  53.2275841  17.0629752  16.1750912  53.6655285
  17.0078556  16.0095183  52.7243730  16.4375807  16.8826945  53.8217475
  14.3775659  18.4799824  72.9908848  15.2466819  18.6540476  72.6295483
  13.8982411  19.2994240  72.8684578   8.5461839  25.5996925  64.6698282
   9.4489086  25.6320535  64.9864777   8.3199209  24.6697375  64.6844618
  10.3015441  24.3527911  61.3308360   9.3511072  24.3529773  61.2172733
  10.6047928  23.6060646  60.8144395  26.0368135  30.1888449  62.3954123
  26.6746545  30.0695197  61.6917463  25.9188978  31.1369293  62.4542075
  22.8457841  30.1415878  62.3315648  22.5076353  30.0256942  61.4436182
  23.7147609  29.7407043  62.3116654  18.7044657  31.9951354  58.3212539
  18.1409522  31.9041291  57.5528826  18.5897052  31.1751258  58.8015031
  23.3277624  31.2950729  68.2901853  23.3166265  30.9003528  67.4182357
  23.4898264  30.5616802  68.8835625  16.2509089  33.4902546  61.1596759
  17.0430381  33.1493370  60.7443058  16.4905739  33.5997521  62.0798912
  24.2844216  35.6622322  53.6327003  23.6332195  36.2476402  53.2461017
  25.0788578  36.1928517  53.6922041  18.2099843  32.7511459  54.0314138
  18.9830719  32.2040446  53.8927014  18.5625242  33.6155708  54.2428599
  20.0484885  34.0787841  67.2381037  19.7574751  34.9833472  67.1227703
  20.6841870  34.1204369  67.9525107  20.9741092  31.4564690  63.8282397
  21.5704664  31.2320712  63.1139360  21.0316064  30.7149435  64.4307845
  20.5466121  28.9104125  51.6632588  20.7991641  28.3885646  50.9016051
  19.6090680  28.7470270  51.7659271  25.5909403  27.9139903  59.4707331
  26.3772493  27.4959326  59.1197748  25.8548108  28.8185995  59.6388979
  25.7619481  33.3512754  54.1695988  25.1265314  33.4247380  54.8816892
  25.4316887  33.9406352  53.4915067  30.9917830  27.8515136  60.3740309
  31.7243002  27.2814353  60.6078139  30.2357186  27.4636737  60.8146815
  20.2662409  30.8132231  53.8656963  20.1498667  30.1377134  54.5338047
  20.3764669  30.3264605  53.0489116  22.6093950  30.2742378  57.5703652
  22.2452157  29.7472999  58.2816573  23.4661066  29.8840847  57.3970137
  28.5143251  21.5636711  64.8334918  28.1826576  22.4332122  64.6096133
  27.9188864  21.2472995  65.5128948  22.2499437  25.3032278  52.5665000
  22.4173840  26.1712514  52.9335471  22.0596606  25.4659559  51.6426290
  25.0074770  33.7649257  64.2330831  24.7075493  34.6674295  64.1246638
  24.6625830  33.4981440  65.0851984  18.4587252  30.2163053  60.2667535
  17.5337748  30.0839268  60.4745227  18.7071665  30.9957273  60.7637478
  28.4071914  26.2831797  61.9128268  27.4988792  26.2147205  61.6187029
  28.3559510  26.7603742  62.7410094  22.2288658  27.7589935  53.5511667
  22.1088283  28.2046986  54.3897147  21.5341246  28.1075253  52.9925205
  15.8196063  29.8596327  61.1011324  15.9488444  30.1130806  62.0150736
  15.1393514  30.4524035  60.7815979  19.9895550  40.5293577  57.2001798
  19.9119580  41.4801402  57.2790279  19.3857194  40.1839449  57.8576725
  22.4812780  27.7021442  69.8563165  21.7046114  28.2615363  69.8466030
  23.1203343  28.1878225  70.3778035  30.2733561  24.4848235  63.6906142
  29.6307941  24.7780768  63.0445937  29.7688489  24.3701156  64.4959339
  27.9273724  28.2311408  54.3792001  28.8391580  28.4638795  54.2039699
  27.4183371  28.8148453  53.8167080  20.7359152  30.5106896  69.4181132
  21.4773837  31.0491940  69.1415956  20.0296138  31.1373184  69.5752684
  26.2114492  32.6536036  68.0153294  26.6197848  32.2118447  67.2707926
  25.4891753  32.0788664  68.2687487  22.5645562  27.5908643  65.3886851
  23.4106757  28.0148057  65.5321500  22.5044200  26.9342267  66.0825414
  26.5343307  33.2137227  61.7705583  25.9052169  33.3782941  61.0681651
  26.1468969  33.6278836  62.5416547  30.4132538  34.1491665  59.1249946
  29.7283577  34.5290566  58.5746980  30.4976388  34.7586991  59.8581894
  25.7145007  25.2513011  67.0468024  25.4705939  26.0055072  66.5102300
  25.9904938  25.6298359  67.8815271  27.6683470  31.7951624  65.7245290
  27.8800365  32.4383384  65.0479671  27.6213218  30.9613940  65.2567220
  25.2709699  24.4069444  62.6281862  24.4094178  24.7050698  62.9198600
  25.2972134  24.6239843  61.6962895  22.0871268  32.9511635  59.0355668
  22.5509614  33.2299338  58.2460290  21.8228067  32.0495079  58.8528759
  18.9795349  32.4983116  61.9735431  19.5496707  32.9270385  61.3352916
  19.5703461  32.2165701  62.6719617  21.0240154  29.0734787  55.8445233
  21.7264198  29.5255831  56.3119159  20.6920783  28.4318606  56.4725126
  19.4720516  27.6646544  70.2196442  18.8419177  28.3462825  70.4531839
  19.3656604  27.5529626  69.2749581  14.7665488  27.3318340  61.1462367
  13.9764542  27.5875868  60.6702477  15.2576736  28.1466678  61.2514407
  28.7829298  34.6723579  63.8967647  29.6046742  34.2703766  63.6150329
  28.7791701  34.5691813  64.8483763  16.7180234  27.6962919  58.1045843
  15.9211397  27.8081613  58.6229339  16.4905826  28.0349571  57.2386734
  22.5485901  34.2207622  66.0528358  22.6130334  34.6828030  66.8886530
  21.8396825  33.5904987  66.1810668  13.0503191  27.5848830  63.5777357
  13.3011230  28.4695840  63.8434933  13.5862740  27.4053432  62.8052449
  36.8735291  31.0162328  60.2452619  36.1198999  30.4469726  60.0896623
  37.0082832  30.9824992  61.1923254  22.2633919  35.8875730  55.9207338
  22.1279594  36.7327266  56.3492186  22.8043732  36.0895008  55.1573272
  18.7501259  21.9667310  72.5821693  18.3568204  21.4133508  73.2569338
  19.5667399  22.2777888  72.9728211  15.7163316  33.4051168  56.4935263
  16.2287837  34.1994418  56.6440828  16.3686029  32.7077458  56.4268865
  17.5258201  36.5216924  58.5758016  17.7024830  37.4434889  58.3879000
  18.3215035  36.2075343  59.0052396  21.6669220  23.3825189  70.1741950
  22.4078933  23.9832342  70.0946412  21.8987143  22.6402827  69.6159993
  16.8110558  28.5681556  68.4520180  16.6964073  27.6666813  68.7527279
  15.9555075  28.8145253  68.1004996  23.8902395  36.5099296  70.0507680
  23.4466250  35.7235675  69.7328585  24.5519609  36.6978447  69.3851571
  18.6489517  38.0395098  64.5768359  19.1996942  37.9112161  63.8045353
  17.8100993  38.3389987  64.2263252  25.9883634  36.7902096  68.0789082
  25.9702109  37.6110977  67.5869351  26.9103554  36.6656172  68.3039223
  22.4456688  34.3046226  68.9212590  22.9785024  33.5434514  68.6911898
  21.9170769  34.0119878  69.6636744  25.6126383  19.4106292  64.4506232
  25.2690652  20.3007933  64.3745342  25.9805345  19.2207949  63.5875817
  13.6812233  31.7339822  57.2694834  14.5187455  32.1436831  57.0528542
  13.8590501  30.7939264  57.2395028  25.5776665  29.4014903  52.9578667
  25.0623289  30.1719508  53.1967054  25.3053974  28.7280039  53.5811728
  23.1623776  24.2464604  58.0163905  22.3065373  23.8571454  57.8369544
  23.5750728  24.3256564  57.1563691  24.6922923  21.7810947  62.4155465
  24.1887719  21.7441082  61.6023270  24.9853530  22.6903690  62.4752122
  20.9365809  21.8649677  61.4221647  21.8018806  21.6692485  61.0627536
  21.0043318  21.6360028  62.3491003  30.5510940  32.1547258  54.8931840
  29.7740382  31.8158417  54.4487002  31.2302420  32.1599881  54.2186805
  25.3662969  27.2741995  54.7838448  25.0613104  27.5888144  55.6348591
  26.3193411  27.3523415  54.8265781  23.8109400  33.4332218  56.4331402
  23.2830762  32.6984978  56.1204639  23.3096903  34.2106895  56.1871370
  28.7902246  31.6281239  61.5498448  28.1325921  32.3180500  61.6378577
  29.5942646  32.0177671  61.8932435  18.5428128  24.0951885  58.7938013
  19.1171880  23.8727066  58.0611206  19.1299110  24.1640579  59.5466615
  27.6007705  29.9825611  59.6002390  28.1139587  30.6155603  60.1024100
  28.2508929  29.3826807  59.2345750  18.8697715  26.1256346  52.8133899
  18.0335027  26.4631032  53.1343173  18.7302485  25.9905325  51.8761036
  20.8450796  20.9693133  57.5213083  20.1915208  20.6542151  56.8969698
  20.8031270  20.3468874  58.2472906  21.9562001  31.2512429  49.4366375
  21.0489062  31.0201682  49.6357524  22.4533033  30.4550048  49.6240356
  24.8630079  39.9609936  52.3563061  24.1891778  40.2641633  52.9648019
  25.2495901  40.7639016  52.0068518  24.0788536  27.4575067  61.8460730
  23.1611097  27.6790014  61.6882419  24.4948680  27.5321378  60.9872438
  24.8623584  28.8566483  56.9763411  25.6095403  29.3687880  56.6670533
  25.1315173  28.5350535  57.8367804  23.1350234  31.3525023  53.9590365
  22.2261453  31.0684056  54.0562835  23.1645318  31.7724102  53.0993672
  28.3669501  34.9631613  57.7281533  27.9131829  34.1222523  57.7846723
  27.7363468  35.5993011  58.0656313  27.3102421  25.8923599  58.9582200
  26.5725178  25.3800985  59.2892443  27.5629195  25.4523981  58.1465477
  26.8102441  36.8008110  58.6631351  27.1025415  37.3613167  57.9443716
  27.3201061  37.0936671  59.4184510  27.4114048  18.6699851  59.5523969
  27.7172925  17.8097214  59.2649884  28.1366653  19.2617471  59.3522963
  13.7038404  29.0730538  57.9405567  13.5062804  28.4799898  57.2156634
  13.1485068  28.7682748  58.6581506  21.6835128  28.9653644  60.0600160
  21.7383738  28.0127480  59.9842637  20.8726330  29.1213083  60.5441459
  22.8326322  32.8933767  51.2978444  22.3945752  32.1769626  50.8384081
  23.5736763  33.1209882  50.7363535  19.6227488  27.5830704  57.8190539
  18.8095354  27.8824874  58.2255731  20.1186482  27.1886393  58.5365022
  21.7736066  37.5788461  59.7524804  21.7312245  37.8049307  58.8233336
  22.6898765  37.3451835  59.9010605  25.2201700  28.0472528  66.6505433
  25.5751087  28.2744001  67.5099899  25.8673831  28.3790905  66.0282688
  30.9499437  31.1690964  57.3554762  30.8117335  31.3592560  56.4275951
  30.5935655  31.9310347  57.8122813  19.1141563  25.1549059  63.4351774
  19.7540942  25.0137818  62.7374738  18.2819093  24.8683573  63.0590376
  30.9768816  33.2367491  62.3666034  31.4105323  33.1442780  63.2149088
  31.6900397  33.2124992  61.7286050  19.8901867  34.4551490  59.5486767
  20.6842465  33.9601810  59.3469342  19.1793559  33.9269353  59.1854472
  24.7096711  36.8369585  63.8999134  24.7633733  37.4060522  64.6676850
  23.8411492  37.0071470  63.5353171  16.1984630  28.5994571  55.6246519
  15.2682218  28.5379027  55.8416481  16.2942102  28.0770524  54.8283161
  16.1170179  25.1249384  58.2124761  16.3776996  26.0394718  58.1033921
  16.9387351  24.6573827  58.3621374  17.5895104  26.5387141  65.3823586
  18.2618158  26.3304504  64.7336234  16.7624891  26.3409227  64.9428818
  31.8384366  33.2791192  64.8998919  32.0320256  34.1837002  65.1458194
  31.7384984  32.8198611  65.7337504  23.4920676  23.1649082  67.3989246
  22.8448592  23.8639032  67.3053723  24.2621692  23.5985226  67.7665495
  26.8999474  33.4297935  70.4739800  26.7484981  33.2008486  69.5569883
  26.8904154  34.3868536  70.4871145  23.6684811  31.0029847  65.4586066
  24.5976871  31.1541007  65.2855033  23.2475841  31.0913868  64.6034713
  22.4673143  35.0280512  63.2284604  22.3284228  34.6599296  64.1010542
  21.6787739  35.5428151  63.0568562  23.0621295  40.1289608  54.5710140
  23.2373050  39.6577651  55.3855763  22.3754083  40.7555374  54.7991401
  24.0178358  34.4062114  60.6173442  23.6828190  34.3662884  61.5131091
  23.5182303  33.7406830  60.1443852  17.9922602  29.8129744  66.1426023
  17.8542400  29.0809983  66.7437562  18.9027525  29.7238645  65.8610210
  26.9537549  31.7518149  50.8910501  26.3366720  31.0264977  50.7943554
  26.4854038  32.5127509  50.5477575  20.6204902  29.5249704  65.6309702
  21.3304521  28.8842896  65.5896321  20.5774211  29.7762599  66.5535883
  28.6091681  36.4617057  68.5516282  28.5504227  35.7776277  67.8846865
  29.0111199  37.2036047  68.0996908  19.3333836  26.5114922  67.4505342
  18.7971193  26.0605660  68.1026938  18.7450545  26.6460830  66.7075806
  17.6282380  43.2778971  61.3450000  17.8678978  43.9097495  62.0229019
  16.7851576  42.9267011  61.6315360  18.7436095  25.9703573  50.0131805
  17.8665562  25.8492374  49.6494052  19.2193848  25.1789651  49.7610694
  28.6109088  34.4256641  66.7830261  27.7235867  34.0882563  66.9056660
  29.1807639  33.6939672  67.0199027  10.2638235  30.7580733  60.1073313
  10.9509275  30.4442463  59.5194328  10.1086364  31.6622097  59.8340564
  15.0672958  25.6470929  64.5358336  14.9831146  25.0396599  63.8008746
  14.2455664  26.1379948  64.5367833  22.1410242  39.0858093  63.7491504
  22.0680413  39.8913065  64.2610809  21.6987635  39.2850059  62.9239526
  21.9300021  38.3229863  57.2594326  21.1467543  38.8651544  57.3532551
  22.6292767  38.8403843  57.6588567  25.2396671  24.1324493  59.9028531
  25.7365371  23.3794455  59.5829602  24.4683653  24.1688810  59.3371741
  33.0926429  29.8364858  61.5446823  33.0816305  30.7189574  61.1740756
  32.2243808  29.4836409  61.3501360  24.6008925  38.9844927  65.9049663
  25.3136897  39.6192392  65.8325565  24.1098954  39.0808793  65.0889665
  26.3226452  32.8896180  57.4766955  25.3882731  33.0097643  57.3071659
  26.5003121  31.9868647  57.2126965  21.8231640  26.2741876  59.6300216
  21.4529428  25.7212916  60.3181122  22.3190733  25.6700009  59.0775216
  29.7099004  28.7313499  58.0116989  30.1759456  29.5641491  57.9377292
  30.1606504  28.2658481  58.7162247  19.6520839  36.7339371  66.7255234
  20.3530298  37.3675854  66.8784628  19.1815954  37.0754102  65.9650873
  27.7775235  35.0757321  55.0103141  28.0535079  34.9613915  55.9197015
  26.9079733  34.6774806  54.9715314  27.6815666  21.0994086  62.0507890
  26.7678746  21.3298313  62.2190097  28.1108768  21.1832530  62.9021923
  27.4522125  29.2883978  64.5507784  26.7993575  29.5359886  63.8960237
  27.8302505  28.4748117  64.2170262  24.4129299  39.3243672  58.6535955
  24.5951693  38.5065327  59.1163707  25.2362285  39.5411364  58.2160845
  24.7471464  38.2511857  55.9151003  25.2759231  37.7404311  55.3021165
  25.0099684  37.9354387  56.7796536  23.5009698  30.0303789  71.0373821
  22.8250335  29.9297919  71.7076197  24.3237332  29.8743003  71.5009819
  15.2488557  36.2675726  63.6586337  15.8341994  35.5219414  63.7914241
  15.0513395  36.5779683  64.5423001  18.1027212  39.3026973  58.6748779
  17.4337587  39.7873101  58.1912819  17.9640082  39.5496194  59.5892158
   9.8406212  28.8381326  62.3790780   9.8790311  28.3044917  63.1727898
   9.3346504  28.3116532  61.7601757  22.2432481  41.3370717  65.2731437
  22.7950789  41.5002338  66.0380523  22.5838674  41.9275155  64.6011462
  17.2196974  23.6845867  65.8753322  17.2838300  24.5460698  65.4630720
  17.1564094  23.0719868  65.1425681  16.6949246  25.7568999  69.5226356
  17.3221285  25.3746077  70.1363881  15.8377165  25.5383201  69.8882049
  27.0943355  36.1631974  71.1280092  27.6383259  36.7761933  70.6335047
  26.5130200  36.7211553  71.6447105  13.4714789  27.5645428  55.4544711
  13.7668230  26.6556107  55.4011765  12.5702825  27.5433168  55.1325713
  25.3800868  39.2852692  62.2595120  25.2552007  38.4842432  61.7506065
  26.0379959  39.7798886  61.7709089  17.0009036  25.6401425  61.4372260
  16.2795622  26.2537393  61.2979733  17.7902292  26.1759190  61.3588906
  27.4435776  37.0861712  63.8874670  26.4966112  36.9667064  63.8152996
  27.7918549  36.1984210  63.9700931  19.8035350  22.9755851  67.7112912
  20.3269752  23.2218148  68.4739221  19.5847683  23.8075886  67.2916049
  15.2002631  25.2459526  55.5784036  14.8715337  24.3656905  55.3959142
  15.5542001  25.1907195  56.4660426  24.4482210  36.8814429  60.0879022
  24.3007172  35.9531136  60.2686592  25.2735703  36.9034519  59.6036097
  18.3144454  25.5332496  55.9459514  18.6540526  26.0618417  55.2238122
  18.7616574  25.8712902  56.7218081  28.0516331  37.7042987  61.1743895
  28.9762879  37.4985849  61.0368346  27.8831635  37.4559389  62.0833236
  21.0087895  23.9169546  65.3962582  20.6684715  23.1177360  65.7983262
  20.3026901  24.2171257  64.8239415  21.6604367  21.0018859  63.8489905
  22.4830436  20.5279337  63.7268795  21.9042430  21.7809343  64.3488591
  20.3012601  24.0307117  54.1452807  21.0220964  24.4088370  53.6416524
  19.6777905  24.7495994  54.2487785  24.4443724  24.7352266  55.0811139
  24.6607338  25.6176904  54.7799967  23.9637791  24.3438480  54.3516781
  19.1842945  27.6937980  61.6581884  19.0387526  28.0078283  62.5506165
  18.7068149  28.3122880  61.1052782  21.0439328  24.6840528  61.7062773
  21.0300897  23.7881621  61.3695071  21.7611756  24.6911191  62.3401059
  22.8965459  25.1177868  63.7515901  22.6383237  26.0394938  63.7500231
  22.3650499  24.7208302  64.4416365  27.8411648  38.2228655  56.5305986
  28.0148525  37.6575077  55.7779838  28.3340539  39.0229550  56.3485476
  13.6588607  30.2343324  64.5969545  13.1142076  31.0103132  64.7289819
  14.5367957  30.5814128  64.4388666  20.4476224  23.5654908  56.9750343
  20.5692135  22.6371554  57.1741231  20.1578267  23.5793594  56.0628659
  23.3167415  21.2509818  60.1117063  23.3389111  21.3149151  59.1569043
  23.7335474  20.4114327  60.3057569  33.6951039  30.9865078  58.1496286
  34.1382185  30.2372403  57.7515409  32.8177549  30.9775214  57.7670018
  28.8286820  37.5395419  53.6302884  29.5237725  38.1602112  53.8490199
  29.1709970  36.6890770  53.9055262  14.4454629  29.3613220  67.4899702
  13.7036365  29.5095856  68.0764332  14.1247374  29.6221486  66.6266451
  30.7278243  34.9895125  55.1590215  31.2529567  35.3282398  54.4339535
  30.6400596  34.0542140  54.9753350  22.3898292  38.9029198  67.2880092
  22.6985418  38.6578345  68.1602791  23.1873774  39.1075837  66.7998962
  22.4118904  41.0567108  59.5185468  21.9723894  40.5643487  60.2118325
  23.1627021  40.5140076  59.2777544  14.8911243  37.2478649  59.5210096
  15.7169263  36.9482421  59.1408740  14.5405295  36.4786271  59.9699885
  19.8592776  36.6005117  61.5907770  19.2372785  35.9375822  61.2909998
  20.5297643  36.6266249  60.9081418  13.0919848  35.1664975  60.4799030
  12.2551756  34.7387150  60.2983031  13.0643494  35.3597419  61.4169821
  19.9317304  25.0786905  71.1840276  19.9805459  25.9549028  70.8018046
  20.4739818  24.5364298  70.6111919  30.4172149  35.6228028  70.4641413
  29.6267693  35.6052167  69.9245912  30.1805504  36.1616322  71.2190450
  30.5370024  32.4720495  67.7774142  30.5868029  32.3070502  68.7189664
  30.4283948  31.6047754  67.3872022  19.4206283  35.1509040  55.0666230
  19.5694403  35.8344505  54.4132903  20.2272727  35.1314131  55.5815686
  27.8273787  28.4551423  69.0933448  28.7283650  28.3157888  68.8017446
  27.9021761  28.6205878  70.0331626  22.1616592  25.8318278  67.9386635
  21.2919902  26.1251844  67.6669223  22.3976072  26.4158723  68.6593898
  32.0388221  34.8917436  68.0216163  31.7473030  35.2547417  68.8579624
  31.4260353  34.1784445  67.8429495  33.2383904  32.4570316  60.5418733
  34.0730795  32.8960120  60.7056294  33.3743032  31.9808969  59.7226979
  30.2875409  30.0150051  66.4896221  30.7629531  30.2077697  65.6815072
  29.3640975  30.0709237  66.2439605  17.1758916  31.1774218  56.0727299
  16.9304958  30.2736548  56.2707510  17.3454831  31.1791369  55.1306777
  24.8655626  22.0497895  65.4552055  25.3837570  22.7858921  65.1298544
  24.5110759  22.3561888  66.2898814  16.4454564  26.9102576  53.5713461
  15.7523809  26.9846931  52.9153497  16.2006316  26.1462919  54.0934978
  25.1168220  18.4698177  60.9752952  25.3969974  17.8021366  61.6013378
  25.9018827  18.6627273  60.4627615  22.9201689  37.6457171  52.5377978
  22.3475656  38.2647358  52.0848450  23.4934482  38.1956533  53.0717900
  28.9877078  26.8915811  64.7224527  29.9394501  26.9913909  64.7436751
  28.8180529  26.0994080  65.2322611  27.0091458  23.9771394  64.9083928
  26.4141390  24.2576407  64.2130416  26.7241155  24.4665295  65.6800669
  26.1398948  37.9294321  53.6686560  27.0729622  37.8639883  53.8719436
  26.0522161  38.7650588  53.2101093  28.7686965  37.2460191  50.6290508
  28.6900597  36.9120055  51.5226266  29.5896632  37.7381959  50.6281980
  31.4665156  30.1121931  63.8366826  31.4341476  29.1737931  64.0226510
  32.0765780  30.1905967  63.1032651  23.3048487  28.9817984  49.8794030
  24.2507592  28.8524192  49.9482448  22.9262732  28.2432646  50.3563459
  31.6159645  26.9032974  63.8825110  31.0998693  26.1191431  63.6955038
  32.4999593  26.5751691  64.0471629  29.2770372  20.6473990  59.8420922
  29.0795193  20.3389078  60.7264254  29.8870077  21.3735629  59.9718852
  37.2841706  31.1737938  62.9772863  38.0145095  30.9123226  63.5380566
  36.6748652  30.4366660  63.0174931  35.3657003  29.3145800  63.5747314
  34.6390167  29.1801765  62.9663806  34.9504290  29.6222629  64.3804032
  23.1887180  33.0335730  71.3394687  24.1090189  33.2114329  71.5334734
  23.1536763  32.0891775  71.1874387  21.4891404  26.9067960  49.8148916
  20.5822860  26.6101073  49.8911629  21.7667385  26.6097778  48.9483202
  12.4069345  28.2274323  60.2647962  12.0872129  27.3739632  59.9722336
  11.8602773  28.4422902  61.0205929  16.1849252  30.9436764  63.9817469
  16.4035262  31.8753872  64.0005502  16.5975026  30.5844739  64.7672272
  23.1053470  21.4504850  55.9693157  22.2954198  21.1051935  56.3448403
  23.7937887  21.1412394  56.5580768  25.0344018  20.5282897  57.5917454
  25.5875057  20.9478350  58.2507477  25.2714105  19.6018645  57.6340410
  21.0577118  26.5169970  73.3720217  20.9573844  27.4664327  73.3032309
  20.8398660  26.1888209  72.4996288  20.2590189  23.7654895  49.9560895
  21.1209353  24.0909794  50.2156712  20.4440533  22.9786391  49.4433961
  12.2757605  31.8477235  62.2341084  11.5821076  31.4331188  61.7211038
  13.0230596  31.8897771  61.6374503  28.4122825  22.6383422  57.0996118
  27.8321494  23.2968226  56.7174170  28.1458758  21.8160766  56.6883535
  26.8626392  22.0388479  59.3017438  27.3626170  22.1505014  58.4931757
  27.5062000  21.7349532  59.9418247  20.9208388  29.9467109  72.1885279
  20.4375469  30.7467469  72.3949168  21.0069327  29.9575054  71.2352723
  14.1894347  31.7795489  60.1107098  14.1665035  31.8783176  59.1588982
  14.4994984  32.6260640  60.4324265  16.8481725  33.8371644  64.2253713
  17.8024979  33.8055586  64.1583644  16.6494249  33.3762268  65.0403939
  17.4381107  32.4072760  66.7924511  18.2573996  32.9016839  66.8159348
  17.7117915  31.4904728  66.7642078  27.1947703  24.7983512  56.1552466
  26.3073558  25.0833163  55.9372661  27.6101692  24.6377276  55.3079743
  30.5462240  24.8230033  59.8706805  31.3222630  25.3126486  60.1431422
  29.8210374  25.2488087  60.3278675  32.9834798  25.5357652  60.9280746
  33.5779289  25.2953388  60.2174054  33.0561382  24.8164783  61.5554282
  15.2031954  39.3791263  61.2423911  15.0686422  38.6191664  60.6761909
  14.7864016  40.1032163  60.7752700  26.3390917  34.5628187  50.2500486
  27.0426767  34.7678189  50.8658142  25.6153566  35.1304949  50.5149570
  27.1688727  30.3138048  56.3702756  27.1123929  30.7706600  55.5310389
  27.7217070  29.5528733  56.1925599  30.9793533  26.1027780  57.1952876
  30.7230467  25.7024416  58.0261083  30.3546401  26.8171574  57.0703015
  35.2905871  28.8423853  59.7024167  34.7305429  28.9117043  60.4755729
  34.6849374  28.6664838  58.9823663  18.3601080  40.2760580  61.4542353
  18.2433464  41.2206013  61.3521044  17.5393526  39.9734142  61.8428153
  28.2477614  35.0010716  52.2998946  29.0823218  34.5691914  52.1176421
  28.0861957  34.8292730  53.2275841  27.9023506  31.5042829  53.6655285
  27.8472310  31.3387101  52.7243730  27.2769562  32.2118862  53.8217475
  12.6916021  26.7410894  67.4916708  13.3374885  26.2309848  67.9803933
  12.4833173  27.4779575  68.0660133  25.2169414  33.8091741  72.9908848
  26.0860573  33.9832393  72.6295483  24.7376165  34.6286158  72.8684578
  21.2119632  21.0050938  53.2440604  21.1998302  21.9492778  53.4008875
  22.1043054  20.8221084  52.9500065  19.3855594  40.9288842  64.6698282
  20.2882841  40.9612452  64.9864777  19.1592964  39.9989293  64.6844618
  21.1409196  39.6819829  61.3308360  20.1904827  39.6821690  61.2172733
  21.4441682  38.9352563  60.8144395  25.0271751  17.5993715  57.4986541
  24.2604147  17.0452202  57.6443223  25.4382456  17.6715584  58.3600692
  17.0313512  23.8878511  71.5891722  17.8944974  23.5315316  71.7995046
  16.4578923  23.5492406  72.2767126  36.8761889  45.5180367  62.3954123
  37.5140299  45.3987114  61.6917463  36.7582732  46.4661211  62.4542075
  33.6851596  45.4707795  62.3315648  33.3470107  45.3548860  61.4436182
  34.5541364  45.0698960  62.3116654  29.5438411  47.3243272  58.3212539
  28.9803276  47.2333209  57.5528826  29.4290806  46.5043176  58.8015031
  34.1671379  46.6242647  68.2901853  34.1560019  46.2295445  67.4182357
  34.3292018  45.8908720  68.8835625  27.0902843  48.8194463  61.1596759
  27.8824135  48.4785288  60.7443058  27.3299493  48.9289438  62.0798912
  29.0493597  48.0803376  54.0314138  29.8224473  47.5332364  53.8927014
  29.4018996  48.9447626  54.2428599  30.8878640  49.4079759  67.2381037
  30.5968506  50.3125390  67.1227703  31.5235624  49.4496286  67.9525107
  31.8134847  46.7856607  63.8282397  32.4098419  46.5612630  63.1139360
  31.8709818  46.0441353  64.4307845  31.3859875  44.2396043  51.6632588
  31.6385396  43.7177564  50.9016051  30.4484434  44.0762188  51.7659271
  36.4303158  43.2431821  59.4707331  37.2166247  42.8251244  59.1197748
  36.6941862  44.1477913  59.6388979  36.6013235  48.6804671  54.1695988
  35.9659068  48.7539298  54.8816892  36.2710642  49.2698270  53.4915067
  31.1056164  46.1424149  53.8656963  30.9892422  45.4669052  54.5338047
  31.2158424  45.6556522  53.0489116  33.4487705  45.6034296  57.5703652
  33.0845912  45.0764917  58.2816573  34.3054821  45.2132765  57.3970137
  39.3537005  36.8928628  64.8334918  39.0220330  37.7624039  64.6096133
  38.7582619  36.5764912  65.5128948  33.0893192  40.6324195  52.5665000
  33.2567594  41.5004432  52.9335471  32.8990361  40.7951477  51.6426290
  35.8468525  49.0941174  64.2330831  35.5469248  49.9966213  64.1246638
  35.5019584  48.8273357  65.0851984  29.2981006  45.5454971  60.2667535
  28.3731503  45.4131185  60.4745227  29.5465420  46.3249190  60.7637478
  39.2465669  41.6123714  61.9128268  38.3382546  41.5439123  61.6187029
  39.1953264  42.0895659  62.7410094  33.0682413  43.0881853  53.5511667
  32.9482038  43.5338904  54.3897147  32.3735001  43.4367171  52.9925205
  26.6589817  45.1888245  61.1011324  26.7882199  45.4422724  62.0150736
  25.9787269  45.7815953  60.7815979  33.3206534  43.0313360  69.8563165
  32.5439868  43.5907280  69.8466030  33.9597097  43.5170143  70.3778035
  41.1127315  39.8140153  63.6906142  40.4701695  40.1072686  63.0445937
  40.6082244  39.6993073  64.4959339  38.7667479  43.5603326  54.3792001
  39.6785335  43.7930713  54.2039699  38.2577126  44.1440370  53.8167080
  31.5752907  45.8398813  69.4181132  32.3167591  46.3783857  69.1415956
  30.8689892  46.4665102  69.5752684  37.0508246  47.9827954  68.0153294
  37.4591602  47.5410364  67.2707926  36.3285508  47.4080581  68.2687487
  33.4039316  42.9200561  65.3886851  34.2500512  43.3439974  65.5321500
  33.3437954  42.2634185  66.0825414  36.5538762  40.5804929  67.0468024
  36.3099694  41.3346990  66.5102300  36.8298692  40.9590277  67.8815271
  36.1103453  39.7361362  62.6281862  35.2487933  40.0342616  62.9198600
  36.1365888  39.9531761  61.6962895  32.9265023  48.2803553  59.0355668
  33.3903368  48.5591256  58.2460290  32.6621821  47.3786997  58.8528759
  29.8189104  47.8275034  61.9735431  30.3890461  48.2562302  61.3352916
  30.4097216  47.5457619  62.6719617  31.8633909  44.4026705  55.8445233
  32.5657952  44.8547749  56.3119159  31.5314537  43.7610524  56.4725126
  30.3114270  42.9938462  70.2196442  29.6812931  43.6754742  70.4531839
  30.2050358  42.8821543  69.2749581  25.6059243  42.6610258  61.1462367
  24.8158297  42.9167786  60.6702477  26.0970490  43.4758595  61.2514407
  27.5573988  43.0254837  58.1045843  26.7605152  43.1373531  58.6229339
  27.3299580  43.3641489  57.2386734  33.3879656  49.5499540  66.0528358
  33.4524088  50.0119947  66.8886530  32.6790580  48.9196905  66.1810668
  23.8896946  42.9140748  63.5777357  24.1404984  43.7987758  63.8434933
  24.4256494  42.7345350  62.8052449  29.5895013  37.2959227  72.5821693
  29.1961959  36.7425426  73.2569338  30.4061154  37.6069806  72.9728211
  26.5557071  48.7343086  56.4935263  27.0681592  49.5286336  56.6440828
  27.2079784  48.0369376  56.4268865  28.3651956  51.8508842  58.5758016
  28.5418584  52.7726807  58.3879000  29.1608789  51.5367261  59.0052396
  32.5062974  38.7117107  70.1741950  33.2472688  39.3124260  70.0946412
  32.7380897  37.9694744  69.6159993  27.6504312  43.8973474  68.4520180
  27.5357827  42.9958731  68.7527279  26.7948830  44.1437171  68.1004996
  34.7296150  51.8391214  70.0507680  34.2860004  51.0527593  69.7328585
  35.3913364  52.0270365  69.3851571  29.4883271  53.3687016  64.5768359
  30.0390696  53.2404079  63.8045353  28.6494747  53.6681905  64.2263252
  33.2850442  49.6338144  68.9212590  33.8178779  48.8726432  68.6911898
  32.7564523  49.3411795  69.6636744  36.4520137  34.7398209  64.4506232
  36.1084407  35.6299851  64.3745342  36.8199100  34.5499867  63.5875817
  24.5205988  47.0631740  57.2694834  25.3581210  47.4728748  57.0528542
  24.6984255  46.1231182  57.2395028  36.4170420  44.7306821  52.9578667
  35.9017043  45.5011425  53.1967054  36.1447728  44.0571957  53.5811728
  34.0017531  39.5756521  58.0163905  33.1459127  39.1863372  57.8369544
  34.4144483  39.6548482  57.1563691  35.5316678  37.1102865  62.4155465
  35.0281473  37.0733000  61.6023270  35.8247284  38.0195607  62.4752122
  31.7759563  37.1941594  61.4221647  32.6412560  36.9984403  61.0627536
  31.8437072  36.9651946  62.3491003  36.2056723  42.6033913  54.7838448
  35.9006859  42.9180062  55.6348591  37.1587165  42.6815333  54.8265781
  29.3821882  39.4243802  58.7938013  29.9565634  39.2018984  58.0611206
  29.9692865  39.4932497  59.5466615  38.4401460  45.3117529  59.6002390
  38.9533341  45.9447521  60.1024100  39.0902684  44.7118725  59.2345750
  29.7091470  41.4548263  52.8133899  28.8728782  41.7922950  53.1343173
  29.5696239  41.3197243  51.8761036  31.6844550  36.2985051  57.5213083
  31.0308963  35.9834068  56.8969698  31.6425024  35.6760792  58.2472906
  32.7955755  46.5804346  49.4366375  31.8882817  46.3493600  49.6357524
  33.2926787  45.7841965  49.6240356  34.9182291  42.7866985  61.8460730
  34.0004852  43.0081932  61.6882419  35.3342434  42.8613295  60.9872438
  35.7017338  44.1858400  56.9763411  36.4489157  44.6979798  56.6670533
  35.9708928  43.8642453  57.8367804  33.9743989  46.6816941  53.9590365
  33.0655208  46.3975974  54.0562835  34.0039072  47.1016020  53.0993672
  38.1496175  41.2215517  58.9582200  37.4118932  40.7092903  59.2892443
  38.4022949  40.7815898  58.1465477  38.2507803  33.9991769  59.5523969
  38.5566680  33.1389132  59.2649884  38.9760408  34.5909389  59.3522963
  24.5432159  44.4022455  57.9405567  24.3456559  43.8091816  57.2156634
  23.9878823  44.0974665  58.6581506  32.5228883  44.2945562  60.0600160
  32.5777492  43.3419398  59.9842637  31.7120085  44.4505001  60.5441459
  33.6720076  48.2225685  51.2978444  33.2339506  47.5061544  50.8384081
  34.4130517  48.4501800  50.7363535  30.4621242  42.9122621  57.8190539
  29.6489108  43.2116792  58.2255731  30.9580237  42.5178310  58.5365022
  36.0595454  43.3764446  66.6505433  36.4144842  43.6035919  67.5099899
  36.7067585  43.7082823  66.0282688  29.9535317  40.4840977  63.4351774
  30.5934697  40.3429736  62.7374738  29.1212848  40.1975490  63.0590376
  30.7295621  49.7843407  59.5486767  31.5236220  49.2893728  59.3469342
  30.0187314  49.2561271  59.1854472  27.0378385  43.9286489  55.6246519
  26.1075973  43.8670945  55.8416481  27.1335857  43.4062442  54.8283161
  26.9563934  40.4541302  58.2124761  27.2170751  41.3686635  58.1033921
  27.7781106  39.9865745  58.3621374  28.4288859  41.8679059  65.3823586
  29.1011912  41.6596421  64.7336234  27.6018646  41.6701145  64.9428818
  34.3314431  38.4941000  67.3989246  33.6842346  39.1930950  67.3053723
  35.1015446  38.9277144  67.7665495  37.7393229  48.7589852  70.4739800
  37.5878735  48.5300404  69.5569883  37.7297908  49.7160454  70.4871145
  34.5078565  46.3321765  65.4586066  35.4370625  46.4832925  65.2855033
  34.0869595  46.4205786  64.6034713  34.8572112  49.7354032  60.6173442
  34.5221945  49.6954802  61.5131091  34.3576058  49.0698748  60.1443852
  28.8316356  45.1421662  66.1426023  28.6936154  44.4101901  66.7437562
  29.7421280  45.0530562  65.8610210  37.7931304  47.0810066  50.8910501
  37.1760475  46.3556895  50.7943554  37.3247792  47.8419427  50.5477575
  31.4598657  44.8541621  65.6309702  32.1698275  44.2134814  65.5896321
  31.4167965  45.1054516  66.5535883  30.1727591  41.8406839  67.4505342
  29.6364948  41.3897578  68.1026938  29.5844299  41.9752748  66.7075806
  28.4676134  58.6070889  61.3450000  28.7072733  59.2389413  62.0229019
  27.6245331  58.2558929  61.6315360  29.5829850  41.2995491  50.0131805
  28.7059316  41.1784292  49.6494052  30.0587603  40.5081569  49.7610694
  21.1031990  46.0872650  60.1073313  21.7903030  45.7734380  59.5194328
  20.9480119  46.9914015  59.8340564  25.9066712  40.9762847  64.5358336
  25.8224901  40.3688517  63.8008746  25.0849419  41.4671865  64.5367833
  36.0790426  39.4616411  59.9028531  36.5759126  38.7086373  59.5829602
  35.3077407  39.4980727  59.3371741  32.6625395  41.6033794  59.6300216
  32.2923182  41.0504834  60.3181122  33.1584487  40.9991927  59.0775216
  30.4914593  52.0631289  66.7255234  31.1924053  52.6967772  66.8784628
  30.0209708  52.4046020  65.9650873  38.5209421  36.4286004  62.0507890
  37.6072501  36.6590231  62.2190097  38.9502522  36.5124448  62.9021923
  38.2915879  44.6175896  64.5507784  37.6387330  44.8651803  63.8960237
  38.6696259  43.8040034  64.2170262  34.3403452  45.3595707  71.0373821
  33.6644089  45.2589836  71.7076197  35.1631086  45.2034921  71.5009819
  26.0882311  51.5967644  63.6586337  26.6735748  50.8511332  63.7914241
  25.8907150  51.9071600  64.5423001  28.9420967  54.6318891  58.6748779
  28.2731342  55.1165019  58.1912819  28.8033836  54.8788111  59.5892158
  20.6799966  44.1673244  62.3790780  20.7184066  43.6336835  63.1727898
  20.1740259  43.6408449  61.7601757  28.0590728  39.0137784  65.8753322
  28.1232055  39.8752615  65.4630720  27.9957849  38.4011786  65.1425681
  27.5343001  41.0860917  69.5226356  28.1615040  40.7037994  70.1363881
  26.6770920  40.8675119  69.8882049  24.3108544  42.8937346  55.4544711
  24.6061985  41.9848024  55.4011765  23.4096579  42.8725085  55.1325713
  27.8402791  40.9693343  61.4372260  27.1189376  41.5829310  61.2979733
  28.6296046  41.5051107  61.3588906  30.6429104  38.3047769  67.7112912
  31.1663506  38.5510066  68.4739221  30.4241437  39.1367804  67.2916049
  26.0396385  40.5751444  55.5784036  25.7109091  39.6948823  55.3959142
  26.3935756  40.5199112  56.4660426  29.1538208  40.8624413  55.9459514
  29.4934281  41.3910335  55.2238122  29.6010329  41.2004820  56.7218081
  31.8481649  39.2461464  65.3962582  31.5078470  38.4469277  65.7983262
  31.1420656  39.5463175  64.8239415  32.4998121  36.3310777  63.8489905
  33.3224190  35.8571255  63.7268795  32.7436185  37.1101260  64.3488591
  31.1406356  39.3599035  54.1452807  31.8614718  39.7380288  53.6416524
  30.5171660  40.0787912  54.2487785  35.2837478  40.0644184  55.0811139
  35.5001093  40.9468822  54.7799967  34.8031546  39.6730397  54.3516781
  30.0236700  43.0229897  61.6581884  29.8781281  43.3370200  62.5506165
  29.5461903  43.6414798  61.1052782  31.8833083  40.0132445  61.7062773
  31.8694651  39.1173539  61.3695071  32.6005511  40.0203109  62.3401059
  33.7359213  40.4469785  63.7515901  33.4776991  41.3686856  63.7500231
  33.2044254  40.0500220  64.4416365  24.4982362  45.5635242  64.5969545
  23.9535830  46.3395050  64.7289819  25.3761712  45.9106046  64.4388666
  31.2869979  38.8946825  56.9750343  31.4085890  37.9663472  57.1741231
  30.9972021  38.9085511  56.0628659  34.1561169  36.5801736  60.1117063
  34.1782866  36.6441069  59.1569043  34.5729228  35.7406245  60.3057569
  25.2848384  44.6905138  67.4899702  24.5430120  44.8387773  68.0764332
  24.9641128  44.9513403  66.6266451  25.7304998  52.5770567  59.5210096
  26.5563017  52.2774338  59.1408740  25.3799050  51.8078189  59.9699885
  30.6986531  51.9297035  61.5907770  30.0766540  51.2667740  61.2909998
  31.3691398  51.9558167  60.9081418  23.9313603  50.4956893  60.4799030
  23.0945511  50.0679067  60.2983031  23.9037248  50.6889336  61.4169821
  30.7711058  40.4078823  71.1840276  30.8199214  41.2840946  70.8018046
  31.3133572  39.8656216  70.6111919  38.6667541  43.7843340  69.0933448
  39.5677404  43.6449805  68.8017446  38.7415516  43.9497795  70.0331626
  33.0010347  41.1610195  67.9386635  32.1313656  41.4543761  67.6669223
  33.2369827  41.7450640  68.6593898  28.0152671  46.5066136  56.0727299
  27.7698713  45.6028466  56.2707510  28.1848585  46.5083286  55.1306777
  35.7049380  37.3789812  65.4552055  36.2231324  38.1150839  65.1298544
  35.3504513  37.6853805  66.2898814  27.2848318  42.2394493  53.5713461
  26.5917563  42.3138848  52.9153497  27.0400070  41.4754837  54.0934978
  35.9561975  33.7990095  60.9752952  36.2363728  33.1313284  61.6013378
  36.7412582  33.9919190  60.4627615  39.8270833  42.2207729  64.7224527
  40.7788256  42.3205826  64.7436751  39.6574283  41.4285997  65.2322611
  37.8485212  39.3063312  64.9083928  37.2535145  39.5868325  64.2130416
  37.5634909  39.7957213  65.6800669  34.1442242  44.3109901  49.8794030
  35.0901346  44.1816109  49.9482448  33.7656487  43.5724563  50.3563459
  40.1164126  35.9765907  59.8420922  39.9188947  35.6680996  60.7264254
  40.7263832  36.7027546  59.9718852  34.0280934  48.3627647  71.3394687
  34.9483944  48.5406247  71.5334734  33.9930517  47.4183693  71.1874387
  32.3285159  42.2359878  49.8148916  31.4216614  41.9392990  49.8911629
  32.6061140  41.9389696  48.9483202  23.2463099  43.5566241  60.2647962
  22.9265883  42.7031549  59.9722336  22.6996527  43.7714819  61.0205929
  27.0243007  46.2728682  63.9817469  27.2429016  47.2045790  64.0005502
  27.4368781  45.9136657  64.7672272  33.9447224  36.7796767  55.9693157
  33.1347953  36.4343852  56.3448403  34.6331641  36.4704311  56.5580768
  35.8737773  35.8574814  57.5917454  36.4268811  36.2770268  58.2507477
  36.1107859  34.9310562  57.6340410  31.8970872  41.8461888  73.3720217
  31.7967599  42.7956245  73.3032309  31.6792414  41.5180127  72.4996288
  31.0983943  39.0946813  49.9560895  31.9603107  39.4201711  50.2156712
  31.2834288  38.3078309  49.4433961  23.1151359  47.1769153  62.2341084
  22.4214831  46.7623105  61.7211038  23.8624350  47.2189689  61.6374503
  39.2516580  37.9675339  57.0996118  38.6715249  38.6260143  56.7174170
  38.9852513  37.1452684  56.6883535  37.7020146  37.3680397  59.3017438
  38.2019925  37.4796932  58.4931757  38.3455754  37.0641450  59.9418247
  31.7602142  45.2759027  72.1885279  31.2769224  46.0759387  72.3949168
  31.8463081  45.2866972  71.2352723  25.0288102  47.1087406  60.1107098
  25.0058790  47.2075094  59.1588982  25.3388738  47.9552557  60.4324265
  27.6875480  49.1663561  64.2253713  28.6418733  49.1347504  64.1583644
  27.4888003  48.7054185  65.0403939  28.2774862  47.7364678  66.7924511
  29.0967751  48.2308756  66.8159348  28.5511669  46.8196646  66.7642078
  38.0341458  40.1275430  56.1552466  37.1467313  40.4125080  55.9372661
  38.4495447  39.9669193  55.3079743  41.3855994  40.1521951  59.8706805
  42.1616384  40.6418403  60.1431422  40.6604128  40.5780005  60.3278675
  26.0425708  54.7083181  61.2423911  25.9080176  53.9483582  60.6761909
  25.6257771  55.4324081  60.7752700  37.1784671  49.8920104  50.2500486
  37.8820521  50.0970107  50.8658142  36.4547320  50.4596866  50.5149570
  38.0082482  45.6429966  56.3702756  37.9517683  46.0998517  55.5310389
  38.5610824  44.8820650  56.1925599  29.1994834  55.6052498  61.4542353
  29.0827218  56.5497930  61.3521044  28.3787280  55.3026060  61.8428153
  38.7417261  46.8334747  53.6655285  38.6866065  46.6679018  52.7243730
  38.1163316  47.5410780  53.8217475  23.5309776  42.0702811  67.4916708
  24.1768640  41.5601765  67.9803933  23.3226927  42.8071493  68.0660133
  36.0563168  49.1383659  72.9908848  36.9254328  49.3124311  72.6295483
  35.5769920  49.9578076  72.8684578  32.0513386  36.3342856  53.2440604
  32.0392056  37.2784696  53.4008875  32.9436808  36.1513001  52.9500065
  35.8665506  32.9285633  57.4986541  35.0997902  32.3744119  57.6443223
  36.2776211  33.0007501  58.3600692  27.8707267  39.2170428  71.5891722
  28.7338728  38.8607233  71.7995046  27.2972678  38.8784323  72.2767126
  50.4474474  67.9044027  50.6290508  50.3688106  67.5703890  51.5226266
  51.2684141  68.3965795  50.6281980  56.8025479  81.6498075  53.6327003
  56.1513459  82.2352155  53.2461017  57.5969842  82.1804270  53.6922041
  53.0647384  74.8979878  51.6632588  53.3172905  74.3761399  50.9016051
  52.1271943  74.7346023  51.7659271  58.2800744  79.3388507  54.1695988
  57.6446577  79.4123133  54.8816892  57.9498151  79.9282105  53.4915067
  54.7469922  73.7465688  53.5511667  54.6269547  74.1922739  54.3897147
  54.0522510  74.0951006  52.9925205  53.5421418  75.0610540  55.8445233
  54.2445461  75.5131584  56.3119159  53.2102046  74.4194359  56.4725126
  49.2361497  73.6838672  58.1045843  48.4392661  73.7957366  58.6229339
  49.0087089  74.0225324  57.2386734  46.1993497  77.7215575  57.2694834
  47.0368719  78.1312584  57.0528542  46.3771764  76.7815017  57.2395028
  58.0957929  75.3890656  52.9578667  57.5804552  76.1595261  53.1967054
  57.8235237  74.7155792  53.5811728  63.0692203  78.1423011  54.8931840
  62.2921646  77.8034170  54.4487002  63.7483684  78.1475634  54.2186805
  57.8844232  73.2617748  54.7838448  57.5794368  73.5763897  55.6348591
  58.8374674  73.3399168  54.8265781  56.3290664  79.4207971  56.4331402
  55.8012025  78.6860731  56.1204639  55.8278167  80.1982648  56.1871370
  51.3878979  72.1132099  52.8133899  50.5516291  72.4506785  53.1343173
  51.2483748  71.9781078  51.8761036  54.4743264  77.2388182  49.4366375
  53.5670326  77.0077435  49.6357524  54.9714296  76.4425801  49.6240356
  55.6531497  77.3400776  53.9590365  54.7442717  77.0559809  54.0562835
  55.6826581  77.7599855  53.0993672  60.8850765  80.9507366  57.7281533
  60.4313092  80.1098276  57.7846723  60.2544732  81.5868764  58.0656313
  55.3507585  78.8809520  51.2978444  54.9127015  78.1645379  50.8384081
  56.0918026  79.1085635  50.7363535  52.1408751  73.5706457  57.8190539
  51.3276617  73.8700627  58.2255731  52.6367746  73.1762146  58.5365022
  48.7165894  74.5870324  55.6246519  47.7863482  74.5254780  55.8416481
  48.8123366  74.0646277  54.8283161  59.4718813  77.7393902  50.8910501
  58.8547984  77.0140730  50.7943554  59.0035301  78.5003262  50.5477575
  51.2617359  71.9579326  50.0131805  50.3846825  71.8368127  49.6494052
  51.7375112  71.1665404  49.7610694  42.7819499  76.7456486  60.1073313
  43.4690539  76.4318216  59.5194328  42.6267628  77.6497850  59.8340564
  60.2956498  81.0633074  55.0103141  60.5716342  80.9489668  55.9197015
  59.4260997  80.6650559  54.9715314  56.9624987  70.7228019  55.0811139
  57.1788602  71.6052657  54.7799967  56.4819055  70.3314233  54.3516781
  61.3468084  83.5271172  53.6302884  62.0418988  84.1477865  53.8490199
  61.6891234  82.6766524  53.9055262  63.2459507  80.9770878  55.1590215
  63.7710831  81.3158151  54.4339535  63.1581859  80.0417893  54.9753350
  45.6101112  81.1540728  60.4799030  44.7733020  80.7262903  60.2983031
  45.5824757  81.3473172  61.4169821  48.9635827  72.8978329  53.5713461
  48.2705072  72.9722684  52.9153497  48.7187579  72.1338672  54.0934978
  55.4382952  83.6332924  52.5377978  54.8656919  84.2523111  52.0848450
  56.0115746  84.1832286  53.0717900  61.2868229  83.2335944  50.6290508
  61.2081860  82.8995808  51.5226266  62.1077895  83.7257712  50.6281980
  55.8229751  74.9693737  49.8794030  56.7688855  74.8399945  49.9482448
  55.4443996  74.2308399  50.3563459  54.0072668  72.8943713  49.8148916
  53.1004123  72.5976826  49.8911629  54.2848649  72.5973531  48.9483202
  58.8572180  80.5503940  50.2500486  59.5608030  80.7553942  50.8658142
  58.1334829  81.1180702  50.5149570  60.7658878  80.9886469  52.2998946
  61.6004482  80.5567668  52.1176421  60.6043221  80.8168483  53.2275841
  60.4204770  77.4918582  53.6655285  60.3653574  77.3262854  52.7243730
  59.7950825  78.1994615  53.8217475  51.9036857  86.9164595  64.6698282
  52.8064104  86.9488205  64.9864777  51.6774227  85.9865046  64.6844618
  69.3943153  91.5056120  62.3954123  70.0321563  91.3862868  61.6917463
  69.2763996  92.4536964  62.4542075  66.2032859  91.4583548  62.3315648
  65.8651371  91.3424613  61.4436182  67.0722627  91.0574713  62.3116654
  62.0619675  93.3119025  58.3212539  61.4984540  93.2208962  57.5528826
  61.9472070  92.4918929  58.8015031  59.6084107  94.8070216  61.1596759
  60.4005399  94.4661041  60.7443058  59.8480757  94.9165191  62.0798912
  67.6419234  96.9789992  53.6327003  66.9907213  97.5644073  53.2461017
  68.4363596  97.5096187  53.6922041  61.5674861  94.0679130  54.0314138
  62.3405737  93.5208117  53.8927014  61.9200260  94.9323379  54.2428599
  63.4059903  95.3955512  67.2381037  63.1149769  96.3001143  67.1227703
  64.0416888  95.4372039  67.9525107  64.3316110  92.7732360  63.8282397
  64.9279682  92.5488383  63.1139360  64.3891082  92.0317106  64.4307845
  63.9041139  90.2271796  51.6632588  64.1566659  89.7053317  50.9016051
  62.9665698  90.0637941  51.7659271  68.9484421  89.2307574  59.4707331
  69.7347511  88.8126997  59.1197748  69.2123126  90.1353666  59.6388979
  69.1194499  94.6680424  54.1695988  68.4840332  94.7415051  54.8816892
  68.7891905  95.2574023  53.4915067  74.3492848  89.1682807  60.3740309
  75.0818020  88.5982024  60.6078139  73.5932204  88.7804408  60.8146815
  63.6237427  92.1299902  53.8656963  63.5073685  91.4544805  54.5338047
  63.7339687  91.6432276  53.0489116  65.9668968  91.5910049  57.5703652
  65.6027175  91.0640670  58.2816573  66.8236084  91.2008518  57.3970137
  65.6074455  86.6199948  52.5665000  65.7748858  87.4880185  52.9335471
  65.4171624  86.7827230  51.6426290  68.3649788  95.0816927  64.2330831
  68.0650511  95.9841966  64.1246638  68.0200848  94.8149111  65.0851984
  61.8162270  91.5330724  60.2667535  60.8912766  91.4006938  60.4745227
  62.0646683  92.3124943  60.7637478  65.5863676  89.0757606  53.5511667
  65.4663301  89.5214657  54.3897147  64.8916264  89.4242924  52.9925205
  59.1771081  91.1763998  61.1011324  59.3063462  91.4298477  62.0150736
  58.4968532  91.7691706  60.7815979  63.3470568 101.8461248  57.2001798
  63.2694598 102.7969073  57.2790279  62.7432212 101.5007120  57.8576725
  71.2848742  89.5479079  54.3792001  72.1966598  89.7806466  54.2039699
  70.7758389  90.1316123  53.8167080  64.0934170  91.8274566  69.4181132
  64.8348855  92.3659610  69.1415956  63.3871156  92.4540855  69.5752684
  69.8918324  94.5304898  61.7705583  69.2627187  94.6950612  61.0681651
  69.5043987  94.9446507  62.5416547  73.7707556  95.4659335  59.1249946
  73.0858595  95.8458237  58.5746980  73.8551406  96.0754662  59.8581894
  71.0258488  93.1119294  65.7245290  71.2375383  93.7551054  65.0479671
  70.9788236  92.2781611  65.2567220  65.4446286  94.2679306  59.0355668
  65.9084632  94.5467009  58.2460290  65.1803084  93.3662750  58.8528759
  62.3370367  93.8150787  61.9735431  62.9071725  94.2438056  61.3352916
  62.9278479  93.5333372  62.6719617  64.3815172  90.3902458  55.8445233
  65.0839216  90.8423502  56.3119159  64.0495801  89.7486277  56.4725126
  72.1404316  95.9891250  63.8967647  72.9621760  95.5871437  63.6150329
  72.1366719  95.8859484  64.8483763  65.9060919  95.5375293  66.0528358
  65.9705352  95.9995700  66.8886530  65.1971843  94.9072658  66.1810668
  80.2310309  92.3329998  60.2452619  79.4774017  91.7637396  60.0896623
  80.3657850  92.2992663  61.1923254  65.6208937  97.2043401  55.9207338
  65.4854612  98.0494936  56.3492186  66.1618750  97.4062678  55.1573272
  59.0738334  94.7218839  56.4935263  59.5862855  95.5162089  56.6440828
  59.7261047  94.0245129  56.4268865  60.8833219  97.8384595  58.5758016
  61.0599847  98.7602560  58.3879000  61.6790053  97.5243014  59.0052396
  60.1685576  89.8849227  68.4520180  60.0539091  88.9834484  68.7527279
  59.3130093  90.1312924  68.1004996  67.2477413  97.8266967  70.0507680
  66.8041268  97.0403346  69.7328585  67.9094627  98.0146118  69.3851571
  62.0064535  99.3562769  64.5768359  62.5571960  99.2279832  63.8045353
  61.1676011  99.6557658  64.2263252  69.3458651  98.1069767  68.0789082
  69.3277127  98.9278648  67.5869351  70.2678572  97.9823842  68.3039223
  65.8031706  95.6213897  68.9212590  66.3360042  94.8602185  68.6911898
  65.2745787  95.3287548  69.6636744  57.0387251  93.0507493  57.2694834
  57.8762473  93.4604501  57.0528542  57.2165519  92.1106935  57.2395028
  68.9351683  90.7182574  52.9578667  68.4198307  91.4887178  53.1967054
  68.6628992  90.0447710  53.5811728  73.9085957  93.4714928  54.8931840
  73.1315400  93.1326088  54.4487002  74.5877438  93.4767551  54.2186805
  68.7237987  88.5909666  54.7838448  68.4188122  88.9055815  55.6348591
  69.6768429  88.6691086  54.8265781  67.1684418  94.7499889  56.4331402
  66.6405780  94.0152649  56.1204639  66.6671921  95.5274565  56.1871370
  72.1477264  92.9448909  61.5498448  71.4900939  93.6348171  61.6378577
  72.9517664  93.3345341  61.8932435  70.9582723  91.2993282  59.6002390
  71.4714605  91.9323274  60.1024100  71.6083947  90.6994478  59.2345750
  62.2272733  87.4424016  52.8133899  61.3910045  87.7798703  53.1343173
  62.0877503  87.3072996  51.8761036  65.3137019  92.5680099  49.4366375
  64.4064080  92.3369353  49.6357524  65.8108051  91.7717719  49.6240356
  68.2205097 101.2777606  52.3563061  67.5466796 101.5809303  52.9648019
  68.6070919 102.0806687  52.0068518  68.2198602  90.1734153  56.9763411
  68.9670421  90.6855551  56.6670533  68.4890191  89.8518206  57.8367804
  66.4925252  92.6692694  53.9590365  65.5836471  92.3851727  54.0562835
  66.5220336  93.0891773  53.0993672  71.7244519  96.2799284  57.7281533
  71.2706846  95.4390194  57.7846723  71.0938486  96.9160682  58.0656313
  70.1677459  98.1175780  58.6631351  70.4600433  98.6780837  57.9443716
  70.6776079  98.4104341  59.4184510  65.0410146  90.2821315  60.0600160
  65.0958756  89.3295151  59.9842637  64.2301348  90.4380754  60.5441459
  66.1901340  94.2101438  51.2978444  65.7520770  93.4937297  50.8384081
  66.9311781  94.4377553  50.7363535  65.1311084  98.8956131  59.7524804
  65.0887263  99.1216978  58.8233336  66.0473783  98.6619506  59.9010605
  74.3074455  92.4858635  57.3554762  74.1692353  92.6760231  56.4275951
  73.9510673  93.2478018  57.8122813  74.3343834  94.5535162  62.3666034
  74.7680341  94.4610451  63.2149088  75.0475415  94.5292662  61.7286050
  63.2476885  95.7719160  59.5486767  64.0417483  95.2769481  59.3469342
  62.5368577  95.2437024  59.1854472  68.0671729  98.1537256  63.8999134
  68.1208751  98.7228192  64.6676850  67.1986510  98.3239141  63.5353171
  75.1959384  94.5958863  64.8998919  75.3895274  95.5004673  65.1458194
  75.0960002  94.1366282  65.7337504  70.2574492  94.7465605  70.4739800
  70.1059999  94.5176157  69.5569883  70.2479172  95.7036207  70.4871145
  67.0259829  92.3197518  65.4586066  67.9551889  92.4708678  65.2855033
  66.6050859  92.4081539  64.6034713  65.8248161  96.3448182  63.2284604
  65.6859246  95.9766967  64.1010542  65.0362757  96.8595822  63.0568562
  66.4196313 101.4457279  54.5710140  66.5948068 100.9745322  55.3855763
  65.7329101 102.0723045  54.7991401  67.3753376  95.7229785  60.6173442
  67.0403208  95.6830555  61.5131091  66.8757321  95.0574501  60.1443852
  61.3497620  91.1297415  66.1426023  61.2117418  90.3977654  66.7437562
  62.2602543  91.0406315  65.8610210  70.3112567  93.0685819  50.8910501
  69.6941738  92.3432648  50.7943554  69.8429056  93.8295180  50.5477575
  63.9779920  90.8417374  65.6309702  64.6879539  90.2010567  65.5896321
  63.9349229  91.0930269  66.5535883  71.9666699  97.7784728  68.5516282
  71.9079245  97.0943948  67.8846865  72.3686217  98.5203718  68.0996908
  60.9857398 104.5946642  61.3450000  61.2253996 105.2265166  62.0229019
  60.1426594 104.2434682  61.6315360  62.1011113  87.2871244  50.0131805
  61.2240580  87.1660045  49.6494052  62.5768866  86.4957322  49.7610694
  71.9684106  95.7424312  66.7830261  71.0810885  95.4050234  66.9056660
  72.5382657  95.0107343  67.0199027  53.6213253  92.0748403  60.1073313
  54.3084293  91.7610134  59.5194328  53.4661382  92.9789768  59.8340564
  65.4985260 100.4025764  63.7491504  65.4255431 101.2080736  64.2610809
  65.0562653 100.6017730  62.9239526  65.2875039  99.6397534  57.2594326
  64.5042561 100.1819214  57.3532551  65.9867785 100.1571514  57.6588567
  76.4501447  91.1532529  61.5446823  76.4391323  92.0357245  61.1740756
  75.5818826  90.8004080  61.3501360  67.9583943 100.3012598  65.9049663
  68.6711915 100.9360063  65.8325565  67.4673972 100.3976464  65.0889665
  69.6801470  94.2063851  57.4766955  68.7457749  94.3265313  57.3071659
  69.8578139  93.3036318  57.2126965  73.0674021  90.0481170  58.0116989
  73.5334474  90.8809162  57.9377292  73.5181522  89.5826152  58.7162247
  63.0095857  98.0507042  66.7255234  63.7105316  98.6843525  66.8784628
  62.5390972  98.3921773  65.9650873  71.1350253  96.3924991  55.0103141
  71.4110096  96.2781586  55.9197015  70.2654751  95.9942476  54.9715314
  70.8097143  90.6051649  64.5507784  70.1568593  90.8527556  63.8960237
  71.1877523  89.7915787  64.2170262  67.7704317 100.6411342  58.6535955
  67.9526711  99.8232998  59.1163707  68.5937303 100.8579034  58.2160845
  68.1046482  99.5679527  55.9151003  68.6334249  99.0571982  55.3021165
  68.3674702  99.2522058  56.7796536  58.6063575  97.5843397  63.6586337
  59.1917012  96.8387085  63.7914241  58.4088413  97.8947353  64.5423001
  61.4602230 100.6194644  58.6748779  60.7912605 101.1040772  58.1912819
  61.3215100 100.8663864  59.5892158  53.1981230  90.1548997  62.3790780
  53.2365329  89.6212588  63.1727898  52.6921522  89.6284202  61.7601757
  65.6007499 102.6538388  65.2731437  66.1525807 102.8170009  66.0380523
  65.9413692 103.2442825  64.6011462  70.4518373  97.4799645  71.1280092
  70.9958277  98.0929603  70.6335047  69.8705218  98.0379223  71.6447105
  68.7375886 100.6020363  62.2595120  68.6127025  99.8010103  61.7506065
  69.3954977 101.0966556  61.7709089  70.8010794  98.4029383  63.8874670
  69.8541130  98.2834734  63.8152996  71.1493567  97.5151881  63.9700931
  67.8057228  98.1982099  60.0879022  67.6582190  97.2698807  60.2686592
  68.6310721  98.2202190  59.6036097  61.6719472  86.8500166  55.9459514
  62.0115544  87.3786088  55.2238122  62.1191592  87.1880573  56.7218081
  71.4091349  99.0210658  61.1743895  72.3337897  98.8153519  61.0368346
  71.2406653  98.7727059  62.0833236  63.6587619  85.3474788  54.1452807
  64.3795982  85.7256041  53.6416524  63.0352923  86.0663665  54.2487785
  62.5417963  89.0105650  61.6581884  62.3962544  89.3245953  62.5506165
  62.0643167  89.6290551  61.1052782  71.1986666  99.5396326  56.5305986
  71.3723543  98.9742748  55.7779838  71.6915557 100.3397220  56.3485476
  77.0526057  92.3032748  58.1496286  77.4957203  91.5540074  57.7515409
  76.1752567  92.2942885  57.7670018  72.1861838  98.8563090  53.6302884
  72.8812743  99.4769783  53.8490199  72.5284988  98.0058441  53.9055262
  74.0853261  96.3062795  55.1590215  74.6104585  96.6450068  54.4339535
  73.9975614  95.3709811  54.9753350  65.7473310 100.2196869  67.2880092
  66.0560436  99.9746016  68.1602791  66.5448792 100.4243508  66.7998962
  65.7693922 102.3734779  59.5185468  65.3298912 101.8811157  60.2118325
  66.5202039 101.8307746  59.2777544  58.2486261  98.5646320  59.5210096
  59.0744281  98.2650091  59.1408740  57.8980313  97.7953942  59.9699885
  63.2167794  97.9172788  61.5907770  62.5947803  97.2543493  61.2909998
  63.8872661  97.9433920  60.9081418  56.4494866  96.4832646  60.4799030
  55.6126774  96.0554820  60.2983031  56.4218511  96.6765089  61.4169821
  73.7747167  96.9395699  70.4641413  72.9842711  96.9219838  69.9245912
  73.5380522  97.4783993  71.2190450  73.8945042  93.7888166  67.7774142
  73.9443047  93.6238173  68.7189664  73.7858966  92.9215425  67.3872022
  62.7781301  96.4676711  55.0666230  62.9269421  97.1512176  54.4132903
  63.5847745  96.4481801  55.5815686  75.3963239  96.2085107  68.0216163
  75.1048048  96.5715088  68.8579624  74.7835370  95.4952115  67.8429495
  76.5958922  93.7737987  60.5418733  77.4305813  94.2127791  60.7056294
  76.7318050  93.2976640  59.7226979  73.6450427  91.3317722  66.4896221
  74.1204549  91.5245368  65.6815072  72.7215993  91.3876907  66.2439605
  60.5333934  92.4941889  56.0727299  60.2879976  91.5904219  56.2707510
  60.7029849  92.4959039  55.1306777  66.2776707  98.9624842  52.5377978
  65.7050674  99.5815029  52.0848450  66.8509500  99.5124203  53.0717900
  69.4973966  99.2461992  53.6686560  70.4304640  99.1807553  53.8719436
  69.4097179 100.0818259  53.2101093  72.1261983  98.5627862  50.6290508
  72.0475615  98.2287726  51.5226266  72.9471650  99.0549630  50.6281980
  74.8240174  91.4289601  63.8366826  74.7916494  90.4905602  64.0226510
  75.4340798  91.5073638  63.1032651  66.6623505  90.2985654  49.8794030
  67.6082610  90.1691863  49.9482448  66.2837750  89.5600316  50.3563459
  80.6416724  92.4905608  62.9772863  81.3720113  92.2290896  63.5380566
  80.0323670  91.7534330  63.0174931  78.7232021  90.6313471  63.5747314
  77.9965185  90.4969436  62.9663806  78.3079308  90.9390299  64.3804032
  66.5462198  94.3503401  71.3394687  67.4665207  94.5282000  71.5334734
  66.5111781  93.4059446  71.1874387  64.8466422  88.2235631  49.8148916
  63.9397878  87.9268743  49.8911629  65.1242403  87.9265449  48.9483202
  59.5424270  92.2604435  63.9817469  59.7610280  93.1921543  64.0005502
  59.9550044  91.9012410  64.7672272  66.4628488  82.7672520  55.9693157
  65.6529216  82.4219605  56.3448403  67.1512905  82.4580064  56.5580768
  63.6165207  85.0822566  49.9560895  64.4784371  85.4077464  50.2156712
  63.8015551  84.2954062  49.4433961  55.6332623  93.1644906  62.2341084
  54.9396094  92.7498858  61.7211038  56.3805614  93.2065442  61.6374503
  64.2783406  91.2634780  72.1885279  63.7950487  92.0635140  72.3949168
  64.3644345  91.2742725  71.2352723  57.5469365  93.0963159  60.1107098
  57.5240053  93.1950847  59.1588982  57.8570002  93.9428310  60.4324265
  60.2056743  95.1539314  64.2253713  61.1599997  95.1223257  64.1583644
  60.0069267  94.6929938  65.0403939  60.7956125  93.7240431  66.7924511
  61.6149014  94.2184509  66.8159348  61.0692933  92.8072399  66.7642078
  76.3409816  86.8525323  60.9280746  76.9354307  86.6121059  60.2174054
  76.4136400  86.1332454  61.5554282  58.5606972 100.6958934  61.2423911
  58.4261440  99.9359335  60.6761909  58.1439034 101.4199834  60.7752700
  69.6965935  95.8795858  50.2500486  70.4001785  96.0845860  50.8658142
  68.9728584  96.4472619  50.5149570  70.5263745  91.6305719  56.3702756
  70.4698947  92.0874270  55.5310389  71.0792088  90.8696403  56.1925599
  74.3368551  87.4195451  57.1952876  74.0805485  87.0192086  58.0261083
  73.7121419  88.1339245  57.0703015  78.6480889  90.1591524  59.7024167
  78.0880447  90.2284713  60.4755729  78.0424392  89.9832509  58.9823663
  61.7176098 101.5928251  61.4542353  61.6008482 102.5373683  61.3521044
  60.8968544 101.2901813  61.8428153  71.6052632  96.3178387  52.2998946
  72.4398236  95.8859585  52.1176421  71.4436975  96.1460400  53.2275841
  71.2598524  92.8210500  53.6655285  71.2047328  92.6554771  52.7243730
  70.6344580  93.5286533  53.8217475  68.5744432  95.1259412  72.9908848
  69.4435591  95.3000064  72.6295483  68.0951183  95.9453829  72.8684578
  64.5694650  82.3218609  53.2440604  64.5573320  83.2660449  53.4008875
  65.4618072  82.1388754  52.9500065  62.7430612 102.2456513  64.6698282
  63.6457859 102.2780123  64.9864777  62.5167982 101.3156964  64.6844618
  64.4984214 100.9987499  61.3308360  63.5479845 100.9989361  61.2172733
  64.8016700 100.2520234  60.8144395  80.2336907 106.8348038  62.3954123
  80.8715317 106.7154785  61.6917463  80.1157750 107.7828882  62.4542075
  77.0426614 106.7875466  62.3315648  76.7045125 106.6716531  61.4436182
  77.9116382 106.3866631  62.3116654  72.9013429 108.6410942  58.3212539
  72.3378294 108.5500879  57.5528826  72.7865824 107.8210847  58.8015031
  77.5246397 107.9410318  68.2901853  77.5135037 107.5463116  67.4182357
  77.6867036 107.2076390  68.8835625  70.4477861 110.1362134  61.1596759
  71.2399153 109.7952959  60.7443058  70.6874511 110.2457109  62.0798912
  78.4812988 112.3081910  53.6327003  77.8300968 112.8935990  53.2461017
  79.2757351 112.8388105  53.6922041  72.4068615 109.3971047  54.0314138
  73.1799491 108.8500034  53.8927014  72.7594014 110.2615297  54.2428599
  74.2453658 110.7247429  67.2381037  73.9543524 111.6293060  67.1227703
  74.8810642 110.7663957  67.9525107  75.1709865 108.1024278  63.8282397
  75.7673437 107.8780300  63.1139360  75.2284836 107.3609023  64.4307845
  74.7434893 105.5563713  51.6632588  74.9960414 105.0345235  50.9016051
  73.8059452 105.3929859  51.7659271  79.7878176 104.5599492  59.4707331
  80.5741265 104.1418915  59.1197748  80.0516880 105.4645584  59.6388979
  79.9588253 109.9972342  54.1695988  79.3234086 110.0706969  54.8816892
  79.6285660 110.5865941  53.4915067  85.1886603 104.4974725  60.3740309
  85.9211775 103.9273942  60.6078139  84.4325959 104.1096325  60.8146815
  74.4631182 107.4591819  53.8656963  74.3467440 106.7836723  54.5338047
  74.5733442 106.9724193  53.0489116  76.8062723 106.9201966  57.5703652
  76.4420930 106.3932587  58.2816573  77.6629839 106.5300435  57.3970137
  82.7112023  98.2096299  64.8334918  82.3795348  99.0791710  64.6096133
  82.1157637  97.8932583  65.5128948  76.4468210 101.9491866  52.5665000
  76.6142612 102.8172102  52.9335471  76.2565379 102.1119148  51.6426290
  79.2043543 110.4108845  64.2330831  78.9044266 111.3133884  64.1246638
  78.8594602 110.1441028  65.0851984  72.6556024 106.8622642  60.2667535
  71.7306521 106.7298856  60.4745227  72.9040438 107.6416861  60.7637478
  82.6040687 102.9291385  61.9128268  81.6957564 102.8606794  61.6187029
  82.5528282 103.4063330  62.7410094  76.4257431 104.4049524  53.5511667
  76.3057056 104.8506574  54.3897147  75.7310019 104.7534841  52.9925205
  70.0164835 106.5055915  61.1011324  70.1457217 106.7590394  62.0150736
  69.3362287 107.0983623  60.7815979  74.1864323 117.1753165  57.2001798
  74.1088352 118.1260990  57.2790279  73.5825966 116.8299038  57.8576725
  76.6781552 104.3481031  69.8563165  75.9014886 104.9074951  69.8466030
  77.3172115 104.8337814  70.3778035  84.4702333 101.1307824  63.6906142
  83.8276713 101.4240357  63.0445937  83.9657262 101.0160744  64.4959339
  82.1242497 104.8770997  54.3792001  83.0360353 105.1098384  54.2039699
  81.6152144 105.4608041  53.8167080  74.9327925 107.1566484  69.4181132
  75.6742609 107.6951528  69.1415956  74.2264910 107.7832773  69.5752684
  80.4083264 109.2995625  68.0153294  80.8166620 108.8578035  67.2707926
  79.6860526 108.7248252  68.2687487  76.7614334 104.2368231  65.3886851
  77.6075530 104.6607645  65.5321500  76.7012972 103.5801856  66.0825414
  80.7312079 109.8596815  61.7705583  80.1020941 110.0242529  61.0681651
  80.3437741 110.2738425  62.5416547  84.6101311 110.7951253  59.1249946
  83.9252349 111.1750154  58.5746980  84.6945160 111.4046580  59.8581894
  79.9113780 101.8972600  67.0468024  79.6674712 102.6514660  66.5102300
  80.1873710 102.2757947  67.8815271  81.8652242 108.4411212  65.7245290
  82.0769138 109.0842972  65.0479671  81.8181991 107.6073529  65.2567220
  79.4678471 101.0529033  62.6281862  78.6062950 101.3510286  62.9198600
  79.4940906 101.2699432  61.6962895  76.2840041 109.5971223  59.0355668
  76.7478386 109.8758926  58.2460290  76.0196839 108.6954668  58.8528759
  73.1764122 109.1442705  61.9735431  73.7465479 109.5729973  61.3352916
  73.7672234 108.8625290  62.6719617  75.2208927 105.7194376  55.8445233
  75.9232970 106.1715419  56.3119159  74.8889555 105.0778195  56.4725126
  73.6689288 104.3106132  70.2196442  73.0387949 104.9922413  70.4531839
  73.5625376 104.1989214  69.2749581  68.9634261 103.9777928  61.1462367
  68.1733315 104.2335457  60.6702477  69.4545508 104.7926266  61.2514407
  82.9798070 111.3183168  63.8967647  83.8015514 110.9163355  63.6150329
  82.9760473 111.2151402  64.8483763  70.9149006 104.3422508  58.1045843
  70.1180170 104.4541202  58.6229339  70.6874598 104.6809160  57.2386734
  76.7454674 110.8667211  66.0528358  76.8099106 111.3287618  66.8886530
  76.0365598 110.2364576  66.1810668  67.2471964 104.2308419  63.5777357
  67.4980002 105.1155429  63.8434933  67.7831512 104.0513020  62.8052449
  91.0704063 107.6621916  60.2452619  90.3167772 107.0929314  60.0896623
  91.2051605 107.6284580  61.1923254  76.4602692 112.5335318  55.9207338
  76.3248366 113.3786854  56.3492186  77.0012504 112.7354596  55.1573272
  72.9470031  98.6126898  72.5821693  72.5536977  98.0593097  73.2569338
  73.7636171  98.9237477  72.9728211  69.9132089 110.0510756  56.4935263
  70.4256609 110.8454007  56.6440828  70.5654802 109.3537047  56.4268865
  71.7226974 113.1676513  58.5758016  71.8993602 114.0894477  58.3879000
  72.5183807 112.8534932  59.0052396  75.8637992 100.0284777  70.1741950
  76.6047706 100.6291930  70.0946412  76.0955915  99.2862415  69.6159993
  71.0079330 105.2141144  68.4520180  70.8932845 104.3126402  68.7527279
  70.1523848 105.4604841  68.1004996  78.0871168 113.1558885  70.0507680
  77.6435022 112.3695263  69.7328585  78.7488381 113.3438035  69.3851571
  72.8458289 114.6854686  64.5768359  73.3965714 114.5571750  63.8045353
  72.0069765 114.9849575  64.2263252  80.1852406 113.4361685  68.0789082
  80.1670881 114.2570566  67.5869351  81.1072326 113.3115760  68.3039223
  76.6425460 110.9505814  68.9212590  77.1753797 110.1894102  68.6911898
  76.1139541 110.6579466  69.6636744  79.8095155  96.0565880  64.4506232
  79.4659424  96.9467522  64.3745342  80.1774118  95.8667538  63.5875817
  67.8781006 108.3799411  57.2694834  68.7156228 108.7896419  57.0528542
  68.0559273 107.4398853  57.2395028  79.7745438 106.0474491  52.9578667
  79.2592061 106.8179096  53.1967054  79.5022746 105.3739627  53.5811728
  77.3592549 100.8924192  58.0163905  76.5034145 100.5031042  57.8369544
  77.7719501 100.9716153  57.1563691  78.8891695  98.4270535  62.4155465
  78.3856491  98.3900670  61.6023270  79.1822302  99.3363278  62.4752122
  75.1334581  98.5109265  61.4221647  75.9987578  98.3152074  61.0627536
  75.2012090  98.2819617  62.3491003  84.7479712 108.8006846  54.8931840
  83.9709155 108.4618005  54.4487002  85.4271193 108.8059469  54.2186805
  79.5631741 103.9201583  54.7838448  79.2581877 104.2347733  55.6348591
  80.5162183 103.9983003  54.8265781  78.0078173 110.0791807  56.4331402
  77.4799534 109.3444566  56.1204639  77.5065676 110.8566483  56.1871370
  82.9871019 108.2740827  61.5498448  82.3294693 108.9640089  61.6378577
  83.7911418 108.6637259  61.8932435  72.7396900 100.7411473  58.7938013
  73.3140652 100.5186654  58.0611206  73.3267883 100.8100167  59.5466615
  81.7976478 106.6285200  59.6002390  82.3108359 107.2615192  60.1024100
  82.4477702 106.0286395  59.2345750  73.0666488 102.7715934  52.8133899
  72.2303800 103.1090621  53.1343173  72.9271257 102.6364914  51.8761036
  75.0419568  97.6152722  57.5213083  74.3883981  97.3001739  56.8969698
  75.0000042  96.9928462  58.2472906  76.1530773 107.8972017  49.4366375
  75.2457835 107.6661270  49.6357524  76.6501805 107.1009636  49.6240356
  79.0598852 116.6069524  52.3563061  78.3860551 116.9101221  52.9648019
  79.4464674 117.4098604  52.0068518  78.2757309 104.1034655  61.8460730
  77.3579870 104.3249602  61.6882419  78.6917452 104.1780966  60.9872438
  79.0592356 105.5026071  56.9763411  79.8064175 106.0147468  56.6670533
  79.3283946 105.1810124  57.8367804  77.3319006 107.9984612  53.9590365
  76.4230226 107.7143645  54.0562835  77.3614090 108.4183690  53.0993672
  82.5638274 111.6091201  57.7281533  82.1100601 110.7682111  57.7846723
  81.9332241 112.2452600  58.0656313  81.5071193 102.5383187  58.9582200
  80.7693950 102.0260574  59.2892443  81.7597967 102.0983569  58.1465477
  81.0071213 113.4467698  58.6631351  81.2994187 114.0072755  57.9443716
  81.5169834 113.7396259  59.4184510  81.6082821  95.3159439  59.5523969
  81.9141698  94.4556803  59.2649884  82.3335426  95.9077060  59.3522963
  67.9007177 105.7190126  57.9405567  67.7031577 105.1259487  57.2156634
  67.3453841 105.4142336  58.6581506  75.8803901 105.6113232  60.0600160
  75.9352510 104.6587069  59.9842637  75.0695103 105.7672672  60.5441459
  77.0295094 109.5393355  51.2978444  76.5914524 108.8229214  50.8384081
  77.7705535 109.7669470  50.7363535  73.8196260 104.2290292  57.8190539
  73.0064126 104.5284463  58.2255731  74.3155255 103.8345981  58.5365022
  75.9704838 114.2248049  59.7524804  75.9281017 114.4508895  58.8233336
  76.8867537 113.9911424  59.9010605  79.4170472 104.6932117  66.6505433
  79.7719860 104.9203590  67.5099899  80.0642603 105.0250493  66.0282688
  85.1468209 107.8150553  57.3554762  85.0086108 108.0052148  56.4275951
  84.7904428 108.5769935  57.8122813  73.3110335 101.8008648  63.4351774
  73.9509715 101.6597407  62.7374738  72.4787866 101.5143161  63.0590376
  85.1737589 109.8827080  62.3666034  85.6074095 109.7902369  63.2149088
  85.8869169 109.8584580  61.7286050  74.0870639 111.1011078  59.5486767
  74.8811238 110.6061398  59.3469342  73.3762331 110.5728941  59.1854472
  78.9065484 113.4829174  63.8999134  78.9602506 114.0520110  64.6676850
  78.0380265 113.6531059  63.5353171  70.3953403 105.2454160  55.6246519
  69.4650991 105.1838615  55.8416481  70.4910875 104.7230113  54.8283161
  70.3138952 101.7708973  58.2124761  70.5745769 102.6854306  58.1033921
  71.1356124 101.3033415  58.3621374  71.7863877 103.1846730  65.3823586
  72.4586930 102.9764092  64.7336234  70.9593663 102.9868816  64.9428818
  86.0353138 109.9250780  64.8998919  86.2289028 110.8296591  65.1458194
  85.9353756 109.4658199  65.7337504  77.6889449  99.8108671  67.3989246
  77.0417364 100.5098620  67.3053723  78.4590464 100.2444815  67.7665495
  81.0968247 110.0757523  70.4739800  80.9453753 109.8468075  69.5569883
  81.0872926 111.0328124  70.4871145  77.8653583 107.6489436  65.4586066
  78.7945643 107.8000595  65.2855033  77.4444613 107.7373456  64.6034713
  76.6641915 111.6740100  63.2284604  76.5253001 111.3058884  64.1010542
  75.8756511 112.1887740  63.0568562  77.2590067 116.7749197  54.5710140
  77.4341823 116.3037240  55.3855763  76.5722855 117.4014963  54.7991401
  78.2147130 111.0521703  60.6173442  77.8796963 111.0122473  61.5131091
  77.7151076 110.3866419  60.1443852  72.1891374 106.4589333  66.1426023
  72.0511172 105.7269572  66.7437562  73.0996298 106.3698233  65.8610210
  81.1506322 108.3977737  50.8910501  80.5335493 107.6724565  50.7943554
  80.6822810 109.1587097  50.5477575  74.8173675 106.1709292  65.6309702
  75.5273293 105.5302484  65.5896321  74.7742983 106.4222187  66.5535883
  82.8060454 113.1076645  68.5516282  82.7473000 112.4235866  67.8846865
  83.2079972 113.8495635  68.0996908  73.5302609 103.1574510  67.4505342
  72.9939966 102.7065248  68.1026938  72.9419317 103.2920419  66.7075806
  71.8251152 119.9238559  61.3450000  72.0647751 120.5557083  62.0229019
  70.9820349 119.5726599  61.6315360  72.9404868 102.6163161  50.0131805
  72.0634334 102.4951962  49.6494052  73.4162621 101.8249240  49.7610694
  82.8077861 111.0716229  66.7830261  81.9204640 110.7342151  66.9056660
  83.3776412 110.3399261  67.0199027  64.4607008 107.4040321  60.1073313
  65.1478048 107.0902051  59.5194328  64.3055137 108.3081686  59.8340564
  69.2641730 102.2930518  64.5358336  69.1799919 101.6856187  63.8008746
  68.4424436 102.7839536  64.5367833  76.3379014 115.7317682  63.7491504
  76.2649186 116.5372653  64.2610809  75.8956407 115.9309648  62.9239526
  76.1268794 114.9689452  57.2594326  75.3436316 115.5111132  57.3532551
  76.8261539 115.4863431  57.6588567  79.4365444 100.7784081  59.9028531
  79.9334143 100.0254044  59.5829602  78.6652425 100.8148398  59.3371741
  87.2895201 106.4824447  61.5446823  87.2785078 107.3649162  61.1740756
  86.4212581 106.1295998  61.3501360  78.7977698 115.6304516  65.9049663
  79.5105670 116.2651981  65.8325565  78.3067726 115.7268382  65.0889665
  80.5195225 109.5355768  57.4766955  79.5851503 109.6557231  57.3071659
  80.6971893 108.6328235  57.2126965  76.0200413 102.9201464  59.6300216
  75.6498200 102.3672505  60.3181122  76.5159505 102.3159598  59.0775216
  83.9067776 105.3773088  58.0116989  84.3728228 106.2101079  57.9377292
  84.3575276 104.9118069  58.7162247  73.8489611 113.3798959  66.7255234
  74.5499071 114.0135442  66.8784628  73.3784726 113.7213691  65.9650873
  81.9744007 111.7216909  55.0103141  82.2503851 111.6073504  55.9197015
  81.1048506 111.3234394  54.9715314  81.8784439  97.7453675  62.0507890
  80.9647519  97.9757902  62.2190097  82.3077540  97.8292119  62.9021923
  81.6490897 105.9343567  64.5507784  80.9962347 106.1819474  63.8960237
  82.0271277 105.1207705  64.2170262  78.6098071 115.9703260  58.6535955
  78.7920466 115.1524916  59.1163707  79.4331057 116.1870952  58.2160845
  78.9440237 114.8971445  55.9151003  79.4728003 114.3863900  55.3021165
  79.2068456 114.5813975  56.7796536  77.6978470 106.6763378  71.0373821
  77.0219107 106.5757507  71.7076197  78.5206104 106.5202592  71.5009819
  69.4457329 112.9135314  63.6586337  70.0310766 112.1679002  63.7914241
  69.2482168 113.2239271  64.5423001  72.2995985 115.9486562  58.6748779
  71.6306360 116.4332689  58.1912819  72.1608854 116.1955782  59.5892158
  64.0374984 105.4840915  62.3790780  64.0759084 104.9504505  63.1727898
  63.5315277 104.9576120  61.7601757  76.4401253 117.9830305  65.2731437
  76.9919561 118.1461927  66.0380523  76.7807447 118.5734743  64.6011462
  71.4165746 100.3305455  65.8753322  71.4807073 101.1920286  65.4630720
  71.3532867  99.7179457  65.1425681  70.8918019 102.4028588  69.5226356
  71.5190058 102.0205665  70.1363881  70.0345938 102.1842790  69.8882049
  81.2912127 112.8091563  71.1280092  81.8352031 113.4221521  70.6335047
  80.7098972 113.3671141  71.6447105  67.6683562 104.2105017  55.4544711
  67.9637003 103.3015695  55.4011765  66.7671597 104.1892756  55.1325713
  79.5769640 115.9312281  62.2595120  79.4520780 115.1302021  61.7506065
  80.2348732 116.4258474  61.7709089  71.1977809 102.2861013  61.4372260
  70.4764394 102.8996981  61.2979733  71.9871064 102.8218778  61.3588906
  81.6404549 113.7321301  63.8874670  80.6934884 113.6126652  63.8152996
  81.9887322 112.8443799  63.9700931  74.0004122  99.6215440  67.7112912
  74.5238524  99.8677736  68.4739221  73.7816455 100.4535475  67.2916049
  69.3971403 101.8919114  55.5784036  69.0684109 101.0116493  55.3959142
  69.7510774 101.8366783  56.4660426  78.6450982 113.5274017  60.0879022
  78.4975945 112.5990724  60.2686592  79.4704476 113.5494108  59.6036097
  72.5113226 102.1792084  55.9459514  72.8509299 102.7078005  55.2238122
  72.9585347 102.5172490  56.7218081  82.2485104 114.3502576  61.1743895
  83.1731651 114.1445437  61.0368346  82.0800407 114.1018977  62.0833236
  75.2056667 100.5629135  65.3962582  74.8653488  99.7636948  65.7983262
  74.4995673 100.8630846  64.8239415  75.8573139  97.6478447  63.8489905
  76.6799208  97.1738925  63.7268795  76.1011203  98.4268931  64.3488591
  74.4981374 100.6766706  54.1452807  75.2189736 101.0547959  53.6416524
  73.8746678 101.3955583  54.2487785  78.6412496 101.3811855  55.0811139
  78.8576111 102.2636493  54.7799967  78.1606564 100.9898068  54.3516781
  73.3811718 104.3397568  61.6581884  73.2356298 104.6537871  62.5506165
  72.9036921 104.9582468  61.1052782  75.2408101 101.3300116  61.7062773
  75.2269669 100.4341209  61.3695071  75.9580529 101.3370780  62.3401059
  77.0934231 101.7637456  63.7515901  76.8352009 102.6854527  63.7500231
  76.5619272 101.3667891  64.4416365  82.0380420 114.8688243  56.5305986
  82.2117298 114.3034666  55.7779838  82.5309311 115.6689138  56.3485476
  67.8557380 106.8802912  64.5969545  67.3110848 107.6562720  64.7289819
  68.7336730 107.2273717  64.4388666  74.6444997 100.2114496  56.9750343
  74.7660908  99.2831142  57.1741231  74.3547039 100.2253182  56.0628659
  77.5136187  97.8969407  60.1117063  77.5357884  97.9608740  59.1569043
  77.9304246  97.0573915  60.3057569  87.8919811 107.6324666  58.1496286
  88.3350957 106.8831991  57.7515409  87.0146322 107.6234803  57.7670018
  83.0255593 114.1855008  53.6302884  83.7206497 114.8061700  53.8490199
  83.3678743 113.3350359  53.9055262  68.6423402 106.0072809  67.4899702
  67.9005138 106.1555444  68.0764332  68.3216146 106.2681074  66.6266451
  84.9247016 111.6354713  55.1590215  85.4498340 111.9741986  54.4339535
  84.8369368 110.7001728  54.9753350  76.5867064 115.5488787  67.2880092
  76.8954191 115.3037934  68.1602791  77.3842546 115.7535425  66.7998962
  76.6087676 117.7026696  59.5185468  76.1692667 117.2103075  60.2118325
  77.3595793 117.1599664  59.2777544  69.0880015 113.8938237  59.5210096
  69.9138035 113.5942009  59.1408740  68.7374067 113.1245860  59.9699885
  74.0561549 113.2464706  61.5907770  73.4341558 112.5835411  61.2909998
  74.7266416 113.2725837  60.9081418  67.2888621 111.8124564  60.4799030
  66.4520529 111.3846738  60.2983031  67.2612266 112.0057007  61.4169821
  74.1286076 101.7246494  71.1840276  74.1774232 102.6008616  70.8018046
  74.6708590 101.1823887  70.6111919  84.6140922 112.2687617  70.4641413
  83.8236466 112.2511756  69.9245912  84.3774276 112.8075910  71.2190450
  84.7338797 109.1180083  67.7774142  84.7836802 108.9530091  68.7189664
  84.6252720 108.2507342  67.3872022  73.6175056 111.7968629  55.0666230
  73.7663176 112.4804093  54.4132903  74.4241499 111.7773719  55.5815686
  82.0242559 105.1011011  69.0933448  82.9252422 104.9617476  68.8017446
  82.0990534 105.2665466  70.0331626  76.3585365 102.4777866  67.9386635
  75.4888674 102.7711432  67.6669223  76.5944845 103.0618311  68.6593898
  86.2356994 111.5377025  68.0216163  85.9441802 111.9007005  68.8579624
  85.6229125 110.8244033  67.8429495  87.4352676 109.1029904  60.5418733
  88.2699567 109.5419709  60.7056294  87.5711805 108.6268558  59.7226979
  84.4844182 106.6609639  66.4896221  84.9598304 106.8537286  65.6815072
  83.5609747 106.7168825  66.2439605  71.3727689 107.8233807  56.0727299
  71.1273730 106.9196137  56.2707510  71.5423603 107.8250957  55.1306777
  79.0624398  98.6957483  65.4552055  79.5806342  99.4318510  65.1298544
  78.7079531  99.0021476  66.2898814  70.6423336 103.5562164  53.5713461
  69.9492581 103.6306519  52.9153497  70.3975088 102.7922508  54.0934978
  79.3136993  95.1157765  60.9752952  79.5938746  94.4480954  61.6013378
  80.0987600  95.3086861  60.4627615  77.1170461 114.2916759  52.5377978
  76.5444428 114.9106946  52.0848450  77.6903255 114.8416121  53.0717900
  83.1845851 103.5375399  64.7224527  84.1363274 103.6373497  64.7436751
  83.0149301 102.7453668  65.2322611  81.2060230 100.6230983  64.9083928
  80.6110163 100.9035995  64.2130416  80.9209927 101.1124884  65.6800669
  80.3367721 114.5753909  53.6686560  81.2698394 114.5099471  53.8719436
  80.2490934 115.4110176  53.2101093  82.9655738 113.8919780  50.6290508
  82.8869369 113.5579643  51.5226266  83.7865404 114.3841548  50.6281980
  85.6633929 106.7581519  63.8366826  85.6310249 105.8197520  64.0226510
  86.2734552 106.8365556  63.1032651  77.5017260 105.6277572  49.8794030
  78.4476364 105.4983780  49.9482448  77.1231505 104.8892234  50.3563459
  85.8128417 103.5492563  63.8825110  85.2967466 102.7651019  63.6955038
  86.6968366 103.2211279  64.0471629  83.4739144  97.2933578  59.8420922
  83.2763965  96.9848666  60.7264254  84.0838850  98.0195217  59.9718852
  91.4810479 107.8197526  62.9772863  92.2113867 107.5582814  63.5380566
  90.8717424 107.0826248  63.0174931  89.5625776 105.9605389  63.5747314
  88.8358939 105.8261353  62.9663806  89.1473063 106.2682217  64.3804032
  77.3855952 109.6795318  71.3394687  78.3058962 109.8573917  71.5334734
  77.3505535 108.7351364  71.1874387  75.6860177 103.5527548  49.8148916
  74.7791632 103.2560661  49.8911629  75.9636158 103.2557367  48.9483202
  66.6038117 104.8733912  60.2647962  66.2840901 104.0199220  59.9722336
  66.0571545 105.0882490  61.0205929  70.3818025 107.5896353  63.9817469
  70.6004034 108.5213461  64.0005502  70.7943798 107.2304327  64.7672272
  77.3022242  98.0964438  55.9693157  76.4922971  97.7511523  56.3448403
  77.9906659  97.7871982  56.5580768  79.2312791  97.1742485  57.5917454
  79.7843829  97.5937938  58.2507477  79.4682877  96.2478233  57.6340410
  75.2545890 103.1629559  73.3720217  75.1542617 104.1123916  73.3032309
  75.0367432 102.8347798  72.4996288  74.4558961 100.4114484  49.9560895
  75.3178125 100.7369382  50.2156712  74.6409306  99.6245980  49.4433961
  66.4726377 108.4936823  62.2341084  65.7789849 108.0790776  61.7211038
  67.2199368 108.5357360  61.6374503  82.6091598  99.2843010  57.0996118
  82.0290267  99.9427814  56.7174170  82.3427531  98.4620355  56.6883535
  81.0595164  98.6848068  59.3017438  81.5594943  98.7964602  58.4931757
  81.7030772  98.3809121  59.9418247  75.1177160 106.5926697  72.1885279
  74.6344242 107.3927058  72.3949168  75.2038099 106.6034642  71.2352723
  68.3863120 108.4255077  60.1107098  68.3633808 108.5242764  59.1588982
  68.6963756 109.2720228  60.4324265  71.0450498 110.4831232  64.2253713
  71.9993751 110.4515174  64.1583644  70.8463021 110.0221856  65.0403939
  71.6349880 109.0532348  66.7924511  72.4542769 109.5476427  66.8159348
  71.9086687 108.1364316  66.7642078  81.3916476 101.4443101  56.1552466
  80.5042331 101.7292751  55.9372661  81.8070465 101.2836864  55.3079743
  84.7431012 101.4689622  59.8706805  85.5191402 101.9586074  60.1431422
  84.0179146 101.8947676  60.3278675  87.1803571 102.1817241  60.9280746
  87.7748061 101.9412977  60.2174054  87.2530154 101.4624371  61.5554282
  69.4000726 116.0250852  61.2423911  69.2655194 115.2651253  60.6761909
  68.9832789 116.7491752  60.7752700  80.5359689 111.2087775  50.2500486
  81.2395539 111.4137778  50.8658142  79.8122338 111.7764537  50.5149570
  81.3657500 106.9597636  56.3702756  81.3092701 107.4166188  55.5310389
  81.9185842 106.1988321  56.1925599  85.1762306 102.7487368  57.1952876
  84.9199240 102.3484004  58.0261083  84.5515174 103.4631162  57.0703015
  89.4874643 105.4883442  59.7024167  88.9274201 105.5576631  60.4755729
  88.8818147 105.3124426  58.9823663  72.5569852 116.9220169  61.4542353
  72.4402236 117.8665601  61.3521044  71.7362298 116.6193730  61.8428153
  82.4446387 111.6470304  52.2998946  83.2791991 111.2151503  52.1176421
  82.2830730 111.4752318  53.2275841  82.0992279 108.1502418  53.6655285
  82.0441083 107.9846689  52.7243730  81.4738334 108.8578451  53.8217475
  66.8884794 103.3870482  67.4916708  67.5343657 102.8769436  67.9803933
  66.6801945 104.1239164  68.0660133  79.4138186 110.4551330  72.9908848
  80.2829346 110.6291982  72.6295483  78.9344938 111.2745746  72.8684578
  75.4088404  97.6510527  53.2440604  75.3967074  98.5952367  53.4008875
  76.3011826  97.4680672  52.9500065  73.5824366 117.5748431  64.6698282
  74.4851613 117.6072041  64.9864777  73.3561736 116.6448882  64.6844618
  75.3377968 116.3279417  61.3308360  74.3873599 116.3281279  61.2172733
  75.6410454 115.5812152  60.8144395  79.2240524  94.2453303  57.4986541
  78.4572920  93.6911790  57.6443223  79.6351229  94.3175172  58.3600692
  71.2282285 100.5338099  71.5891722  72.0913746 100.1774904  71.7995046
  70.6547696 100.1951994  72.2767126  91.0730662 122.1639956  62.3954123
  91.7109072 122.0446703  61.6917463  90.9551505 123.1120799  62.4542075
  87.8820368 122.1167384  62.3315648  87.5438880 122.0008448  61.4436182
  88.7510136 121.7158549  62.3116654  83.7407184 123.9702860  58.3212539
  83.1772049 123.8792797  57.5528826  83.6259579 123.1502764  58.8015031
  88.3640151 123.2702235  68.2901853  88.3528792 122.8755034  67.4182357
  88.5260791 122.5368308  68.8835625  81.2871616 125.4654052  61.1596759
  82.0792908 125.1244876  60.7443058  81.5268266 125.5749027  62.0798912
  83.2462370 124.7262965  54.0314138  84.0193246 124.1791952  53.8927014
  83.5987769 125.5907214  54.2428599  85.0847412 126.0539347  67.2381037
  84.7937278 126.9584978  67.1227703  85.7204397 126.0955875  67.9525107
  86.0103619 123.4316196  63.8282397  86.6067191 123.2072218  63.1139360
  86.0678591 122.6900941  64.4307845  85.5828647 120.8855631  51.6632588
  85.8354168 120.3637152  50.9016051  84.6453207 120.7221776  51.7659271
  90.6271930 119.8891409  59.4707331  91.4135020 119.4710833  59.1197748
  90.8910635 120.7937502  59.6388979  96.0280357 119.8266643  60.3740309
  96.7605529 119.2565859  60.6078139  95.2719713 119.4388243  60.8146815
  85.3024936 122.7883737  53.8656963  85.1861194 122.1128640  54.5338047
  85.4127196 122.3016111  53.0489116  87.6456477 122.2493884  57.5703652
  87.2814684 121.7224505  58.2816573  88.5023593 121.8592353  57.3970137
  93.5505778 113.5388217  64.8334918  93.2189103 114.4083628  64.6096133
  92.9551391 113.2224501  65.5128948  87.2861964 117.2783784  52.5665000
  87.4536366 118.1464020  52.9335471  87.0959133 117.4411065  51.6426290
  83.4949779 122.1914559  60.2667535  82.5700275 122.0590774  60.4745227
  83.7434192 122.9708779  60.7637478  93.4434441 118.2583303  61.9128268
  92.5351318 118.1898711  61.6187029  93.3922037 118.7355248  62.7410094
  87.2651185 119.7341441  53.5511667  87.1450810 120.1798492  54.3897147
  86.5703773 120.0826759  52.9925205  80.8558590 121.8347833  61.1011324
  80.9850971 122.0882312  62.0150736  80.1756041 122.4275541  60.7815979
  87.5175307 119.6772948  69.8563165  86.7408641 120.2366869  69.8466030
  88.1565870 120.1629731  70.3778035  95.3096088 116.4599741  63.6906142
  94.6670468 116.7532274  63.0445937  94.8051016 116.3452662  64.4959339
  92.9636251 120.2062914  54.3792001  93.8754107 120.4390301  54.2039699
  92.4545898 120.7899959  53.8167080  85.7721679 122.4858402  69.4181132
  86.5136364 123.0243446  69.1415956  85.0658665 123.1124691  69.5752684
  91.2477019 124.6287542  68.0153294  91.6560375 124.1869953  67.2707926
  90.5254280 124.0540170  68.2687487  87.6008089 119.5660149  65.3886851
  88.4469284 119.9899563  65.5321500  87.5406727 118.9093773  66.0825414
  90.7507534 117.2264517  67.0468024  90.5068466 117.9806578  66.5102300
  91.0267465 117.6049865  67.8815271  90.3072226 116.3820950  62.6281862
  89.4456705 116.6802204  62.9198600  90.3334661 116.5991349  61.6962895
  87.1233795 124.9263141  59.0355668  87.5872141 125.2050844  58.2460290
  86.8590593 124.0246586  58.8528759  84.0157876 124.4734623  61.9735431
  84.5859233 124.9021891  61.3352916  84.6065988 124.1917207  62.6719617
  86.0602681 121.0486293  55.8445233  86.7626725 121.5007337  56.3119159
  85.7283310 120.4070112  56.4725126  84.5083043 119.6398050  70.2196442
  83.8781704 120.3214331  70.4531839  84.4019131 119.5281132  69.2749581
  79.8028015 119.3069846  61.1462367  79.0127069 119.5627375  60.6702477
  80.2939263 120.1218184  61.2514407  81.7542761 119.6714425  58.1045843
  80.9573924 119.7833119  58.6229339  81.5268353 120.0101077  57.2386734
  87.5848428 126.1959128  66.0528358  87.6492861 126.6579536  66.8886530
  86.8759352 125.5656493  66.1810668  78.0865718 119.5600336  63.5777357
  78.3373757 120.4447346  63.8434933  78.6225267 119.3804938  62.8052449
  83.7863786 113.9418816  72.5821693  83.3930731 113.3885014  73.2569338
  84.6029926 114.2529394  72.9728211  80.7525843 125.3802674  56.4935263
  81.2650364 126.1745924  56.6440828  81.4048556 124.6828964  56.4268865
  82.5620728 128.4968430  58.5758016  82.7387356 129.4186395  58.3879000
  83.3577562 128.1826849  59.0052396  86.7031747 115.3576695  70.1741950
  87.4441460 115.9583848  70.0946412  86.9349669 114.6154333  69.6159993
  81.8473085 120.5433062  68.4520180  81.7326600 119.6418319  68.7527279
  80.9917602 120.7896759  68.1004996  83.6852044 130.0146604  64.5768359
  84.2359469 129.8863667  63.8045353  82.8463519 130.3141493  64.2263252
  87.4819215 126.2797732  68.9212590  88.0147551 125.5186020  68.6911898
  86.9533296 125.9871384  69.6636744  90.6488910 111.3857798  64.4506232
  90.3053179 112.2759440  64.3745342  91.0167872 111.1959455  63.5875817
  78.7174760 123.7091328  57.2694834  79.5549982 124.1188337  57.0528542
  78.8953028 122.7690770  57.2395028  90.6139192 121.3766409  52.9578667
  90.0985816 122.1471014  53.1967054  90.3416501 120.7031545  53.5811728
  88.1986303 116.2216110  58.0163905  87.3427900 115.8322960  57.8369544
  88.6113255 116.3008071  57.1563691  89.7285450 113.7562453  62.4155465
  89.2250246 113.7192588  61.6023270  90.0216057 114.6655196  62.4752122
  85.9728336 113.8401183  61.4221647  86.8381333 113.6443991  61.0627536
  86.0405845 113.6111534  62.3491003  90.4025495 119.2493501  54.7838448
  90.0975631 119.5639650  55.6348591  91.3555938 119.3274921  54.8265781
  88.8471927 125.4083724  56.4331402  88.3193289 124.6736484  56.1204639
  88.3459430 126.1858401  56.1871370  83.5790655 116.0703391  58.7938013
  84.1534407 115.8478572  58.0611206  84.1661637 116.1392085  59.5466615
  92.6370232 121.9577118  59.6002390  93.1502114 122.5907109  60.1024100
  93.2871456 121.3578313  59.2345750  83.9060242 118.1007852  52.8133899
  83.0697554 118.4382538  53.1343173  83.7665012 117.9656831  51.8761036
  85.8813323 112.9444640  57.5213083  85.2277735 112.6293657  56.8969698
  85.8393797 112.3220380  58.2472906  86.9924528 123.2263935  49.4366375
  86.0851589 122.9953188  49.6357524  87.4895559 122.4301554  49.6240356
  89.1151063 119.4326573  61.8460730  88.1973624 119.6541520  61.6882419
  89.5311207 119.5072884  60.9872438  89.8986111 120.8317989  56.9763411
  90.6457930 121.3439386  56.6670533  90.1677700 120.5102041  57.8367804
  88.1712761 123.3276529  53.9590365  87.2623980 123.0435562  54.0562835
  88.2007845 123.7475608  53.0993672  92.3464948 117.8675105  58.9582200
  91.6087705 117.3552491  59.2892443  92.5991721 117.4275487  58.1465477
  92.4476575 110.6451357  59.5523969  92.7535452 109.7848720  59.2649884
  93.1729180 111.2368977  59.3522963  78.7400931 121.0482044  57.9405567
  78.5425331 120.4551404  57.2156634  78.1847595 120.7434254  58.6581506
  86.7197655 120.9405150  60.0600160  86.7746265 119.9878986  59.9842637
  85.9088857 121.0964589  60.5441459  87.8688849 124.8685273  51.2978444
  87.4308279 124.1521132  50.8384081  88.6099290 125.0961388  50.7363535
  84.6590015 119.5582210  57.8190539  83.8457880 119.8576380  58.2255731
  85.1549009 119.1637899  58.5365022  90.2564227 120.0224034  66.6505433
  90.6113614 120.2495507  67.5099899  90.9036358 120.3542411  66.0282688
  84.1504090 117.1300565  63.4351774  84.7903469 116.9889324  62.7374738
  83.3181620 116.8435079  63.0590376  84.9264394 126.4302996  59.5486767
  85.7204992 125.9353316  59.3469342  84.2156086 125.9020859  59.1854472
  81.2347157 120.5746078  55.6246519  80.3044745 120.5130533  55.8416481
  81.3304629 120.0522030  54.8283161  81.1532706 117.1000890  58.2124761
  81.4139523 118.0146224  58.1033921  81.9749878 116.6325333  58.3621374
  82.6257631 118.5138648  65.3823586  83.2980685 118.3056010  64.7336234
  81.7987418 118.3160734  64.9428818  88.5283203 115.1400588  67.3989246
  87.8811118 115.8390538  67.3053723  89.2984219 115.5736732  67.7665495
  88.7047338 122.9781353  65.4586066  89.6339398 123.1292513  65.2855033
  88.2838368 123.0665374  64.6034713  87.5035670 127.0032018  63.2284604
  87.3646755 126.6350802  64.1010542  86.7150266 127.5179657  63.0568562
  89.0540885 126.3813620  60.6173442  88.7190717 126.3414390  61.5131091
  88.5544830 125.7158336  60.1443852  83.0285129 121.7881250  66.1426023
  82.8904927 121.0561489  66.7437562  83.9390052 121.6990151  65.8610210
  91.9900076 123.7269655  50.8910501  91.3729247 123.0016483  50.7943554
  91.5216565 124.4879015  50.5477575  85.6567429 121.5001210  65.6309702
  86.3667048 120.8594402  65.5896321  85.6136738 121.7514105  66.5535883
  84.3696363 118.4866428  67.4505342  83.8333720 118.0357166  68.1026938
  83.7813072 118.6212337  66.7075806  83.7798622 117.9455079  50.0131805
  82.9028089 117.8243880  49.6494052  84.2556375 117.1541157  49.7610694
  75.3000762 122.7332239  60.1073313  75.9871802 122.4193969  59.5194328
  75.1448891 123.6373603  59.8340564  80.1035485 117.6222435  64.5358336
  80.0193673 117.0148105  63.8008746  79.2818191 118.1131454  64.5367833
  90.2759198 116.1075999  59.9028531  90.7727898 115.3545961  59.5829602
  89.5046180 116.1440316  59.3371741  91.3588979 124.8647686  57.4766955
  90.4245258 124.9849149  57.3071659  91.5365648 123.9620153  57.2126965
  86.8594167 118.2493382  59.6300216  86.4891955 117.6964422  60.3181122
  87.3553260 117.6451515  59.0775216  94.7461530 120.7065005  58.0116989
  95.2121983 121.5392997  57.9377292  95.1969031 120.2409987  58.7162247
  84.6883366 128.7090877  66.7255234  85.3892825 129.3427360  66.8784628
  84.2178481 129.0505608  65.9650873  92.7178193 113.0745592  62.0507890
  91.8041273 113.3049819  62.2190097  93.1471295 113.1584036  62.9021923
  92.4884652 121.2635484  64.5507784  91.8356102 121.5111392  63.8960237
  92.8665032 120.4499623  64.2170262  88.5372225 122.0055295  71.0373821
  87.8612862 121.9049425  71.7076197  89.3599859 121.8494509  71.5009819
  80.2851084 128.2427232  63.6586337  80.8704521 127.4970920  63.7914241
  80.0875922 128.5531189  64.5423001  74.8768739 120.8132832  62.3790780
  74.9152838 120.2796423  63.1727898  74.3709031 120.2868038  61.7601757
  82.2559501 115.6597373  65.8753322  82.3200827 116.5212204  65.4630720
  82.1926621 115.0471374  65.1425681  81.7311773 117.7320505  69.5226356
  82.3583812 117.3497583  70.1363881  80.8739692 117.5134707  69.8882049
  78.5077316 119.5396934  55.4544711  78.8030757 118.6307613  55.4011765
  77.6065352 119.5184674  55.1325713  82.0371563 117.6152931  61.4372260
  81.3158149 118.2288899  61.2979733  82.8264819 118.1510696  61.3588906
  84.8397877 114.9507357  67.7112912  85.3632278 115.1969654  68.4739221
  84.6210210 115.7827392  67.2916049  80.2365158 117.2211032  55.5784036
  79.9077864 116.3408411  55.3959142  80.5904528 117.1658701  56.4660426
  83.3506981 117.5084002  55.9459514  83.6903053 118.0369923  55.2238122
  83.7979101 117.8464408  56.7218081  86.0450422 115.8921053  65.3962582
  85.7047242 115.0928866  65.7983262  85.3389428 116.1922763  64.8239415
  86.6966894 112.9770365  63.8489905  87.5192963 112.5030843  63.7268795
  86.9404957 113.7560849  64.3488591  85.3375128 116.0058623  54.1452807
  86.0583491 116.3839876  53.6416524  84.7140432 116.7247500  54.2487785
  89.4806251 116.7103772  55.0811139  89.6969865 117.5928410  54.7799967
  89.0000318 116.3189986  54.3516781  84.2205472 119.6689486  61.6581884
  84.0750053 119.9829789  62.5506165  83.7430676 120.2874386  61.1052782
  86.0801855 116.6592034  61.7062773  86.0663424 115.7633127  61.3695071
  86.7974283 116.6662697  62.3401059  87.9327986 117.0929374  63.7515901
  87.6745764 118.0146444  63.7500231  87.4013026 116.6959808  64.4416365
  78.6951134 122.2094830  64.5969545  78.1504603 122.9854638  64.7289819
  79.5730484 122.5565634  64.4388666  85.4838751 115.5406414  56.9750343
  85.6054662 114.6123060  57.1741231  85.1940793 115.5545100  56.0628659
  88.3529941 113.2261324  60.1117063  88.3751638 113.2900657  59.1569043
  88.7698000 112.3865833  60.3057569  79.4817156 121.3364726  67.4899702
  78.7398892 121.4847362  68.0764332  79.1609901 121.5972992  66.6266451
  79.9273770 129.2230155  59.5210096  80.7531790 128.9233927  59.1408740
  79.5767822 128.4537777  59.9699885  84.8955303 128.5756623  61.5907770
  84.2735312 127.9127328  61.2909998  85.5660170 128.6017755  60.9081418
  78.1282375 127.1416481  60.4799030  77.2914283 126.7138656  60.2983031
  78.1006020 127.3348925  61.4169821  84.9679831 117.0538411  71.1840276
  85.0167986 117.9300534  70.8018046  85.5102345 116.5115804  70.6111919
  84.4568810 127.1260547  55.0666230  84.6056930 127.8096011  54.4132903
  85.2635253 127.1065637  55.5815686  92.8636314 120.4302929  69.0933448
  93.7646176 120.2909394  68.8017446  92.9384288 120.5957384  70.0331626
  87.1979119 117.8069784  67.9386635  86.3282428 118.1003350  67.6669223
  87.4338599 118.3910229  68.6593898  82.2121443 123.1525724  56.0727299
  81.9667485 122.2488054  56.2707510  82.3817358 123.1542875  55.1306777
  89.9018153 114.0249401  65.4552055  90.4200097 114.7610427  65.1298544
  89.5473286 114.3313394  66.2898814  81.4817091 118.8854082  53.5713461
  80.7886335 118.9598437  52.9153497  81.2368842 118.1214425  54.0934978
  90.1530747 110.4449683  60.9752952  90.4332501 109.7772872  61.6013378
  90.9381354 110.6378779  60.4627615  94.0239605 118.8667317  64.7224527
  94.9757028 118.9665415  64.7436751  93.8543056 118.0745586  65.2322611
  92.0453985 115.9522900  64.9083928  91.4503917 116.2327913  64.2130416
  91.7603682 116.4416801  65.6800669  88.3411014 120.9569490  49.8794030
  89.2870119 120.8275698  49.9482448  87.9625259 120.2184152  50.3563459
  96.6522172 118.8784480  63.8825110  96.1361220 118.0942937  63.6955038
  97.5362120 118.5503197  64.0471629  94.3132899 112.6225496  59.8420922
  94.1157720 112.3140584  60.7264254  94.9232604 113.3487135  59.9718852
  88.2249707 125.0087236  71.3394687  89.1452716 125.1865835  71.5334734
  88.1899290 124.0643281  71.1874387  86.5253931 118.8819466  49.8148916
  85.6185387 118.5852579  49.8911629  86.8029912 118.5849284  48.9483202
  77.4431872 120.2025830  60.2647962  77.1234656 119.3491138  59.9722336
  76.8965300 120.4174408  61.0205929  81.2211779 122.9188271  63.9817469
  81.4397789 123.8505378  64.0005502  81.6337553 122.5596245  64.7672272
  88.1415997 113.4256356  55.9693157  87.3316725 113.0803441  56.3448403
  88.8300414 113.1163900  56.5580768  90.0706545 112.5034403  57.5917454
  90.6237584 112.9229856  58.2507477  90.3076632 111.5770151  57.6340410
  86.0939644 118.4921476  73.3720217  85.9936371 119.4415833  73.3032309
  85.8761187 118.1639715  72.4996288  85.2952716 115.7406401  49.9560895
  86.1571880 116.0661300  50.2156712  85.4803060 114.9537897  49.4433961
  77.3120132 123.8228741  62.2341084  76.6183603 123.4082694  61.7211038
  78.0593123 123.8649278  61.6374503  93.4485352 114.6134928  57.0996118
  92.8684021 115.2719732  56.7174170  93.1821285 113.7912272  56.6883535
  91.8988919 114.0139986  59.3017438  92.3988697 114.1256520  58.4931757
  92.5424527 113.7101038  59.9418247  85.9570915 121.9218615  72.1885279
  85.4737996 122.7218975  72.3949168  86.0431854 121.9326560  71.2352723
  79.2256874 123.7546995  60.1107098  79.2027562 123.8534682  59.1588982
  79.5357511 124.6012146  60.4324265  81.8844252 125.8123150  64.2253713
  82.8387506 125.7807092  64.1583644  81.6856776 125.3513774  65.0403939
  82.4743634 124.3824266  66.7924511  83.2936523 124.8768345  66.8159348
  82.7480442 123.4656234  66.7642078  92.2310230 116.7735018  56.1552466
  91.3436085 117.0584669  55.9372661  92.6464219 116.6128782  55.3079743
  95.5824766 116.7981539  59.8706805  96.3585157 117.2877992  60.1431422
  94.8572901 117.2239593  60.3278675  98.0197325 117.5109158  60.9280746
  98.6141816 117.2704894  60.2174054  98.0923909 116.7916289  61.5554282
  92.2051254 122.2889554  56.3702756  92.1486455 122.7458106  55.5310389
  92.7579597 121.5280239  56.1925599  96.0156060 118.0779286  57.1952876
  95.7592994 117.6775922  58.0261083  95.3908928 118.7923080  57.0703015
  92.9386033 123.4794335  53.6655285  92.8834837 123.3138607  52.7243730
  92.3132089 124.1870368  53.8217475  77.7278548 118.7162400  67.4916708
  78.3737412 118.2061354  67.9803933  77.5195699 119.4531081  68.0660133
  86.2482159 112.9802444  53.2440604  86.2360829 113.9244284  53.4008875
  87.1405581 112.7972590  52.9500065  90.0634278 109.5745221  57.4986541
  89.2966674 109.0203708  57.6443223  90.4744983 109.6467090  58.3600692
  82.0676039 115.8630017  71.5891722  82.9307501 115.5066822  71.7995046
  81.4941450 115.5243912  72.2767126  26.0368136   7.1950572  49.1199430
  26.6746546   7.0757319  48.4162770  25.9188979   8.1431416  49.1787382
  22.8457842   7.1478000  49.0560954  22.5076354   7.0319065  48.1681489
  23.7147611   6.7469165  49.0361960  18.7044658   9.0013477  45.0457845
  18.1409523   8.9103414  44.2774133  18.5897053   8.1813381  45.5260338
  23.3277625   8.3012852  55.0147160  23.3166266   7.9065650  54.1427663
  23.4898265   7.5678924  55.6080931  16.2509090  10.4964668  47.8842066
  17.0430382  10.1555493  47.4688365  16.4905740  10.6059643  48.8044219
  24.2844217  12.6684444  40.3572310  23.6332197  13.2538525  39.9706324
  25.0788580  13.1990639  40.4167348  18.2099844   9.7573581  40.7559444
  18.9830720   9.2102568  40.6172320  18.5625243  10.6217831  40.9673906
  20.0484887  11.0849964  53.9626344  19.7574753  11.9895595  53.8473010
  20.6841871  11.1266491  54.6770413  20.9741093   8.4626812  50.5527703
  21.5704666   8.2382835  49.8384666  21.0316065   7.7211558  51.1553151
  20.5466122   5.9166248  38.3877894  20.7991642   5.3947769  37.6261357
  19.6090681   5.7532393  38.4904578  25.5909405   4.9202026  46.1952638
  26.3772494   4.5021449  45.8443055  25.8548109   5.8248118  46.3634286
  25.7619482  10.3574876  40.8941294  25.1265315  10.4309503  41.6062199
  25.4316888  10.9468475  40.2160374  30.9917832   4.8577259  47.0985616
  31.7243004   4.2876476  47.3323446  30.2357187   4.4698860  47.5392122
  20.2662411   7.8194353  40.5902269  20.1498669   7.1439257  41.2583354
  20.3764670   7.3326727  39.7734422  22.6093951   7.2804501  44.2948959
  22.2452159   6.7535122  45.0061880  23.4661067   6.8902970  44.1215444
  25.0074772  10.7711379  50.9576137  24.7075495  11.6736418  50.8491945
  24.6625831  10.5043562  51.8097290  18.4587253   7.2225176  46.9912842
  17.5337750   7.0901390  47.1990534  18.7071666   8.0019395  47.4882784
  28.4071915   3.2893919  48.6373575  27.4988793   3.2209328  48.3432336
  28.3559511   3.7665864  49.4655400  22.2288659   4.7652058  40.2756974
  22.1088285   5.2109109  41.1142454  21.5341248   5.1137375  39.7170512
  19.9895551  17.5355700  43.9247105  19.9119581  18.4863525  44.0035586
  19.3857195  17.1901572  44.5822031  22.4812781   4.7083565  56.5808472
  21.7046115   5.2677485  56.5711337  23.1203344   5.1940348  57.1023342
  30.2733562   1.4910358  50.4151449  29.6307942   1.7842891  49.7691243
  29.7688490   1.3763278  51.2204645  27.9273725   5.2373531  41.1037308
  28.8391582   5.4700918  40.9285005  27.4183373   5.8210575  40.5412387
  20.7359154   7.5169018  56.1426439  21.4773838   8.0554062  55.8661263
  20.0296139   8.1435307  56.2997991  26.2114493   9.6598159  54.7398600
  26.6197849   9.2180569  53.9953233  25.4891755   9.0850786  54.9932793
  22.5645563   4.5970766  52.1132157  23.4106758   5.0210179  52.2566806
  22.5044201   3.9404390  52.8070721  26.5343308  10.2199349  48.4950889
  25.9052170  10.3845064  47.7926957  26.1468970  10.6340959  49.2661853
  30.4132540  11.1553787  45.8495253  29.7283578  11.5352689  45.2992286
  30.4976389  11.7649114  46.5827201  25.7145009   2.2575134  53.7713331
  25.4705940   3.0117194  53.2347607  25.9904939   2.6360482  54.6060578
  27.6683471   8.8013746  52.4490597  27.8800367   9.4445506  51.7724978
  27.6213220   7.9676063  51.9812527  25.2709700   1.4131567  49.3527169
  24.4094179   1.7112821  49.6443906  25.2972135   1.6301966  48.4208201
  22.0871270   9.9573758  45.7600974  22.5509615  10.2361460  44.9705597
  21.8228068   9.0557202  45.5774065  18.9795351   9.5045239  48.6980738
  19.5496708   9.9332507  48.0598222  19.5703463   9.2227824  49.3964923
  21.0240156   6.0796910  42.5690540  21.7264199   6.5317954  43.0364466
  20.6920784   5.4380729  43.1970433  28.7829299  11.6785702  50.6212954
  29.6046743  11.2765889  50.3395636  28.7791702  11.5753936  51.5729070
  22.5485903  11.2269745  52.7773664  22.6130335  11.6890152  53.6131836
  21.8396827  10.5967110  52.9055974  36.8735292   8.0224450  46.9697925
  36.1199001   7.4531848  46.8141930  37.0082834   7.9887115  47.9168560
  22.2633920  12.8937852  42.6452645  22.1279595  13.7389388  43.0737493
  22.8043733  13.0957130  41.8818579  15.7163318  10.4113291  43.2180570
  16.2287838  11.2056541  43.3686135  16.3686031   9.7139581  43.1514171
  17.5258202  13.5279047  45.3003323  17.7024831  14.4497012  45.1124307
  18.3215036  13.2137466  45.7297703  23.8902397  13.5161419  56.7752987
  23.4466251  12.7297798  56.4573891  24.5519610  13.7040570  56.1096878
  18.6489518  15.0457221  51.3013665  19.1996943  14.9174284  50.5290659
  17.8100994  15.3452110  50.9508558  25.9883635  13.7964219  54.8034388
  25.9702110  14.6173100  54.3114657  26.9103555  13.6718294  55.0284529
  22.4456689  11.3108348  55.6457897  22.9785026  10.5496637  55.4157205
  21.9170770  11.0182000  56.3882051  25.5776667   6.4077025  39.6823973
  25.0623290   7.1781630  39.9212361  25.3053975   5.7342162  40.3057035
  30.5510941   9.1609380  41.6177147  29.7740384   8.8220540  41.1732309
  31.2302422   9.1662003  40.9432112  25.3662970   4.2804118  41.5083755
  25.0613105   4.5950267  42.3593898  26.3193412   4.3585537  41.5511088
  23.8109402  10.4394341  43.1576709  23.2830763   9.7047100  42.8449946
  23.3096904  11.2169017  42.9116677  28.7902248   8.6343361  48.2743755
  28.1325922   9.3242623  48.3623883  29.5942647   9.0239793  48.6177741
  27.6007706   6.9887734  46.3247697  28.1139588   7.6217726  46.8269406
  28.2508930   6.3888930  45.9591057  21.9562002   8.2574551  36.1611682
  21.0489064   8.0263805  36.3602831  22.4533034   7.4612170  36.3485663
  24.8630081  16.9672058  39.0808368  24.1891779  17.2703755  39.6893326
  25.2495903  17.7701139  38.7313825  24.0788537   4.4637190  48.5706037
  23.1611099   4.6852137  48.4127725  24.4948681   4.5383500  47.7117744
  24.8623585   5.8628605  43.7008717  25.6095404   6.3750003  43.3915839
  25.1315175   5.5412658  44.5613111  23.1350235   8.3587146  40.6835672
  22.2261455   8.0746179  40.7808141  23.1645319   8.7786225  39.8238979
  28.3669503  11.9693736  44.4526839  27.9131830  11.1284645  44.5092030
  27.7363469  12.6055134  44.7901619  27.3102422   2.8985722  45.6827507
  26.5725179   2.3863108  46.0137749  27.5629196   2.4586103  44.8710784
  26.8102442  13.8070232  45.3876657  27.1025416  14.3675289  44.6689023
  27.3201063  14.0998793  46.1429816  21.6835129   5.9715767  46.7845467
  21.7383739   5.0189603  46.7087944  20.8726331   6.1275206  47.2686765
  22.8326323   9.8995890  38.0223750  22.3945753   9.1831749  37.5629388
  23.5736764  10.1272005  37.4608842  21.7736067  14.5850583  46.4770111
  21.7312246  14.8111430  45.5478643  22.6898766  14.3513958  46.6255912
  25.2201701   5.0534651  53.3750740  25.5751089   5.2806124  54.2345206
  25.8673832   5.3853028  52.7527995  30.9499438   8.1753087  44.0800069
  30.8117336   8.3654683  43.1521258  30.5935657   8.9372470  44.5368120
  30.9768817  10.2429614  49.0911340  31.4105324  10.1504903  49.9394394
  31.6900398  10.2187114  48.4531356  19.8901868  11.4613612  46.2732073
  20.6842466  10.9663932  46.0714648  19.1793560  10.9331475  45.9099779
  24.7096712  13.8431708  50.6244441  24.7633735  14.4122644  51.3922157
  23.8411494  14.0133593  50.2598478  31.8384367  10.2853314  51.6244226
  32.0320257  11.1899125  51.8703501  31.7384985   9.8260733  52.4582811
  26.8999476  10.4360057  57.1985106  26.7484982  10.2070609  56.2815190
  26.8904155  11.3930659  57.2116451  23.6684812   8.0091970  52.1831373
  24.5976872   8.1603130  52.0100340  23.2475842   8.0975991  51.3280019
  22.4673144  12.0342634  49.9529910  22.3284230  11.6661419  50.8255849
  21.6787740  12.5490274  49.7813868  23.0621296  17.1351731  41.2955447
  23.2373052  16.6639774  42.1101070  22.3754084  17.7617497  41.5236708
  24.0178359  11.4124237  47.3418748  23.6828192  11.3725007  48.2376398
  23.5182305  10.7468953  46.8689158  17.9922603   6.8191867  52.8671329
  17.8542401   6.0872106  53.4682868  18.9027526   6.7300767  52.5855517
  26.9537551   8.7580271  37.6155808  26.3366721   8.0327100  37.5188861
  26.4854039   9.5189632  37.2722882  20.6204904   6.5311826  52.3555009
  21.3304522   5.8905019  52.3141627  20.5774212   6.7824721  53.2781190
  28.6091682  13.4679180  55.2761588  28.5504229  12.7838400  54.6092171
  29.0111201  14.2098170  54.8242214  17.6282381  20.2841094  48.0695307
  17.8678979  20.9159618  48.7474326  16.7851578  19.9329134  48.3560666
  28.6109090  11.4318764  53.5075568  27.7235868  11.0944685  53.6301967
  29.1807641  10.7001795  53.7444333  22.1410243  16.0920216  50.4736811
  22.0680414  16.8975187  50.9856116  21.6987636  16.2912182  49.6484832
  21.9300023  15.3291986  43.9839633  21.1467545  15.8713666  44.0777857
  22.6292768  15.8465966  44.3833874  25.2396673   1.1386615  46.6273838
  25.7365372   0.3856578  46.3074908  24.4683654   1.1750932  46.0617047
  33.0926430   6.8426981  48.2692130  33.0816306   7.7251696  47.8986063
  32.2243810   6.4898532  48.0746667  24.6008927  15.9907050  52.6294970
  25.3136899  16.6254515  52.5570871  24.1098955  16.0870916  51.8134972
  26.3226453   9.8958303  44.2012261  25.3882732  10.0159765  44.0316966
  26.5003122   8.9930769  43.9372271  29.7099005   5.7375622  44.7362296
  30.1759457   6.5703614  44.6622598  30.1606505   5.2720604  45.4407554
  19.6520840  13.7401493  53.4500541  20.3530300  14.3737976  53.6029935
  19.1815955  14.0816225  52.6896180  27.7775236  12.0819443  41.7348448
  28.0535080  11.9676038  42.6442322  26.9079735  11.6836928  41.6960621
  27.4522126   6.2946101  51.2753091  26.7993576   6.5422008  50.6205544
  27.8302506   5.4810239  50.9415568  24.4129300  16.3305794  45.3781261
  24.5951694  15.5127450  45.8409014  25.2362286  16.5473486  44.9406151
  24.7471465  15.2573979  42.6396310  25.2759232  14.7466434  42.0266472
  25.0099685  14.9416509  43.5041843  23.5009699   7.0365912  57.7619128
  22.8250336   6.9360041  58.4321503  24.3237333   6.8805126  58.2255125
  15.2488558  13.2737849  50.3831643  15.8341995  12.5281536  50.5159547
  15.0513397  13.5841805  51.2668307  18.1027213  16.3089096  45.3994086
  17.4337589  16.7935224  44.9158126  17.9640083  16.5558316  46.3137464
  22.2432482  18.3432839  51.9976744  22.7950790  18.5064461  52.7625829
  22.5838675  18.9337277  51.3256769  27.0943356  13.1694097  57.8525398
  27.6383260  13.7824055  57.3580353  26.5130201  13.7273675  58.3692411
  25.3800869  16.2914815  48.9840426  25.2552009  15.4904555  48.4751372
  26.0379960  16.7861008  48.4954396  27.4435778  14.0923835  50.6119976
  26.4966113  13.9729186  50.5398303  27.7918551  13.2046333  50.6946238
  24.4482211  13.8876551  46.8124328  24.3007173  12.9593259  46.9931899
  25.2735704  13.9096642  46.3281404  28.0516333  14.7105110  47.8989201
  28.9762880  14.5047971  47.7613652  27.8831636  14.4621511  48.8078543
  27.8411649  15.2290777  43.2551293  28.0148526  14.6637200  42.5025145
  28.3340540  16.0291672  43.0730783  33.6951040   7.9927200  44.8741592
  34.1382186   7.2434526  44.4760716  32.8177550   7.9837337  44.4915324
  28.8286821  14.5457542  40.3548191  29.5237726  15.1664235  40.5735506
  29.1709972  13.6952893  40.6300569  30.7278245  11.9957247  41.8835522
  31.2529569  12.3344520  41.1584842  30.6400597  11.0604263  41.6998656
  22.3898293  15.9091321  54.0125398  22.6985420  15.6640468  54.8848098
  23.1873775  16.1137959  53.5244269  22.4118905  18.0629231  46.2430775
  21.9723896  17.5705609  46.9363632  23.1627022  17.5202198  46.0022850
  14.8911244  14.2540772  46.2455403  15.7169264  13.9544543  45.8654047
  14.5405296  13.4848394  46.6945192  19.8592777  13.6067240  48.3153077
  19.2372787  12.9437945  48.0155304  20.5297644  13.6328372  47.6326724
  13.0919849  12.1727098  47.2044337  12.2551758  11.7449272  47.0228338
  13.0643495  12.3659541  48.1415128  30.4172151  12.6290151  57.1886720
  29.6267694  12.6114290  56.6491219  30.1805505  13.1678445  57.9435756
  30.5370026   9.4782617  54.5019448  30.5868031   9.3132625  55.4434971
  30.4283949   8.6109876  54.1117329  19.4206284  12.1571163  41.7911537
  19.5694405  12.8406627  41.1378210  20.2272728  12.1376253  42.3060993
  27.8273788   5.4613545  55.8178755  28.7283651   5.3220010  55.5262753
  27.9021763   5.6268000  56.7576932  32.0388223  11.8979559  54.7461470
  31.7473031  12.2609539  55.5824931  31.4260354  11.1846567  54.5674802
  33.2383905   9.4632439  47.2664040  34.0730796   9.9022243  47.4301600
  33.3743034   8.9871092  46.4472286  30.2875411   7.0212174  53.2141528
  30.7629532   7.2139820  52.4060379  29.3640976   7.0771359  52.9684911
  17.1758917   8.1836341  42.7972606  16.9304959   7.2798671  42.9952816
  17.3454832   8.1853491  41.8552084  22.9201690  14.6519294  39.2623285
  22.3475657  15.2709481  38.8093756  23.4934484  15.2018655  39.7963206
  28.9877080   3.8977934  51.4469833  29.9394503   3.9976031  51.4682057
  28.8180530   3.1056202  51.9567918  27.0091459   0.9833517  51.6329234
  26.4141391   1.2638530  50.9375723  26.7241156   1.4727418  52.4045975
  26.1398950  14.9356444  40.3931867  27.0729623  14.8702005  40.5964742
  26.0522163  15.7712711  39.9346399  28.7686966  14.2522314  37.3535814
  28.6900598  13.9182178  38.2471572  29.5896633  14.7444082  37.3527287
  31.4665158   7.1184053  50.5612133  31.4341478   6.1800054  50.7471817
  32.0765781   7.1968090  49.8277958  23.3048488   5.9880106  36.6039337
  24.2507593   5.8586314  36.6727755  22.9262733   5.2494768  37.0808765
  31.6159646   3.9095097  50.6070416  31.0998695   3.1253553  50.4200345
  32.4999595   3.5813813  50.7716936  37.2841707   8.1800060  49.7018170
  38.0145096   7.9185348  50.2625873  36.6748653   7.4428782  49.7420238
  35.3657005   6.3207923  50.2992621  34.6390168   6.1863888  49.6909113
  34.9504291   6.6284751  51.1049339  23.1887181  10.0397852  58.0639994
  24.1090190  10.2176451  58.2580041  23.1536764   9.0953898  57.9119693
  16.1849253   7.9498887  50.7062775  16.4035263   8.8815995  50.7250809
  16.5975027   7.5906861  51.4917579  28.4122827  -0.3554456  43.8241424
  27.8321496   0.3030348  43.4419477  28.1458759  -1.1777111  43.4128842
  20.9208389   6.9529232  58.9130586  20.4375471   7.7529592  59.1194475
  21.0069328   6.9637177  57.9598030  14.1894348   8.7857611  46.8352405
  14.1665037   8.8845299  45.8834288  14.4994985   9.6322762  47.1569571
  16.8481726  10.8433766  50.9499020  17.8024980  10.8117709  50.8828951
  16.6494250  10.3824390  51.7649245  17.4381108   9.4134882  53.5169817
  18.2573997   9.9078961  53.5404654  17.7117916   8.4966851  53.4887385
  27.1947705   1.8045635  42.8797773  26.3073560   2.0895285  42.6617967
  27.6101694   1.6439398  42.0325050  30.5462241   1.8292156  46.5952112
  31.3222631   2.3188608  46.8676729  29.8210375   2.2550210  47.0523981
  32.9834799   2.5419775  47.6526053  33.5779290   2.3015511  46.9419361
  33.0561383   1.8226906  48.2799589  15.2031955  16.3853386  47.9669217
  15.0686423  15.6253787  47.4007215  14.7864017  17.1094286  47.4998006
  26.3390918  11.5690309  36.9745793  27.0426768  11.7740312  37.5903448
  25.6153567  12.1367071  37.2394876  27.1688728   7.3200171  43.0948063
  27.1123930   7.7768722  42.2555695  27.7217071   6.5590855  42.9170906
  30.9793534   3.1089903  43.9198182  30.7230469   2.7086538  44.7506390
  30.3546402   3.8233696  43.7948322  35.2905872   5.8485976  46.4269474
  34.7305430   5.9179165  47.2001036  34.6849376   5.6726960  45.7068970
  18.3601081  17.2822703  48.1787660  18.2433465  18.2268135  48.0766350
  17.5393527  16.9796264  48.5673459  28.2477616  12.0072839  39.0244253
  29.0823219  11.5754037  38.8421728  28.0861958  11.8354852  39.9521147
  27.9023508   8.5104952  40.3900592  27.8472312   8.3449223  39.4489036
  27.2769563   9.2180985  40.5462782  25.2169415  10.8153864  59.7154155
  26.0860575  10.9894516  59.3540790  24.7376166  11.6348281  59.5929884
  19.3855595  17.9350965  51.3943588  20.2882842  17.9674575  51.7110083
  19.1592965  17.0051416  51.4089924  21.1409197  16.6881951  48.0553667
  20.1904828  16.6883813  47.9418039  21.4441683  15.9414686  47.5389702
  36.8761891  22.5242490  49.1199430  37.5140301  22.4049237  48.4162770
  36.7582734  23.4723334  49.1787382  33.6851597  22.4769918  49.0560954
  33.3470108  22.3610983  48.1681489  34.5541365  22.0761083  49.0361960
  29.5438413  24.3305394  45.0457845  28.9803278  24.2395331  44.2774133
  29.4290808  23.5105299  45.5260338  34.1671380  23.6304770  55.0147160
  34.1560021  23.2357568  54.1427663  34.3292019  22.8970842  55.6080931
  27.0902845  25.8256586  47.8842066  27.8824136  25.4847410  47.4688365
  27.3299495  25.9351561  48.8044219  35.1237971  27.9976362  40.3572310
  34.4725951  28.5830442  39.9706324  35.9182334  28.5282557  40.4167348
  29.0493598  25.0865499  40.7559444  29.8224474  24.5394486  40.6172320
  29.4018997  25.9509748  40.9673906  30.8878641  26.4141881  53.9626344
  30.5968507  27.3187512  53.8473010  31.5235625  26.4558409  54.6770413
  31.8134848  23.7918730  50.5527703  32.4098420  23.5674752  49.8384666
  31.8709819  23.0503475  51.1553151  31.3859876  21.2458165  38.3877894
  31.6385397  20.7239686  37.6261357  30.4484435  21.0824311  38.4904578
  36.4303159  20.2493944  46.1952638  37.2166248  19.8313367  45.8443055
  36.6941863  21.1540036  46.3634286  36.6013236  25.6866794  40.8941294
  35.9659069  25.7601420  41.6062199  36.2710643  26.2760393  40.2160374
  41.8311586  20.1869177  47.0985616  42.5636758  19.6168394  47.3323446
  41.0750942  19.7990777  47.5392122  31.1056165  23.1486271  40.5902269
  30.9892423  22.4731175  41.2583354  31.2158425  22.6618645  39.7734422
  33.4487706  22.6096418  44.2948959  33.0845913  22.0827039  45.0061880
  34.3054822  22.2194887  44.1215444  39.3537007  13.8990751  51.5580225
  39.0220331  14.7686162  51.3341440  38.7582620  13.5827035  52.2374255
  33.0893193  17.6386318  39.2910307  33.2567595  18.5066554  39.6580778
  32.8990362  17.8013600  38.3671596  35.8468526  26.1003297  50.9576137
  35.5469249  27.0028336  50.8491945  35.5019586  25.8335480  51.8097290
  29.2981008  22.5517094  46.9912842  28.3731504  22.4193308  47.1990534
  29.5465421  23.3311313  47.4882784  39.2465670  18.6185837  48.6373575
  38.3382547  18.5501245  48.3432336  39.1953266  19.0957782  49.4655400
  33.0682414  20.0943975  40.2756974  32.9482039  20.5401026  41.1142454
  32.3735002  20.4429293  39.7170512  26.6589819  22.1950367  47.8256631
  26.7882200  22.4484846  48.7396043  25.9787270  22.7878075  47.5061286
  30.8289306  32.8647617  43.9247105  30.7513336  33.8155442  44.0035586
  30.2250950  32.5193490  44.5822031  33.3206536  20.0375483  56.5808472
  32.5439870  20.5969403  56.5711337  33.9597099  20.5232266  57.1023342
  41.1127316  16.8202275  50.4151449  40.4701697  17.1134809  49.7691243
  40.6082245  16.7055196  51.2204645  38.7667480  20.5665449  41.1037308
  39.6785336  20.7992835  40.9285005  38.2577127  21.1502493  40.5412387
  31.5752908  22.8460936  56.1426439  32.3167592  23.3845980  55.8661263
  30.8689893  23.4727225  56.2997991  37.0508248  24.9890076  54.7398600
  37.4591604  24.5472487  53.9953233  36.3285509  24.4142704  54.9932793
  33.4039318  19.9262683  52.1132157  34.2500513  20.3502097  52.2566806
  33.3437955  19.2696308  52.8070721  37.3737062  25.5491267  48.4950889
  36.7445925  25.7136981  47.7926957  36.9862724  25.9632877  49.2661853
  41.2526294  26.4845705  45.8495253  40.5677332  26.8644606  45.2992286
  41.3370143  27.0941032  46.5827201  36.5538763  17.5867052  53.7713331
  36.3099695  18.3409112  53.2347607  36.8298694  17.9652399  54.6060578
  38.5077226  24.1305664  52.4490597  38.7194121  24.7737424  51.7724978
  38.4606974  23.2967981  51.9812527  36.1103455  16.7423485  49.3527169
  35.2487934  17.0404738  49.6443906  36.1365889  16.9593884  48.4208201
  32.9265024  25.2865675  45.7600974  33.3903370  25.5653378  44.9705597
  32.6621822  24.3849120  45.5774065  29.8189105  24.8337157  48.6980738
  30.3890462  25.2624425  48.0598222  30.4097217  24.5519741  49.3964923
  31.8633910  21.4088828  42.5690540  32.5657954  21.8609871  43.0364466
  31.5314539  20.7672646  43.1970433  30.3114272  20.0000584  56.9441749
  29.6812932  20.6816865  57.1777146  30.2050360  19.8883666  55.9994887
  25.6059244  19.6672380  47.8707673  24.8158298  19.9229909  47.3947784
  26.0970492  20.4820718  47.9759714  39.6223054  27.0077619  50.6212954
  40.4440497  26.6057807  50.3395636  39.6185457  26.9045854  51.5729070
  27.5573990  20.0316959  44.8291150  26.7605153  20.1435654  45.3474646
  27.3299582  20.3703612  43.9632040  33.3879657  26.5561663  52.7773664
  33.4524090  27.0182070  53.6131836  32.6790581  25.9259028  52.9055974
  23.8896947  19.9202871  50.3022664  24.1404986  20.8049881  50.5680240
  24.4256496  19.7407472  49.5297756  47.7129047  23.3516368  46.9697925
  46.9592755  22.7823766  46.8141930  47.8476588  23.3179032  47.9168560
  33.1027675  28.2229770  42.6452645  32.9673350  29.0681306  43.0737493
  33.6437487  28.4249048  41.8818579  29.5895014  14.3021350  59.3067000
  29.1961960  13.7487549  59.9814644  30.4061155  14.6131928  59.6973518
  26.5557072  25.7405208  43.2180570  27.0681593  26.5348458  43.3686135
  27.2079785  25.0431499  43.1514171  28.3651957  28.8570964  45.3003323
  28.5418585  29.7788929  45.1124307  29.1608790  28.5429384  45.7297703
  32.5062975  15.7179229  56.8987257  33.2472689  16.3186382  56.8191719
  32.7380898  14.9756867  56.3405299  27.6504313  20.9035596  55.1765486
  27.5357829  20.0020854  55.4772585  26.7948831  21.1499293  54.8250303
  34.7296151  28.8453337  56.7752987  34.2860005  28.0589715  56.4573891
  35.3913365  29.0332487  56.1096878  29.4883272  30.3749138  51.3013665
  30.0390698  30.2466202  50.5290659  28.6494748  30.6744027  50.9508558
  36.8277389  29.1256137  54.8034388  36.8095865  29.9465018  54.3114657
  37.7497309  29.0010212  55.0284529  33.2850443  26.6400266  55.6457897
  33.8178780  25.8788554  55.4157205  32.7564525  26.3473918  56.3882051
  36.4520138  11.7460332  51.1751538  36.1084408  12.6361974  51.0990649
  36.8199101  11.5561990  50.3121123  24.5205989  24.0693863  43.9940140
  25.3581211  24.4790871  43.7773848  24.6984257  23.1293305  43.9640334
  36.4170421  21.7368943  39.6823973  35.9017045  22.5073548  39.9212361
  36.1447730  21.0634079  40.3057035  34.0017532  16.5818644  44.7409212
  33.1459128  16.1925494  44.5614850  34.4144484  16.6610605  43.8808997
  35.5316679  14.1164987  49.1400772  35.0281474  14.0795122  48.3268577
  35.8247286  15.0257730  49.1997428  31.7759565  14.2003717  48.1466953
  32.6412561  14.0046526  47.7872843  31.8437074  13.9714069  49.0736310
  41.3904695  24.4901298  41.6177147  40.6134138  24.1512457  41.1732309
  42.0696176  24.4953921  40.9432112  36.2056724  19.6096035  41.5083755
  35.9006860  19.9242184  42.3593898  37.1587166  19.6877455  41.5511088
  34.6503156  25.7686259  43.1576709  34.1224518  25.0339018  42.8449946
  34.1490659  26.5460935  42.9116677  39.6296002  23.9635279  48.2743755
  38.9719677  24.6534540  48.3623883  40.4336401  24.3531711  48.6177741
  29.3821884  16.4305925  45.5183320  29.9565636  16.2081106  44.7856513
  29.9692866  16.4994619  46.2711921  38.4401461  22.3179652  46.3247697
  38.9533343  22.9509644  46.8269406  39.0902685  21.7180847  45.9591057
  29.7091471  18.4610386  39.5379205  28.8728783  18.7985072  39.8588480
  29.5696241  18.3259366  38.6006342  31.6844551  13.3047174  44.2458390
  31.0308964  12.9896191  43.6215004  31.6425026  12.6822914  44.9718212
  32.7955756  23.5866469  36.1611682  31.8882818  23.3555722  36.3602831
  33.2926788  22.7904088  36.3485663  35.7023835  32.2963976  39.0808368
  35.0285534  32.5995673  39.6893326  36.0889657  33.0993056  38.7313825
  34.9182292  19.7929107  48.5706037  34.0004853  20.0144054  48.4127725
  35.3342435  19.8675418  47.7117744  35.7017340  21.1920523  43.7008717
  36.4489159  21.7041920  43.3915839  35.9708929  20.8704576  44.5613111
  33.9743990  23.6879064  40.6835672  33.0655209  23.4038097  40.7808141
  34.0039074  24.1078142  39.8238979  39.2063257  27.2985653  44.4526839
  38.7525584  26.4576563  44.5092030  38.5757224  27.9347052  44.7901619
  38.1496177  18.2277639  45.6827507  37.4118934  17.7155025  46.0137749
  38.4022950  17.7878021  44.8710784  37.6496196  29.1362150  45.3876657
  37.9419171  29.6967207  44.6689023  38.1594817  29.4290711  46.1429816
  38.2507804  11.0053891  46.2769276  38.5566681  10.1451255  45.9895191
  38.9760409  11.5971511  46.0768270  24.5432160  21.4084578  44.6650874
  24.3456560  20.8153939  43.9401940  23.9878824  21.1036788  45.3826813
  32.5228884  21.3007684  46.7845467  32.5777494  20.3481521  46.7087944
  31.7120086  21.4567123  47.2686765  33.6720078  25.2287807  38.0223750
  33.2339507  24.5123666  37.5629388  34.4130518  25.4563922  37.4608842
  30.4621244  19.9184744  44.5435846  29.6489109  20.2178915  44.9501038
  30.9580238  19.5240433  45.2610328  32.6129822  29.9142501  46.4770111
  32.5706000  30.1403347  45.5478643  33.5292520  29.6805876  46.6255912
  36.0595455  20.3826569  53.3750740  36.4144843  20.6098042  54.2345206
  36.7067587  20.7144945  52.7527995  41.7893192  23.5045004  44.0800069
  41.6511091  23.6946600  43.1521258  41.4329411  24.2664387  44.5368120
  29.9535318  17.4903100  50.1597081  30.5934698  17.3491859  49.4620044
  29.1212849  17.2037613  49.7835683  41.8162572  25.5721531  49.0911340
  42.2499079  25.4796821  49.9394394  42.5294153  25.5479032  48.4531356
  30.7295622  26.7905530  46.2732073  31.5236221  26.2955850  46.0714648
  30.0187315  26.2623393  45.9099779  35.5490467  29.1723626  50.6244441
  35.6027489  29.7414562  51.3922157  34.6805248  29.3425511  50.2598478
  27.0378386  20.9348612  42.3491826  26.1075974  20.8733067  42.5661788
  27.1335858  20.4124564  41.5528467  26.9563935  17.4603425  44.9370068
  27.2170752  18.3748758  44.8279228  27.7781107  16.9927867  45.0866680
  28.4288860  18.8741182  52.1068892  29.1011914  18.6658544  51.4581541
  27.6018647  18.6763268  51.6674124  42.6778122  25.6145232  51.6244226
  42.8714012  26.5191043  51.8703501  42.5778740  25.1552651  52.4582811
  34.3314432  15.5003123  54.1234553  33.6842347  16.1993072  54.0299029
  35.1015448  15.9339267  54.4910801  37.7393230  25.7651975  57.1985106
  37.5878737  25.5362527  56.2815190  37.7297910  26.7222576  57.2116451
  34.5078567  23.3383888  52.1831373  35.4370627  23.4895047  52.0100340
  34.0869597  23.4267908  51.3280019  33.3066898  27.3634552  49.9529910
  33.1677984  26.9953336  50.8255849  32.5181495  27.8782191  49.7813868
  33.9015050  32.4643648  41.2955447  34.0766806  31.9931692  42.1101070
  33.2147838  33.0909415  41.5236708  34.8572114  26.7416155  47.3418748
  34.5221946  26.7016925  48.2376398  34.3576059  26.0760871  46.8689158
  28.8316357  22.1483785  52.8671329  28.6936155  21.4164024  53.4682868
  29.7421281  22.0592685  52.5855517  37.7931305  24.0872189  37.6155808
  37.1760476  23.3619017  37.5188861  37.3247794  24.8481549  37.2722882
  31.4598658  21.8603744  52.3555009  32.1698277  21.2196936  52.3141627
  31.4167966  22.1116639  53.2781190  39.4485437  28.7971097  55.2761588
  39.3897983  28.1130318  54.6092171  39.8504955  29.5390087  54.8242214
  30.1727592  18.8468962  54.1750648  29.6364949  18.3959700  54.8272245
  29.5844301  18.9814871  53.4321113  28.4676136  35.6133011  48.0695307
  28.7072734  36.2451535  48.7474326  27.6245332  35.2621051  48.3560666
  29.5829851  18.3057613  36.7377112  28.7059317  18.1846414  36.3739359
  30.0587604  17.5143692  36.4856001  39.4502844  26.7610681  53.5075568
  38.5629623  26.4236603  53.6301967  40.0201395  26.0293713  53.7444333
  21.1031991  23.0934773  46.8318619  21.7903031  22.7796503  46.2439635
  20.9480120  23.9976138  46.5585871  25.9066713  17.9824970  51.2603643
  25.8224902  17.3750639  50.5254053  25.0849420  18.4733988  51.2613139
  32.9803998  31.4212134  50.4736811  32.9074169  32.2267105  50.9856116
  32.5381391  31.6204099  49.6484832  32.7693777  30.6583904  43.9839633
  31.9861299  31.2005584  44.0777857  33.4686522  31.1757883  44.3833874
  36.0790427  16.4678533  46.6273838  36.5759127  15.7148495  46.3074908
  35.3077409  16.5042850  46.0617047  43.9320185  22.1718899  48.2692130
  43.9210061  23.0543614  47.8986063  43.0637564  21.8190450  48.0746667
  35.4402681  31.3198968  52.6294970  36.1530653  31.9546433  52.5570871
  34.9492710  31.4162834  51.8134972  37.1620208  25.2250220  44.2012261
  36.2276487  25.3451683  44.0316966  37.3396876  24.3222687  43.9372271
  32.6625396  18.6095916  46.3545523  32.2923184  18.0566957  47.0426428
  33.1584488  18.0054050  45.8020523  40.5492759  21.0667540  44.7362296
  41.0153211  21.8995531  44.6622598  41.0000260  20.6012521  45.4407554
  30.4914595  29.0693411  53.4500541  31.1924054  29.7029894  53.6029935
  30.0209710  29.4108143  52.6896180  38.6168990  27.4111361  41.7348448
  38.8928834  27.2967956  42.6442322  37.7473489  27.0128846  41.6960621
  38.5209422  13.4348127  48.7753197  37.6072502  13.6652353  48.9435404
  38.9502523  13.5186571  49.6267229  38.2915881  21.6238019  51.2753091
  37.6387331  21.8713926  50.6205544  38.6696260  20.8102157  50.9415568
  35.2523054  31.6597712  45.3781261  35.4345449  30.8419368  45.8409014
  36.0756040  31.8765404  44.9406151  35.5865220  30.5865897  42.6396310
  36.1152986  30.0758351  42.0266472  35.8493439  30.2708427  43.5041843
  34.3403454  22.3657830  57.7619128  33.6644091  22.2651959  58.4321503
  35.1631087  22.2097043  58.2255125  26.0882313  28.6029766  50.3831643
  26.6735749  27.8573454  50.5159547  25.8907151  28.9133723  51.2668307
  28.9420968  31.6381014  45.3994086  28.2731343  32.1227141  44.9158126
  28.8033838  31.8850234  46.3137464  20.6799967  21.1735366  49.1036086
  20.7184067  20.6398957  49.8973204  20.1740260  20.6470572  48.4847064
  33.0826236  33.6724757  51.9976744  33.6344544  33.8356379  52.7625829
  33.4232430  34.2629195  51.3256769  28.0590730  16.0199907  52.5998629
  28.1232056  16.8814738  52.1876026  27.9957850  15.4073909  51.8670987
  27.5343002  18.0923039  56.2471663  28.1615041  17.7100117  56.8609187
  26.6770921  17.8737241  56.6127355  37.9337111  28.4986015  57.8525398
  38.4777015  29.1115973  57.3580353  37.3523956  29.0565593  58.3692411
  24.3108545  19.8999469  42.1790018  24.6061986  18.9910147  42.1257071
  23.4096581  19.8787208  41.8571020  36.2194624  31.6206733  48.9840426
  36.0945763  30.8196472  48.4751372  36.8773715  32.1152926  48.4954396
  27.8402792  17.9755465  48.1617566  27.1189378  18.5891433  48.0225040
  28.6296048  18.5113230  48.0834212  38.2829532  29.4215753  50.6119976
  37.3359868  29.3021104  50.5398303  38.6312305  28.5338251  50.6946238
  30.6429105  15.3109892  54.4358218  31.1663507  15.5572188  55.1984527
  30.4241439  16.1429926  54.0161355  26.0396387  17.5813566  42.3029343
  25.7109093  16.7010945  42.1204449  26.3935757  17.5261235  43.1905732
  35.2875965  29.2168469  46.8124328  35.1400928  28.2885176  46.9931899
  36.1129459  29.2388560  46.3281404  29.1538210  17.8686536  42.6704821
  29.4934282  18.3972457  41.9483429  29.6010330  18.2066942  43.4463387
  38.8910087  30.0397028  47.8989201  39.8156635  29.8339889  47.7613652
  38.7225391  29.7913429  48.8078543  31.8481651  16.2523587  52.1207889
  31.5078471  15.4531400  52.5228569  31.1420657  16.5525298  51.5484722
  32.4998122  13.3372899  50.5735212  33.3224192  12.8633377  50.4514102
  32.7436186  14.1163383  51.0733898  31.1406357  16.3661158  40.8698113
  31.8614719  16.7442410  40.3661830  30.5171661  17.0850034  40.9733091
  35.2837480  17.0706307  41.8056446  35.5001094  17.9530944  41.5045274
  34.8031547  16.6792520  41.0762088  30.0236701  20.0292020  48.3827190
  29.8781282  20.3432323  49.2751472  29.5461905  20.6476920  47.8298089
  31.8833084  17.0194568  48.4308080  31.8694653  16.1235661  48.0940378
  32.6005512  17.0265232  49.0646366  33.7359215  17.4531908  50.4761207
  33.4776993  18.3748979  50.4745538  33.2044255  17.0562343  51.1661671
  38.6805403  30.5582695  43.2551293  38.8542281  29.9929118  42.5025145
  39.1734295  31.3583590  43.0730783  24.4982363  22.5697364  51.3214851
  23.9535831  23.3457172  51.4535126  25.3761713  22.9168169  51.1633973
  31.2869980  15.9008948  43.6995650  31.4085891  14.9725594  43.8986537
  30.9972022  15.9147634  42.7873965  34.1561170  13.5863859  46.8362370
  34.1782867  13.6503192  45.8814349  34.5729229  12.7468367  47.0302876
  44.5344795  23.3219118  44.8741592  44.9775941  22.5726443  44.4760716
  43.6571305  23.3129254  44.4915324  39.6680576  29.8749460  40.3548191
  40.3631481  30.4956152  40.5735506  40.0103726  29.0244811  40.6300569
  25.2848385  21.6967260  54.2145008  24.5430121  21.8449896  54.8009639
  24.9641129  21.9575526  53.3511758  41.5671999  27.3249165  41.8835522
  42.0923323  27.6636438  41.1584842  41.4794352  26.3896180  41.6998656
  33.2292048  31.2383239  54.0125398  33.5379174  30.9932385  54.8848098
  34.0267530  31.4429877  53.5244269  33.2512660  33.3921148  46.2430775
  32.8117650  32.8997527  46.9363632  34.0020777  32.8494116  46.0022850
  25.7304999  29.5832689  46.2455403  26.5563019  29.2836461  45.8654047
  25.3799051  28.8140312  46.6945192  30.6986532  28.9359157  48.3153077
  30.0766541  28.2729862  48.0155304  31.3691399  28.9620289  47.6326724
  23.9313604  27.5019016  47.2044337  23.0945512  27.0741190  47.0228338
  23.9037249  27.6951459  48.1415128  30.7711059  17.4140945  57.9085583
  30.8199215  18.2903068  57.5263352  31.3133574  16.8718338  57.3357226
  41.2565905  27.9582069  57.1886720  40.4661449  27.9406208  56.6491219
  41.0199260  28.4970362  57.9435756  41.3763780  24.8074535  54.5019448
  41.4261785  24.6424543  55.4434971  41.2677704  23.9401794  54.1117329
  30.2600039  27.4863081  41.7911537  30.4088159  28.1698545  41.1378210
  31.0666482  27.4668171  42.3060993  38.6667543  20.7905463  55.8178755
  39.5677405  20.6511928  55.5262753  38.7415517  20.9559918  56.7576932
  33.0010348  18.1672318  54.6631941  32.1313657  18.4605884  54.3914530
  33.2369828  18.7512763  55.3839205  42.8781977  27.2271477  54.7461470
  42.5866785  27.5901457  55.5824931  42.2654108  26.5138485  54.5674802
  44.0777659  24.7924356  47.2664040  44.9124551  25.2314160  47.4301600
  44.2136788  24.3163010  46.4472286  41.1269165  22.3504091  53.2141528
  41.6023287  22.5431738  52.4060379  40.2034731  22.4063277  52.9684911
  28.0152672  23.5128258  42.7972606  27.7698714  22.6090588  42.9952816
  28.1848586  23.5145409  41.8552084  35.7049382  14.3851935  52.1797362
  36.2231326  15.1212962  51.8543850  35.3504514  14.6915928  53.0144121
  27.2848319  19.2456616  40.2958767  26.5917564  19.3200971  39.6398803
  27.0400071  18.4816960  40.8180284  35.9561976  10.8052217  47.6998258
  36.2363730  10.1375406  48.3258685  36.7412583  10.9981313  47.1872922
  33.7595444  29.9811211  39.2623285  33.1869411  30.6001398  38.8093756
  34.3328238  30.5310573  39.7963206  39.8270834  19.2269851  51.4469833
  40.7788257  19.3267949  51.4682057  39.6574285  18.4348120  51.9567918
  37.8485214  16.3125435  51.6329234  37.2535146  16.5930447  50.9375723
  37.5634910  16.8019335  52.4045975  36.9792704  30.2648361  40.3931867
  37.9123377  30.1993923  40.5964742  36.8915917  31.1004628  39.9346399
  39.6080721  29.5814232  37.3535814  39.5294352  29.2474095  38.2471572
  40.4290388  30.0736000  37.3527287  42.3058912  22.4475971  50.5612133
  42.2735232  21.5091972  50.7471817  42.9159536  22.5260008  49.8277958
  34.1442243  21.3172024  36.6039337  35.0901348  21.1878232  36.6727755
  33.7656488  20.5786686  37.0808765  42.4553401  19.2387014  50.6070416
  41.9392449  18.4545471  50.4200345  43.3393349  18.9105731  50.7716936
  40.1164127  12.9828030  46.5666229  39.9188949  12.6743118  47.4509561
  40.7263833  13.7089669  46.6964159  48.1235462  23.5091978  49.7018170
  48.8538850  23.2477266  50.2625873  47.5142407  22.7720700  49.7420238
  46.2050759  21.6499840  50.2992621  45.4783923  21.5155805  49.6909113
  45.7898046  21.9576669  51.1049339  34.0280935  25.3689770  58.0639994
  34.9483945  25.5468369  58.2580041  33.9930518  24.4245815  57.9119693
  32.3285160  19.2422000  36.5394222  31.4216615  18.9455113  36.6156936
  32.6061141  18.9451818  35.6728509  23.2463100  20.5628364  46.9893269
  22.9265885  19.7093672  46.6967643  22.6996529  20.7776942  47.7451236
  27.0243008  23.2790805  50.7062775  27.2429018  24.2107913  50.7250809
  27.4368782  22.9198779  51.4917579  33.9447226  13.7858890  42.6938464
  33.1347954  13.4405975  43.0693710  34.6331643  13.4766434  43.2826075
  35.8737774  12.8636937  44.3162760  36.4268813  13.2832390  44.9752783
  36.1107860  11.9372685  44.3585716  31.8970873  18.8524011  60.0965524
  31.7967600  19.8018367  60.0277615  31.6792415  18.5242249  59.2241594
  31.0983945  16.1008936  36.6806201  31.9603109  16.4263834  36.9402019
  31.2834289  15.3140431  36.1679267  23.1151360  24.1831275  48.9586390
  22.4214832  23.7685228  48.4456345  23.8624351  24.2251812  48.3619809
  39.2516581  14.9737462  43.8241424  38.6715250  15.6322266  43.4419477
  38.9852514  14.1514807  43.4128842  37.7020148  14.3742520  46.0262745
  38.2019926  14.4859054  45.2177064  38.3455755  14.0703573  46.6663553
  31.7602143  22.2821149  58.9130586  31.2769225  23.0821509  59.1194475
  31.8463082  22.2929094  57.9598030  25.0288103  24.1149529  46.8352405
  25.0058791  24.2137216  45.8834288  25.3388739  24.9614680  47.1569571
  27.6875481  26.1725684  50.9499020  28.6418734  26.1409626  50.8828951
  27.4888004  25.7116308  51.7649245  28.2774863  24.7426800  53.5169817
  29.0967752  25.2370879  53.5404654  28.5511671  23.8258768  53.4887385
  38.0341459  17.1337552  42.8797773  37.1467314  17.4187203  42.6617967
  38.4495448  16.9731316  42.0325050  41.3855995  17.1584073  46.5952112
  42.1616385  17.6480526  46.8676729  40.6604129  17.5842128  47.0523981
  43.8228554  17.8711693  47.6526053  44.4173045  17.6307429  46.9419361
  43.8955138  17.1518823  48.2799589  26.0425710  31.7145304  47.9669217
  25.9080178  30.9545704  47.4007215  25.6257772  32.4386203  47.4998006
  37.1784673  26.8982227  36.9745793  37.8820523  27.1032230  37.5903448
  36.4547321  27.4658989  37.2394876  38.0082483  22.6492088  43.0948063
  37.9517684  23.1060640  42.2555695  38.5610825  21.8882773  42.9170906
  41.8187289  18.4381820  43.9198182  41.5624223  18.0378456  44.7506390
  41.1940157  19.1525614  43.7948322  46.1299627  21.1777893  46.4269474
  45.5699185  21.2471083  47.2001036  45.5243130  21.0018878  45.7068970
  29.1994835  32.6114621  48.1787660  29.0827220  33.5560053  48.0766350
  28.3787282  32.3088182  48.5673459  39.0871370  27.3364756  39.0244253
  39.9216974  26.9045955  38.8421728  38.9255713  27.1646770  39.9521147
  38.7417262  23.8396870  40.3900592  38.6866066  23.6741141  39.4489036
  38.1163317  24.5472903  40.5462782  23.5309777  19.0764934  54.2162014
  24.1768641  18.5663888  54.7049239  23.3226928  19.8133616  54.7905440
  36.0563169  26.1445781  59.7154155  36.9254329  26.3186434  59.3540790
  35.5769921  26.9640198  59.5929884  32.0513388  13.3404979  39.9685910
  32.0392057  14.2846819  40.1254181  32.9436810  13.1575124  39.6745372
  30.2249350  33.2642882  51.3943588  31.1276596  33.2966493  51.7110083
  29.9986720  32.3343333  51.4089924  31.9802952  32.0173869  48.0553667
  31.0298583  32.0175731  47.9418039  32.2835438  31.2706604  47.5389702
  35.8665507   9.9347755  44.2231847  35.0997903   9.3806242  44.3688530
  36.2776212  10.0069624  45.0845999  27.8707268  16.2232551  58.3137029
  28.7338730  15.8669356  58.5240353  27.2972679  15.8846446  59.0012433
  47.7155645  37.8534407  49.1199430  48.3534055  37.7341155  48.4162770
  47.5976488  38.8015251  49.1787382  44.5245351  37.8061836  49.0560954
  44.1863863  37.6902900  48.1681489  45.3935120  37.4053001  49.0361960
  40.3832167  39.6597312  45.0457845  39.8197032  39.5687249  44.2774133
  40.2684562  38.8397216  45.5260338  37.9296599  41.1548504  47.8842066
  38.7217891  40.8139328  47.4688365  38.1693249  41.2643479  48.8044219
  45.9631726  43.3268280  40.3572310  45.3119706  43.9122360  39.9706324
  46.7576089  43.8574475  40.4167348  39.8887353  40.4157417  40.7559444
  40.6618229  39.8686404  40.6172320  40.2412752  41.2801666  40.9673906
  42.6528602  39.1210648  50.5527703  43.2492175  38.8966670  49.8384666
  42.7103574  38.3795393  51.1553151  42.2253631  36.5750083  38.3877894
  42.4779151  36.0531604  37.6261357  41.2878190  36.4116228  38.4904578
  47.2696914  35.5785861  46.1952638  48.0560003  35.1605284  45.8443055
  47.5335618  36.4831953  46.3634286  47.4406991  41.0158712  40.8941294
  46.8052824  41.0893338  41.6062199  47.1104397  41.6052310  40.2160374
  52.6705341  35.5161094  47.0985616  53.4030513  34.9460311  47.3323446
  51.9144696  35.1282695  47.5392122  41.9449920  38.4778189  40.5902269
  41.8286178  37.8023092  41.2583354  42.0552179  37.9910563  39.7734422
  44.2881460  37.9388336  44.2948959  43.9239668  37.4118957  45.0061880
  45.1448576  37.5486805  44.1215444  50.1930761  29.2282669  51.5580225
  49.8614086  30.0978080  51.3341440  49.5976374  28.9118953  52.2374255
  43.9286947  32.9678236  39.2910307  44.0961350  33.8358472  39.6580778
  43.7384117  33.1305517  38.3671596  46.6862281  41.4295215  50.9576137
  46.3863004  42.3320253  50.8491945  46.3413340  41.1627398  51.8097290
  40.1374762  37.8809011  46.9912842  39.2125259  37.7485225  47.1990534
  40.3859175  38.6603231  47.4882784  50.0859424  33.9477755  48.6373575
  49.1776302  33.8793163  48.3432336  50.0347020  34.4249700  49.4655400
  43.9076168  35.4235893  40.2756974  43.7875794  35.8692944  41.1142454
  43.2128757  35.7721211  39.7170512  37.4983573  37.5242285  47.8256631
  37.6275954  37.7776764  48.7396043  36.8181024  38.1169993  47.5061286
  41.6683060  48.1939535  43.9247105  41.5907090  49.1447360  44.0035586
  41.0644704  47.8485407  44.5822031  51.9521071  32.1494193  50.4151449
  51.3095451  32.4426726  49.7691243  51.4475999  32.0347113  51.2204645
  49.6061234  35.8957366  41.1037308  50.5179091  36.1284753  40.9285005
  49.0970882  36.4794411  40.5412387  48.2130817  40.8783185  48.4950889
  47.5839679  41.0428899  47.7926957  47.8256479  41.2924794  49.2661853
  52.0920049  41.8137623  45.8495253  51.4071087  42.1936524  45.2992286
  52.1763898  42.4232949  46.5827201  46.9497209  32.0715402  49.3527169
  46.0881688  32.3696656  49.6443906  46.9759644  32.2885801  48.4208201
  43.7658779  40.6157593  45.7600974  44.2297124  40.8945296  44.9705597
  43.5015577  39.7141037  45.5774065  40.6582860  40.1629074  48.6980738
  41.2284217  40.5916343  48.0598222  41.2490972  39.8811659  49.3964923
  42.7027665  36.7380745  42.5690540  43.4051708  37.1901789  43.0364466
  42.3708293  36.0964564  43.1970433  41.1508026  35.3292502  56.9441749
  40.5206687  36.0108783  57.1777146  41.0444114  35.2175583  55.9994887
  36.4452999  34.9964298  47.8707673  35.6552053  35.2521826  47.3947784
  36.9364246  35.8112636  47.9759714  38.3967744  35.3608877  44.8291150
  37.5998907  35.4727571  45.3474646  38.1693336  35.6995529  43.9632040
  34.7290702  35.2494788  50.3022664  34.9798740  36.1341798  50.5680240
  35.2650250  35.0699390  49.5297756  58.5522801  38.6808286  46.9697925
  57.7986510  38.1115684  46.8141930  58.6870342  38.6470950  47.9168560
  43.9421429  43.5521688  42.6452645  43.8067104  44.3973224  43.0737493
  44.4831242  43.7540965  41.8818579  40.4288769  29.6313268  59.3067000
  40.0355715  29.0779466  59.9814644  41.2454909  29.9423846  59.6973518
  37.3950827  41.0697126  43.2180570  37.9075347  41.8640376  43.3686135
  38.0473540  40.3723416  43.1514171  39.2045711  44.1862882  45.3003323
  39.3812340  45.1080847  45.1124307  40.0002545  43.8721301  45.7297703
  43.3456730  31.0471147  56.8987257  44.0866443  31.6478300  56.8191719
  43.5774653  30.3048785  56.3405299  38.4898068  36.2327514  55.1765486
  38.3751583  35.3312771  55.4772585  37.6342586  36.4791211  54.8250303
  40.3277027  45.7041056  51.3013665  40.8784452  45.5758119  50.5290659
  39.4888503  46.0035945  50.9508558  47.2913893  27.0752250  51.1751538
  46.9478162  27.9653891  51.0990649  47.6592855  26.8853907  50.3121123
  35.3599743  39.3985780  43.9940140  36.1974966  39.8082789  43.7773848
  35.5378011  38.4585222  43.9640334  47.2564176  37.0660861  39.6823973
  46.7410799  37.8365465  39.9212361  46.9841484  36.3925997  40.3057035
  44.8411287  31.9110562  44.7409212  43.9852883  31.5217412  44.5614850
  45.2538238  31.9902522  43.8808997  46.3710433  29.4456905  49.1400772
  45.8675229  29.4087040  48.3268577  46.6641040  30.3549648  49.1997428
  42.6153319  29.5295635  48.1466953  43.4806316  29.3338443  47.7872843
  42.6830828  29.3005986  49.0736310  52.2298450  39.8193215  41.6177147
  51.4527893  39.4804375  41.1732309  52.9089931  39.8245839  40.9432112
  47.0450479  34.9387953  41.5083755  46.7400614  35.2534102  42.3593898
  47.9980921  35.0169373  41.5511088  45.4896911  41.0978176  43.1576709
  44.9618272  40.3630936  42.8449946  44.9884413  41.8752853  42.9116677
  50.4689757  39.2927197  48.2743755  49.8113431  39.9826458  48.3623883
  51.2730156  39.6823629  48.6177741  40.2215638  31.7597843  45.5183320
  40.7959390  31.5373024  44.7856513  40.8086621  31.8286537  46.2711921
  49.2795215  37.6471569  46.3247697  49.7927097  38.2801561  46.8269406
  49.9296439  37.0472765  45.9591057  40.5485225  33.7902304  39.5379205
  39.7122538  34.1276990  39.8588480  40.4089995  33.6551283  38.6006342
  42.5238306  28.6339091  44.2458390  41.8702718  28.3188109  43.6215004
  42.4818780  28.0114832  44.9718212  43.6349511  38.9158387  36.1611682
  42.7276573  38.6847640  36.3602831  44.1320543  38.1196006  36.3485663
  45.7576046  35.1221025  48.5706037  44.8398608  35.3435972  48.4127725
  46.1736190  35.1967335  47.7117744  46.5411094  36.5212441  43.7008717
  47.2882913  37.0333838  43.3915839  46.8102684  36.1996493  44.5613111
  44.8137744  39.0170981  40.6835672  43.9048964  38.7330014  40.7808141
  44.8432828  39.4370060  39.8238979  48.9889931  33.5569557  45.6827507
  48.2512688  33.0446943  46.0137749  49.2416705  33.1169939  44.8710784
  49.0901559  26.3345809  46.2769276  49.3960435  25.4743172  45.9895191
  49.8154163  26.9263429  46.0768270  35.3825915  36.7376496  44.6650874
  35.1850314  36.1445856  43.9401940  34.8272579  36.4328706  45.3826813
  43.3622638  36.6299602  46.7845467  43.4171248  35.6773438  46.7087944
  42.5513840  36.7859041  47.2686765  44.5113832  40.5579725  38.0223750
  44.0733262  39.8415584  37.5629388  45.2524273  40.7855840  37.4608842
  41.3014998  35.2476662  44.5435846  40.4882864  35.5470832  44.9501038
  41.7973992  34.8532351  45.2610328  43.4523576  45.2434419  46.4770111
  43.4099755  45.4695265  45.5478643  44.3686275  45.0097793  46.6255912
  52.6286947  38.8336922  44.0800069  52.4904845  39.0238518  43.1521258
  52.2723166  39.5956305  44.5368120  40.7929073  32.8195017  50.1597081
  41.4328452  32.6783776  49.4620044  39.9606604  32.5329531  49.7835683
  52.6556326  40.9013449  49.0911340  53.0892833  40.8088738  49.9394394
  53.3687907  40.8770950  48.4531356  41.5689377  42.1197448  46.2732073
  42.3629975  41.6247768  46.0714648  40.8581069  41.5915311  45.9099779
  37.8772140  36.2640529  42.3491826  36.9469728  36.2024985  42.5661788
  37.9729612  35.7416482  41.5528467  37.7957689  32.7895342  44.9370068
  38.0564507  33.7040675  44.8279228  38.6174862  32.3219785  45.0866680
  39.2682615  34.2033099  52.1068892  39.9405668  33.9950462  51.4581541
  38.4412401  34.0055185  51.6674124  45.1708187  30.8295040  54.1234553
  44.5236102  31.5284990  54.0299029  45.9409202  31.2631184  54.4910801
  44.1460653  42.6926470  49.9529910  44.0071739  42.3245254  50.8255849
  43.3575249  43.2074109  49.7813868  44.7408805  47.7935566  41.2955447
  44.9160561  47.3223609  42.1101070  44.0541593  48.4201332  41.5236708
  45.6965868  42.0708072  47.3418748  45.3615701  42.0308842  48.2376398
  45.1969814  41.4052788  46.8689158  39.6710112  37.4775702  52.8671329
  39.5329910  36.7455941  53.4682868  40.5815035  37.3884602  52.5855517
  48.6325060  39.4164107  37.6155808  48.0154230  38.6910935  37.5188861
  48.1641548  40.1773467  37.2722882  42.2992413  37.1895662  52.3555009
  43.0092031  36.5488854  52.3141627  42.2561721  37.4408557  53.2781190
  41.0121347  34.1760880  54.1750648  40.4758704  33.7251618  54.8272245
  40.4238055  34.3106788  53.4321113  40.4223606  33.6349531  36.7377112
  39.5453072  33.5138332  36.3739359  40.8981359  32.8435609  36.4856001
  31.9425746  38.4226691  46.8318619  32.6296786  38.1088421  46.2439635
  31.7873874  39.3268055  46.5585871  36.7460468  33.3116887  51.2603643
  36.6618657  32.7042557  50.5254053  35.9243174  33.8025906  51.2613139
  43.6087532  45.9875821  43.9839633  42.8255054  46.5297502  44.0777857
  44.3080277  46.5049801  44.3833874  46.9184182  31.7970451  46.6273838
  47.4152881  31.0440413  46.3074908  46.1471163  31.8334767  46.0617047
  54.7713939  37.5010816  48.2692130  54.7603815  38.3835532  47.8986063
  53.9031319  37.1482367  48.0746667  48.0013962  40.5542138  44.2012261
  47.0670241  40.6743601  44.0316966  48.1790631  39.6514605  43.9372271
  43.5019150  33.9387834  46.3545523  43.1316938  33.3858874  47.0426428
  43.9978243  33.3345967  45.8020523  51.3886514  36.3959457  44.7362296
  51.8546966  37.2287449  44.6622598  51.8394014  35.9304439  45.4407554
  49.3603177  28.7640044  48.7753197  48.4466256  28.9944271  48.9435404
  49.7896278  28.8478488  49.6267229  36.9276067  43.9321684  50.3831643
  37.5129504  43.1865372  50.5159547  36.7300906  44.2425641  51.2668307
  39.7814722  46.9672931  45.3994086  39.1125098  47.4519059  44.9158126
  39.6427592  47.2142152  46.3137464  31.5193722  36.5027284  49.1036086
  31.5577821  35.9690875  49.8973204  31.0134015  35.9762490  48.4847064
  38.8984484  31.3491825  52.5998629  38.9625811  32.2106655  52.1876026
  38.8351604  30.7365826  51.8670987  38.3736757  33.4214957  56.2471663
  39.0008795  33.0392034  56.8609187  37.5164676  33.2029159  56.6127355
  35.1502299  35.2291386  42.1790018  35.4455741  34.3202065  42.1257071
  34.2490335  35.2079126  41.8571020  38.6796546  33.3047383  48.1617566
  37.9583132  33.9183351  48.0225040  39.4689802  33.8405148  48.0834212
  41.4822860  30.6401809  54.4358218  42.0057262  30.8864106  55.1984527
  41.2635193  31.4721844  54.0161355  36.8790141  32.9105484  42.3029343
  36.5502847  32.0302863  42.1204449  37.2329512  32.8553153  43.1905732
  39.9931964  33.1978454  42.6704821  40.3328037  33.7264375  41.9483429
  40.4404085  33.5358860  43.4463387  42.6875405  31.5815504  52.1207889
  42.3472225  30.7823317  52.5228569  41.9814411  31.8817215  51.5484722
  43.3391877  28.6664817  50.5735212  44.1617946  28.1925295  50.4514102
  43.5829940  29.4455301  51.0733898  41.9800111  31.6953075  40.8698113
  42.7008474  32.0734328  40.3661830  41.3565415  32.4141952  40.9733091
  46.1231234  32.3998224  41.8056446  46.3394849  33.2822862  41.5045274
  45.6425301  32.0084438  41.0762088  40.8630456  35.3583937  48.3827190
  40.7175036  35.6724241  49.2751472  40.3855659  35.9768838  47.8298089
  42.7226838  32.3486485  48.4308080  42.7088407  31.4527579  48.0940378
  43.4399267  32.3557149  49.0646366  44.5752969  32.7823826  50.4761207
  44.3170747  33.7040896  50.4745538  44.0438010  32.3854260  51.1661671
  35.3376118  37.8989282  51.3214851  34.7929586  38.6749090  51.4535126
  36.2155468  38.2460086  51.1633973  42.1263734  31.2300866  43.6995650
  42.2479646  30.3017512  43.8986537  41.8365777  31.2439552  42.7873965
  44.9954925  28.9155776  46.8362370  45.0176622  28.9795109  45.8814349
  45.4122984  28.0760285  47.0302876  55.3738549  38.6511036  44.8741592
  55.8169695  37.9018361  44.4760716  54.4965059  38.6421172  44.4915324
  36.1242140  37.0259178  54.2145008  35.3823876  37.1741814  54.8009639
  35.8034884  37.2867444  53.3511758  36.5698753  44.9124607  46.2455403
  37.3956773  44.6128379  45.8654047  36.2192805  44.1432229  46.6945192
  41.5380286  44.2651075  48.3153077  40.9160296  43.6021780  48.0155304
  42.2085153  44.2912207  47.6326724  34.7707358  42.8310933  47.2044337
  33.9339267  42.4033108  47.0228338  34.7431004  43.0243377  48.1415128
  41.6104814  32.7432863  57.9085583  41.6592969  33.6194986  57.5263352
  42.1527328  32.2010256  57.3357226  41.0993793  42.8154998  41.7911537
  41.2481914  43.4990463  41.1378210  41.9060237  42.7960088  42.3060993
  43.8404102  33.4964236  54.6631941  42.9707412  33.7897802  54.3914530
  44.0763583  34.0804681  55.3839205  54.9171414  40.1216274  47.2664040
  55.7518305  40.5606078  47.4301600  55.0530543  39.6454927  46.4472286
  38.8546426  38.8420176  42.7972606  38.6092468  37.9382506  42.9952816
  39.0242341  38.8437327  41.8552084  46.5443136  29.7143852  52.1797362
  47.0625080  30.4504879  51.8543850  46.1898269  30.0207846  53.0144121
  38.1242074  34.5748534  40.2958767  37.4311319  34.6492889  39.6398803
  37.8793826  33.8108877  40.8180284  46.7955730  26.1344135  47.6998258
  47.0757484  25.4667324  48.3258685  47.5806337  26.3273231  47.1872922
  44.5989199  45.3103129  39.2623285  44.0263166  45.9293316  38.8093756
  45.1721993  45.8602491  39.7963206  48.6878968  31.6417352  51.6329234
  48.0928900  31.9222365  50.9375723  48.4028665  32.1311253  52.4045975
  53.1452667  37.7767889  50.5612133  53.1128987  36.8383889  50.7471817
  53.7553290  37.8551925  49.8277958  44.9835997  36.6463942  36.6039337
  45.9295102  36.5170150  36.6727755  44.6050242  35.9078604  37.0808765
  53.2947155  34.5678932  50.6070416  52.7786204  33.7837389  50.4200345
  54.1787104  34.2397649  50.7716936  50.9557882  28.3119948  46.5666229
  50.7582703  28.0035036  47.4509561  51.5657587  29.0381587  46.6964159
  58.9629216  38.8383896  49.7018170  59.6932605  38.5769184  50.2625873
  58.3536162  38.1012617  49.7420238  57.0444513  36.9791758  50.2992621
  56.3177677  36.8447723  49.6909113  56.6291800  37.2868587  51.1049339
  43.1678915  34.5713918  36.5394222  42.2610370  34.2747031  36.6156936
  43.4454896  34.2743736  35.6728509  34.0856855  35.8920281  46.9893269
  33.7659639  35.0385590  46.6967643  33.5390283  36.1068860  47.7451236
  37.8636762  38.6082722  50.7062775  38.0822772  39.5399830  50.7250809
  38.2762536  38.2490697  51.4917579  44.7840980  29.1150808  42.6938464
  43.9741709  28.7697893  43.0693710  45.4725397  28.8058351  43.2826075
  46.7131529  28.1928855  44.3162760  47.2662567  28.6124308  44.9752783
  46.9501615  27.2664603  44.3585716  42.7364628  34.1815928  60.0965524
  42.6361355  35.1310285  60.0277615  42.5186170  33.8534167  59.2241594
  41.9377699  31.4300853  36.6806201  42.7996863  31.7555752  36.9402019
  42.1228043  30.6432349  36.1679267  33.9545115  39.5123193  48.9586390
  33.2608586  39.0977146  48.4456345  34.7018106  39.5543729  48.3619809
  50.0910336  30.3029380  43.8241424  49.5109005  30.9614184  43.4419477
  49.8246268  29.4806724  43.4128842  48.5413902  29.7034437  46.0262745
  49.0413680  29.8150972  45.2177064  49.1849510  29.3995490  46.6663553
  35.8681857  39.4441447  46.8352405  35.8452546  39.5429134  45.8834288
  36.1782494  40.2906598  47.1569571  38.5269235  41.5017602  50.9499020
  39.4812489  41.4701544  50.8828951  38.3281759  41.0408225  51.7649245
  39.1168617  40.0718718  53.5169817  39.9361506  40.5662796  53.5404654
  39.3905425  39.1550686  53.4887385  48.8735214  32.4629470  42.8797773
  47.9861069  32.7479121  42.6617967  49.2889203  32.3023233  42.0325050
  52.2249750  32.4875991  46.5952112  53.0010140  32.9772444  46.8676729
  51.4997884  32.9134045  47.0523981  54.6622308  33.2003610  47.6526053
  55.2566799  32.9599346  46.9419361  54.7348892  32.4810741  48.2799589
  36.8819464  47.0437221  47.9669217  36.7473932  46.2837622  47.4007215
  36.4651526  47.7678121  47.4998006  48.0178427  42.2274145  36.9745793
  48.7214277  42.4324147  37.5903448  47.2941076  42.7950907  37.2394876
  48.8476237  37.9784006  43.0948063  48.7911439  38.4352557  42.2555695
  49.4004580  37.2174691  42.9170906  52.6581043  33.7673738  43.9198182
  52.4017978  33.3670374  44.7506390  52.0333911  34.4817532  43.7948322
  56.9693381  36.5069811  46.4269474  56.4092939  36.5763000  47.2001036
  56.3636885  36.3310796  45.7068970  40.0388590  47.9406538  48.1787660
  39.9220974  48.8851971  48.0766350  39.2181036  47.6380100  48.5673459
  49.5811017  39.1688787  40.3900592  49.5259820  39.0033059  39.4489036
  48.9557072  39.8764820  40.5462782  34.3703532  34.4056852  54.2162014
  35.0162395  33.8955806  54.7049239  34.1620683  35.1425533  54.7905440
  42.8907142  28.6696896  39.9685910  42.8785812  29.6138736  40.1254181
  43.7830564  28.4867042  39.6745372  42.8196706  47.3465787  48.0553667
  41.8692337  47.3467648  47.9418039  43.1229192  46.5998521  47.5389702
  46.7059262  25.2639673  44.2231847  45.9391657  24.7098160  44.3688530
  47.1169967  25.3361542  45.0845999  38.7101023  31.5524469  58.3137029
  39.5732484  31.1961274  58.5240353  38.1366433  31.2138364  59.0012433
  53.0647385  51.9042001  38.3877894  53.3172906  51.3823522  37.6261357
  52.1271944  51.7408146  38.4904578  54.7680702  48.2970153  39.2910307
  54.9355104  49.1650390  39.6580778  54.5777871  48.4597435  38.3671596
  53.3632060  43.9631009  44.2458390  52.7096473  43.6480026  43.6215004
  53.3212535  43.3406750  44.9718212  59.8283686  48.8861475  45.6827507
  59.0906443  48.3738861  46.0137749  60.0810459  48.4461856  44.8710784
  51.2617360  48.9641449  36.7377112  50.3846826  48.8430249  36.3739359
  51.7375113  48.1727527  36.4856001  56.9624989  47.7290142  41.8056446
  57.1788603  48.6114780  41.5045274  56.4819056  47.3376355  41.0762088
  55.8348679  44.2447694  46.8362370  55.8570376  44.3087027  45.8814349
  56.2516738  43.4052203  47.0302876  54.0072669  49.9005836  36.5394222
  53.1004124  49.6038948  36.6156936  54.2848650  49.6035654  35.6728509
  55.6234735  44.4442725  42.6938464  54.8135463  44.0989810  43.0693710
  56.3119152  44.1350269  43.2826075  57.5525283  43.5220772  44.3162760
  58.1056322  43.9416226  44.9752783  57.7895369  42.5956520  44.3585716
  52.7771454  46.7592771  36.6806201  53.6390618  47.0847669  36.9402019
  52.9621798  45.9724267  36.1679267  60.9304090  45.6321297  43.8241424
  60.3502759  46.2906101  43.4419477  60.6640023  44.8098642  43.4128842
  57.5453016  40.5931591  44.2231847  56.7785412  40.0390077  44.3688530
  57.9563721  40.6653459  45.0845999  59.6084108  71.8132339  47.8842066
  60.4005400  71.4723164  47.4688365  59.8480758  71.9227314  48.8044219
  67.6419235  73.9852115  40.3572310  66.9907215  74.5706195  39.9706324
  68.4363598  74.5158310  40.4167348  61.5674862  71.0741252  40.7559444
  62.3405738  70.5270239  40.6172320  61.9200261  71.9385501  40.9673906
  63.3470569  78.8523370  43.9247105  63.2694599  79.8031195  44.0035586
  62.7432213  78.5069243  44.5822031  73.7707558  72.4721458  45.8495253
  73.0858596  72.8520359  45.2992286  73.8551407  73.0816785  46.5827201
  80.2310310  69.3392121  46.9697925  79.4774019  68.7699519  46.8141930
  80.3657851  69.3054785  47.9168560  65.6208938  74.2105523  42.6452645
  65.4854613  75.0557059  43.0737493  66.1618751  74.4124801  41.8818579
  59.0738336  71.7280961  43.2180570  59.5862856  72.5224211  43.3686135
  59.7261049  71.0307252  43.1514171  60.8833220  74.8446718  45.3003323
  61.0599849  75.7664682  45.1124307  61.6790054  74.5305137  45.7297703
  62.0064536  76.3624891  51.3013665  62.5571961  76.2341955  50.5290659
  61.1676012  76.6619780  50.9508558  68.9701402  57.7336085  51.1751538
  68.6265671  58.6237727  51.0990649  69.3380364  57.5437743  50.3121123
  57.0387252  70.0569616  43.9940140  57.8762474  70.4666624  43.7773848
  57.2165520  69.1169058  43.9640334  68.2205099  78.2839729  39.0808368
  67.5466797  78.5871426  39.6893326  68.6070921  79.0868809  38.7313825
  70.1677460  75.1237903  45.3876657  70.4600434  75.6842960  44.6689023
  70.6776080  75.4166464  46.1429816  65.1311085  75.9018254  46.4770111
  65.0887264  76.1279100  45.5478643  66.0473784  75.6681629  46.6255912
  63.2476886  72.7781283  46.2732073  64.0417484  72.2831603  46.0714648
  62.5368578  72.2499146  45.9099779  68.0671730  75.1599379  50.6244441
  68.1208753  75.7290315  51.3922157  67.1986512  75.3301264  50.2598478
  65.8248162  73.3510305  49.9529910  65.6859248  72.9829089  50.8255849
  65.0362758  73.8657944  49.7813868  66.4196314  78.4519401  41.2955447
  66.5948070  77.9807445  42.1101070  65.7329102  79.0785168  41.5236708
  60.9857399  81.6008764  48.0695307  61.2253997  82.2327288  48.7474326
  60.1426596  81.2496804  48.3560666  53.6213255  69.0810526  46.8318619
  54.3084295  68.7672256  46.2439635  53.4661383  69.9851891  46.5585871
  65.4985261  77.4087887  50.4736811  65.4255432  78.2142858  50.9856116
  65.0562654  77.6079853  49.6484832  65.2875041  76.6459657  43.9839633
  64.5042562  77.1881337  44.0777857  65.9867786  77.1633636  44.3833874
  76.4501448  68.1594652  48.2692130  76.4391324  69.0419367  47.8986063
  75.5818828  67.8066203  48.0746667  67.9583944  77.3074721  52.6294970
  68.6711917  77.9422186  52.5570871  67.4673973  77.4038587  51.8134972
  67.7704318  77.6473465  45.3781261  67.9526712  76.8295121  45.8409014
  68.5937304  77.8641157  44.9406151  68.1046483  76.5741650  42.6396310
  68.6334250  76.0634105  42.0266472  68.3674703  76.2584180  43.5041843
  58.6063576  74.5905519  50.3831643  59.1917013  73.8449207  50.5159547
  58.4088415  74.9009476  51.2668307  61.4602231  77.6256767  45.3994086
  60.7912607  78.1102894  44.9158126  61.3215101  77.8725987  46.3137464
  65.6007500  79.6600510  51.9976744  66.1525808  79.8232132  52.7625829
  65.9413693  80.2504948  51.3256769  68.7375887  77.6082486  48.9840426
  68.6127027  76.8072226  48.4751372  69.3954978  78.1028679  48.4954396
  70.8010796  75.4091506  50.6119976  69.8541131  75.2896857  50.5398303
  71.1493569  74.5214004  50.6946238  67.8057229  75.2044222  46.8124328
  67.6582191  74.2760929  46.9931899  68.6310722  75.2264313  46.3281404
  71.4091351  76.0272781  47.8989201  72.3337898  75.8215642  47.7613652
  71.2406654  75.7789182  48.8078543  71.1986667  76.5458448  43.2551293
  71.3723544  75.9804871  42.5025145  71.6915558  77.3459343  43.0730783
  72.1861839  75.8625213  40.3548191  72.8812744  76.4831905  40.5735506
  72.5284990  75.0120564  40.6300569  74.0853263  73.3124918  41.8835522
  74.6104587  73.6512191  41.1584842  73.9975615  72.3771933  41.6998656
  65.7693923  79.3796901  46.2430775  65.3298914  78.8873280  46.9363632
  66.5202040  78.8369869  46.0022850  58.2486262  75.5708442  46.2455403
  59.0744282  75.2712214  45.8654047  57.8980314  74.8016065  46.6945192
  63.2167795  74.9234910  48.3153077  62.5947805  74.2605615  48.0155304
  63.8872662  74.9496042  47.6326724  56.4494867  73.4894769  47.2044337
  55.6126776  73.0616943  47.0228338  56.4218513  73.6827212  48.1415128
  62.7781302  73.4738834  41.7911537  62.9269423  74.1574298  41.1378210
  63.5847746  73.4543924  42.3060993  76.5958923  70.7800109  47.2664040
  77.4305814  71.2189913  47.4301600  76.7318052  70.3038763  46.4472286
  60.5333935  69.5004011  42.7972606  60.2879977  68.5966341  42.9952816
  60.7029850  69.5021162  41.8552084  66.2776708  75.9686964  39.2623285
  65.7050675  76.5877151  38.8093756  66.8509502  76.5186326  39.7963206
  69.4973968  76.2524114  40.3931867  70.4304641  76.1869676  40.5964742
  69.4097180  77.0880381  39.9346399  80.6416725  69.4967731  49.7018170
  81.3720114  69.2353019  50.2625873  80.0323671  68.7596453  49.7420238
  57.5469366  70.1025282  46.8352405  57.5240055  70.2012969  45.8834288
  57.8570003  70.9490433  47.1569571  58.5606973  77.7021057  47.9669217
  58.4261441  76.9421457  47.4007215  58.1439035  78.4261956  47.4998006
  78.6480890  67.1653646  46.4269474  78.0880448  67.2346836  47.2001036
  78.0424393  66.9894631  45.7068970  61.7176099  78.5990374  48.1787660
  61.6008483  79.5435806  48.0766350  60.8968545  78.2963935  48.5673459
  62.7430613  79.2518635  51.3943588  63.6457860  79.2842246  51.7110083
  62.5167983  78.3219086  51.4089924  64.4984215  78.0049622  48.0553667
  63.5479846  78.0051484  47.9418039  64.8016701  77.2582357  47.5389702
  80.2336909  83.8410160  49.1199430  80.8715319  83.7216908  48.4162770
  80.1157751  84.7891004  49.1787382  77.0426615  83.7937589  49.0560954
  76.7045126  83.6778653  48.1681489  77.9116383  83.3928754  49.0361960
  72.9013431  85.6473065  45.0457845  72.3378296  85.5563002  44.2774133
  72.7865826  84.8272969  45.5260338  70.4477862  87.1424257  47.8842066
  71.2399154  86.8015081  47.4688365  70.6874513  87.2519232  48.8044219
  78.4812989  89.3144033  40.3572310  77.8300969  89.8998113  39.9706324
  79.2757352  89.8450228  40.4167348  72.4068616  86.4033170  40.7559444
  73.1799492  85.8562157  40.6172320  72.7594015  87.2677419  40.9673906
  74.2453659  87.7309552  53.9626344  73.9543525  88.6355183  53.8473010
  74.8810643  87.7726080  54.6770413  75.1709866  85.1086401  50.5527703
  75.7673438  84.8842423  49.8384666  75.2284837  84.3671146  51.1553151
  74.7434894  82.5625836  38.3877894  74.9960415  82.0407357  37.6261357
  73.8059453  82.3991981  38.4904578  79.7878177  81.5661614  46.1952638
  80.5741266  81.1481037  45.8443055  80.0516881  82.4707706  46.3634286
  79.9588254  87.0034465  40.8941294  79.3234087  87.0769091  41.6062199
  79.6285661  87.5928063  40.2160374  85.1886604  81.5036847  47.0985616
  85.9211776  80.9336064  47.3323446  84.4325960  81.1158448  47.5392122
  74.4631183  84.4653942  40.5902269  74.3467441  83.7898845  41.2583354
  74.5733443  83.9786316  39.7734422  76.8062724  83.9264089  44.2948959
  76.4420931  83.3994710  45.0061880  77.6629840  83.5362558  44.1215444
  82.7112025  75.2158422  51.5580225  82.3795349  76.0853833  51.3341440
  82.1157638  74.8994706  52.2374255  76.4468211  78.9553989  39.2910307
  76.6142613  79.8234225  39.6580778  76.2565380  79.1181270  38.3671596
  79.2043544  87.4170968  50.9576137  78.9044267  88.3196006  50.8491945
  78.8594604  87.1503151  51.8097290  72.6556026  83.8684764  46.9912842
  71.7306522  83.7360979  47.1990534  72.9040439  84.6478984  47.4882784
  82.6040688  79.9353508  48.6373575  81.6957565  79.8668916  48.3432336
  82.5528284  80.4125453  49.4655400  76.4257432  81.4111646  40.2756974
  76.3057057  81.8568697  41.1142454  75.7310020  81.7596964  39.7170512
  70.0164837  83.5118038  47.8256631  70.1457218  83.7652517  48.7396043
  69.3362288  84.1045746  47.5061286  74.1864324  94.1815288  43.9247105
  74.1088354  95.1323113  44.0035586  73.5825967  93.8361160  44.5822031
  84.4702334  78.1369946  50.4151449  83.8276715  78.4302479  49.7691243
  83.9657263  78.0222866  51.2204645  82.1242498  81.8833119  41.1037308
  83.0360354  82.1160506  40.9285005  81.6152145  82.4670164  40.5412387
  80.4083266  86.3057747  54.7398600  80.8166622  85.8640158  53.9953233
  79.6860527  85.7310375  54.9932793  80.7312080  86.8658938  48.4950889
  80.1020943  87.0304652  47.7926957  80.3437742  87.2800547  49.2661853
  84.6101312  87.8013376  45.8495253  83.9252350  88.1812277  45.2992286
  84.6945161  88.4108702  46.5827201  79.9113781  78.9034722  53.7713331
  79.6674713  79.6576783  53.2347607  80.1873711  79.2820070  54.6060578
  81.8652244  85.4473335  52.4490597  82.0769139  86.0905095  51.7724978
  81.8181992  84.6135651  51.9812527  79.4678473  78.0591155  49.3527169
  78.6062952  78.3572409  49.6443906  79.4940907  78.2761554  48.4208201
  76.2840042  86.6033346  45.7600974  76.7478388  86.8821049  44.9705597
  76.0196840  85.7016790  45.5774065  73.1764123  86.1504827  48.6980738
  73.7465480  86.5792096  48.0598222  73.7672235  85.8687412  49.3964923
  75.2208928  82.7256498  42.5690540  75.9232972  83.1777542  43.0364466
  74.8889557  82.0840317  43.1970433  68.9634262  80.9840051  47.8707673
  68.1733316  81.2397579  47.3947784  69.4545510  81.7988389  47.9759714
  82.9798072  88.3245290  50.6212954  83.8015515  87.9225477  50.3395636
  82.9760475  88.2213524  51.5729070  70.9149008  81.3484630  44.8291150
  70.1180171  81.4603324  45.3474646  70.6874600  81.6871282  43.9632040
  76.7454675  87.8729333  52.7773664  76.8099108  88.3349741  53.6131836
  76.0365599  87.2426698  52.9055974  67.2471965  81.2370541  50.3022664
  67.4980004  82.1217551  50.5680240  67.7831514  81.0575143  49.5297756
  91.0704065  84.6684039  46.9697925  90.3167773  84.0991437  46.8141930
  91.2051606  84.6346703  47.9168560  76.4602693  89.5397441  42.6452645
  76.3248368  90.3848977  43.0737493  77.0012505  89.7416719  41.8818579
  69.9132090  87.0572879  43.2180570  70.4256611  87.8516129  43.3686135
  70.5654803  86.3599169  43.1514171  71.7226975  90.1738635  45.3003323
  71.8993603  91.0956600  45.1124307  72.5183808  89.8597054  45.7297703
  78.0871169  90.1621007  56.7752987  77.6435023  89.3757386  56.4573891
  78.7488383  90.3500158  56.1096878  72.8458290  91.6916809  51.3013665
  73.3965715  91.5633872  50.5290659  72.0069766  91.9911698  50.9508558
  80.1852407  90.4423807  54.8034388  80.1670883  91.2632688  54.3114657
  81.1072327  90.3177883  55.0284529  76.6425461  87.9567937  55.6457897
  77.1753798  87.1956225  55.4157205  76.1139542  87.6641589  56.3882051
  79.8095156  73.0628003  51.1751538  79.4659426  73.9529644  51.0990649
  80.1774119  72.8729660  50.3121123  67.8781007  85.3861533  43.9940140
  68.7156229  85.7958542  43.7773848  68.0559275  84.4460975  43.9640334
  79.7745439  83.0536614  39.6823973  79.2592063  83.8241219  39.9212361
  79.5022748  82.3801750  40.3057035  77.3592550  77.8986315  44.7409212
  76.5034146  77.5093165  44.5614850  77.7719502  77.9778275  43.8808997
  78.8891697  75.4332658  49.1400772  78.3856492  75.3962793  48.3268577
  79.1822304  76.3425401  49.1997428  75.1334583  75.5171388  48.1466953
  75.9987579  75.3214196  47.7872843  75.2012092  75.2881739  49.0736310
  84.7479713  85.8068969  41.6177147  83.9709156  85.4680128  41.1732309
  85.4271194  85.8121592  40.9432112  79.5631742  80.9263706  41.5083755
  79.2581878  81.2409855  42.3593898  80.5162184  81.0045126  41.5511088
  78.0078174  87.0853929  43.1576709  77.4799536  86.3506689  42.8449946
  77.5065677  87.8628606  42.9116677  82.9871020  85.2802950  48.2743755
  82.3294695  85.9702211  48.3623883  83.7911419  85.6699382  48.6177741
  72.7396902  77.7473596  45.5183320  73.3140654  77.5248777  44.7856513
  73.3267884  77.8162290  46.2711921  81.7976479  83.6347322  46.3247697
  82.3108361  84.2677314  46.8269406  82.4477703  83.0348518  45.9591057
  73.0666489  79.7778057  39.5379205  72.2303801  80.1152743  39.8588480
  72.9271258  79.6427036  38.6006342  75.0419569  74.6214844  44.2458390
  74.3883982  74.3063862  43.6215004  75.0000044  73.9990585  44.9718212
  76.1530774  84.9034140  36.1611682  75.2457836  84.6723393  36.3602831
  76.6501806  84.1071759  36.3485663  79.0598853  93.6131647  39.0808368
  78.3860552  93.9163343  39.6893326  79.4464675  94.4160727  38.7313825
  78.2757310  81.1096778  48.5706037  77.3579871  81.3311725  48.4127725
  78.6917453  81.1843088  47.7117744  79.0592358  82.5088194  43.7008717
  79.8064176  83.0209591  43.3915839  79.3283947  82.1872246  44.5613111
  77.3319008  85.0046734  40.6835672  76.4230227  84.7205767  40.7808141
  77.3614092  85.4245813  39.8238979  82.5638275  88.6153324  44.4526839
  82.1100602  87.7744234  44.5092030  81.9332242  89.2514722  44.7901619
  81.5071195  79.5445310  45.6827507  80.7693951  79.0322696  46.0137749
  81.7597968  79.1045692  44.8710784  81.0071214  90.4529821  45.3876657
  81.2994189  91.0134878  44.6689023  81.5169835  90.7458382  46.1429816
  81.6082822  72.3221562  46.2769276  81.9141699  71.4618925  45.9895191
  82.3335427  72.9139182  46.0768270  67.9007178  82.7252249  44.6650874
  67.7031578  82.1321609  43.9401940  67.3453842  82.4204459  45.3826813
  75.8803902  82.6175355  46.7845467  75.9352512  81.6649191  46.7087944
  75.0695104  82.7734794  47.2686765  77.0295096  86.5455478  38.0223750
  76.5914525  85.8291337  37.5629388  77.7705536  86.7731593  37.4608842
  73.8196262  81.2352415  44.5435846  73.0064127  81.5346585  44.9501038
  74.3155256  80.8408104  45.2610328  75.9704840  91.2310172  46.4770111
  75.9281018  91.4571018  45.5478643  76.8867538  90.9973546  46.6255912
  79.4170473  81.6994239  53.3750740  79.7719861  81.9265712  54.2345206
  80.0642605  82.0312616  52.7527995  85.1468210  84.8212675  44.0800069
  85.0086109  85.0114271  43.1521258  84.7904429  85.5832058  44.5368120
  73.3110336  78.8070770  50.1597081  73.9509716  78.6659529  49.4620044
  72.4787867  78.5205284  49.7835683  85.1737590  86.8889202  49.0911340
  85.6074097  86.7964491  49.9394394  85.8869171  86.8646703  48.4531356
  74.0870640  88.1073201  46.2732073  74.8811239  87.6123521  46.0714648
  73.3762333  87.5791064  45.9099779  78.9065485  90.4891296  50.6244441
  78.9602507  91.0582233  51.3922157  78.0380266  90.6593181  50.2598478
  70.3953404  82.2516282  42.3491826  69.4650992  82.1900738  42.5661788
  70.4910876  81.7292235  41.5528467  70.3138953  78.7771095  44.9370068
  70.5745770  79.6916429  44.8279228  71.1356125  78.3095538  45.0866680
  71.7863878  80.1908852  52.1068892  72.4586932  79.9826215  51.4581541
  70.9593665  79.9930938  51.6674124  86.0353139  86.9312903  51.6244226
  86.2289030  87.8358713  51.8703501  85.9353758  86.4720322  52.4582811
  81.0968248  87.0819646  57.1985106  80.9453755  86.8530197  56.2815190
  81.0872928  88.0390247  57.2116451  77.8653585  84.6551558  52.1831373
  78.7945645  84.8062718  52.0100340  77.4444615  84.7435579  51.3280019
  76.6641916  88.6802223  49.9529910  76.5253002  88.3121007  50.8255849
  75.8756513  89.1949862  49.7813868  77.2590068  93.7811319  41.2955447
  77.4341824  93.3099362  42.1101070  76.5722856  94.4077085  41.5236708
  78.2147131  88.0583825  47.3418748  77.8796964  88.0184595  48.2376398
  77.7151077  87.3928541  46.8689158  72.1891375  83.4651455  52.8671329
  72.0511173  82.7331694  53.4682868  73.0996299  83.3760356  52.5855517
  81.1506323  85.4039860  37.6155808  80.5335494  84.6786688  37.5188861
  80.6822812  86.1649220  37.2722882  82.8060455  90.1138768  55.2761588
  82.7473001  89.4297988  54.6092171  83.2079973  90.8557758  54.8242214
  71.8251154  96.9300682  48.0695307  72.0647752  97.5619206  48.7474326
  70.9820350  96.5788722  48.3560666  72.9404869  79.6225284  36.7377112
  72.0634335  79.5014085  36.3739359  73.4162622  78.8311362  36.4856001
  82.8077862  88.0778352  53.5075568  81.9204641  87.7404274  53.6301967
  83.3776413  87.3461383  53.7444333  64.4607009  84.4102444  46.8318619
  65.1478049  84.0964174  46.2439635  64.3055138  85.3143808  46.5585871
  69.2641731  79.2992640  51.2603643  69.1799920  78.6918310  50.5254053
  68.4424438  79.7901659  51.2613139  76.3379015  92.7379804  50.4736811
  76.2649187  93.5434776  50.9856116  75.8956409  92.9371770  49.6484832
  76.1268795  91.9751574  43.9839633  75.3436317  92.5173255  44.0777857
  76.8261540  92.4925554  44.3833874  79.4365445  77.7846204  46.6273838
  79.9334145  77.0316166  46.3074908  78.6652427  77.8210521  46.0617047
  87.2895203  83.4886569  48.2692130  87.2785079  84.3711285  47.8986063
  86.4212582  83.1358120  48.0746667  78.7977699  92.6366638  52.6294970
  79.5105671  93.2714103  52.5570871  78.3067728  92.7330504  51.8134972
  80.5195226  86.5417891  44.2012261  79.5851505  86.6619354  44.0316966
  80.6971894  85.6390358  43.9372271  76.0200414  79.9263587  46.3545523
  75.6498201  79.3734627  47.0426428  76.5159506  79.3221720  45.8020523
  83.9067777  82.3835210  44.7362296  84.3728229  83.2163202  44.6622598
  84.3575278  81.9180192  45.4407554  73.8489613  90.3861082  53.4500541
  74.5499072  91.0197565  53.6029935  73.3784728  90.7275813  52.6896180
  81.9744008  88.7279032  41.7348448  82.2503852  88.6135626  42.6442322
  81.1048507  88.3296516  41.6960621  81.8784440  74.7515797  48.7753197
  80.9647520  74.9820024  48.9435404  82.3077541  74.8354241  49.6267229
  81.6490898  82.9405689  51.2753091  80.9962349  83.1881597  50.6205544
  82.0271278  82.1269827  50.9415568  78.6098072  92.9765382  45.3781261
  78.7920467  92.1587038  45.8409014  79.4331058  93.1933075  44.9406151
  78.9440238  91.9033568  42.6396310  79.4728004  91.3926022  42.0266472
  79.2068457  91.5876098  43.5041843  69.4457331  89.9197437  50.3831643
  70.0310767  89.1741125  50.5159547  69.2482169  90.2301394  51.2668307
  72.2995986  92.9548684  45.3994086  71.6306361  93.4394812  44.9158126
  72.1608855  93.2017905  46.3137464  64.0374985  82.4903037  49.1036086
  64.0759085  81.9566628  49.8973204  63.5315278  81.9638243  48.4847064
  76.4401254  94.9892428  51.9976744  76.9919562  95.1524049  52.7625829
  76.7807448  95.5796866  51.3256769  81.2912129  89.8153685  57.8525398
  81.8352033  90.4283644  57.3580353  80.7098974  90.3733264  58.3692411
  67.6683563  81.2167139  42.1790018  67.9637004  80.3077818  42.1257071
  66.7671599  81.1954879  41.8571020  79.5769642  92.9374403  48.9840426
  79.4520781  92.1364143  48.4751372  80.2348733  93.4320597  48.4954396
  71.1977810  79.2923136  48.1617566  70.4764396  79.9059104  48.0225040
  71.9871066  79.8280901  48.0834212  81.6404550  90.7383423  50.6119976
  80.6934886  90.6188775  50.5398303  81.9887323  89.8505921  50.6946238
  69.3971404  78.8981237  42.3029343  69.0684111  78.0178616  42.1204449
  69.7510775  78.8428906  43.1905732  78.6450983  90.5336140  46.8124328
  78.4975946  89.6052847  46.9931899  79.4704477  90.5556230  46.3281404
  72.5113228  79.1854207  42.6704821  72.8509300  79.7140128  41.9483429
  72.9585348  79.5234613  43.4463387  82.2485105  91.3564698  47.8989201
  83.1731653  91.1507560  47.7613652  82.0800409  91.1081100  48.8078543
  74.4981375  77.6828828  40.8698113  75.2189737  78.0610081  40.3661830
  73.8746679  78.4017705  40.9733091  78.6412498  78.3873977  41.8056446
  78.8576112  79.2698615  41.5045274  78.1606565  77.9960191  41.0762088
  73.3811719  81.3459691  48.3827190  73.2356300  81.6599994  49.2751472
  72.9036923  81.9644591  47.8298089  75.2408102  78.3362239  48.4308080
  75.2269671  77.4403332  48.0940378  75.9580530  78.3432902  49.0646366
  77.0934233  78.7699579  50.4761207  76.8352010  79.6916649  50.4745538
  76.5619273  78.3730013  51.1661671  82.0380421  91.8750366  43.2551293
  82.2117299  91.3096788  42.5025145  82.5309313  92.6751261  43.0730783
  67.8557381  83.8865035  51.3214851  67.3110849  84.6624843  51.4535126
  68.7336731  84.2335839  51.1633973  74.6444998  77.2176619  43.6995650
  74.7660909  76.2893265  43.8986537  74.3547040  77.2315305  42.7873965
  77.5136188  74.9031529  46.8362370  77.5357885  74.9670862  45.8814349
  77.9304247  74.0636038  47.0302876  87.8919813  84.6386789  44.8741592
  88.3350959  83.8894114  44.4760716  87.0146323  84.6296925  44.4915324
  83.0255594  91.1917130  40.3548191  83.7206499  91.8123823  40.5735506
  83.3678744  90.3412481  40.6300569  68.6423403  83.0134931  54.2145008
  67.9005139  83.1617567  54.8009639  68.3216147  83.2743197  53.3511758
  84.9247017  88.6416836  41.8835522  85.4498341  88.9804109  41.1584842
  84.8369370  87.7063851  41.6998656  76.5867066  92.5550909  54.0125398
  76.8954192  92.3100056  54.8848098  77.3842548  92.7597548  53.5244269
  76.6087678  94.7088819  46.2430775  76.1692668  94.2165198  46.9363632
  77.3595795  94.1661787  46.0022850  69.0880017  90.9000360  46.2455403
  69.9138037  90.6004132  45.8654047  68.7374069  90.1307982  46.6945192
  74.0561550  90.2526828  48.3153077  73.4341559  89.5897533  48.0155304
  74.7266417  90.2787960  47.6326724  67.2888622  88.8186686  47.2044337
  66.4520530  88.3908861  47.0228338  67.2612267  89.0119130  48.1415128
  84.6140923  89.2749739  57.1886720  83.8236467  89.2573878  56.6491219
  84.3774278  89.8138033  57.9435756  84.7338798  86.1242206  54.5019448
  84.7836803  85.9592213  55.4434971  84.6252721  85.2569465  54.1117329
  73.6175057  88.8030751  41.7911537  73.7663177  89.4866216  41.1378210
  74.4241500  88.7835842  42.3060993  82.0242561  82.1073134  55.8178755
  82.9252423  81.9679599  55.5262753  82.0990535  82.2727589  56.7576932
  86.2356995  88.5439147  54.7461470  85.9441803  88.9069128  55.5824931
  85.6229126  87.8306156  54.5674802  87.4352677  86.1092027  47.2664040
  88.2699569  86.5481831  47.4301600  87.5711806  85.6330680  46.4472286
  84.4844183  83.6671762  53.2141528  84.9598305  83.8599408  52.4060379
  83.5609749  83.7230948  52.9684911  71.3727690  84.8295929  42.7972606
  71.1273732  83.9258259  42.9952816  71.5423604  84.8313080  41.8552084
  79.0624400  75.7019605  52.1797362  79.5806344  76.4380632  51.8543850
  78.7079532  76.0083599  53.0144121  70.6423337  80.5624287  40.2958767
  69.9492582  80.6368642  39.6398803  70.3975089  79.7984630  40.8180284
  79.3136994  72.1219888  47.6998258  79.5938748  71.4543077  48.3258685
  80.0987601  72.3148984  47.1872922  77.1170462  91.2978882  39.2623285
  76.5444429  91.9169069  38.8093756  77.6903256  91.8478244  39.7963206
  83.1845852  80.5437522  51.4469833  84.1363275  80.6435620  51.4682057
  83.0149303  79.7515791  51.9567918  81.2060232  77.6293105  51.6329234
  80.6110164  77.9098118  50.9375723  80.9209928  78.1187006  52.4045975
  80.3367722  91.5816032  40.3931867  81.2698395  91.5161594  40.5964742
  80.2490935  92.4172299  39.9346399  82.9655739  90.8981902  37.3535814
  82.8869370  90.5641766  38.2471572  83.7865406  91.3903670  37.3527287
  85.6633930  83.7643642  50.5612133  85.6310250  82.8259642  50.7471817
  86.2734554  83.8427678  49.8277958  77.5017261  82.6339695  36.6039337
  78.4476366  82.5045903  36.6727755  77.1231506  81.8954357  37.0808765
  85.8128418  80.5554685  50.6070416  85.2967467  79.7713142  50.4200345
  86.6968367  80.2273402  50.7716936  83.4739145  74.2995701  46.5666229
  83.2763967  73.9910789  47.4509561  84.0838851  75.0257340  46.6964159
  91.4810480  84.8259649  49.7018170  92.2113868  84.5644937  50.2625873
  90.8717425  84.0888370  49.7420238  89.5625777  82.9667511  50.2992621
  88.8358941  82.8323476  49.6909113  89.1473064  83.2744340  51.1049339
  75.6860178  80.5589671  36.5394222  74.7791633  80.2622784  36.6156936
  75.9636159  80.2619489  35.6728509  66.6038118  81.8796034  46.9893269
  66.2840903  81.0261343  46.6967643  66.0571547  82.0944613  47.7451236
  70.3818026  84.5958475  50.7062775  70.6004036  85.5275583  50.7250809
  70.7943800  84.2366450  51.4917579  77.3022244  75.1026561  42.6938464
  76.4922972  74.7573646  43.0693710  77.9906661  74.7934105  43.2826075
  79.2312792  74.1804608  44.3162760  79.7843831  74.6000061  44.9752783
  79.4682878  73.2540356  44.3585716  66.4726378  85.4998946  48.9586390
  65.7789850  85.0852899  48.4456345  67.2199369  85.5419482  48.3619809
  82.6091599  76.2905133  43.8241424  82.0290268  76.9489937  43.4419477
  82.3427532  75.4682477  43.4128842  81.0595165  75.6910190  46.0262745
  81.5594944  75.8026725  45.2177064  81.7030773  75.3871243  46.6663553
  68.3863121  85.4317200  46.8352405  68.3633809  85.5304887  45.8834288
  68.6963757  86.2782351  47.1569571  71.0450499  87.4893355  50.9499020
  71.9993752  87.4577297  50.8828951  70.8463022  87.0283979  51.7649245
  71.6349881  86.0594471  53.5169817  72.4542770  86.5538549  53.5404654
  71.9086689  85.1426439  53.4887385  81.3916477  78.4505223  42.8797773
  80.5042332  78.7354874  42.6617967  81.8070466  78.2898986  42.0325050
  84.7431013  78.4751744  46.5952112  85.5191403  78.9648197  46.8676729
  84.0179147  78.9009798  47.0523981  87.1803572  79.1879363  47.6526053
  87.7748063  78.9475099  46.9419361  87.2530156  78.4686494  48.2799589
  69.4000728  93.0312974  47.9669217  69.2655195  92.2713375  47.4007215
  68.9832790  93.7553874  47.4998006  80.5359691  88.2149898  36.9745793
  81.2395541  88.4199900  37.5903448  79.8122339  88.7826660  37.2394876
  81.3657501  83.9659759  43.0948063  81.3092702  84.4228310  42.2555695
  81.9185843  83.2050444  42.9170906  85.1762307  79.7549491  43.9198182
  84.9199241  79.3546127  44.7506390  84.5515175  80.4693285  43.7948322
  89.4874645  82.4945564  46.4269474  88.9274203  82.5638753  47.2001036
  88.8818148  82.3186549  45.7068970  72.5569853  93.9282291  48.1787660
  72.4402238  94.8727724  48.0766350  71.7362300  93.6255853  48.5673459
  82.4446388  88.6532427  39.0244253  83.2791992  88.2213625  38.8421728
  82.2830731  88.4814441  39.9521147  82.0992280  85.1564540  40.3900592
  82.0441084  84.9908812  39.4489036  81.4738335  85.8640573  40.5462782
  66.8884795  80.3932605  54.2162014  67.5343659  79.8831559  54.7049239
  66.6801946  81.1301286  54.7905440  79.4138187  87.4613452  59.7154155
  80.2829347  87.6354104  59.3540790  78.9344939  88.2807869  59.5929884
  75.4088406  74.6572649  39.9685910  75.3967075  75.6014489  40.1254181
  76.3011827  74.4742795  39.6745372  73.5824368  94.5810553  51.3943588
  74.4851614  94.6134163  51.7110083  73.3561738  93.6511004  51.4089924
  75.3377970  93.3341540  48.0553667  74.3873601  93.3343401  47.9418039
  75.6410456  92.5874274  47.5389702  91.0730663  99.1702078  49.1199430
  91.7109073  99.0508825  48.4162770  90.9551506 100.1182922  49.1787382
  87.8820369  99.1229506  49.0560954  87.5438881  99.0070571  48.1681489
  88.7510138  98.7220671  49.0361960  83.7407185 100.9764983  45.0457845
  83.1772050 100.8854920  44.2774133  83.6259580 100.1564887  45.5260338
  88.3640152 100.2764358  55.0147160  88.3528793  99.8817156  54.1427663
  88.5260792  99.5430431  55.6080931  81.2871617 102.4716174  47.8842066
  82.0792909 102.1306999  47.4688365  81.5268267 102.5811149  48.8044219
  89.3206744 104.6435950  40.3572310  88.6694724 105.2290031  39.9706324
  90.1151107 105.1742145  40.4167348  83.2462371 101.7325087  40.7559444
  84.0193247 101.1854075  40.6172320  83.5987770 102.5969337  40.9673906
  85.0847413 103.0601470  53.9626344  84.7937279 103.9647101  53.8473010
  85.7204398 103.1017997  54.6770413  86.0103620 100.4378318  50.5527703
  86.6067193 100.2134341  49.8384666  86.0678592  99.6963064  51.1553151
  85.5828649  97.8917754  38.3877894  85.8354169  97.3699275  37.6261357
  84.6453208  97.7283899  38.4904578  90.6271932  96.8953532  46.1952638
  91.4135021  96.4772955  45.8443055  90.8910636  97.7999624  46.3634286
  90.7982009 102.3326382  40.8941294  90.1627842 102.4061009  41.6062199
  90.4679415 102.9219981  40.2160374  96.0280359  96.8328765  47.0985616
  96.7605531  96.2627982  47.3323446  95.2719714  96.4450366  47.5392122
  85.3024937  99.7945860  40.5902269  85.1861196  99.1190763  41.2583354
  85.4127197  99.3078233  39.7734422  87.6456478  99.2556007  44.2948959
  87.2814686  98.7286628  45.0061880  88.5023594  98.8654476  44.1215444
  93.5505779  90.5450339  51.5580225  93.2189104  91.4145750  51.3341440
  92.9551392  90.2286623  52.2374255  87.2861965  94.2845906  39.2910307
  87.4536368  95.1526143  39.6580778  87.0959134  94.4473188  38.3671596
  90.0437299 102.7462885  50.9576137  89.7438022 103.6487924  50.8491945
  89.6988358 102.4795068  51.8097290  83.4949780  99.1976682  46.9912842
  82.5700277  99.0652896  47.1990534  83.7434193  99.9770901  47.4882784
  93.4434442  95.2645425  48.6373575  92.5351320  95.1960834  48.3432336
  93.3922038  95.7417370  49.4655400  87.2651186  96.7403564  40.2756974
  87.1450811  97.1860615  41.1142454  86.5703775  97.0888882  39.7170512
  80.8558591  98.8409956  47.8256631  80.9850972  99.0944435  48.7396043
  80.1756042  99.4337664  47.5061286  85.0258078 109.5107206  43.9247105
  84.9482108 110.4615031  44.0035586  84.4219722 109.1653078  44.5822031
  87.5175308  96.6835071  56.5808472  86.7408642  97.2428991  56.5711337
  88.1565871  97.1691854  57.1023342  95.3096089  93.4661864  50.4151449
  94.6670469  93.7594397  49.7691243  94.8051017  93.3514784  51.2204645
  92.9636252  97.2125037  41.1037308  93.8754109  97.4452424  40.9285005
  92.4545899  97.7962081  40.5412387  85.7721680  99.4920524  56.1426439
  86.5136365 100.0305568  55.8661263  85.0658666 100.1186813  56.2997991
  91.2477020 101.6349665  54.7398600  91.6560376 101.1932075  53.9953233
  90.5254282 101.0602292  54.9932793  87.6008090  96.5722272  52.1132157
  88.4469285  96.9961685  52.2566806  87.5406728  95.9155896  52.8070721
  91.5705835 102.1950855  48.4950889  90.9414697 102.3596570  47.7926957
  91.1831497 102.6092465  49.2661853  95.4495067 103.1305293  45.8495253
  94.7646105 103.5104195  45.2992286  95.5338916 103.7400620  46.5827201
  90.7507535  94.2326640  53.7713331  90.5068467  94.9868701  53.2347607
  91.0267466  94.6111988  54.6060578  92.7045998 100.7765252  52.4490597
  92.9162893 101.4197012  51.7724978  92.6575746  99.9427569  51.9812527
  90.3072227  93.3883073  49.3527169  89.4456706  93.6864327  49.6443906
  90.3334662  93.6053472  48.4208201  87.1233797 101.9325264  45.7600974
  87.5872142 102.2112967  44.9705597  86.8590595 101.0308708  45.5774065
  84.0157878 101.4796745  48.6980738  84.5859235 101.9084013  48.0598222
  84.6065990 101.1979330  49.3964923  86.0602683  98.0548416  42.5690540
  86.7626726  98.5069460  43.0364466  85.7283311  97.4132235  43.1970433
  84.5083044  96.6460173  56.9441749  83.8781705  97.3276453  57.1777146
  84.4019132  96.5343254  55.9994887  79.8028017  96.3131969  47.8707673
  79.0127071  96.5689497  47.3947784  80.2939264  97.1280306  47.9759714
  93.8191826 103.6537208  50.6212954  94.6409270 103.2517395  50.3395636
  93.8154229 103.5505442  51.5729070  81.7542762  96.6776548  44.8291150
  80.9573925  96.7895242  45.3474646  81.5268354  97.0163200  43.9632040
  87.5848430 103.2021251  52.7773664  87.6492862 103.6641658  53.6131836
  86.8759354 102.5718616  52.9055974  78.0865720  96.5662459  50.3022664
  78.3373758  97.4509469  50.5680240  78.6225268  96.3867061  49.5297756
 101.9097819  99.9975956  46.9697925 101.1561528  99.4283354  46.8141930
 102.0445360  99.9638621  47.9168560  87.2996447 104.8689359  42.6452645
  87.1642122 105.7140894  43.0737493  87.8406260 105.0708636  41.8818579
  83.7863787  90.9480938  59.3067000  83.3930732  90.3947137  59.9814644
  84.6029927  91.2591517  59.6973518  80.7525845 102.3864797  43.2180570
  81.2650365 103.1808047  43.3686135  81.4048558 101.6891087  43.1514171
  82.5620729 105.5030553  45.3003323  82.7387358 106.4248518  45.1124307
  83.3577563 105.1888972  45.7297703  86.7031748  92.3638817  56.8987257
  87.4441461  92.9645971  56.8191719  86.9349671  91.6216455  56.3405299
  81.8473086  97.5495185  55.1765486  81.7326601  96.6480442  55.4772585
  80.9917604  97.7958882  54.8250303  88.9264924 105.4912925  56.7752987
  88.4828778 104.7049304  56.4573891  89.5882137 105.6792076  56.1096878
  83.6852045 107.0208727  51.3013665  84.2359470 106.8925790  50.5290659
  82.8463521 107.3203616  50.9508558  91.0246162 105.7715725  54.8034388
  91.0064637 106.5924606  54.3114657  91.9466082 105.6469800  55.0284529
  87.4819216 103.2859854  55.6457897  88.0147553 102.5248143  55.4157205
  86.9533297 102.9933506  56.3882051  90.6488911  88.3919920  51.1751538
  90.3053180  89.2821562  51.0990649  91.0167873  88.2021578  50.3121123
  78.7174761 100.7153451  43.9940140  79.5549983 101.1250459  43.7773848
  78.8953029  99.7752893  43.9640334  90.6139194  98.3828532  39.6823973
  90.0985817  99.1533136  39.9212361  90.3416502  97.7093668  40.3057035
  88.1986305  93.2278232  44.7409212  87.3427901  92.8385083  44.5614850
  88.6113256  93.3070193  43.8808997  89.7285451  90.7624576  49.1400772
  89.2250247  90.7254711  48.3268577  90.0216058  91.6717318  49.1997428
  85.9728337  90.8463305  48.1466953  86.8381334  90.6506114  47.7872843
  86.0405846  90.6173657  49.0736310  95.5873468 101.1360886  41.6177147
  94.8102910 100.7972046  41.1732309  96.2664949 101.1413509  40.9432112
  90.4025497  96.2555624  41.5083755  90.0975632  96.5701773  42.3593898
  91.3555939  96.3337044  41.5511088  88.8471929 102.4145847  43.1576709
  88.3193290 101.6798607  42.8449946  88.3459431 103.1920523  42.9116677
  93.8264775 100.6094867  48.2743755  93.1688449 101.2994129  48.3623883
  94.6305174 100.9991299  48.6177741  83.5790656  93.0765513  45.5183320
  84.1534408  92.8540695  44.7856513  84.1661639  93.1454208  46.2711921
  92.6370233  98.9639240  46.3247697  93.1502115  99.5969232  46.8269406
  93.2871457  98.3640436  45.9591057  83.9060243  95.1069974  39.5379205
  83.0697556  95.4444661  39.8588480  83.7665013  94.9718954  38.6006342
  85.8813324  89.9506762  44.2458390  85.2277736  89.6355779  43.6215004
  85.8393798  89.3282503  44.9718212  86.9924529 100.2326057  36.1611682
  86.0851591 100.0015311  36.3602831  87.4895561  99.4363676  36.3485663
  89.8992608 108.9423564  39.0808368  89.2254306 109.2455261  39.6893326
  90.2858430 109.7452645  38.7313825  89.1151064  96.4388696  48.5706037
  88.1973626  96.6603643  48.4127725  89.5311208  96.5135006  47.7117744
  89.8986112  97.8380111  43.7008717  90.6457931  98.3501509  43.3915839
  90.1677702  97.5164164  44.5613111  88.1712762 100.3338652  40.6835672
  87.2623981 100.0497685  40.7808141  88.2007846 100.7537731  39.8238979
  93.4032030 103.9445242  44.4526839  92.9494357 103.1036151  44.5092030
  92.7725996 104.5806640  44.7901619  92.3464949  94.8737228  45.6827507
  91.6087706  94.3614614  46.0137749  92.5991723  94.4337609  44.8710784
  91.8464969 105.7821738  45.3876657  92.1387943 106.3426795  44.6689023
  92.3563589 106.0750299  46.1429816  92.4476577  87.6513480  46.2769276
  92.7535453  86.7910843  45.9895191  93.1729181  88.2431100  46.0768270
  78.7400933  98.0544166  44.6650874  78.5425332  97.4613527  43.9401940
  78.1847597  97.7496376  45.3826813  86.7197656  97.9467273  46.7845467
  86.7746266  96.9941109  46.7087944  85.9088858  98.1026712  47.2686765
  87.8688850 101.8747396  38.0223750  87.4308280 101.1583255  37.5629388
  88.6099291 102.1023511  37.4608842  84.6590016  96.5644332  44.5435846
  83.8457882  96.8638503  44.9501038  85.1549010  96.1700021  45.2610328
  86.8098594 106.5602089  46.4770111  86.7674773 106.7862936  45.5478643
  87.7261293 106.3265464  46.6255912  90.2564228  97.0286157  53.3750740
  90.6113616  97.2557630  54.2345206  90.9036359  97.3604534  52.7527995
  95.9861965 100.1504593  44.0800069  95.8479863 100.3406189  43.1521258
  95.6298184 100.9123976  44.5368120  84.1504091  94.1362688  50.1597081
  84.7903470  93.9951447  49.4620044  83.3181621  93.8497201  49.7835683
  96.0131344 102.2181120  49.0911340  96.4467851 102.1256409  49.9394394
  96.7262925 102.1938620  48.4531356  84.9264395 103.4365118  46.2732073
  85.7204993 102.9415439  46.0714648  84.2156087 102.9082982  45.9099779
  89.7459239 105.8183214  50.6244441  89.7996262 106.3874150  51.3922157
  88.8774021 105.9885099  50.2598478  81.2347158  97.5808200  42.3491826
  80.3044746  97.5192656  42.5661788  81.3304630  97.0584153  41.5528467
  81.1532707  94.1063013  44.9370068  81.4139525  95.0208346  44.8279228
  81.9749880  93.6387456  45.0866680  82.6257633  95.5200770  52.1068892
  83.2980686  95.3118132  51.4581541  81.7987419  95.3222856  51.6674124
  96.8746894 102.2604820  51.6244226  97.0682784 103.1650631  51.8703501
  96.7747512 101.8012240  52.4582811  88.5283205  92.1462711  54.1234553
  87.8811120  92.8452661  54.0299029  89.2984220  92.5798855  54.4910801
  91.9362003 102.4111563  57.1985106  91.7847509 102.1822115  56.2815190
  91.9266682 103.3682165  57.2116451  88.7047339  99.9843476  52.1831373
  89.6339399 100.1354636  52.0100340  88.2838369 100.0727497  51.3280019
  87.5035671 104.0094140  49.9529910  87.3646757 103.6412925  50.8255849
  86.7150267 104.5241780  49.7813868  88.0983823 109.1103237  41.2955447
  88.2735578 108.6391280  42.1101070  87.4116611 109.7369003  41.5236708
  89.0540886 103.3875743  47.3418748  88.7190719 103.3476513  48.2376398
  88.5544832 102.7220459  46.8689158  83.0285130  98.7943373  52.8671329
  82.8904928  98.0623612  53.4682868  83.9390053  98.7052273  52.5855517
  91.9900078 100.7331777  37.6155808  91.3729248 100.0078606  37.5188861
  91.5216566 101.4941138  37.2722882  85.6567431  98.5063332  52.3555009
  86.3667049  97.8656525  52.3141627  85.6136739  98.7576227  53.2781190
  93.6454209 105.4430686  55.2761588  93.5866755 104.7589906  54.6092171
  94.0473728 106.1849676  54.8242214  84.3696365  95.4928550  54.1750648
  83.8333722  95.0419289  54.8272245  83.7813073  95.6274459  53.4321113
  82.6644908 112.2592600  48.0695307  82.9041506 112.8911124  48.7474326
  81.8214105 111.9080640  48.3560666  83.7798624  94.9517202  36.7377112
  82.9028090  94.8306002  36.3739359  84.2556377  94.1603280  36.4856001
  93.6471617 103.4070270  53.5075568  92.7598395 103.0696191  53.6301967
  94.2170168 102.6753301  53.7444333  75.3000764  99.7394361  46.8318619
  75.9871804  99.4256091  46.2439635  75.1448892 100.6435726  46.5585871
  80.1035486  94.6284558  51.2603643  80.0193675  94.0210228  50.5254053
  79.2818192  95.1193576  51.2613139  87.1772770 108.0671722  50.4736811
  87.1042941 108.8726694  50.9856116  86.7350163 108.2663688  49.6484832
  86.9662550 107.3043492  43.9839633  86.1830071 107.8465172  44.0777857
  87.6655295 107.8217472  44.3833874  90.2759200  93.1138122  46.6273838
  90.7727899  92.3608084  46.3074908  89.5046181  93.1502438  46.0617047
  98.1288957  98.8178487  48.2692130  98.1178833  99.7003202  47.8986063
  97.2606337  98.4650038  48.0746667  89.6371453 107.9658556  52.6294970
  90.3499426 108.6006021  52.5570871  89.1461482 108.0622422  51.8134972
  91.3588980 101.8709809  44.2012261  90.4245259 101.9911271  44.0316966
  91.5365649 100.9682276  43.9372271  86.8594168  95.2555505  46.3545523
  86.4891956  94.7026545  47.0426428  87.3553261  94.6513638  45.8020523
  94.7461532  97.7127128  44.7362296  95.2121984  98.5455120  44.6622598
  95.1969032  97.2472110  45.4407554  84.6883367 105.7153000  53.4500541
  85.3892826 106.3489483  53.6029935  84.2178482 106.0567731  52.6896180
  92.8137763 104.0570949  41.7348448  93.0897607 103.9427544  42.6442322
  91.9442262 103.6588434  41.6960621  92.7178194  90.0807715  48.7753197
  91.8041274  90.3111942  48.9435404  93.1471296  90.1646159  49.6267229
  92.4884653  98.2697607  51.2753091  91.8356103  98.5173514  50.6205544
  92.8665033  97.4561745  50.9415568  89.4491827 108.3057300  45.3781261
  89.6314221 107.4878956  45.8409014  90.2724813 108.5224992  44.9406151
  89.7833992 107.2325485  42.6396310  90.3121759 106.7217940  42.0266472
  90.0462212 106.9168016  43.5041843  88.5372226  99.0117418  57.7619128
  87.8612863  98.9111547  58.4321503  89.3599860  98.8556632  58.2255125
  80.2851085 105.2489355  50.3831643  80.8704522 104.5033042  50.5159547
  80.0875924 105.5593311  51.2668307  83.1389740 108.2840602  45.3994086
  82.4700116 108.7686730  44.9158126  83.0002610 108.5309822  46.3137464
  74.8768740  97.8194955  49.1036086  74.9152839  97.2858545  49.8973204
  74.3709033  97.2930160  48.4847064  87.2795009 110.3184345  51.9976744
  87.8313317 110.4815967  52.7625829  87.6201202 110.9088783  51.3256769
  82.2559502  92.6659495  52.5998629  82.3200829  93.5274326  52.1876026
  82.1926622  92.0533497  51.8670987  81.7311775  94.7382628  56.2471663
  82.3583813  94.3559705  56.8609187  80.8739693  94.5196830  56.6127355
  92.1305883 105.1445603  57.8525398  92.6745787 105.7575561  57.3580353
  91.5492728 105.7025181  58.3692411  78.5077317  96.5459057  42.1790018
  78.8030758  95.6369735  42.1257071  77.6065353  96.5246796  41.8571020
  90.4163396 108.2666321  48.9840426  90.2914536 107.4656061  48.4751372
  91.0742487 108.7612514  48.4954396  82.0371564  94.6215054  48.1617566
  81.3158150  95.2351021  48.0225040  82.8264820  95.1572818  48.0834212
  92.4798305 106.0675341  50.6119976  91.5328640 105.9480692  50.5398303
  92.8281078 105.1797839  50.6946238  84.8397878  91.9569480  54.4358218
  85.3632280  92.2031777  55.1984527  84.6210211  92.7889515  54.0161355
  80.2365159  94.2273155  42.3029343  79.9077865  93.3470534  42.1204449
  80.5904530  94.1720823  43.1905732  89.4844738 105.8628057  46.8124328
  89.3369700 104.9344765  46.9931899  90.3098231 105.8848148  46.3281404
  83.3506982  94.5146124  42.6704821  83.6903055  95.0432046  41.9483429
  83.7979103  94.8526531  43.4463387  93.0878860 106.6856616  47.8989201
  94.0125407 106.4799477  47.7613652  92.9194163 106.4373017  48.8078543
  86.0450423  92.8983175  52.1207889  85.7047243  92.0990988  52.5228569
  85.3389429  93.1984886  51.5484722  86.6966895  89.9832488  50.5735212
  87.5192964  89.5092966  50.4514102  86.9404958  90.7622971  51.0733898
  85.3375129  93.0120746  40.8698113  86.0583492  93.3901999  40.3661830
  84.7140433  93.7309623  40.9733091  89.4806252  93.7165895  41.8056446
  89.6969867  94.5990533  41.5045274  89.0000319  93.3252108  41.0762088
  84.2205474  96.6751608  48.3827190  84.0750054  96.9891911  49.2751472
  83.7430677  97.2936509  47.8298089  86.0801856  93.6654156  48.4308080
  86.0663425  92.7695249  48.0940378  86.7974285  93.6724820  49.0646366
  87.9327987  94.0991496  50.4761207  87.6745765  95.0208567  50.4745538
  87.4013028  93.7021931  51.1661671  92.8774176 107.2042283  43.2551293
  93.0511053 106.6388706  42.5025145  93.3703067 108.0043178  43.0730783
  78.6951136  99.2156953  51.3214851  78.1504604  99.9916761  51.4535126
  79.5730486  99.5627757  51.1633973  85.4838752  92.5468536  43.6995650
  85.6054664  91.6185183  43.8986537  85.1940795  92.5607222  42.7873965
  88.3529943  90.2323447  46.8362370  88.3751640  90.2962780  45.8814349
  88.7698002  89.3927956  47.0302876  98.7313567  99.9678706  44.8741592
  99.1744713  99.2186032  44.4760716  97.8540077  99.9588843  44.4915324
  93.8649348 106.5209048  40.3548191  94.5600253 107.1415741  40.5735506
  94.2072499 105.6704399  40.6300569  79.4817158  98.3426849  54.2145008
  78.7398894  98.4909484  54.8009639  79.1609902  98.6035114  53.3511758
  95.7640771 103.9708753  41.8835522  96.2892096 104.3096026  41.1584842
  95.6763124 103.0355769  41.6998656  87.4260820 107.8842827  54.0125398
  87.7347947 107.6391974  54.8848098  88.2236302 108.0889466  53.5244269
  87.4481432 110.0380737  46.2430775  87.0086423 109.5457115  46.9363632
  88.1989549 109.4953704  46.0022850  79.9273771 106.2292278  46.2455403
  80.7531791 105.9296049  45.8654047  79.5767823 105.4599900  46.6945192
  84.8955304 105.5818746  48.3153077  84.2735314 104.9189451  48.0155304
  85.5660171 105.6079878  47.6326724  78.1282376 104.1478604  47.2044337
  77.2914285 103.7200778  47.0228338  78.1006022 104.3411047  48.1415128
  84.9679832  94.0600534  57.9085583  85.0167987  94.9362657  57.5263352
  85.5102346  93.5177927  57.3357226  95.4534678 104.6041657  57.1886720
  94.6630221 104.5865796  56.6491219  95.2168032 105.1429951  57.9435756
  95.5732553 101.4534123  54.5019448  95.6230558 101.2884131  55.4434971
  95.4646476 100.5861382  54.1117329  84.4568811 104.1322669  41.7911537
  84.6056932 104.8158134  41.1378210  85.2635255 104.1127759  42.3060993
  92.8636315  97.4365051  55.8178755  93.7646178  97.2971516  55.5262753
  92.9384290  97.6019506  56.7576932  87.1979120  94.8131906  54.6631941
  86.3282430  95.1065472  54.3914530  87.4338601  95.3972351  55.3839205
  97.0750749 103.8731065  54.7461470  96.7835558 104.2361046  55.5824931
  96.4622881 103.1598073  54.5674802  98.2746432 101.4383945  47.2664040
  99.1093323 101.8773749  47.4301600  98.4105561 100.9622598  46.4472286
  95.3237938  98.9963680  53.2141528  95.7992059  99.1891326  52.4060379
  94.4003503  99.0522865  52.9684911  82.2121444 100.1587847  42.7972606
  81.9667486  99.2550177  42.9952816  82.3817359 100.1604997  41.8552084
  89.9018154  91.0311523  52.1797362  90.4200098  91.7672550  51.8543850
  89.5473287  91.3375516  53.0144121  81.4817092  95.8916204  40.2958767
  80.7886337  95.9660559  39.6398803  81.2368844  95.1276548  40.8180284
  90.1530748  87.4511806  47.6998258  90.4332502  86.7834995  48.3258685
  90.9381355  87.6440901  47.1872922  87.9564217 106.6270800  39.2623285
  87.3838184 107.2460987  38.8093756  88.5297010 107.1770161  39.7963206
  94.0239607  95.8729440  51.4469833  94.9757030  95.9727537  51.4682057
  93.8543057  95.0807708  51.9567918  92.0453986  92.9585023  51.6329234
  91.4503918  93.2390036  50.9375723  91.7603683  93.4478924  52.4045975
  91.1761477 106.9107950  40.3931867  92.1092150 106.8453511  40.5964742
  91.0884689 107.7464217  39.9346399  93.8049493 106.2273820  37.3535814
  93.7263125 105.8933684  38.2471572  94.6259160 106.7195588  37.3527287
  96.5027684  99.0935559  50.5612133  96.4704005  98.1551560  50.7471817
  97.1128308  99.1719596  49.8277958  88.3411015  97.9631612  36.6039337
  89.2870120  97.8337820  36.6727755  87.9625260  97.2246274  37.0808765
  96.6522173  95.8846603  50.6070416  96.1361222  95.1005059  50.4200345
  97.5362121  95.5565319  50.7716936  94.3132900  89.6287618  46.5666229
  94.1157721  89.3202707  47.4509561  94.9232605  90.3549257  46.6964159
 102.3204234 100.1551566  49.7018170 103.0507623  99.8936854  50.2625873
 101.7111180  99.4180288  49.7420238 100.4019531  98.2959429  50.2992621
  99.6752695  98.1615394  49.6909113  99.9866818  98.6036257  51.1049339
  88.2249708 102.0149358  58.0639994  89.1452717 102.1927957  58.2580041
  88.1899291 101.0705404  57.9119693  86.5253932  95.8881589  36.5394222
  85.6185388  95.5914701  36.6156936  86.8029913  95.5911407  35.6728509
  77.4431873  97.2087952  46.9893269  77.1234657  96.3553260  46.6967643
  76.8965301  97.4236530  47.7451236  81.2211780  99.9250393  50.7062775
  81.4397790 100.8567501  50.7250809  81.6337554  99.5658368  51.4917579
  88.1415998  90.4318478  42.6938464  87.3316727  90.0865563  43.0693710
  88.8300415  90.1226022  43.2826075  90.0706546  89.5096525  44.3162760
  90.6237585  89.9291979  44.9752783  90.3076633  88.5832273  44.3585716
  86.0939646  95.4983599  60.0965524  85.9936373  96.4477956  60.0277615
  85.8761188  95.1701838  59.2241594  85.2952717  92.7468524  36.6806201
  86.1571881  93.0723422  36.9402019  85.4803061  91.9600020  36.1679267
  77.3120133 100.8290864  48.9586390  76.6183604 100.4144816  48.4456345
  78.0593124 100.8711400  48.3619809  93.4485354  91.6197050  43.8241424
  92.8684023  92.2781854  43.4419477  93.1821286  90.7974395  43.4128842
  91.8988920  91.0202108  46.0262745  92.3988698  91.1318643  45.2177064
  92.5424528  90.7163161  46.6663553  85.9570916  98.9280738  58.9130586
  85.4737997  99.7281098  59.1194475  86.0431855  98.9388683  57.9598030
  79.2256875 100.7609117  46.8352405  79.2027563 100.8596805  45.8834288
  79.5357512 101.6074268  47.1569571  81.8844253 102.8185272  50.9499020
  82.8387507 102.7869215  50.8828951  81.6856777 102.3575896  51.7649245
  82.4743635 101.3886388  53.5169817  83.2936524 101.8830467  53.5404654
  82.7480443 100.4718357  53.4887385  92.2310232  93.7797141  42.8797773
  91.3436087  94.0646791  42.6617967  92.6464221  93.6190904  42.0325050
  95.5824768  93.8043662  46.5952112  96.3585158  94.2940114  46.8676729
  94.8572902  94.2301716  47.0523981  98.0197326  94.5171281  47.6526053
  98.6141817  94.2767017  46.9419361  98.0923910  93.7978412  48.2799589
  80.2394482 108.3604892  47.9669217  80.1048950 107.6005293  47.4007215
  79.8226544 109.0845792  47.4998006  91.3753445 103.5441815  36.9745793
  92.0789295 103.7491818  37.5903448  90.6516094 104.1118577  37.2394876
  92.2051255  99.2951677  43.0948063  92.1486457  99.7520228  42.2555695
  92.7579598  98.5342361  42.9170906  96.0156061  95.0841409  43.9198182
  95.7592995  94.6838044  44.7506390  95.3908929  95.7985203  43.7948322
 100.3268399  97.8237482  46.4269474  99.7667957  97.8930671  47.2001036
  99.7211902  97.6478466  45.7068970  83.3963608 109.2574209  48.1787660
  83.2795992 110.2019641  48.0766350  82.5756054 108.9547771  48.5673459
  93.2840142 103.9824345  39.0244253  94.1185746 103.5505543  38.8421728
  93.1224485 103.8106358  39.9521147  92.9386035 100.4856458  40.3900592
  92.8834838 100.3200729  39.4489036  92.3132090 101.1932491  40.5462782
  77.7278550  95.7224522  54.2162014  78.3737413  95.2123476  54.7049239
  77.5195701  96.4593204  54.7905440  90.2531942 102.7905370  59.7154155
  91.1223101 102.9646022  59.3540790  89.7738693 103.6099787  59.5929884
  86.2482160  89.9864567  39.9685910  86.2360830  90.9306407  40.1254181
  87.1405582  89.8034712  39.6745372  84.4218122 109.9102471  51.3943588
  85.3245369 109.9426081  51.7110083  84.1955492 108.9802922  51.4089924
  86.1771724 108.6633457  48.0553667  85.2267355 108.6635319  47.9418039
  86.4804210 107.9166192  47.5389702  90.0634280  86.5807344  44.2231847
  89.2966675  86.0265830  44.3688530  90.4744985  86.6529212  45.0845999
  82.0676041  92.8692139  58.3137029  82.9307502  92.5128944  58.5240353
  81.4941451  92.5306034  59.0012433 101.9124418 114.4993996  49.1199430
 102.5502828 114.3800743  48.4162770 101.7945260 115.4474840  49.1787382
  98.7214124 114.4521424  49.0560954  98.3832635 114.3362489  48.1681489
  99.5903892 114.0512589  49.0361960  94.5800940 116.3056900  45.0457845
  94.0165805 116.2146837  44.2774133  94.4653335 115.4856805  45.5260338
  99.2033907 115.6056276  55.0147160  99.1922548 115.2109074  54.1427663
  99.3654546 114.8722348  55.6080931  92.1265371 117.8008092  47.8842066
  92.9186663 117.4598917  47.4688365  92.3662022 117.9103067  48.8044219
  94.0856125 117.0617005  40.7559444  94.8587001 116.5145992  40.6172320
  94.4381524 117.9261254  40.9673906  95.9241168 118.3893387  53.9626344
  95.6331034 119.2939018  53.8473010  96.5598152 118.4309915  54.6770413
  96.8497375 115.7670236  50.5527703  97.4460947 115.5426258  49.8384666
  96.9072346 115.0254981  51.1553151  96.4222403 113.2209671  38.3877894
  96.6747924 112.6991193  37.6261357  95.4846962 113.0575817  38.4904578
 101.4665686 112.2245450  46.1952638 102.2528775 111.8064873  45.8443055
 101.7304390 113.1291542  46.3634286 106.8674113 112.1620683  47.0985616
 107.5999285 111.5919900  47.3323446 106.1113469 111.7742283  47.5392122
  96.1418692 115.1237777  40.5902269  96.0254950 114.4482681  41.2583354
  96.2520952 114.6370151  39.7734422  98.4850233 114.5847924  44.2948959
  98.1208440 114.0578545  45.0061880  99.3417349 114.1946393  44.1215444
 104.3899534 105.8742257  51.5580225 104.0582858 106.7437668  51.3341440
 103.7945147 105.5578541  52.2374255  98.1255720 109.6137824  39.2910307
  98.2930122 110.4818060  39.6580778  97.9352889 109.7765106  38.3671596
  94.3343535 114.5268600  46.9912842  93.4094031 114.3944814  47.1990534
  94.5827948 115.3062819  47.4882784 104.2828197 110.5937343  48.6373575
 103.3745074 110.5252752  48.3432336 104.2315793 111.0709288  49.4655400
  98.1044941 112.0695482  40.2756974  97.9844566 112.5152532  41.1142454
  97.4097529 112.4180799  39.7170512  91.6952346 114.1701873  47.8256631
  91.8244727 114.4236352  48.7396043  91.0149797 114.7629581  47.5061286
  98.3569063 112.0126989  56.5808472  97.5802397 112.5720909  56.5711337
  98.9959626 112.4983772  57.1023342 106.1489843 108.7953782  50.4151449
 105.5064223 109.0886315  49.7691243 105.6444772 108.6806702  51.2204645
 103.8030007 112.5416955  41.1037308 104.7147863 112.7744341  40.9285005
 103.2939654 113.1253999  40.5412387  96.6115435 114.8212442  56.1426439
  97.3530119 115.3597486  55.8661263  95.9052420 115.4478731  56.2997991
 102.0870775 116.9641583  54.7398600 102.4954131 116.5223993  53.9953233
 101.3648036 116.3894210  54.9932793  98.4401845 111.9014189  52.1132157
  99.2863040 112.3253603  52.2566806  98.3800482 111.2447814  52.8070721
 101.5901290 109.5618558  53.7713331 101.3462222 110.3160618  53.2347607
 101.8661220 109.9403905  54.6060578 101.1465982 108.7174991  49.3527169
 100.2850461 109.0156244  49.6443906 101.1728416 108.9345390  48.4208201
  97.9627551 117.2617181  45.7600974  98.4265897 117.5404884  44.9705597
  97.6984349 116.3600626  45.5774065  94.8551632 116.8088663  48.6980738
  95.4252989 117.2375931  48.0598222  95.4459744 116.5271247  49.3964923
  96.8996437 113.3840334  42.5690540  97.6020480 113.8361377  43.0364466
  96.5677066 112.7424152  43.1970433  95.3476799 111.9752090  56.9441749
  94.7175459 112.6568371  57.1777146  95.2412887 111.8635172  55.9994887
  90.6421771 111.6423886  47.8707673  89.8520825 111.8981415  47.3947784
  91.1333018 112.4572224  47.9759714  92.5936516 112.0068466  44.8291150
  91.7967680 112.1187160  45.3474646  92.3662109 112.3455118  43.9632040
  98.4242184 118.5313169  52.7773664  98.4886617 118.9933576  53.6131836
  97.7153108 117.9010534  52.9055974  88.9259474 111.8954377  50.3022664
  89.1767513 112.7801387  50.5680240  89.4619022 111.7158978  49.5297756
  94.6257541 106.2772856  59.3067000  94.2324487 105.7239055  59.9814644
  95.4423682 106.5883435  59.6973518  91.5919599 117.7156714  43.2180570
  92.1044120 118.5099965  43.3686135  92.2442312 117.0183005  43.1514171
  93.4014484 120.8322471  45.3003323  93.5781112 121.7540435  45.1124307
  94.1971317 120.5180890  45.7297703  97.5425502 107.6930735  56.8987257
  98.2835216 108.2937888  56.8191719  97.7743425 106.9508373  56.3405299
  92.6866840 112.8787102  55.1765486  92.5720356 111.9772360  55.4772585
  91.8311358 113.1250799  54.8250303  94.5245799 122.3500644  51.3013665
  95.0753224 122.2217708  50.5290659  93.6857275 122.6495533  50.9508558
  98.3212970 118.6151772  55.6457897  98.8541307 117.8540060  55.4157205
  97.7927051 118.3225424  56.3882051 101.4882665 103.7211838  51.1751538
 101.1446935 104.6113480  51.0990649 101.8561628 103.5313496  50.3121123
  89.5568516 116.0445369  43.9940140  90.3943738 116.4542377  43.7773848
  89.7346784 115.1044811  43.9640334 101.4532948 113.7120449  39.6823973
 100.9379571 114.4825054  39.9212361 101.1810257 113.0385585  40.3057035
  99.0380059 108.5570150  44.7409212  98.1821655 108.1677000  44.5614850
  99.4507011 108.6362111  43.8808997 100.5679206 106.0916493  49.1400772
 100.0644001 106.0546628  48.3268577 100.8609813 107.0009236  49.1997428
  96.8122092 106.1755223  48.1466953  97.6775088 105.9798032  47.7872843
  96.8799601 105.9465575  49.0736310 101.2419251 111.5847541  41.5083755
 100.9369387 111.8993690  42.3593898 102.1949693 111.6628961  41.5511088
  99.6865683 117.7437765  43.1576709  99.1587045 117.0090524  42.8449946
  99.1853186 118.5212441  42.9116677  94.4184411 108.4057431  45.5183320
  94.9928163 108.1832612  44.7856513  95.0055393 108.4746125  46.2711921
 103.4763988 114.2931158  46.3247697 103.9895870 114.9261150  46.8269406
 104.1265212 113.6932353  45.9591057  94.7453998 110.4361892  39.5379205
  93.9091310 110.7736578  39.8588480  94.6058767 110.3010872  38.6006342
  96.7207078 105.2798680  44.2458390  96.0671491 104.9647697  43.6215004
  96.6787553 104.6574420  44.9718212  97.8318283 115.5617975  36.1611682
  96.9245345 115.3307228  36.3602831  98.3289315 114.7655594  36.3485663
  99.9544819 111.7680613  48.5706037  99.0367380 111.9895560  48.4127725
 100.3704962 111.8426924  47.7117744 100.7379867 113.1672029  43.7008717
 101.4851685 113.6793426  43.3915839 101.0071456 112.8456082  44.5613111
  99.0106517 115.6630570  40.6835672  98.1017736 115.3789603  40.7808141
  99.0401601 116.0829648  39.8238979 103.1858704 110.2029145  45.6827507
 102.4481460 109.6906532  46.0137749 103.4385477 109.7629527  44.8710784
 103.2870331 102.9805397  46.2769276 103.5929208 102.1202761  45.9895191
 104.0122936 103.5723017  46.0768270  89.5794687 113.3836084  44.6650874
  89.3819087 112.7905445  43.9401940  89.0241351 113.0788294  45.3826813
  97.5591411 113.2759190  46.7845467  97.6140021 112.3233027  46.7087944
  96.7482613 113.4318629  47.2686765  98.7082605 117.2039313  38.0223750
  98.2702034 116.4875172  37.5629388  99.4493045 117.4315428  37.4608842
  95.4983771 111.8936250  44.5435846  94.6851636 112.1930421  44.9501038
  95.9942765 111.4991939  45.2610328 101.0957982 112.3578075  53.3750740
 101.4507370 112.5849548  54.2345206 101.7430114 112.6896451  52.7527995
  94.9897845 109.4654606  50.1597081  95.6297225 109.3243365  49.4620044
  94.1575376 109.1789119  49.7835683  95.7658149 118.7657036  46.2732073
  96.5598748 118.2707356  46.0714648  95.0549842 118.2374899  45.9099779
  92.0740913 112.9100118  42.3491826  91.1438501 112.8484573  42.5661788
  92.1698385 112.3876071  41.5528467  91.9926462 109.4354931  44.9370068
  92.2533279 110.3500264  44.8279228  92.8143634 108.9679373  45.0866680
  93.4651387 110.8492688  52.1068892  94.1374441 110.6410050  51.4581541
  92.6381174 110.6514774  51.6674124  99.3676959 107.4754629  54.1234553
  98.7204874 108.1744578  54.0299029 100.1377975 107.9090773  54.4910801
  99.5441094 115.3135394  52.1831373 100.4733154 115.4646553  52.0100340
  99.1232124 115.4019414  51.3280019  98.3429425 119.3386058  49.9529910
  98.2040511 118.9704842  50.8255849  97.5544022 119.8533697  49.7813868
  99.8934640 118.7167661  47.3418748  99.5584473 118.6768431  48.2376398
  99.3938586 118.0512377  46.8689158  93.8678884 114.1235291  52.8671329
  93.7298682 113.3915530  53.4682868  94.7783808 114.0344191  52.5855517
 102.8293832 116.0623695  37.6155808 102.2123003 115.3370523  37.5188861
 102.3610321 116.8233055  37.2722882  96.4961185 113.8355250  52.3555009
  97.2060804 113.1948442  52.3141627  96.4530493 114.0868145  53.2781190
  95.2090119 110.8220468  54.1750648  94.6727476 110.3711206  54.8272245
  94.6206828 110.9566377  53.4321113  94.6192378 110.2809119  36.7377112
  93.7421844 110.1597920  36.3739359  95.0950131 109.4895198  36.4856001
  86.1394518 115.0686279  46.8318619  86.8265558 114.7548009  46.2439635
  85.9842647 115.9727644  46.5585871  90.9429240 109.9576476  51.2603643
  90.8587429 109.3502145  50.5254053  90.1211947 110.4485494  51.2613139
 101.1152954 108.4430039  46.6273838 101.6121654 107.6900002  46.3074908
 100.3439936 108.4794356  46.0617047 102.1982735 117.2001726  44.2012261
 101.2639014 117.3203189  44.0316966 102.3759403 116.2974193  43.9372271
  97.6987923 110.5847422  46.3545523  97.3285710 110.0318463  47.0426428
  98.1947015 109.9805556  45.8020523 105.5855286 113.0419046  44.7362296
 106.0515738 113.8747037  44.6622598 106.0362787 112.5764027  45.4407554
  95.5277121 121.0444917  53.4500541  96.2286581 121.6781400  53.6029935
  95.0572236 121.3859649  52.6896180 103.5571949 105.4099633  48.7753197
 102.6435029 105.6403860  48.9435404 103.9865050 105.4938077  49.6267229
 103.3278407 113.5989525  51.2753091 102.6749858 113.8465432  50.6205544
 103.7058787 112.7853663  50.9415568  99.3765980 114.3409336  57.7619128
  98.7006617 114.2403465  58.4321503 100.1993614 114.1848549  58.2255125
  91.1244840 120.5781272  50.3831643  91.7098276 119.8324960  50.5159547
  90.9269678 120.8885229  51.2668307  85.7162494 113.1486872  49.1036086
  85.7546594 112.6150463  49.8973204  85.2102787 112.6222078  48.4847064
  93.0953257 107.9951413  52.5998629  93.1594583 108.8566244  52.1876026
  93.0320377 107.3825415  51.8670987  92.5705529 110.0674546  56.2471663
  93.1977568 109.6851623  56.8609187  91.7133448 109.8488747  56.6127355
  89.3471072 111.8750975  42.1790018  89.6424513 110.9661653  42.1257071
  88.4459108 111.8538714  41.8571020  92.8765319 109.9506971  48.1617566
  92.1551905 110.5642939  48.0225040  93.6658575 110.4864736  48.0834212
  95.6791632 107.2861398  54.4358218  96.2026034 107.5323694  55.1984527
  95.4603966 108.1181433  54.0161355  91.0758913 109.5565072  42.3029343
  90.7471620 108.6762451  42.1204449  91.4298284 109.5012741  43.1905732
  94.1900737 109.8438042  42.6704821  94.5296809 110.3723963  41.9483429
  94.6372857 110.1818448  43.4463387  96.8844177 108.2275093  52.1207889
  96.5440998 107.4282906  52.5228569  96.1783184 108.5276804  51.5484722
  97.5360649 105.3124405  50.5735212  98.3586719 104.8384883  50.4514102
  97.7798713 106.0914889  51.0733898  96.1768884 108.3412664  40.8698113
  96.8977246 108.7193916  40.3661830  95.5534188 109.0601540  40.9733091
 100.3200007 109.0457813  41.8056446 100.5363621 109.9282451  41.5045274
  99.8394074 108.6544026  41.0762088  95.0599228 112.0043526  48.3827190
  94.9143809 112.3183829  49.2751472  94.5824432 112.6228426  47.8298089
  96.9195611 108.9946074  48.4308080  96.9057180 108.0987167  48.0940378
  97.6368039 109.0016738  49.0646366  98.7721742 109.4283414  50.4761207
  98.5139519 110.3500485  50.4745538  98.2406782 109.0313849  51.1661671
  89.5344890 114.5448870  51.3214851  88.9898358 115.3208678  51.4535126
  90.4124240 114.8919675  51.1633973  96.3232507 107.8760454  43.6995650
  96.4448418 106.9477100  43.8986537  96.0334549 107.8899140  42.7873965
  99.1923697 105.5615365  46.8362370  99.2145394 105.6254698  45.8814349
  99.6091756 104.7219873  47.0302876  90.3210912 113.6718767  54.2145008
  89.5792648 113.8201402  54.8009639  90.0003656 113.9327032  53.3511758
  90.7667526 121.5584195  46.2455403  91.5925546 121.2587967  45.8654047
  90.4161578 120.7891818  46.6945192  95.7349059 120.9110663  48.3153077
  95.1129068 120.2481369  48.0155304  96.4053926 120.9371795  47.6326724
  88.9676131 119.4770522  47.2044337  88.1308039 119.0492696  47.0228338
  88.9399776 119.6702965  48.1415128  95.8073586 109.3892452  57.9085583
  95.8561742 110.2654574  57.5263352  96.3496101 108.8469845  57.3357226
  95.2962566 119.4614587  41.7911537  95.4450686 120.1450051  41.1378210
  96.1029009 119.4419677  42.3060993 103.7030069 112.7656969  55.8178755
 104.6039932 112.6263434  55.5262753 103.7778044 112.9311424  56.7576932
  98.0372875 110.1423824  54.6631941  97.1676184 110.4357390  54.3914530
  98.2732355 110.7264269  55.3839205  93.0515199 115.4879764  42.7972606
  92.8061241 114.5842094  42.9952816  93.2211113 115.4896915  41.8552084
 100.7411909 106.3603441  52.1797362 101.2593853 107.0964468  51.8543850
 100.3867041 106.6667434  53.0144121  92.3210846 111.2208122  40.2958767
  91.6280091 111.2952477  39.6398803  92.0762598 110.4568466  40.8180284
 100.9924503 102.7803723  47.6998258 101.2726257 102.1126912  48.3258685
 101.7775110 102.9732819  47.1872922 104.8633361 111.2021357  51.4469833
 105.8150784 111.3019455  51.4682057 104.6936812 110.4099626  51.9567918
 102.8847741 108.2876941  51.6329234 102.2897673 108.5681953  50.9375723
 102.5997437 108.7770842  52.4045975  99.1804770 113.2923530  36.6039337
 100.1263875 113.1629738  36.6727755  98.8019015 112.5538192  37.0808765
 107.4915927 111.2138520  50.6070416 106.9754976 110.4296977  50.4200345
 108.3755876 110.8857237  50.7716936 105.1526654 104.9579536  46.5666229
 104.9551475 104.6494624  47.4509561 105.7626360 105.6841175  46.6964159
  99.0643462 117.3441276  58.0639994  99.9846472 117.5219875  58.2580041
  99.0293045 116.3997322  57.9119693  97.3647687 111.2173506  36.5394222
  96.4579142 110.9206619  36.6156936  97.6423668 110.9203324  35.6728509
  88.2825627 112.5379870  46.9893269  87.9628412 111.6845178  46.6967643
  87.7359056 112.7528448  47.7451236  92.0605535 115.2542311  50.7062775
  92.2791545 116.1859419  50.7250809  92.4731309 114.8950285  51.4917579
  98.9809753 105.7610396  42.6938464  98.1710481 105.4157481  43.0693710
  99.6694170 105.4517940  43.2826075 100.9100301 104.8388443  44.3162760
 101.4631340 105.2583896  44.9752783 101.1470387 103.9124191  44.3585716
  96.9333400 110.8275517  60.0965524  96.8330127 111.7769874  60.0277615
  96.7154942 110.4993755  59.2241594  96.1346472 108.0760442  36.6806201
  96.9965636 108.4015340  36.9402019  96.3196816 107.2891938  36.1679267
  88.1513887 116.1582781  48.9586390  87.4577359 115.7436734  48.4456345
  88.8986878 116.2003318  48.3619809 104.2879108 106.9488968  43.8241424
 103.7077777 107.6073772  43.4419477 104.0215041 106.1266313  43.4128842
 102.7382674 106.3494026  46.0262745 103.2382453 106.4610560  45.2177064
 103.3818282 106.0455079  46.6663553  96.7964670 114.2572655  58.9130586
  96.3131752 115.0573016  59.1194475  96.8825609 114.2680600  57.9598030
  90.0650630 116.0901035  46.8352405  90.0421318 116.1888722  45.8834288
  90.3751266 116.9366186  47.1569571  92.7238008 118.1477190  50.9499020
  93.6781261 118.1161132  50.8828951  92.5250531 117.6867814  51.7649245
  93.3137390 116.7178306  53.5169817  94.1330279 117.2122385  53.5404654
  93.5874198 115.8010274  53.4887385 103.0703986 109.1089058  42.8797773
 102.1829841 109.3938709  42.6617967 103.4857975 108.9482822  42.0325050
 106.4218522 109.1335579  46.5952112 107.1978912 109.6232032  46.8676729
 105.6966656 109.5593634  47.0523981 108.8591081 109.8463199  47.6526053
 109.4535572 109.6058935  46.9419361 108.9317665 109.1270329  48.2799589
  91.0788237 123.6896810  47.9669217  90.9442704 122.9297210  47.4007215
  90.6620299 124.4137709  47.4998006 103.0445010 114.6243594  43.0948063
 102.9880211 115.0812146  42.2555695 103.5973352 113.8634279  42.9170906
 106.8549816 110.4133326  43.9198182 106.5986750 110.0129962  44.7506390
 106.2302684 111.1277120  43.7948322 103.7779789 115.8148376  40.3900592
 103.7228593 115.6492647  39.4489036 103.1525844 116.5224409  40.5462782
  88.5672304 111.0516440  54.2162014  89.2131168 110.5415394  54.7049239
  88.3589455 111.7885122  54.7905440  97.0875915 105.3156485  39.9685910
  97.0754584 106.2598325  40.1254181  97.9799336 105.1326630  39.6745372
 100.9028034 101.9099261  44.2231847 100.1360430 101.3557748  44.3688530
 101.3138739 101.9821130  45.0845999  92.9069795 108.1984057  58.3137029
  93.7701257 107.8420862  58.5240353  92.3335206 107.8597952  59.0012433
  36.8761892  -0.4695388  35.8444736  37.5140302  -0.5888640  35.1408076
  36.7582735   0.4785456  35.9032688  33.6851598  -0.5167960  35.7806261
  33.3470110  -0.6326895  34.8926796  34.5541366  -0.9176794  35.7607267
  34.1671381   0.6366892  41.7392466  34.1560022   0.2419690  40.8672970
  34.3292021  -0.0967035  42.3326238  27.0902846   2.8318708  34.6087372
  27.8824138   2.4909533  34.1933672  27.3299496   2.9413683  35.5289526
  30.8878642   3.4204004  40.6871650  30.5968508   4.3249635  40.5718317
  31.5235627   3.4620532  41.4015720  31.8134849   0.7980852  37.2773010
  32.4098421   0.5736875  36.5629973  31.8709821   0.0565598  37.8798458
  41.8311588  -2.8068701  33.8230923  42.5636759  -3.3769484  34.0568752
  41.0750943  -3.1947100  34.2637428  35.8468527   3.1065419  37.6821444
  35.5469250   4.0090458  37.5737251  35.5019587   2.8397603  38.5342597
  39.2465671  -4.3752040  35.3618881  38.3382549  -4.4436632  35.0677642
  39.1953267  -3.8980095  36.1900707  30.8289307   9.8709740  30.6492412
  30.7513337  10.8217565  30.7280892  30.2250951   9.5255612  31.3067338
  33.3206537  -2.9562395  43.3053779  32.5439871  -2.3968475  43.2956643
  33.9597100  -2.4705612  43.8268649  41.1127318  -6.1735602  37.1396755
  40.4701698  -5.8803069  36.4936550  40.6082246  -6.2882682  37.9449952
  31.5752909  -0.1476941  42.8671746  32.3167594   0.3908103  42.5906569
  30.8689895   0.4789347  43.0243297  37.0508249   1.9952199  41.4643907
  37.4591605   1.5534610  40.7198539  36.3285510   1.4204827  41.7178100
  33.4039319  -3.0675194  38.8377464  34.2500514  -2.6435781  38.9812113
  33.3437957  -3.7241570  39.5316027  37.3737064   2.5553390  35.2196196
  36.7445926   2.7199104  34.5172264  36.9862726   2.9694999  35.9907160
  41.2526295   3.4907828  32.5740560  40.5677334   3.8706729  32.0237593
  41.3370145   4.1003154  33.3072508  36.5538764  -5.4070826  40.4958638
  36.3099696  -4.6528765  39.9592913  36.8298695  -5.0285478  41.3305885
  38.5077227   1.1367787  39.1735903  38.7194122   1.7799546  38.4970284
  38.4606975   0.3030103  38.7057833  29.8189106   1.8399279  35.4226044
  30.3890464   2.2686548  34.7843529  30.4097218   1.5581864  36.1210230
  39.6223055   4.0139742  37.3458261  40.4440499   3.6119929  37.0640942
  39.6185458   3.9107976  38.2974376  33.3879658   3.5623785  39.5018971
  33.4524091   4.0244193  40.3377143  32.6790582   2.9321150  39.6301281
  47.7129048   0.3578490  33.6943232  46.9592756  -0.2114111  33.5387237
  47.8476589   0.3241155  34.6413867  28.3651958   5.8633087  32.0248630
  28.5418587   6.7851052  31.8369614  29.1608792   5.5491506  32.4543010
  34.7296152   5.8515459  43.4998294  34.2860007   5.0651838  43.1819198
  35.3913366   6.0394610  42.8342184  29.4883274   7.3811261  38.0258972
  30.0390699   7.2528324  37.2535966  28.6494750   7.6806150  37.6753865
  36.8277391   6.1318259  41.5279695  36.8095866   6.9527140  41.0359964
  37.7497311   6.0072334  41.7529836  33.2850445   3.6462389  42.3703203
  33.8178781   2.8850677  42.1402511  32.7564526   3.3536041  43.1127358
  39.6296003   0.9697402  34.9989061  38.9719678   1.6596663  35.0869190
  40.4336403   1.3593834  35.3423048  38.4401462  -0.6758226  33.0493003
  38.9533344  -0.0428234  33.5514713  39.0902686  -1.2757030  32.6836363
  34.9182293  -3.2008770  35.2951344  34.0004854  -2.9793823  35.1373032
  35.3342437  -3.1262460  34.4363051  39.2063258   4.3047776  31.1772146
  38.7525586   3.4638686  31.2337336  38.5757225   4.9409174  31.5146926
  37.6496198   6.1424272  32.1121964  37.9419172   6.7029330  31.3934330
  38.1594818   6.4352833  32.8675123  32.6129823   6.9204624  33.2015417
  32.5706002   7.1465470  32.2723949  33.5292522   6.6867998  33.3501218
  36.0595457  -2.6111309  40.0996046  36.4144844  -2.3839836  40.9590512
  36.7067588  -2.2792932  39.4773302  41.7893194   0.5107127  30.8045375
  41.6511092   0.7008723  29.8766565  41.4329412   1.2726510  31.2613427
  41.8162573   2.5783654  35.8156647  42.2499080   2.4858943  36.6639701
  42.5294154   2.5541154  35.1776663  35.5490468   6.1785748  37.3489748
  35.6027490   6.7476684  38.1167463  34.6805249   6.3487633  36.9843785
  42.6778123   2.6207355  38.3489532  42.8714013   3.5253165  38.5948807
  42.5778741   2.1614774  39.1828117  37.7393231   2.7714097  43.9230413
  37.5878738   2.5424649  43.0060497  37.7297911   3.7284699  43.9361758
  34.5078568   0.3446010  38.9076679  35.4370628   0.4957170  38.7345647
  34.0869598   0.4330031  38.0525326  33.3066900   4.3696675  36.6775217
  33.1677985   4.0015459  37.5501155  32.5181496   4.8844314  36.5059175
  33.9015052   9.4705771  28.0200754  34.0766807   8.9993814  28.8346376
  33.2147840  10.0971537  28.2482014  34.8572115   3.7478277  34.0664055
  34.5221947   3.7079047  34.9621705  34.3576060   3.0822993  33.5934465
  28.8316359  -0.8454093  39.5916636  28.6936157  -1.5773854  40.1928175
  29.7421282  -0.9345193  39.3100824  31.4598659  -1.1334133  39.0800316
  32.1698278  -1.7740941  39.0386934  31.4167968  -0.8821239  40.0026496
  39.4485438   5.8033220  42.0006895  39.3897984   5.1192440  41.3337478
  39.8504956   6.5452210  41.5487521  28.4676137  12.6195134  34.7940614
  28.7072735  13.2513658  35.4719632  27.6245333  12.2683174  35.0805973
  39.4502845   3.7672804  40.2320875  38.5629624   3.4298726  40.3547273
  40.0201396   3.0355835  40.4689640  32.9803999   8.4274256  37.1982118
  32.9074170   9.2329228  37.7101422  32.5381392   8.6266222  36.3730139
  32.7693778   7.6646026  30.7084939  31.9861300   8.2067706  30.8023164
  33.4686524   8.1820006  31.1079180  43.9320186  -0.8218979  34.9937436
  43.9210062   0.0605737  34.6231369  43.0637565  -1.1747428  34.7991973
  35.4402682   8.3261090  39.3540276  36.1530654   8.9608555  39.2816178
  34.9492711   8.4224956  38.5380278  30.4914596   6.0755534  40.1745847
  31.1924055   6.7092017  40.3275241  30.0209711   6.4170265  39.4141486
  38.2915882  -1.3699859  37.9998398  37.6387332  -1.1223951  37.3450850
  38.6696262  -2.1835721  37.6660875  35.2523056   8.6659834  32.1026568
  35.4345450   7.8481490  32.5654320  36.0756042   8.8827527  31.6651458
  35.5865221   7.5928020  29.3641616  36.1152988   7.0820474  28.7511778
  35.8493441   7.2770550  30.2287149  34.3403455  -0.6280048  44.4864435
  33.6644092  -0.7285918  45.1566810  35.1631089  -0.7840834  44.9500432
  26.0882314   5.6091889  37.1076950  26.6735751   4.8635577  37.2404854
  25.8907152   5.9195846  37.9913614  28.9420969   8.6443136  32.1239392
  28.2731344   9.1289264  31.6403432  28.8033839   8.8912357  33.0382771
  33.0826238  10.6786880  38.7222051  33.6344546  10.8418501  39.4871136
  33.4232431  11.2691318  38.0502075  37.9337112   5.5048137  44.5770705
  38.4777016   6.1178095  44.0825660  37.3523957   6.0627716  45.0937718
  36.2194625   8.6268855  35.7085733  36.0945764   7.8258595  35.1996678
  36.8773716   9.1215049  35.2199703  38.2829533   6.4277875  37.3365283
  37.3359869   6.3083227  37.2643610  38.6312306   5.5400373  37.4191544
  35.2875967   6.2230592  33.5369635  35.1400929   5.2947299  33.7177205
  36.1129460   6.2450682  33.0526710  38.8910088   7.0459150  34.6234508
  39.8156636   6.8402012  34.4858959  38.7225392   6.7975551  35.5323849
  38.6805405   7.5644818  29.9796599  38.8542282   6.9991240  29.2270452
  39.1734296   8.3645713  29.7976089  44.5344796   0.3281241  31.5986899
  44.9775942  -0.4211434  31.2006022  43.6571306   0.3191377  31.2160631
  39.6680577   6.8811582  27.0793498  40.3631482   7.5018275  27.2980812
  40.0103727   6.0306933  27.3545875  41.5672000   4.3311288  28.6080828
  42.0923324   4.6698560  27.8830148  41.4794353   3.3958303  28.4243963
  33.2292049   8.2445361  40.7370705  33.5379175   7.9994508  41.6093405
  34.0267531   8.4492000  40.2489575  33.2512661  10.3983271  32.9676082
  32.8117651   9.9059650  33.6608938  34.0020778   9.8556239  32.7268157
  25.7305000   6.5894812  32.9700710  26.5563020   6.2898584  32.5899353
  25.3799052   5.8202434  33.4190498  30.6986533   5.9421280  35.0398383
  30.0766542   5.2791985  34.7400611  31.3691400   5.9682412  34.3572031
  41.2565906   4.9644191  43.9132026  40.4661450   4.9468330  43.3736526
  41.0199261   5.5032485  44.6681063  41.3763781   1.8136658  41.2264755
  41.4261786   1.6486665  42.1680278  41.2677705   0.9463917  40.8362636
  38.6667544  -2.2032414  42.5424062  39.5677407  -2.3425949  42.2508059
  38.7415518  -2.0377959  43.4822239  42.8781978   4.2333599  41.4706776
  42.5866787   4.5963580  42.3070237  42.2654110   3.5200607  41.2920108
  44.0777661   1.7986479  33.9909347  44.9124552   2.2376283  34.1546907
  44.2136789   1.3225132  33.1717592  41.1269166  -0.6433786  39.9386834
  41.6023288  -0.4506140  39.1305686  40.2034732  -0.5874600  39.6930218
  39.8270835  -3.7668026  38.1715140  40.7788258  -3.6669928  38.1927364
  39.6574286  -4.5589758  38.6813224  37.8485215  -6.6812443  38.3574541
  37.2535147  -6.4007430  37.6621030  37.5634912  -6.1918542  39.1291282
  42.3058913  -0.5461906  37.2857440  42.2735233  -1.4845906  37.4717123
  42.9159537  -0.4677870  36.5523265  42.4553402  -3.7550863  37.3315723
  41.9392450  -4.5392406  37.1445652  43.3393350  -4.0832146  37.4962242
  48.1235463   0.5154100  36.4263476  48.8538852   0.2539389  36.9871180
  47.5142409  -0.2217178  36.4665544  46.2050760  -1.3438037  37.0237928
  45.4783924  -1.4782072  36.4154419  45.7898047  -1.0361208  37.8294646
  34.0280937   2.3751893  44.7885301  34.9483946   2.5530492  44.9825347
  33.9930520   1.4307938  44.6365000  27.0243009   0.2852927  37.4308082
  27.2429019   1.2170035  37.4496116  27.4368783  -0.0739098  38.2162886
  31.7602145  -0.7116728  45.6375892  31.2769226   0.0883632  45.8439781
  31.8463084  -0.7008783  44.6843336  27.6875482   3.1787807  37.6744326
  28.6418736   3.1471749  37.6074258  27.4888006   2.7178430  38.4894552
  28.2774864   1.7488923  40.2415124  29.0967753   2.2433001  40.2649961
  28.5511672   0.8320891  40.2132691  43.8228555  -5.1226185  34.3771359
  44.4173046  -5.3630449  33.6664667  43.8955139  -5.8419054  35.0044896
  26.0425711   8.7207426  34.6914524  25.9080179   7.9607827  34.1252522
  25.6257773   9.4448326  34.2243313  46.1299628  -1.8159984  33.1514780
  45.5699186  -1.7466795  33.9246342  45.5243131  -1.9918999  32.4314277
  29.1994837   9.6176743  34.9032967  29.0827221  10.5622176  34.8011657
  28.3787283   9.3150305  35.2918766  36.0563171   3.1507904  46.4399461
  36.9254330   3.3248556  46.0786096  35.5769922   3.9702321  46.3175191
  30.2249351  10.2705005  38.1188895  31.1276598  10.3028615  38.4355390
  29.9986721   9.3405456  38.1335231  31.9802953   9.0235992  34.7798974
  31.0298584   9.0237853  34.6663346  32.2835439   8.2768726  34.2635008
  47.7155646  14.8596530  35.8444736  48.3534056  14.7403277  35.1408076
  47.5976489  15.8077374  35.9032688  44.5245353  14.8123958  35.7806261
  44.1863864  14.6965023  34.8926796  45.3935121  14.4115123  35.7607267
  40.3832168  16.6659435  31.7703152  39.8197033  16.5749371  31.0019440
  40.2684563  15.8459339  32.2505644  45.0065136  15.9658810  41.7392466
  44.9953776  15.5711608  40.8672970  45.1685775  15.2324882  42.3326238
  37.9296600  18.1610626  34.6087372  38.7217892  17.8201451  34.1933672
  38.1693250  18.2705601  35.5289526  45.9631727  20.3330402  27.0817617
  45.3119707  20.9184483  26.6951630  46.7576090  20.8636597  27.1412654
  39.8887354  17.4219539  27.4804751  40.6618230  16.8748526  27.3417627
  40.2412753  18.2863789  27.6919212  41.7272397  18.7495922  40.6871650
  41.4362263  19.6541552  40.5718317  42.3629381  18.7912449  41.4015720
  42.6528604  16.1272770  37.2773010  43.2492176  15.9028793  36.5629973
  42.7103575  15.3857516  37.8798458  42.2253632  13.5812205  25.1123201
  42.4779153  13.0593727  24.3506664  41.2878191  13.4178351  25.2149885
  47.2696915  12.5847984  32.9197944  48.0560004  12.1667407  32.5688361
  47.5335619  13.4894076  33.0879593  47.4406992  18.0220834  27.6186601
  46.8052825  18.0955461  28.3307506  47.1104399  18.6114433  26.9405680
  52.6705342  12.5223217  33.8230923  53.4030514  11.9522434  34.0568752
  51.9144698  12.1344817  34.2637428  41.9449921  15.4840311  27.3147576
  41.8286179  14.8085215  27.9828660  42.0552181  14.9972685  26.4979729
  44.2881462  14.9450459  31.0194265  43.9239669  14.4181080  31.7307187
  45.1448578  14.5548928  30.8460751  50.1930762   6.2344791  38.2825531
  49.8614087   7.1040202  38.0586746  49.5976376   5.9181075  38.9619562
  43.9286949   9.9740358  26.0155614  44.0961351  10.8420595  26.3826085
  43.7384118  10.1367640  25.0916903  46.6862282  18.4357337  37.6821444
  46.3863005  19.3382376  37.5737251  46.3413341  18.1689520  38.5342597
  40.1374763  14.8871134  33.7158148  39.2125260  14.7547348  33.9235840
  40.3859177  15.6665353  34.2128091  50.0859426  10.9539877  35.3618881
  49.1776303  10.8855286  35.0677642  50.0347021  11.4311822  36.1900707
  43.9076170  12.4298016  27.0002280  43.7875795  12.8755067  27.8387761
  43.2128758  12.7783333  26.4415819  37.4983574  14.5304408  34.5501938
  37.6275956  14.7838886  35.4641349  36.8181026  15.1232116  34.2306593
  41.6683062  25.2001657  30.6492412  41.5907091  26.1509483  30.7280892
  41.0644705  24.8547530  31.3067338  44.1600291  12.3729523  43.3053779
  43.3833626  12.9323443  43.2956643  44.7990854  12.8586306  43.8268649
  51.9521072   9.1556316  37.1396755  51.3095452   9.4488849  36.4936550
  51.4476001   9.0409236  37.9449952  49.6061236  12.9019489  27.8282615
  50.5179092  13.1346876  27.6530312  49.0970883  13.4856533  27.2657693
  42.4146664  15.1814976  42.8671746  43.1561348  15.7200020  42.5906569
  41.7083649  15.8081265  43.0243297  47.8902003  17.3244117  41.4643907
  48.2985359  16.8826527  40.7198539  47.1679265  16.7496744  41.7178100
  44.2433073  12.2616724  38.8377464  45.0894269  12.6856137  38.9812113
  44.1831711  11.6050348  39.5316027  48.2130818  17.8845307  35.2196196
  47.5839680  18.0491021  34.5172264  47.8256480  18.2986917  35.9907160
  52.0920050  18.8199745  32.5740560  51.4071088  19.1998647  32.0237593
  52.1763899  19.4295072  33.3072508  47.3932519   9.9221092  40.4958638
  47.1493451  10.6763152  39.9592913  47.6692449  10.3006439  41.3305885
  49.3470982  16.4659704  39.1735903  49.5587877  17.1091464  38.4970284
  49.3000730  15.6322021  38.7057833  46.9497210   9.0777525  36.0772475
  46.0881690   9.3758778  36.3689213  46.9759645   9.2947924  35.1453508
  43.7658780  17.6219715  32.4846281  44.2297125  17.9007418  31.6950904
  43.5015578  16.7203160  32.3019372  40.6582861  17.1691197  35.4226044
  41.2284218  17.5978465  34.7843529  41.2490973  16.8873782  36.1210230
  42.7027666  13.7442868  29.2935846  43.4051709  14.1963911  29.7609773
  42.3708294  13.1026687  29.9215739  41.1508027  12.3354624  43.6687056
  40.5206688  13.0170905  43.9022452  41.0444115  12.2237706  42.7240194
  36.4453000  12.0026420  34.5952980  35.6552054  12.2583949  34.1193090
  36.9364247  12.8174758  34.7005020  50.4616809  19.3431660  37.3458261
  51.2834253  18.9411847  37.0640942  50.4579212  19.2399894  38.2974376
  38.3967745  12.3671000  31.5536457  37.5998909  12.4789694  32.0719952
  38.1693338  12.7057652  30.6877347  44.2273413  18.8915703  39.5018971
  44.2917845  19.3536110  40.3377143  43.5184337  18.2613068  39.6301281
  34.7290703  12.2556911  37.0267971  34.9798741  13.1403921  37.2925547
  35.2650251  12.0761512  36.2543062  58.5522803  15.6870408  33.6943232
  57.7986511  15.1177806  33.5387237  58.6870344  15.6533073  34.6413867
  43.9421431  20.5583810  29.3697951  43.8067105  21.4035346  29.7982799
  44.4831243  20.7603088  28.6063885  40.4288770   6.6375390  46.0312307
  40.0355716   6.0841589  46.7059951  41.2454911   6.9485969  46.4218824
  37.3950828  18.0759248  29.9425877  37.9075349  18.8702499  30.0931441
  38.0473541  17.3785539  29.8759478  39.2045713  21.1925005  32.0248630
  39.3812341  22.1142969  31.8369614  40.0002546  20.8783424  32.4543010
  43.3456731   8.0533269  43.6232563  44.0866445   8.6540423  43.5437026
  43.5774654   7.3110907  43.0650606  38.4898069  13.2389637  41.9010793
  38.3751584  12.3374894  42.2017892  37.6342587  13.4853333  41.5495609
  45.5689907  21.1807377  43.4998294  45.1253761  20.3943756  43.1819198
  46.2307121  21.3686527  42.8342184  40.3277028  22.7103179  38.0258972
  40.8784453  22.5820242  37.2535966  39.4888504  23.0098068  37.6753865
  47.6671145  21.4610177  41.5279695  47.6489620  22.2819058  41.0359964
  48.5891065  21.3364252  41.7529836  44.1244199  18.9754306  42.3703203
  44.6572536  18.2142595  42.1402511  43.5958280  18.6827958  43.1127358
  47.2913894   4.0814372  37.8996845  46.9478164   4.9716014  37.8235956
  47.6592857   3.8916030  37.0366430  35.3599745  16.4047903  30.7185447
  36.1974967  16.8144911  30.5019155  35.5378012  15.4647345  30.6885641
  47.2564177  14.0722983  26.4069280  46.7410800  14.8427588  26.6457667
  46.9841485  13.3988120  27.0302341  44.8411288   8.9172684  31.4654518
  43.9852884   8.5279535  31.2860157  45.2538240   8.9964645  30.6054304
  46.3710435   6.4519027  35.8646078  45.8675230   6.4149163  35.0513883
  46.6641041   7.3611770  35.9242735  42.6153320   6.5357757  34.8712260
  43.4806317   6.3400566  34.5118149  42.6830829   6.3068109  35.7981617
  52.2298451  16.8255338  28.3422454  51.4527894  16.4866498  27.8977616
  52.9089932  16.8307961  27.6677419  47.0450480  11.9450076  28.2329061
  46.7400616  12.2596225  29.0839204  47.9980922  12.0231495  28.2756394
  45.4896912  18.1040299  29.8822015  44.9618273  17.3693058  29.5695253
  44.9884415  18.8814975  29.6361984  50.4689758  16.2989319  34.9989061
  49.8113432  16.9888581  35.0869190  51.2730157  16.6885751  35.3423048
  40.2215640   8.7659965  32.2428627  40.7959391   8.5435147  31.5101820
  40.8086622   8.8348660  32.9957228  49.2795217  14.6533692  33.0493003
  49.7927098  15.2863684  33.5514713  49.9296441  14.0534888  32.6836363
  40.5485227  10.7964426  26.2624512  39.7122539  11.1339113  26.5833787
  40.4089996  10.6613406  25.3251649  42.5238307   5.6401214  30.9703696
  41.8702720   5.3250231  30.3460311  42.4818781   5.0176954  31.6963519
  43.6349512  15.9220509  22.8856988  42.7276574  15.6909763  23.0848137
  44.1320544  15.1258128  23.0730970  46.5417591  24.6318016  25.8053674
  45.8679290  24.9349713  26.4138632  46.9283413  25.4347097  25.4559131
  45.7576048  12.1283148  35.2951344  44.8398609  12.3498095  35.1373032
  46.1736191  12.2029458  34.4363051  46.5411095  13.5274563  30.4254024
  47.2882914  14.0395960  30.1161146  46.8102685  13.2058616  31.2858418
  44.8137746  16.0233104  27.4080978  43.9048965  15.7392137  27.5053448
  44.8432829  16.4432183  26.5484285  50.0457013  19.6339693  31.1772146
  49.5919340  18.7930603  31.2337336  49.4150980  20.2701092  31.5146926
  48.9889932  10.5631680  32.4072813  48.2512689  10.0509066  32.7383056
  49.2416706  10.1232061  31.5956090  48.4889952  21.4716190  32.1121964
  48.7812927  22.0321247  31.3934330  48.9988573  21.7644751  32.8675123
  49.0901560   3.3407932  33.0014583  49.3960437   2.4805295  32.7140498
  49.8154165   3.9325552  32.8013577  35.3825916  13.7438618  31.3896181
  35.1850316  13.1507979  30.6647247  34.8272580  13.4390828  32.1072119
  43.3622640  13.6361725  33.5090774  43.4171249  12.6835561  33.4333250
  42.5513842  13.7921164  33.9932072  44.5113833  17.5641848  24.7469057
  44.0733263  16.8477707  24.2874694  45.2524274  17.7917962  24.1854148
  41.3014999  12.2538784  31.2681153  40.4882865  12.5532955  31.6746345
  41.7973994  11.8594473  31.9855635  43.4523577  22.2496541  33.2015417
  43.4099756  22.4757388  32.2723949  44.3686276  22.0159916  33.3501218
  46.8989211  12.7180609  40.0996046  47.2538599  12.9452082  40.9590512
  47.5461342  13.0498986  39.4773302  52.6286948  15.8399045  30.8045375
  52.4904847  16.0300641  29.8766565  52.2723167  16.6018428  31.2613427
  40.7929074   9.8257140  36.8842387  41.4328454   9.6845899  36.1865351
  39.9606605   9.5391653  36.5080989  52.6556328  17.9075572  35.8156647
  53.0892834  17.8150861  36.6639701  53.3687908  17.8833072  35.1776663
  41.5689378  19.1259570  32.9977380  42.3629977  18.6309890  32.7959955
  40.8581071  18.5977433  32.6345086  46.3884223  21.5077666  37.3489748
  46.4421245  22.0768602  38.1167463  45.5199004  21.6779551  36.9843785
  37.8772142  13.2702652  29.0737133  36.9469730  13.2087107  29.2907095
  37.9729614  12.7478605  28.2773774  37.7957691   9.7957465  31.6615374
  38.0564508  10.7102798  31.5524535  38.6174863   9.3281907  31.8111987
  39.2682616  11.2095222  38.8314199  39.9405669  11.0012584  38.1826848
  38.4412403  11.0117308  38.3919431  53.5171877  17.9499272  38.3489532
  53.7107767  18.8545083  38.5948807  53.4172495  17.4906691  39.1828117
  45.1708188   7.8357163  40.8479860  44.5236103   8.5347113  40.7544336
  45.9409203   8.2693307  41.2156108  48.5786986  18.1006015  43.9230413
  48.4272492  17.8716567  43.0060497  48.5691665  19.0576617  43.9361758
  45.3472322  15.6737928  38.9076679  46.2764382  15.8249087  38.7345647
  44.9263352  15.7621949  38.0525326  44.1460654  19.6988592  36.6775217
  44.0071740  19.3307377  37.5501155  43.3575250  20.2136232  36.5059175
  44.7408806  24.7997689  28.0200754  44.9160562  24.3285732  28.8346376
  44.0541594  25.4263455  28.2482014  45.6965869  19.0770195  34.0664055
  45.3615702  19.0370965  34.9621705  45.1969815  18.4114911  33.5934465
  39.6710113  14.4837825  39.5916636  39.5329911  13.7518064  40.1928175
  40.5815037  14.3946725  39.3100824  48.6325061  16.4226229  24.3401114
  48.0154232  15.6973057  24.2434167  48.1641549  17.1835590  23.9968189
  42.2992414  14.1957784  39.0800316  43.0092032  13.5550977  39.0386934
  42.2561722  14.4470679  40.0026496  50.2879193  21.1325138  42.0006895
  50.2291739  20.4484358  41.3337478  50.6898711  21.8744128  41.5487521
  41.0121348  11.1823002  40.8995955  40.4758705  10.7313741  41.5517551
  40.4238056  11.3168911  40.1566419  39.3069891  27.9487051  34.7940614
  39.5466490  28.5805576  35.4719632  38.4639088  27.5975092  35.0805973
  50.2896600  19.0964722  40.2320875  49.4023379  18.7590643  40.3547273
  50.8595151  18.3647753  40.4689640  31.9425747  15.4288813  33.5563926
  32.6296787  15.1150543  32.9684941  31.7873876  16.3330178  33.2831177
  36.7460469  10.3179010  37.9848950  36.6618658   9.7104679  37.2499360
  35.9243176  10.8088028  37.9858446  43.8197753  23.7566174  37.1982118
  43.7467925  24.5621145  37.7101422  43.3775146  23.9558140  36.3730139
  43.6087533  22.9937944  30.7084939  42.8255055  23.5359624  30.8023164
  44.3080278  23.5111924  31.1079180  46.9184183   8.8032573  33.3519145
  47.4152883   8.0502536  33.0320215  46.1471164   8.8396890  32.7862354
  54.7713940  14.5072939  34.9937436  54.7603817  15.3897654  34.6231369
  53.9031320  14.1544490  34.7991973  46.2796437  23.6553008  39.3540276
  46.9924409  24.2900473  39.2816178  45.7886465  23.7516874  38.5380278
  48.0013964  17.5604261  30.9257568  47.0670242  17.6805723  30.7562272
  48.1790632  16.6576727  30.6617578  43.5019152  10.9449956  33.0790829
  43.1316939  10.3920997  33.7671735  43.9978244  10.3408090  32.5265829
  51.3886515  13.4021580  31.4607602  51.8546967  14.2349572  31.3867905
  51.8394016  12.9366561  32.1652861  41.3308350  21.4047451  40.1745847
  42.0317810  22.0383934  40.3275241  40.8603465  21.7462183  39.4141486
  49.4562746  19.7465401  28.4593754  49.7322590  19.6321996  29.3687628
  48.5867245  19.3482886  28.4205927  49.3603178   5.7702167  35.4998504
  48.4466258   6.0006394  35.6680710  49.7896279   5.8540611  36.3512536
  49.1309636  13.9592059  37.9998398  48.4781087  14.2067966  37.3450850
  49.5090016  13.1456197  37.6660875  46.0916810  23.9951752  32.1026568
  46.2739205  23.1773408  32.5654320  46.9149796  24.2119444  31.6651458
  46.4258976  22.9219937  29.3641616  46.9546742  22.4112392  28.7511778
  46.6887195  22.6062467  30.2287149  45.1797209  14.7011870  44.4864435
  44.5037846  14.6005999  45.1566810  46.0024843  14.5451084  44.9500432
  36.9276068  20.9383806  37.1076950  37.5129505  20.1927494  37.2404854
  36.7300907  21.2487763  37.9913614  39.7814724  23.9735054  32.1239392
  39.1125099  24.4581181  31.6403432  39.6427593  24.2204274  33.0382771
  31.5193723  13.5089407  35.8281393  31.5577823  12.9752997  36.6218511
  31.0134016  12.9824612  35.2092370  43.9219992  26.0078797  38.7222051
  44.4738300  26.1710419  39.4871136  44.2626186  26.5983235  38.0502075
  38.8984485   8.3553947  39.3243935  38.9625812   9.2168778  38.9121333
  38.8351606   7.7427949  38.5916294  38.3736758  10.4277080  42.9716970
  39.0008797  10.0454157  43.5854494  37.5164677  10.2091282  43.3372662
  48.7730866  20.8340055  44.5770705  49.3170770  21.4470013  44.0825660
  48.1917711  21.3919633  45.0937718  35.1502301  12.2353509  28.9035324
  35.4455742  11.3264187  28.8502378  34.2490336  12.2141248  28.5816327
  47.0588379  23.9560773  35.7085733  46.9339519  23.1550513  35.1996678
  47.7167471  24.4506966  35.2199703  38.6796548  10.3109505  34.8862873
  37.9583133  10.9245473  34.7470346  39.4689803  10.8467270  34.8079519
  49.1223288  21.7569793  37.3365283  48.1753623  21.6375144  37.2643610
  49.4706061  20.8692291  37.4191544  41.4822861   7.6463932  41.1603525
  42.0057263   7.8926228  41.9229834  41.2635194   8.4783967  40.7406662
  36.8790142   9.9167606  29.0274650  36.5502848   9.0364985  28.8449755
  37.2329513   9.8615275  29.9151039  46.1269721  21.5522509  33.5369635
  45.9794684  20.6239217  33.7177205  46.9523215  21.5742600  33.0526710
  39.9931965  10.2040576  29.3950127  40.3328038  10.7326498  28.6728736
  40.4404086  10.5420982  30.1708694  49.7303843  22.3751068  34.6234508
  50.6550390  22.1693929  34.4858959  49.5619146  22.1267469  35.5323849
  42.6875406   8.5877627  38.8453195  42.3472227   7.7885440  39.2473875
  41.9814413   8.8879338  38.2730028  43.3391878   5.6726939  37.2980518
  44.1617947   5.1987418  37.1759409  43.5829942   6.4517423  37.7979205
  41.9800113   8.7015198  27.5943420  42.7008475   9.0796451  27.0907137
  41.3565417   9.4204075  27.6978398  46.1231235   9.4060347  28.5301752
  46.3394850  10.2884985  28.2290580  45.6425303   9.0146560  27.8007394
  40.8630457  12.3646060  35.1072497  40.7175038  12.6786363  35.9996778
  40.3855660  12.9830960  34.5543396  42.7226840   9.3548608  35.1553386
  42.7088408   8.4589701  34.8185684  43.4399268   9.3619272  35.7891673
  44.5752970   9.7885948  37.2006514  44.3170748  10.7103019  37.1990844
  44.0438011   9.3916383  37.8906978  49.5199159  22.8936735  29.9796599
  49.6936037  22.3283158  29.2270452  50.0128050  23.6937630  29.7976089
  35.3376119  14.9051404  38.0460158  34.7929587  15.6811212  38.1780432
  36.2155469  15.2522209  37.8879280  42.1263736   8.2362988  30.4240957
  42.2479647   7.3079635  30.6231844  41.8365778   8.2501674  29.5119272
  44.9954926   5.9217899  33.5607676  45.0176623   5.9857232  32.6059656
  45.4122985   5.0822407  33.7548183  55.3738550  15.6573158  31.5986899
  55.8169696  14.9080484  31.2006022  54.4965061  15.6483295  31.2160631
  50.5074332  22.2103500  27.0793498  51.2025236  22.8310192  27.2980812
  50.8497482  21.3598851  27.3545875  36.1242141  14.0321301  40.9390315
  35.3823877  14.1803936  41.5254945  35.8034885  14.2929566  40.0757064
  52.4065755  19.6603205  28.6080828  52.9317079  19.9990478  27.8830148
  52.3188107  18.7250221  28.4243963  44.0685803  23.5737279  40.7370705
  44.3772930  23.3286426  41.6093405  44.8661286  23.7783917  40.2489575
  44.0906416  25.7275189  32.9676082  43.6511406  25.2351567  33.6608938
  44.8414532  25.1848156  32.7268157  36.5698755  21.9186729  32.9700710
  37.3956774  21.6190501  32.5899353  36.2192807  21.1494352  33.4190498
  41.5380288  21.2713198  35.0398383  40.9160297  20.6083903  34.7400611
  42.2085155  21.2974330  34.3572031  34.7707360  19.8373056  33.9289643
  33.9339268  19.4095230  33.7473644  34.7431005  20.0305499  34.8660434
  41.6104815   9.7494986  44.6330889  41.6592971  10.6257109  44.2508659
  42.1527329   9.2072379  44.0602532  52.0959661  20.2936109  43.9132026
  51.3055205  20.2760248  43.3736526  51.8593015  20.8324403  44.6681063
  52.2157536  17.1428575  41.2264755  52.2655541  16.9778583  42.1680278
  52.1071459  16.2755834  40.8362636  41.0993795  19.8217121  28.5156844
  41.2481915  20.5052585  27.8623516  41.9060238  19.8022211  29.0306299
  49.5061298  13.1259503  42.5424062  50.4071161  12.9865968  42.2508059
  49.5809273  13.2913958  43.4822239  43.8404104  10.5026358  41.3877248
  42.9707413  10.7959924  41.1159836  44.0763584  11.0866803  42.1084512
  53.7175733  19.5625517  41.4706776  53.4260541  19.9255497  42.3070237
  53.1047864  18.8492525  41.2920108  54.9171415  17.1278397  33.9909347
  55.7518306  17.5668201  34.1546907  55.0530544  16.6517050  33.1717592
  51.9662921  14.6858131  39.9386834  52.4417043  14.8785778  39.1305686
  51.0428486  14.7417317  39.6930218  38.8546428  15.8482299  29.5217913
  38.6092470  14.9444629  29.7198123  39.0242342  15.8499449  28.5797391
  46.5443137   6.7205975  38.9042668  47.0625081   7.4567002  38.5789157
  46.1898270   7.0269968  39.7389427  38.1242075  11.5810656  27.0204074
  37.4311320  11.6555011  26.3644110  37.8793827  10.8171000  27.5425591
  46.7955732   3.1406258  34.4243565  47.0757485   2.4729447  35.0503991
  47.5806339   3.3335353  33.9118229  44.5989200  22.3165251  25.9868591
  44.0263167  22.9355439  25.5339063  45.1721994  22.8664613  26.5208513
  50.6664590  11.5623892  38.1715140  51.6182013  11.6621989  38.1927364
  50.4968040  10.7702160  38.6813224  48.6878969   8.6479475  38.3574541
  48.0928902   8.9284488  37.6621030  48.4028666   9.1373376  39.1291282
  47.8186460  22.6002402  27.1177173  48.7517133  22.5347963  27.3210049
  47.7309673  23.4358668  26.6591706  50.4474477  21.9168272  24.0781121
  50.3688108  21.5828136  24.9716879  51.2684143  22.4090040  24.0772593
  53.1452668  14.7830011  37.2857440  53.1128988  13.8446012  37.4717123
  53.7553291  14.8614048  36.5523265  44.9835999  13.6526064  23.3284644
  45.9295103  13.5232272  23.3973062  44.6050244  12.9140726  23.8054072
  53.2947156  11.5741055  37.3315723  52.7786205  10.7899511  37.1445652
  54.1787105  11.2459771  37.4962242  50.9557883   5.3182070  33.2911535
  50.7582704   5.0097158  34.1754867  51.5657589   6.0443709  33.4209465
  58.9629218  15.8446018  36.4263476  59.6932606  15.5831306  36.9871180
  58.3536163  15.1074740  36.4665544  57.0444515  13.9853881  37.0237928
  56.3177678  13.8509846  36.4154419  56.6291802  14.2930709  37.8294646
  44.8674691  17.7043810  44.7885301  45.7877701  17.8822409  44.9825347
  44.8324274  16.7599856  44.6365000  34.0856856  12.8982404  33.7138575
  33.7659641  12.0447712  33.4212949  33.5390284  13.1130982  34.4696543
  37.8636764  15.6144845  37.4308082  38.0822773  16.5461953  37.4496116
  38.2762538  15.2552819  38.2162886  44.7840982   6.1212930  29.4183770
  43.9741710   5.7760015  29.7939016  45.4725398   5.8120474  30.0071382
  46.7131530   5.1990977  31.0408067  47.2662568   5.6186431  31.6998090
  46.9501616   4.2726725  31.0831023  42.7364629  11.1878051  46.8210831
  42.6361356  12.1372408  46.7522922  42.5186171  10.8596290  45.9486901
  33.9545116  16.5185316  35.6831697  33.2608588  16.1039268  35.1701651
  34.7018107  16.5605852  35.0865116  50.0910337   7.3091502  30.5486731
  49.5109006   7.9676306  30.1664783  49.8246270   6.4868847  30.1374149
  48.5413903   6.7096560  32.7508051  49.0413682   6.8213095  31.9422370
  49.1849511   6.4057613  33.3908860  42.5995899  14.6175190  45.6375892
  42.1162981  15.4175550  45.8439781  42.6856838  14.6283134  44.6843336
  35.8681859  16.4503569  33.5597712  35.8452547  16.5491257  32.6079595
  36.1782495  17.2968720  33.8814878  38.5269237  18.5079724  37.6744326
  39.4812490  18.4763667  37.6074258  38.3281760  18.0470348  38.4894552
  39.1168619  17.0780840  40.2415124  39.9361508  17.5724919  40.2649961
  39.3905426  16.1612809  40.2132691  48.8735215   9.4691593  29.6043079
  47.9861070   9.7541243  29.3863274  49.2889204   9.3085356  28.7570356
  52.2249751   9.4938114  33.3197419  53.0010141   9.9834566  33.5922035
  51.4997885   9.9196168  33.7769288  54.6622310  10.2065733  34.3771359
  55.2566800   9.9661469  33.6664667  54.7348893   9.4872863  35.0044896
  36.8819465  24.0499344  34.6914524  36.7473933  23.2899745  34.1252522
  36.4651528  24.7740244  34.2243313  48.0178428  19.2336267  23.6991099
  48.7214278  19.4386270  24.3148755  47.2941077  19.8013029  23.9640183
  48.8476239  14.9846129  29.8193370  48.7911440  15.4414680  28.9801002
  49.4004581  14.2236813  29.6416212  52.6581045  10.7735860  30.6443489
  52.4017979  10.3732496  31.4751697  52.0333913  11.4879654  30.5193628
  56.9693382  13.5131934  33.1514780  56.4092940  13.5825123  33.9246342
  56.3636886  13.3372918  32.4314277  40.0388591  24.9468661  34.9032967
  39.9220975  25.8914093  34.8011657  39.2181037  24.6442222  35.2918766
  49.9265126  19.6718797  25.7489559  50.7610730  19.2399995  25.5667034
  49.7649469  19.5000810  26.6766454  49.5811018  16.1750910  27.1145899
  49.5259822  16.0095181  26.1734343  48.9557073  16.8826943  27.2708088
  34.3703533  11.4118974  40.9407321  35.0162397  10.9017928  41.4294546
  34.1620684  12.1487656  41.5150746  46.8956925  18.4799822  46.4399461
  47.7648085  18.6540474  46.0786096  46.4163677  19.2994239  46.3175191
  42.8907143   5.6759019  26.6931217  42.8785813   6.6200859  26.8499488
  43.7830565   5.4929164  26.3990678  41.0643105  25.5996923  38.1188895
  41.9670352  25.6320533  38.4355390  40.8380475  24.6697374  38.1335231
  42.8196707  24.3527909  34.7798974  41.8692338  24.3529771  34.6663346
  43.1229194  23.6060644  34.2635008  46.7059263   2.2701796  30.9477154
  45.9391659   1.7160282  31.0933836  47.1169968   2.3423664  31.8091306
  38.7101024   8.5586591  45.0382335  39.5732485   8.2023396  45.2485660
  38.1366435   8.2200486  45.7257739  58.5549401  30.1888448  35.8444736
  59.1927811  30.0695195  35.1408076  58.4370244  31.1369292  35.9032688
  55.3639107  30.1415876  35.7806261  55.0257619  30.0256940  34.8926796
  56.2328875  29.7407041  35.7607267  51.2225923  31.9951352  31.7703152
  50.6590788  31.9041289  31.0019440  51.1078318  31.1751257  32.2505644
  55.8458890  31.2950727  41.7392466  55.8347531  30.9003526  40.8672970
  56.0079530  30.5616800  42.3326238  48.7690355  33.4902544  34.6087372
  49.5611647  33.1493368  34.1933672  49.0087005  33.5997519  35.5289526
  56.8025482  35.6622320  27.0817617  56.1513461  36.2476400  26.6951630
  57.5969844  36.1928515  27.1412654  50.7281109  32.7511457  27.4804751
  51.5011985  32.2040444  27.3417627  51.0806508  33.6155706  27.6919212
  52.5666151  34.0787839  40.6871650  52.2756017  34.9833470  40.5718317
  53.2023136  34.1204367  41.4015720  53.4922358  31.4564688  37.2773010
  54.0885930  31.2320710  36.5629973  53.5497330  30.7149433  37.8798458
  53.0647387  28.9104123  25.1123201  53.3172907  28.3885644  24.3506664
  52.1271946  28.7470269  25.2149885  58.1090669  27.9139902  32.9197944
  58.8953759  27.4959325  32.5688361  58.3729374  28.8185994  33.0879593
  58.2800747  33.3512752  27.6186601  57.6446580  33.4247378  28.3307506
  57.9498153  33.9406351  26.9405680  63.5099096  27.8515135  33.8230923
  64.2424268  27.2814352  34.0568752  62.7538452  27.4636735  34.2637428
  52.7843675  30.8132229  27.3147576  52.6679933  30.1377132  27.9828660
  52.8945935  30.3264603  26.4979729  55.1275216  30.2742376  31.0194265
  54.7633423  29.7472997  31.7307187  55.9842332  29.8840845  30.8460751
  61.0324517  21.5636709  38.2825531  60.7007842  22.4332120  38.0586746
  60.4370130  21.2472993  38.9619562  54.7680703  25.3032276  26.0155614
  54.9355106  26.1712512  26.3826085  54.5777872  25.4659558  25.0916903
  57.5256036  33.7649255  37.6821444  57.2256759  34.6674294  37.5737251
  57.1807096  33.4981438  38.5342597  50.9768518  30.2163052  33.7158148
  50.0519014  30.0839266  33.9235840  51.2252931  30.9957271  34.2128091
  60.9253180  26.2831795  35.3618881  60.0170057  26.2147203  35.0677642
  60.8740776  26.7603740  36.1900707  54.7469924  27.7589933  27.0002280
  54.6269549  28.2046984  27.8387761  54.0522512  28.1075251  26.4415819
  48.3377329  29.8596325  34.5501938  48.4669710  30.1130804  35.4641349
  47.6574780  30.4524033  34.2306593  52.5076816  40.5293575  30.6492412
  52.4300846  41.4801400  30.7280892  51.9038460  40.1839448  31.3067338
  54.9994046  27.7021441  43.3053779  54.2227380  28.2615361  43.2956643
  55.6384609  28.1878224  43.8268649  62.7914827  24.4848233  37.1396755
  62.1489207  24.7780767  36.4936550  62.2869755  24.3701154  37.9449952
  60.4454990  28.2311407  27.8282615  61.3572846  28.4638793  27.6530312
  59.9364637  28.8148451  27.2657693  53.2540418  30.5106894  42.8671746
  53.9955103  31.0491938  42.5906569  52.5477404  31.1373183  43.0243297
  58.7295758  32.6536034  41.4643907  59.1379114  32.2118445  40.7198539
  58.0073019  32.0788662  41.7178100  55.0826828  27.5908641  38.8377464
  55.9288023  28.0148055  38.9812113  55.0225466  26.9342266  39.5316027
  59.0524573  33.2137225  35.2196196  58.4233435  33.3782939  34.5172264
  58.6650235  33.6278835  35.9907160  62.9313804  34.1491663  32.5740560
  62.2464843  34.5290564  32.0237593  63.0157654  34.7586990  33.3072508
  58.2326273  25.2513010  40.4958638  57.9887205  26.0055070  39.9592913
  58.5086204  25.6298357  41.3305885  60.1864736  31.7951622  39.1735903
  60.3981631  32.4383382  38.4970284  60.1394484  30.9613938  38.7057833
  57.7890965  24.4069443  36.0772475  56.9275444  24.7050696  36.3689213
  57.8153400  24.6239841  35.1453508  54.6052534  32.9511633  32.4846281
  55.0690880  33.2299336  31.6950904  54.3409333  32.0495078  32.3019372
  51.4976615  32.4983115  35.4226044  52.0677973  32.9270383  34.7843529
  52.0884727  32.2165699  36.1210230  53.5421420  29.0734786  29.2935846
  54.2445464  29.5255829  29.7609773  53.2102049  28.4318604  29.9215739
  51.9901782  27.6646542  43.6687056  51.3600443  28.3462823  43.9022452
  51.8837870  27.5529624  42.7240194  47.2846754  27.3318338  34.5952980
  46.4945808  27.5875867  34.1193090  47.7758002  28.1466676  34.7005020
  61.3010564  34.6723577  37.3458261  62.1228008  34.2703765  37.0640942
  61.2972967  34.5691812  38.2974376  49.2361500  27.6962917  31.5536457
  48.4392663  27.8081612  32.0719952  49.0087092  28.0349570  30.6877347
  55.0667167  34.2207621  39.5018971  55.1311600  34.6828028  40.3377143
  54.3578091  33.5904986  39.6301281  45.5684457  27.5848829  37.0267971
  45.8192496  28.4695839  37.2925547  46.1044006  27.4053430  36.2543062
  69.3916557  31.0162326  33.6943232  68.6380265  30.4469724  33.5387237
  69.5264098  30.9824990  34.6413867  54.7815185  35.8875728  29.3697951
  54.6460860  36.7327264  29.7982799  55.3224998  36.0895006  28.6063885
  51.2682525  21.9667308  46.0312307  50.8749470  21.4133507  46.7059951
  52.0848665  22.2777886  46.4218824  48.2344582  33.4051166  29.9425877
  48.7469103  34.1994416  30.0931441  48.8867295  32.7077457  29.8759478
  50.0439467  36.5216922  32.0248630  50.2206096  37.4434887  31.8369614
  50.8396301  36.2075342  32.4543010  54.1850486  23.3825187  43.6232563
  54.9260199  23.9832340  43.5437026  54.4168409  22.6402825  43.0650606
  49.3291824  28.5681554  41.9010793  49.2145339  27.6666812  42.2017892
  48.4736341  28.8145251  41.5495609  56.4083661  36.5099295  43.4998294
  55.9647516  35.7235673  43.1819198  57.0700875  36.6978445  42.8342184
  51.1670783  38.0395096  38.0258972  51.7178208  37.9112160  37.2535966
  50.3282259  38.3389985  37.6753865  58.5064900  36.7902095  41.5279695
  58.4883375  37.6110976  41.0359964  59.4284820  36.6656170  41.7529836
  54.9637954  34.3046224  42.3703203  55.4966290  33.5434512  42.1402511
  54.4352035  34.0119876  43.1127358  58.1307649  19.4106290  37.8996845
  57.7871918  20.3007932  37.8235956  58.4986611  19.2207948  37.0366430
  46.1993499  31.7339820  30.7185447  47.0368721  32.1436829  30.5019155
  46.3771767  30.7939263  30.6885641  58.0957931  29.4014901  26.4069280
  57.5804555  30.1719506  26.6457667  57.8235240  28.7280037  27.0302341
  55.6805042  24.2464602  31.4654518  54.8246639  23.8571452  31.2860157
  56.0931994  24.3256563  30.6054304  57.2104189  21.7810945  35.8646078
  56.7068985  21.7441080  35.0513883  57.5034796  22.6903688  35.9242735
  53.4547075  21.8649675  34.8712260  54.3200072  21.6692484  34.5118149
  53.5224584  21.6360027  35.7981617  63.0692205  32.1547256  28.3422454
  62.2921648  31.8158415  27.8977616  63.7483686  32.1599879  27.6677419
  57.8844235  27.2741993  28.2329061  57.5794370  27.5888142  29.0839204
  58.8374677  27.3523413  28.2756394  56.3290666  33.4332217  29.8822015
  55.8012028  32.6984976  29.5695253  55.8278169  34.2106893  29.6361984
  61.3083512  31.6281237  34.9989061  60.6507187  32.3180498  35.0869190
  62.1123912  32.0177669  35.3423048  51.0609394  24.0951883  32.2428627
  51.6353146  23.8727064  31.5101820  51.6480376  24.1640577  32.9957228
  60.1188971  29.9825610  33.0493003  60.6320853  30.6155602  33.5514713
  60.7690195  29.3826805  32.6836363  51.3878981  26.1256344  26.2624512
  50.5516293  26.4631030  26.5833787  51.2483751  25.9905324  25.3251649
  53.3632062  20.9693132  30.9703696  52.7096474  20.6542149  30.3460311
  53.3212536  20.3468872  31.6963519  54.4743267  31.2512427  22.8856988
  53.5670328  31.0201680  23.0848137  54.9714299  30.4550046  23.0730970
  57.3811345  39.9609934  25.8053674  56.7073044  40.2641631  26.4138632
  57.7677167  40.7639014  25.4559131  56.5969802  27.4575065  35.2951344
  55.6792363  27.6790012  35.1373032  57.0129946  27.5321376  34.4363051
  57.3804850  28.8566481  30.4254024  58.1276669  29.3687878  30.1161146
  57.6496439  28.5350534  31.2858418  55.6531500  31.3525022  27.4080978
  54.7442719  31.0684054  27.5053448  55.6826584  31.7724100  26.5484285
  60.8850767  34.9631611  31.1772146  60.4313095  34.1222521  31.2337336
  60.2544734  35.5993010  31.5146926  59.8283687  25.8923597  32.4072813
  59.0906444  25.3800983  32.7383056  60.0810461  25.4523979  31.5956090
  59.3283707  36.8008108  32.1121964  59.6206681  37.3613165  31.3934330
  59.8382327  37.0936669  32.8675123  59.9295314  18.6699849  33.0014583
  60.2354191  17.8097213  32.7140498  60.6547919  19.2617469  32.8013577
  46.2219670  29.0730536  31.3896181  46.0244070  28.4799896  30.6647247
  45.6666334  28.7682746  32.1072119  54.2016394  28.9653642  33.5090774
  54.2565004  28.0127479  33.4333250  53.3907596  29.1213081  33.9932072
  55.3507588  32.8933765  24.7469057  54.9127018  32.1769624  24.2874694
  56.0918029  33.1209880  24.1854148  52.1408754  27.5830702  31.2681153
  51.3276619  27.8824873  31.6746345  52.6367748  27.1886391  31.9855635
  54.2917332  37.5788459  33.2015417  54.2493511  37.8049305  32.2723949
  55.2080031  37.3451834  33.3501218  57.7382966  28.0472526  40.0996046
  58.0932353  28.2744000  40.9590512  58.3855097  28.3790903  39.4773302
  63.4680703  31.1690962  30.8045375  63.3298601  31.3592558  29.8766565
  63.1116921  31.9310345  31.2613427  51.6322829  25.1549058  36.8842387
  52.2722208  25.0137817  36.1865351  50.8000359  24.8683571  36.5080989
  63.4950082  33.2367489  35.8156647  63.9286589  33.1442778  36.6639701
  64.2081663  33.2124990  35.1776663  52.4083133  34.4551488  32.9977380
  53.2023731  33.9601808  32.7959955  51.6974825  33.9269351  32.6345086
  57.2277977  36.8369583  37.3489748  57.2814999  37.4060520  38.1167463
  56.3592758  37.0071469  36.9843785  48.7165896  28.5994570  29.0737133
  47.7863484  28.5379025  29.2907095  48.8123368  28.0770522  28.2773774
  48.6351445  25.1249383  31.6615374  48.8958262  26.0394716  31.5524535
  49.4568617  24.6573825  31.8111987  50.1076370  26.5387140  38.8314199
  50.7799424  26.3304502  38.1826848  49.2806157  26.3409226  38.3919431
  64.3565632  33.2791190  38.3489532  64.5501522  34.1837001  38.5948807
  64.2566250  32.8198609  39.1828117  56.0101942  23.1649081  40.8479860
  55.3629858  23.8639030  40.7544336  56.7802958  23.5985225  41.2156108
  59.4180740  33.4297933  43.9230413  59.2666247  33.2008484  43.0060497
  59.4085420  34.3868534  43.9361758  56.1866077  31.0029846  38.9076679
  57.1158137  31.1541005  38.7345647  55.7657107  31.0913866  38.0525326
  54.9854409  35.0280510  36.6775217  54.8465494  34.6599294  37.5501155
  54.1969005  35.5428149  36.5059175  55.5802561  40.1289606  28.0200754
  55.7554316  39.6577650  28.8346376  54.8935349  40.7555373  28.2482014
  56.5359624  34.4062113  34.0664055  56.2009456  34.3662883  34.9621705
  56.0363569  33.7406829  33.5934465  50.5103868  29.8129743  39.5916636
  50.3723666  29.0809981  40.1928175  51.4208791  29.7238643  39.3100824
  59.4718815  31.7518147  24.3401114  58.8547986  31.0264975  24.2434167
  59.0035304  32.5127507  23.9968189  53.1386168  29.5249702  39.0800316
  53.8485787  28.8842894  39.0386934  53.0955477  29.7762597  40.0026496
  61.1272947  36.4617055  42.0006895  61.0685493  35.7776275  41.3337478
  61.5292465  37.2036045  41.5487521  51.8515102  26.5114920  40.8995955
  51.3152459  26.0605658  41.5517551  51.2631811  26.6460829  40.1566419
  50.1463646  43.2778969  34.7940614  50.3860244  43.9097493  35.4719632
  49.3032842  42.9267009  35.0805973  51.2617361  25.9703571  23.4622419
  50.3846828  25.8492372  23.0984665  51.7375114  25.1789650  23.2101307
  61.1290354  34.4256639  40.2320875  60.2417133  34.0882561  40.3547273
  61.6988905  33.6939670  40.4689640  42.7819501  30.7580731  33.5563926
  43.4690541  30.4442461  32.9684941  42.6267630  31.6622096  33.2831177
  47.5854224  25.6470928  37.9848950  47.5012412  25.0396597  37.2499360
  46.7636930  26.1379946  37.9858446  54.6591508  39.0858092  37.1982118
  54.5861679  39.8913063  37.7101422  54.2168901  39.2850057  36.3730139
  54.4481287  38.3229862  30.7084939  53.6648809  38.8651542  30.8023164
  55.1474033  38.8403841  31.1079180  57.7577937  24.1324491  33.3519145
  58.2546637  23.3794453  33.0320215  56.9864919  24.1688808  32.7862354
  65.6107695  29.8364857  34.9937436  65.5997571  30.7189572  34.6231369
  64.7425074  29.4836407  34.7991973  57.1190191  38.9844926  39.3540276
  57.8318163  39.6192390  39.2816178  56.6280220  39.0808792  38.5380278
  58.8407718  32.8896178  30.9257568  57.9063997  33.0097641  30.7562272
  59.0184387  31.9868645  30.6617578  54.3412906  26.2741874  33.0790829
  53.9710694  25.7212914  33.7671735  54.8371999  25.6700008  32.5265829
  62.2280270  28.7313498  31.4607602  62.6940722  29.5641489  31.3867905
  62.6787770  28.2658479  32.1652861  52.1702105  36.7339369  40.1745847
  52.8711564  37.3675852  40.3275241  51.6997220  37.0754101  39.4141486
  60.2956501  35.0757319  28.4593754  60.5716345  34.9613913  29.3687628
  59.4260999  34.6774804  28.4205927  60.1996932  21.0994085  35.4998504
  59.2860012  21.3298311  35.6680710  60.6290034  21.1832529  36.3512536
  59.9703391  29.2883977  37.9998398  59.3174841  29.5359884  37.3450850
  60.3483771  28.4748115  37.6660875  56.9310565  39.3243670  32.1026568
  57.1132959  38.5065326  32.5654320  57.7543551  39.5411362  31.6651458
  57.2652730  38.2511855  29.3641616  57.7940497  37.7404309  28.7511778
  57.5280950  37.9354385  30.2287149  56.0190964  30.0303788  44.4864435
  55.3431601  29.9297917  45.1566810  56.8418598  29.8743001  44.9500432
  47.7669823  36.2675724  37.1076950  48.3523260  35.5219412  37.2404854
  47.5694661  36.5779681  37.9913614  50.6208478  39.3026972  32.1239392
  49.9518853  39.7873099  31.6403432  50.4821348  39.5496192  33.0382771
  42.3587478  28.8381324  35.8281393  42.3971577  28.3044915  36.6218511
  41.8527770  28.3116530  35.2092370  54.7613747  41.3370715  38.7222051
  55.3132055  41.5002337  39.4871136  55.1019940  41.9275153  38.0502075
  49.7378240  23.6845865  39.3243935  49.8019566  24.5460696  38.9121333
  49.6745360  23.0719867  38.5916294  49.2130512  25.7568997  42.9716970
  49.8402551  25.3746075  43.5854494  48.3558431  25.5383199  43.3372662
  59.6124621  36.1631973  44.5770705  60.1564525  36.7761931  44.0825660
  59.0311466  36.7211551  45.0937718  45.9896055  27.5645427  28.9035324
  46.2849496  26.6556105  28.8502378  45.0884091  27.5433166  28.5816327
  57.8982134  39.2852691  35.7085733  57.7733273  38.4842430  35.1996678
  58.5561225  39.7798884  35.2199703  49.5190302  25.6401423  34.8862873
  48.7976888  26.2537391  34.7470346  50.3083558  26.1759188  34.8079519
  59.9617042  37.0861711  37.3365283  59.0147378  36.9667062  37.2643610
  60.3099815  36.1984209  37.4191544  52.3216616  22.9755850  41.1603525
  52.8451018  23.2218146  41.9229834  52.1028949  23.8075884  40.7406662
  47.7183897  25.2459524  29.0274650  47.3896603  24.3656903  28.8449755
  48.0723267  25.1907193  29.9151039  56.9663476  36.8814427  33.5369635
  56.8188438  35.9531134  33.7177205  57.7916969  36.9034518  33.0526710
  50.8325720  25.5332494  29.3950127  51.1721792  26.0618415  28.6728736
  51.2797840  25.8712900  30.1708694  60.5697597  37.7042986  34.6234508
  61.4944145  37.4985847  34.4858959  60.4012901  37.4559387  35.5323849
  53.5269161  23.9169545  38.8453195  53.1865981  23.1177358  39.2473875
  52.8208167  24.2171256  38.2730028  54.1785633  21.0018857  37.2980518
  55.0011702  20.5279335  37.1759409  54.4223696  21.7809341  37.7979205
  52.8193867  24.0307116  27.5943420  53.5402230  24.4088368  27.0907137
  52.1959171  24.7495992  27.6978398  56.9624990  24.7352265  28.5301752
  57.1788604  25.6176902  28.2290580  56.4819057  24.3438478  27.8007394
  51.7024211  27.6937978  35.1072497  51.5568792  28.0078281  35.9996778
  51.2249415  28.3122878  34.5543396  53.5620594  24.6840526  35.1553386
  53.5482163  23.7881619  34.8185684  54.2793022  24.6911189  35.7891673
  55.4146725  25.1177866  37.2006514  55.1564503  26.0394937  37.1990844
  54.8831765  24.7208300  37.8906978  60.3592914  38.2228653  29.9796599
  60.5329791  37.6575076  29.2270452  60.8521805  39.0229548  29.7976089
  46.1769873  30.2343322  38.0460158  45.6323342  31.0103130  38.1780432
  47.0549223  30.5814127  37.8879280  52.9657490  23.5654906  30.4240957
  53.0873401  22.6371552  30.6231844  52.6759532  23.5793592  29.5119272
  55.8348681  21.2509816  33.5607676  55.8570377  21.3149150  32.6059656
  56.2516740  20.4114325  33.7548183  66.2132305  30.9865076  31.5986899
  66.6563451  30.2372401  31.2006022  65.3358815  30.9775212  31.2160631
  61.3468086  37.5395417  27.0793498  62.0418991  38.1602110  27.2980812
  61.6891236  36.6890769  27.3545875  46.9635895  29.3613218  40.9390315
  46.2217631  29.5095854  41.5254945  46.6428640  29.6221484  40.0757064
  63.2459509  34.9895123  28.6080828  63.7710833  35.3282396  27.8830148
  63.1581862  34.0542138  28.4243963  54.9079558  38.9029197  40.7370705
  55.2166684  38.6578343  41.6093405  55.7055040  39.1075835  40.2489575
  54.9300170  41.0567106  32.9676082  54.4905160  40.5643485  33.6608938
  55.6808287  40.5140074  32.7268157  47.4092509  37.2478647  32.9700710
  48.2350529  36.9482419  32.5899353  47.0586561  36.4786270  33.4190498
  52.3774042  36.6005115  35.0398383  51.7554051  35.9375820  34.7400611
  53.0478909  36.6266247  34.3572031  45.6101114  35.1664974  33.9289643
  44.7733022  34.7387148  33.7473644  45.5824759  35.3597417  34.8660434
  52.4498570  25.0786903  44.6330889  52.4986725  25.9549026  44.2508659
  52.9921084  24.5364296  44.0602532  62.9353415  35.6228027  43.9132026
  62.1448959  35.6052165  43.3736526  62.6986770  36.1616320  44.6681063
  63.0551290  32.4720493  41.2264755  63.1049295  32.3070500  42.1680278
  62.9465214  31.6047752  40.8362636  51.9387549  35.1509039  28.5156844
  52.0875669  35.8344503  27.8623516  52.7453993  35.1314129  29.0306299
  60.3455053  28.4551421  42.5424062  61.2464916  28.3157886  42.2508059
  60.4203027  28.6205876  43.4822239  54.6797858  25.8318276  41.3877248
  53.8101168  26.1251842  41.1159836  54.9157338  26.4158721  42.1084512
  64.5569487  34.8917435  41.4706776  64.2654296  35.2547415  42.3070237
  63.9441619  34.1784443  41.2920108  65.7565170  32.4570314  33.9909347
  66.5912061  32.8960118  34.1546907  65.8924298  31.9808968  33.1717592
  62.8056675  30.0150049  39.9386834  63.2810797  30.2077695  39.1305686
  61.8822241  30.0709235  39.6930218  49.6940182  31.1774216  29.5217913
  49.4486224  30.2736546  29.7198123  49.8636097  31.1791367  28.5797391
  57.3836892  22.0497893  38.9042668  57.9018836  22.7858920  38.5789157
  57.0292025  22.3561886  39.7389427  48.9635830  26.9102574  27.0204074
  48.2705075  26.9846929  26.3644110  48.7187582  26.1462918  27.5425591
  57.6349486  18.4698175  34.4243565  57.9151240  17.8021364  35.0503991
  58.4200093  18.6627271  33.9118229  55.4382955  37.6457169  25.9868591
  54.8656922  38.2647356  25.5339063  56.0115748  38.1956531  26.5208513
  61.5058344  26.8915809  38.1715140  62.4575767  26.9913907  38.1927364
  61.3361795  26.0994078  38.6813224  59.5272724  23.9771392  38.3574541
  58.9322656  24.2576405  37.6621030  59.2422421  24.4665293  39.1291282
  58.6580214  37.9294319  27.1177173  59.5910888  37.8639881  27.3210049
  58.5703427  38.7650586  26.6591706  61.2868231  37.2460190  24.0781121
  61.2081863  36.9120053  24.9716879  62.1077898  37.7381958  24.0772593
  63.9846422  30.1121929  37.2857440  63.9522742  29.1737930  37.4717123
  64.5947046  30.1905966  36.5523265  55.8229753  28.9817982  23.3284644
  56.7688858  28.8524190  23.3973062  55.4443998  28.2432644  23.8054072
  64.1340911  26.9032972  37.3315723  63.6179959  26.1191429  37.1445652
  65.0180859  26.5751689  37.4962242  61.7951638  20.6473988  33.2911535
  61.5976459  20.3389076  34.1754867  62.4051343  21.3735627  33.4209465
  69.8022972  31.1737936  36.4263476  70.5326361  30.9123224  36.9871180
  69.1929918  30.4366658  36.4665544  67.8838269  29.3145798  37.0237928
  67.1571433  29.1801763  36.4154419  67.4685556  29.6222627  37.8294646
  55.7068446  33.0335728  44.7885301  56.6271455  33.2114327  44.9825347
  55.6718029  32.0891773  44.6365000  54.0072670  26.9067958  23.2639529
  53.1004126  26.6101071  23.3402242  54.2848651  26.6097776  22.3973815
  44.9250611  28.2274322  33.7138575  44.6053395  27.3739630  33.4212949
  44.3784039  28.4422900  34.4696543  48.7030518  30.9436763  37.4308082
  48.9216528  31.8753871  37.4496116  49.1156292  30.5844737  38.2162886
  55.6234736  21.4504848  29.4183770  54.8135464  21.1051933  29.7939016
  56.3119153  21.1412392  30.0071382  57.5525284  20.5282895  31.0408067
  58.1056323  20.9478348  31.6998090  57.7895371  19.6018643  31.0831023
  53.5758384  26.5169968  46.8210831  53.4755110  27.4664325  46.7522922
  53.3579926  26.1888207  45.9486901  52.7771455  23.7654894  23.4051508
  53.6390619  24.0909792  23.6647325  52.9621799  22.9786389  22.8924574
  44.7938871  31.8477233  35.6831697  44.1002342  31.4331186  35.1701651
  45.5411862  31.8897770  35.0865116  60.9304091  22.6383420  30.5486731
  60.3502760  23.2968224  30.1664783  60.6640024  21.8160765  30.1374149
  59.3807658  22.0388478  32.7508051  59.8807436  22.1505012  31.9422370
  60.0243266  21.7349531  33.3908860  53.4389654  29.9467107  45.6375892
  52.9556735  30.7467467  45.8439781  53.5250593  29.9575052  44.6843336
  46.7075613  31.7795487  33.5597712  46.6846301  31.8783174  32.6079595
  47.0176250  32.6260638  33.8814878  49.3662991  33.8371642  37.6744326
  50.3206245  33.8055584  37.6074258  49.1675515  33.3762266  38.4894552
  49.9562373  32.4072758  40.2415124  50.7755262  32.9016837  40.2649961
  50.2299181  31.4904726  40.2132691  59.7128969  24.7983510  29.6043079
  58.8254824  25.0833161  29.3863274  60.1282958  24.6377274  28.7570356
  63.0643506  24.8230031  33.3197419  63.8403896  25.3126484  33.5922035
  62.3391640  25.2488086  33.7769288  65.5016064  25.5357651  34.3771359
  66.0960555  25.2953387  33.6664667  65.5742648  24.8164781  35.0044896
  47.7213220  39.3791262  34.6914524  47.5867688  38.6191662  34.1252522
  47.3045282  40.1032161  34.2243313  58.8572183  34.5628185  23.6991099
  59.5608033  34.7678188  24.3148755  58.1334832  35.1304947  23.9640183
  59.6869993  30.3138046  29.8193370  59.6305195  30.7706598  28.9801002
  60.2398336  29.5528731  29.6416212  63.4974799  26.1027778  30.6443489
  63.2411733  25.7024414  31.4751697  62.8727667  26.8171572  30.5193628
  67.8087137  28.8423851  33.1514780  67.2486695  28.9117041  33.9246342
  67.2030640  28.6664836  32.4314277  50.8782346  40.2760579  34.9032967
  50.7614730  41.2206011  34.8011657  50.0574792  39.9734140  35.2918766
  60.7658880  35.0010714  25.7489559  61.6004484  34.5691913  25.5667034
  60.6043223  34.8292728  26.6766454  60.4204772  31.5042828  27.1145899
  60.3653576  31.3387099  26.1734343  59.7950828  32.2118860  27.2708088
  45.2097287  26.7410892  40.9407321  45.8556151  26.2309846  41.4294546
  45.0014439  27.4779574  41.5150746  57.7350680  33.8091739  46.4399461
  58.6041839  33.9832392  46.0786096  57.2557431  34.6286156  46.3175191
  53.7300898  21.0050937  26.6931217  53.7179568  21.9492776  26.8499488
  54.6224320  20.8221082  26.3990678  51.9036860  40.9288840  38.1188895
  52.8064107  40.9612451  38.4355390  51.6774230  39.9989291  38.1335231
  53.6590462  39.6819827  34.7798974  52.7086093  39.6821689  34.6663346
  53.9622948  38.9352562  34.2635008  57.5453017  17.5993713  30.9477154
  56.7785413  17.0452200  31.0933836  57.9563722  17.6715582  31.8091306
  49.5494778  23.8878509  45.0382335  50.4126240  23.5315314  45.2485660
  48.9760189  23.5492404  45.7257739  62.1076279  37.2959226  46.0312307
  61.7143225  36.7425424  46.7059951  62.9242420  37.6069804  46.4218824
  60.1685578  43.8973472  41.9010793  60.0539093  42.9958729  42.2017892
  59.3130096  44.1437169  41.5495609  57.0387254  47.0631738  30.7185447
  57.8762476  47.4728747  30.5019155  57.2165521  46.1231180  30.6885641
  64.2940829  37.1941593  34.8712260  65.1593826  36.9984401  34.5118149
  64.3618338  36.9651944  35.7981617  61.9003148  39.4243800  32.2428627
  62.4746900  39.2018982  31.5101820  62.4874131  39.4932495  32.9957228
  64.2025816  36.2985049  30.9703696  63.5490229  35.9834067  30.3460311
  64.1606290  35.6760790  31.6963519  65.3137021  46.5804344  22.8856988
  64.4064083  46.3493598  23.0848137  65.8108053  45.7841964  23.0730970
  70.7689069  33.9991767  33.0014583  71.0747946  33.1389130  32.7140498
  71.4941674  34.5909387  32.8013577  57.0613425  44.4022453  31.3896181
  56.8637825  43.8091814  30.6647247  56.5060089  44.0974664  32.1072119
  59.5559651  43.9286487  29.0737133  58.6257239  43.8670943  29.2907095
  59.6517123  43.4062440  28.2773774  59.4745200  40.4541300  31.6615374
  59.7352017  41.3686633  31.5524535  60.2962372  39.9865743  31.8111987
  62.1011116  41.2995489  23.4622419  61.2240582  41.1784290  23.0984665
  62.5768869  40.5081567  23.2101307  53.6213256  46.0872649  33.5563926
  54.3084296  45.7734379  32.9684941  53.4661385  46.9914013  33.2831177
  53.1981232  44.1673242  35.8281393  53.2365332  43.6336833  36.6218511
  52.6921525  43.6408448  35.2092370  60.5771994  39.0137783  39.3243935
  60.6413321  39.8752613  38.9121333  60.5139115  38.4011784  38.5916294
  60.0524267  41.0860915  42.9716970  60.6796306  40.7037992  43.5854494
  59.1952186  40.8675117  43.3372662  56.8289810  42.8937344  28.9035324
  57.1243251  41.9848023  28.8502378  55.9277845  42.8725084  28.5816327
  63.1610370  38.3047767  41.1603525  63.6844772  38.5510064  41.9229834
  62.9422703  39.1367802  40.7406662  58.5577651  40.5751442  29.0274650
  58.2290357  39.6948821  28.8449755  58.9117022  40.5199111  29.9151039
  66.6742435  36.5801734  33.5607676  66.6964132  36.6441067  32.6059656
  67.0910494  35.7406243  33.7548183  57.8029650  44.6905136  40.9390315
  57.0611386  44.8387771  41.5254945  57.4822394  44.9513402  40.0757064
  59.8029584  42.2394492  27.0204074  59.1098829  42.3138847  26.3644110
  59.5581336  41.4754835  27.5425591  68.4743241  33.7990093  34.4243565
  68.7544994  33.1313282  35.0503991  69.2593848  33.9919189  33.9118229
  66.6623508  44.3109900  23.3284644  67.6082612  44.1816108  23.3973062
  66.2837753  43.5724561  23.8054072  55.7644365  43.5566239  33.7138575
  55.4447149  42.7031548  33.4212949  55.2177793  43.7714818  34.4696543
  66.4628490  36.7796766  29.4183770  65.6529219  36.4343851  29.7939016
  67.1512907  36.4704309  30.0071382  68.3919039  35.8574813  31.0408067
  68.9450077  36.2770266  31.6998090  68.6289125  34.9310561  31.0831023
  63.6165209  39.0946811  23.4051508  64.4784373  39.4201710  23.6647325
  63.8015554  38.3078307  22.8924574  55.6332625  47.1769151  35.6831697
  54.9396097  46.7623104  35.1701651  56.3805616  47.2189687  35.0865116
  57.5469368  47.1087405  33.5597712  57.5240056  47.2075092  32.6079595
  57.8570004  47.9552555  33.8814878  56.0491042  42.0702810  40.9407321
  56.6949906  41.5601764  41.4294546  55.8408193  42.8071491  41.5150746
  64.5694652  36.3342854  26.6931217  64.5573322  37.2784694  26.8499488
  65.4618074  36.1513000  26.3990678  68.3846772  32.9285631  30.9477154
  67.6179168  32.3744118  31.0933836  68.7957477  33.0007500  31.8091306
  60.3888533  39.2170427  45.0382335  61.2519994  38.8607232  45.2485660
  59.8153944  38.8784321  45.7257739  78.4812991  66.3206155  27.0817617
  77.8300970  66.9060236  26.6951630  79.2757353  66.8512350  27.1412654
  79.9588256  64.0096587  27.6186601  79.3234089  64.0831214  28.3307506
  79.6285662  64.5990186  26.9405680  85.1886605  58.5098970  33.8230923
  85.9211777  57.9398187  34.0568752  84.4325961  58.1220571  34.2637428
  74.1864325  71.1877411  30.6492412  74.1088355  72.1385236  30.7280892
  73.5825969  70.8423283  31.3067338  82.1242499  58.8895242  27.8282615
  83.0360355  59.1222629  27.6530312  81.6152146  59.4732286  27.2657693
  91.0704066  61.6746161  33.6943232  90.3167774  61.1053559  33.5387237
  91.2051607  61.6408826  34.6413867  76.4602694  66.5459563  29.3697951
  76.3248369  67.3911099  29.7982799  77.0012507  66.7478841  28.6063885
  79.7745440  60.0598736  26.4069280  79.2592064  60.8303341  26.6457667
  79.5022749  59.3863873  27.0302341  84.7479714  62.8131091  28.3422454
  83.9709157  62.4742251  27.8977616  85.4271195  62.8183714  27.6677419
  76.1530776  61.9096262  22.8856988  75.2457837  61.6785516  23.0848137
  76.6501808  61.1133881  23.0730970  79.0598854  70.6193769  25.8053674
  78.3860553  70.9225466  26.4138632  79.4464676  71.4222850  25.4559131
  77.0295097  63.5517601  24.7469057  76.5914527  62.8353460  24.2874694
  77.7705538  63.7793715  24.1854148  75.9704841  68.2372294  33.2015417
  75.9281020  68.4633141  32.2723949  76.8867540  68.0035669  33.3501218
  85.1468212  61.8274798  30.8045375  85.0086110  62.0176394  29.8766565
  84.7904430  62.5894181  31.2613427  77.2590070  70.7873442  28.0200754
  77.4341825  70.3161485  28.8346376  76.5722858  71.4139208  28.2482014
  81.1506324  62.4101982  24.3401114  80.5335495  61.6848810  24.2434167
  80.6822813  63.1711343  23.9968189  76.3379017  69.7441927  37.1982118
  76.2649188  70.5496898  37.7101422  75.8956410  69.9433893  36.3730139
  76.1268796  68.9813697  30.7084939  75.3436318  69.5235377  30.8023164
  76.8261542  69.4987677  31.1079180  87.2895204  60.4948692  34.9937436
  87.2785080  61.3773407  34.6231369  86.4212583  60.1420243  34.7991973
  83.9067778  59.3897333  31.4607602  84.3728231  60.2225325  31.3867905
  84.3575279  58.9242315  32.1652861  81.9744010  65.7341154  28.4593754
  82.2503854  65.6197749  29.3687628  81.1048508  65.3358639  28.4205927
  76.4401256  71.9954550  38.7222051  76.9919564  72.1586172  39.4871136
  76.7807449  72.5858988  38.0502075  81.2912130  66.8215808  44.5770705
  81.8352034  67.4345766  44.0825660  80.7098975  67.3795386  45.0937718
  87.8919814  61.6448911  31.5986899  88.3350960  60.8956237  31.2006022
  87.0146324  61.6359048  31.2160631  83.0255595  68.1979253  27.0793498
  83.7206500  68.8185946  27.2980812  83.3678745  67.3474604  27.3545875
  84.9247018  65.6478958  28.6080828  85.4498342  65.9866231  27.8830148
  84.8369371  64.7125974  28.4243963  76.6087679  71.7150942  32.9676082
  76.1692669  71.2227320  33.6608938  77.3595796  71.1723909  32.7268157
  84.6140924  66.2811862  43.9132026  83.8236468  66.2636001  43.3736526
  84.3774279  66.8200156  44.6681063  86.2356996  65.5501270  41.4706776
  85.9441805  65.9131250  42.3070237  85.6229127  64.8368278  41.2920108
  87.4352679  63.1154150  33.9909347  88.2699570  63.5543954  34.1546907
  87.5711807  62.6392803  33.1717592  77.1170464  68.3041004  25.9868591
  76.5444431  68.9231192  25.5339063  77.6903257  68.8540366  26.5208513
  80.3367723  68.5878155  27.1177173  81.2698397  68.5223716  27.3210049
  80.2490936  69.4234421  26.6591706  82.9655740  67.9044025  24.0781121
  82.8869372  67.5703889  24.9716879  83.7865407  68.3965793  24.0772593
  77.5017262  59.6401817  23.3284644  78.4476367  59.5108025  23.3973062
  77.1231507  58.9016479  23.8054072  91.4810481  61.8321771  36.4263476
  92.2113870  61.5707059  36.9871180  90.8717427  61.0950493  36.4665544
  89.5625778  59.9729634  37.0237928  88.8358942  59.8385599  36.4154419
  89.1473065  60.2806462  37.8294646  87.1803573  56.1941486  34.3771359
  87.7748064  55.9537222  33.6664667  87.2530157  55.4748616  35.0044896
  80.5359692  65.2212020  23.6991099  81.2395542  65.4262023  24.3148755
  79.8122341  65.7888782  23.9640183  81.3657502  60.9721882  29.8193370
  81.3092704  61.4290433  28.9801002  81.9185845  60.2112566  29.6416212
  85.1762308  56.7611614  30.6443489  84.9199242  56.3608249  31.4751697
  84.5515176  57.4755407  30.5193628  89.4874646  59.5007687  33.1514780
  88.9274204  59.5700876  33.9246342  88.8818149  59.3248671  32.4314277
  82.4446389  65.6594550  25.7489559  83.2791993  65.2275748  25.5667034
  82.2830732  65.4876563  26.6766454  82.0992281  62.1626663  27.1145899
  82.0441085  61.9970934  26.1734343  81.4738337  62.8702696  27.2708088
  79.4138189  64.4675575  46.4399461  80.2829348  64.6416227  46.0786096
  78.9344940  65.2869992  46.3175191  91.0730664  76.1764201  35.8444736
  91.7109074  76.0570948  35.1408076  90.9551507  77.1245045  35.9032688
  87.8820371  76.1291629  35.7806261  87.5438882  76.0132693  34.8926796
  88.7510139  75.7282794  35.7607267  83.7407186  77.9827105  31.7703152
  83.1772051  77.8917042  31.0019440  83.6259581  77.1627010  32.2505644
  88.3640154  77.2826481  41.7392466  88.3528794  76.8879279  40.8672970
  88.5260793  76.5492553  42.3326238  81.2871618  79.4778297  34.6087372
  82.0792910  79.1369121  34.1933672  81.5268268  79.5873272  35.5289526
  89.3206745  81.6498073  27.0817617  88.6694725  82.2352153  26.6951630
  90.1151108  82.1804268  27.1412654  83.2462372  78.7387210  27.4804751
  84.0193248  78.1916197  27.3417627  83.5987771  79.6031459  27.6919212
  85.0847415  80.0663592  40.6871650  84.7937281  80.9709223  40.5718317
  85.7204399  80.1080120  41.4015720  86.0103622  77.4440441  37.2773010
  86.6067194  77.2196463  36.5629973  86.0678593  76.7025186  37.8798458
  85.5828650  74.8979876  25.1123201  85.8354171  74.3761397  24.3506664
  84.6453209  74.7346022  25.2149885  90.6271933  73.9015655  32.9197944
  91.4135022  73.4835078  32.5688361  90.8910637  74.8061747  33.0879593
  90.7982010  79.3388505  27.6186601  90.1627843  79.4123131  28.3307506
  90.4679417  79.9282104  26.9405680  96.0280360  73.8390888  33.8230923
  96.7605532  73.2690105  34.0568752  95.2719716  73.4512488  34.2637428
  85.3024939  76.8007982  27.3147576  85.1861197  76.1252886  27.9828660
  85.4127199  76.3140356  26.4979729  87.6456480  76.2618129  31.0194265
  87.2814687  75.7348750  31.7307187  88.5023596  75.8716598  30.8460751
  93.5505780  67.5512462  38.2825531  93.2189105  68.4207873  38.0586746
  92.9551394  67.2348746  38.9619562  87.2861967  71.2908029  26.0155614
  87.4536369  72.1588265  26.3826085  87.0959136  71.4535311  25.0916903
  90.0437300  79.7525008  37.6821444  89.7438023  80.6550047  37.5737251
  89.6988359  79.4857191  38.5342597  83.4949781  76.2038805  33.7158148
  82.5700278  76.0715019  33.9235840  83.7434195  76.9833024  34.2128091
  93.4434444  72.2707548  35.3618881  92.5351321  72.2022956  35.0677642
  93.3922039  72.7479493  36.1900707  87.2651188  73.7465686  27.0002280
  87.1450813  74.1922737  27.8387761  86.5703776  74.0951004  26.4415819
  80.8558592  75.8472078  34.5501938  80.9850974  76.1006557  35.4641349
  80.1756044  76.4399786  34.2306593  85.0258080  86.5169328  30.6492412
  84.9482109  87.4677153  30.7280892  84.4219723  86.1715201  31.3067338
  87.5175309  73.6897194  43.3053779  86.7408643  74.2491114  43.2956643
  88.1565872  74.1753977  43.8268649  95.3096090  70.4723986  37.1396755
  94.6670470  70.7656520  36.4936550  94.8051019  70.3576907  37.9449952
  92.9636254  74.2187160  27.8282615  93.8754110  74.4514546  27.6530312
  92.4545901  74.8024204  27.2657693  85.7721682  76.4982647  42.8671746
  86.5136366  77.0367691  42.5906569  85.0658667  77.1248936  43.0243297
  91.2477021  78.6411787  41.4643907  91.6560377  78.1994198  40.7198539
  90.5254283  78.0664415  41.7178100  87.6008091  73.5784394  38.8377464
  88.4469287  74.0023808  38.9812113  87.5406729  72.9218019  39.5316027
  91.5705836  79.2012978  35.2196196  90.9414698  79.3658692  34.5172264
  91.1831498  79.6154588  35.9907160  95.4495068  80.1367416  32.5740560
  94.7646106  80.5166317  32.0237593  95.5338917  80.7462743  33.3072508
  90.7507537  71.2388763  40.4958638  90.5068469  71.9930823  39.9592913
  91.0267467  71.6174110  41.3305885  92.7045999  77.7827375  39.1735903
  92.9162895  78.4259135  38.4970284  92.6575748  76.9489692  38.7057833
  90.3072228  70.3945196  36.0772475  89.4456707  70.6926449  36.3689213
  90.3334663  70.6115594  35.1453508  87.1233798  78.9387386  32.4846281
  87.5872143  79.2175089  31.6950904  86.8590596  78.0370831  32.3019372
  84.0157879  78.4858868  35.4226044  84.5859236  78.9146136  34.7843529
  84.6065991  78.2041452  36.1210230  86.0602684  75.0610539  29.2935846
  86.7626727  75.5131582  29.7609773  85.7283312  74.4194357  29.9215739
  84.5083045  73.6522295  43.6687056  83.8781706  74.3338576  43.9022452
  84.4019133  73.5405377  42.7240194  79.8028018  73.3194091  34.5952980
  79.0127072  73.5751620  34.1193090  80.2939265  74.1342429  34.7005020
  93.8191827  80.6599330  37.3458261  94.6409271  80.2579518  37.0640942
  93.8154230  80.5567565  38.2974376  81.7542763  73.6838670  31.5536457
  80.9573927  73.7957365  32.0719952  81.5268355  74.0225323  30.6877347
  87.5848431  80.2083374  39.5018971  87.6492863  80.6703781  40.3377143
  86.8759355  79.5780739  39.6301281  78.0865721  73.5724582  37.0267971
  78.3373759  74.4571592  37.2925547  78.6225269  73.3929183  36.2543062
 101.9097820  77.0038079  33.6943232 101.1561529  76.4345477  33.5387237
 102.0445362  76.9700743  34.6413867  87.2996449  81.8751481  29.3697951
  87.1642123  82.7203017  29.7982799  87.8406261  82.0770759  28.6063885
  83.7863788  67.9543061  46.0312307  83.3930734  67.4009260  46.7059951
  84.6029929  68.2653639  46.4218824  80.7525846  79.3926919  29.9425877
  81.2650366  80.1870169  30.0931441  81.4048559  78.6953210  29.8759478
  82.5620731  82.5092675  32.0248630  82.7387359  83.4310640  31.8369614
  83.3577564  82.1951095  32.4543010  86.7031749  69.3700940  43.6232563
  87.4441463  69.9708093  43.5437026  86.9349672  68.6278578  43.0650606
  81.8473087  74.5557307  41.9010793  81.7326602  73.6542565  42.2017892
  80.9917605  74.8021004  41.5495609  88.9264925  82.4975048  43.4998294
  88.4828779  81.7111426  43.1819198  89.5882138  82.6854198  42.8342184
  83.6852046  84.0270849  38.0258972  84.2359471  83.8987913  37.2535966
  82.8463522  84.3265738  37.6753865  91.0246163  82.7777848  41.5279695
  91.0064638  83.5986729  41.0359964  91.9466083  82.6531923  41.7529836
  87.4819217  80.2921977  42.3703203  88.0147554  79.5310265  42.1402511
  86.9533298  79.9995629  43.1127358  90.6488912  65.3982043  37.8996845
  90.3053182  66.2883685  37.8235956  91.0167875  65.2083701  37.0366430
  78.7174763  77.7215573  30.7185447  79.5549985  78.1312582  30.5019155
  78.8953030  76.7815016  30.6885641  90.6139195  75.3890654  26.4069280
  90.0985818  76.1595259  26.6457667  90.3416503  74.7155790  27.0302341
  88.1986306  70.2340355  31.4654518  87.3427902  69.8447205  31.2860157
  88.6113258  70.3132316  30.6054304  89.7285452  67.7686698  35.8646078
  89.2250248  67.7316833  35.0513883  90.0216059  68.6779441  35.9242735
  85.9728338  67.8525428  34.8712260  86.8381335  67.6568237  34.5118149
  86.0405847  67.6235780  35.7981617  95.5873469  78.1423009  28.3422454
  94.8102912  77.8034168  27.8977616  96.2664950  78.1475632  27.6677419
  90.4025498  73.2617746  28.2329061  90.0975634  73.5763895  29.0839204
  91.3555940  73.3399166  28.2756394  88.8471930  79.4207970  29.8822015
  88.3193291  78.6860729  29.5695253  88.3459433  80.1982646  29.6361984
  93.8264776  77.6156990  34.9989061  93.1688450  78.3056251  35.0869190
  94.6305175  78.0053422  35.3423048  83.5790657  70.0827636  32.2428627
  84.1534409  69.8602817  31.5101820  84.1661640  70.1516330  32.9957228
  92.6370235  75.9701363  33.0493003  93.1502116  76.6031355  33.5514713
  93.2871459  75.3702558  32.6836363  83.9060245  72.1132097  26.2624512
  83.0697557  72.4506783  26.5833787  83.7665014  71.9781077  25.3251649
  85.8813325  66.9568885  30.9703696  85.2277738  66.6417902  30.3460311
  85.8393799  66.3344625  31.6963519  86.9924530  77.2388180  22.8856988
  86.0851592  77.0077433  23.0848137  87.4895562  76.4425799  23.0730970
  89.8992609  85.9485687  25.8053674  89.2254308  86.2517384  26.4138632
  90.2858431  86.7514767  25.4559131  89.1151066  73.4450818  35.2951344
  88.1973627  73.6665765  35.1373032  89.5311209  73.5197129  34.4363051
  89.8986113  74.8442234  30.4254024  90.6457932  75.3563631  30.1161146
  90.1677703  74.5226287  31.2858418  88.1712763  77.3400775  27.4080978
  87.2623983  77.0559807  27.5053448  88.2007847  77.7599853  26.5484285
  93.4032031  80.9507364  31.1772146  92.9494358  80.1098274  31.2337336
  92.7725998  81.5868763  31.5146926  92.3464950  71.8799350  32.4072813
  91.6087707  71.3676736  32.7383056  92.5991724  71.4399732  31.5956090
  91.8464970  82.7883861  32.1121964  92.1387944  83.3488918  31.3934330
  92.3563591  83.0812422  32.8675123  92.4476578  64.6575602  33.0014583
  92.7535455  63.7972966  32.7140498  93.1729183  65.2493222  32.8013577
  78.7400934  75.0606289  31.3896181  78.5425334  74.4675650  30.6647247
  78.1847598  74.7558499  32.1072119  86.7197658  74.9529395  33.5090774
  86.7746267  74.0003232  33.4333250  85.9088860  75.1088834  33.9932072
  87.8688851  78.8809518  24.7469057  87.4308281  78.1645377  24.2874694
  88.6099292  79.1085633  24.1854148  84.6590017  73.5706455  31.2681153
  83.8457883  73.8700626  31.6746345  85.1549012  73.1762144  31.9855635
  86.8098595  83.5664212  33.2015417  86.7674774  83.7925058  32.2723949
  87.7261294  83.3327587  33.3501218  90.2564229  74.0348280  40.0996046
  90.6113617  74.2619753  40.9590512  90.9036360  74.3666656  39.4773302
  95.9861966  77.1566715  30.8045375  95.8479865  77.3468311  29.8766565
  95.6298185  77.9186098  31.2613427  84.1504092  71.1424811  36.8842387
  84.7903472  71.0013570  36.1865351  83.3181623  70.8559324  36.5080989
  96.0131346  79.2243242  35.8156647  96.4467852  79.1318531  36.6639701
  96.7262926  79.2000743  35.1776663  84.9264396  80.4427241  32.9977380
  85.7204995  79.9477561  32.7959955  84.2156088  79.9145104  32.6345086
  89.7459241  82.8245337  37.3489748  89.7996263  83.3936273  38.1167463
  88.8774022  82.9947222  36.9843785  81.2347160  74.5870323  29.0737133
  80.3044748  74.5254778  29.2907095  81.3304632  74.0646275  28.2773774
  82.6257634  72.5262893  38.8314199  83.2980687  72.3180255  38.1826848
  81.7987420  72.3284979  38.3919431  96.8746895  79.2666943  38.3489532
  97.0682785  80.1712754  38.5948807  96.7747513  78.8074362  39.1828117
  88.5283206  69.1524834  40.8479860  87.8811121  69.8514783  40.7544336
  89.2984221  69.5860978  41.2156108  91.9362004  79.4173686  43.9230413
  91.7847510  79.1884237  43.0060497  91.9266683  80.3744287  43.9361758
  88.7047340  76.9905599  38.9076679  89.6339400  77.1416758  38.7345647
  88.2838370  77.0789619  38.0525326  87.5035672  81.0156263  36.6775217
  87.3646758  80.6475047  37.5501155  86.7150268  81.5303902  36.5059175
  88.0983824  86.1165359  28.0200754  88.2735580  85.6453403  28.8346376
  87.4116612  86.7431126  28.2482014  89.0540887  80.3937866  34.0664055
  88.7190720  80.3538636  34.9621705  88.5544833  79.7282582  33.5934465
  83.0285131  75.8005496  39.5916636  82.8904929  75.0685735  40.1928175
  83.9390055  75.7114396  39.3100824  91.9900079  77.7393900  24.3401114
  91.3729250  77.0140728  24.2434167  91.5216567  78.5003260  23.9968189
  85.6567432  75.5125455  39.0800316  86.3667050  74.8718647  39.0386934
  85.6136740  75.7638350  40.0026496  93.6454211  82.4492808  42.0006895
  93.5866757  81.7652028  41.3337478  94.0473729  83.1911798  41.5487521
  84.3696366  72.4990673  40.8995955  83.8333723  72.0481411  41.5517551
  83.7813074  72.6336582  40.1566419  82.6644909  89.2654722  34.7940614
  82.9041508  89.8973246  35.4719632  81.8214106  88.9142762  35.0805973
  83.7798625  71.9579324  23.4622419  82.9028091  71.8368125  23.0984665
  84.2556378  71.1665403  23.2101307  93.6471618  80.4132392  40.2320875
  92.7598397  80.0758314  40.3547273  94.2170169  79.6815424  40.4689640
  87.1772771  85.0733845  37.1982118  87.1042943  85.8788816  37.7101422
  86.7350164  85.2725810  36.3730139  86.9662551  84.3105615  30.7084939
  86.1830073  84.8527295  30.8023164  87.6655296  84.8279594  31.1079180
  90.2759201  70.1200244  33.3519145  90.7727900  69.3670206  33.0320215
  89.5046182  70.1564561  32.7862354  98.1288958  75.8240610  34.9937436
  98.1178835  76.7065325  34.6231369  97.2606338  75.4712160  34.7991973
  89.6371455  84.9720679  39.3540276  90.3499427  85.6068143  39.2816178
  89.1461483  85.0684545  38.5380278  91.3588982  78.8771931  30.9257568
  90.4245260  78.9973394  30.7562272  91.5365650  77.9744398  30.6617578
  86.8594170  72.2617627  33.0790829  86.4891957  71.7088667  33.7671735
  87.3553262  71.6575761  32.5265829  94.7461533  74.7189251  31.4607602
  95.2121985  75.5517242  31.3867905  95.1969033  74.2534232  32.1652861
  84.6883368  82.7215122  40.1745847  85.3892828  83.3551605  40.3275241
  84.2178483  83.0629854  39.4141486  92.8137764  81.0633072  28.4593754
  93.0897608  80.9489666  29.3687628  91.9442263  80.6650557  28.4205927
  92.7178196  67.0869838  35.4998504  91.8041276  67.3174064  35.6680710
  93.1471297  67.1708282  36.3512536  92.4884654  75.2759730  37.9998398
  91.8356104  75.5235637  37.3450850  92.8665034  74.4623868  37.6660875
  89.4491828  85.3119423  32.1026568  89.6314223  84.4941079  32.5654320
  90.2724814  85.5287115  31.6651458  89.7833994  84.2387608  29.3641616
  90.3121760  83.7280062  28.7511778  90.0462213  83.9230138  30.2287149
  88.5372227  76.0179541  44.4864435  87.8612864  75.9173670  45.1566810
  89.3599861  75.8618754  44.9500432  80.2851086  82.2551477  37.1076950
  80.8704523  81.5095165  37.2404854  80.0875925  82.5655434  37.9913614
  83.1389742  85.2902725  32.1239392  82.4700117  85.7748852  31.6403432
  83.0002611  85.5371945  33.0382771  87.2795010  87.3246468  38.7222051
  87.8313318  87.4878090  39.4871136  87.6201204  87.9150906  38.0502075
  81.7311776  71.7444750  42.9716970  82.3583815  71.3621828  43.5854494
  80.8739695  71.5258952  43.3372662  92.1305884  82.1507726  44.5770705
  92.6745788  82.7637684  44.0825660  91.5492729  82.7087304  45.0937718
  78.5077319  73.5521180  28.9035324  78.8030760  72.6431858  28.8502378
  77.6065354  73.5308919  28.5816327  90.4163397  85.2728444  35.7085733
  90.2914537  84.4718183  35.1996678  91.0742489  85.7674637  35.2199703
  82.0371566  71.6277176  34.8862873  81.3158151  72.2413144  34.7470346
  82.8264821  72.1634941  34.8079519  92.4798306  83.0737464  37.3365283
  91.5328641  82.9542815  37.2643610  92.8281079  82.1859962  37.4191544
  84.8397879  68.9631603  41.1603525  85.3632281  69.2093899  41.9229834
  84.6210212  69.7951637  40.7406662  80.2365160  71.2335277  29.0274650
  79.9077866  70.3532656  28.8449755  80.5904531  71.1782946  29.9151039
  89.4844739  82.8690180  33.5369635  89.3369702  81.9406887  33.7177205
  90.3098233  82.8910271  33.0526710  83.3506983  71.5208247  29.3950127
  83.6903056  72.0494168  28.6728736  83.7979104  71.8588653  30.1708694
  93.0878861  83.6918739  34.6234508  94.0125408  83.4861600  34.4858959
  92.9194164  83.4435140  35.5323849  86.0450424  69.9045298  38.8453195
  85.7047245  69.1053111  39.2473875  85.3389430  70.2047009  38.2730028
  86.6966896  66.9894610  37.2980518  87.5192965  66.5155088  37.1759409
  86.9404960  67.7685094  37.7979205  85.3375131  70.0182869  27.5943420
  86.0583493  70.3964121  27.0907137  84.7140435  70.7371745  27.6978398
  89.4806253  70.7228018  28.5301752  89.6969868  71.6052655  28.2290580
  89.0000321  70.3314231  27.8007394  84.2205475  73.6813731  35.1072497
  84.0750056  73.9954034  35.9996778  83.7430678  74.2998631  34.5543396
  86.0801858  70.6716279  35.1553386  86.0663426  69.7757372  34.8185684
  86.7974286  70.6786943  35.7891673  87.9327988  71.1053619  37.2006514
  87.6745766  72.0270690  37.1990844  87.4013029  70.7084054  37.8906978
  92.8774177  84.2104406  29.9796599  93.0511055  83.6450829  29.2270452
  93.3703068  85.0105301  29.7976089  78.6951137  76.2219075  38.0460158
  78.1504605  76.9978883  38.1780432  79.5730487  76.5689880  37.8879280
  85.4838754  69.5530659  30.4240957  85.6054665  68.6247305  30.6231844
  85.1940796  69.5669345  29.5119272  88.3529944  67.2385569  33.5607676
  88.3751641  67.3024903  32.6059656  88.7698003  66.3990078  33.7548183
  98.7313568  76.9740829  31.5986899  99.1744714  76.2248154  31.2006022
  97.8540079  76.9650965  31.2160631  93.8649350  83.5271171  27.0793498
  94.5600254  84.1477863  27.2980812  94.2072500  82.6766522  27.3545875
  79.4817159  75.3488971  40.9390315  78.7398895  75.4971607  41.5254945
  79.1609903  75.6097237  40.0757064  95.7640773  80.9770876  28.6080828
  96.2892097  81.3158149  27.8830148  95.6763125  80.0417891  28.4243963
  87.4260821  84.8904950  40.7370705  87.7347948  84.6454096  41.6093405
  88.2236303  85.0951588  40.2489575  87.4481433  87.0442859  32.9676082
  87.0086424  86.5519238  33.6608938  88.1989550  86.5015827  32.7268157
  79.9273772  83.2354400  32.9700710  80.7531792  82.9358172  32.5899353
  79.5767824  82.4662023  33.4190498  84.8955306  82.5880868  35.0398383
  84.2735315  81.9251573  34.7400611  85.5660173  82.6142000  34.3572031
  78.1282378  81.1540727  33.9289643  77.2914286  80.7262901  33.7473644
  78.1006023  81.3473170  34.8660434  84.9679833  71.0662656  44.6330889
  85.0167989  71.9424779  44.2508659  85.5102347  70.5240049  44.0602532
  95.4534679  81.6103780  43.9132026  94.6630223  81.5927919  43.3736526
  95.2168033  82.1492073  44.6681063  95.5732554  78.4596246  41.2264755
  95.6230559  78.2946253  42.1680278  95.4646477  77.5923505  40.8362636
  84.4568813  81.1384792  28.5156844  84.6056933  81.8220256  27.8623516
  85.2635256  81.1189882  29.0306299  92.8636316  74.4427174  42.5424062
  93.7646179  74.3033639  42.2508059  92.9384291  74.6081629  43.4822239
  87.1979122  71.8194029  41.3877248  86.3282431  72.1127595  41.1159836
  87.4338602  72.4034474  42.1084512  97.0750751  80.8793188  41.4706776
  96.7835559  81.2423168  42.3070237  96.4622882  80.1660196  41.2920108
  98.2746433  78.4446067  33.9909347  99.1093324  78.8835871  34.1546907
  98.4105562  77.9684721  33.1717592  95.3237939  76.0025802  39.9386834
  95.7992061  76.1953448  39.1305686  94.4003504  76.0584988  39.6930218
  82.2121446  77.1649969  29.5217913  81.9667487  76.2612299  29.7198123
  82.3817360  77.1667120  28.5797391  89.9018155  68.0373646  38.9042668
  90.4200099  68.7734673  38.5789157  89.5473288  68.3437639  39.7389427
  81.4817093  72.8978327  27.0204074  80.7886338  72.9722682  26.3644110
  81.2368845  72.1338671  27.5425591  90.1530750  64.4573928  34.4243565
  90.4332503  63.7897117  35.0503991  90.9381357  64.6503024  33.9118229
  87.9564218  83.6332922  25.9868591  87.3838185  84.2523109  25.5339063
  88.5297012  84.1832284  26.5208513  94.0239608  72.8791562  38.1715140
  94.9757031  72.9789660  38.1927364  93.8543058  72.0869831  38.6813224
  92.0453987  69.9647145  38.3574541  91.4503920  70.2452158  37.6621030
  91.7603684  70.4541046  39.1291282  91.1761478  83.9170072  27.1177173
  92.1092151  83.8515634  27.3210049  91.0884691  84.7526339  26.6591706
  93.8049495  83.2335943  24.0781121  93.7263126  82.8995806  24.9716879
  94.6259161  83.7257711  24.0772593  96.5027686  76.0997682  37.2857440
  96.4704006  75.1613683  37.4717123  97.1128309  76.1781719  36.5523265
  88.3411017  74.9693735  23.3284644  89.2870121  74.8399943  23.3973062
  87.9625262  74.2308397  23.8054072  96.6522174  72.8908725  37.3315723
  96.1361223  72.1067182  37.1445652  97.5362123  72.5627442  37.4962242
  94.3132901  66.6349741  33.2911535  94.1157722  66.3264829  34.1754867
  94.9232607  67.3611380  33.4209465 102.3204236  77.1613689  36.4263476
 103.0507624  76.8998977  36.9871180 101.7111181  76.4242411  36.4665544
 100.4019533  75.3021551  37.0237928  99.6752696  75.1677516  36.4154419
  99.9866820  75.6098380  37.8294646  88.2249709  79.0211481  44.7885301
  89.1452719  79.1990080  44.9825347  88.1899292  78.0767526  44.6365000
  86.5253934  72.8943711  23.2639529  85.6185389  72.5976824  23.3402242
  86.8029915  72.5973529  22.3973815  81.2211782  76.9312516  37.4308082
  81.4397791  77.8629624  37.4496116  81.6337555  76.5720490  38.2162886
  88.1415999  67.4380601  29.4183770  87.3316728  67.0927686  29.7939016
  88.8300416  67.1288145  30.0071382  90.0706548  66.5158648  31.0408067
  90.6237586  66.9354101  31.6998090  90.3076634  65.5894396  31.0831023
  86.0939647  72.5045721  46.8210831  85.9936374  73.4540078  46.7522922
  85.8761189  72.1763960  45.9486901  85.2952718  69.7530647  23.4051508
  86.1571882  70.0785545  23.6647325  85.4803063  68.9662142  22.8924574
  93.4485355  68.6259173  30.5486731  92.8684024  69.2843977  30.1664783
  93.1821288  67.8036518  30.1374149  91.8988921  68.0264231  32.7508051
  92.3988700  68.1380765  31.9422370  92.5424529  67.7225284  33.3908860
  85.9570917  75.9342860  45.6375892  85.4737999  76.7343220  45.8439781
  86.0431856  75.9450805  44.6843336  79.2256877  77.7671240  33.5597712
  79.2027565  77.8658927  32.6079595  79.5357513  78.6136391  33.8814878
  81.8844255  79.8247395  37.6744326  82.8387508  79.7931337  37.6074258
  81.6856778  79.3638019  38.4894552  82.4743637  78.3948511  40.2415124
  83.2936526  78.8892590  40.2649961  82.7480444  77.4780479  40.2132691
  92.2310233  70.7859263  29.6043079  91.3436088  71.0708914  29.3863274
  92.6464222  70.6253027  28.7570356  95.5824769  70.8105784  33.3197419
  96.3585159  71.3002237  33.5922035  94.8572903  71.2363839  33.7769288
  98.0197328  71.5233404  34.3771359  98.6141818  71.2829140  33.6664667
  98.0923911  70.8040534  35.0044896  80.2394483  85.3667015  34.6914524
  80.1048951  84.6067415  34.1252522  79.8226546  86.0907914  34.2243313
  91.3753446  80.5503938  23.6991099  92.0789296  80.7553941  24.3148755
  90.6516095  81.1180700  23.9640183  92.2051257  76.3013799  29.8193370
  92.1486458  76.7582351  28.9801002  92.7579599  75.5404484  29.6416212
  96.0156063  72.0903531  30.6443489  95.7592997  71.6900167  31.4751697
  95.3908931  72.8047325  30.5193628 100.3268400  74.8299604  33.1514780
  99.7667958  74.8992794  33.9246342  99.7211904  74.6540589  32.4314277
  83.3963609  86.2636332  34.9032967  83.2795993  87.2081764  34.8011657
  82.5756055  85.9609893  35.2918766  93.2840144  80.9886467  25.7489559
  94.1185748  80.5567666  25.5667034  93.1224487  80.8168481  26.6766454
  92.9386036  77.4918581  27.1145899  92.8834840  77.3262852  26.1734343
  92.3132091  78.1994613  27.2708088  77.7278551  72.7286645  40.9407321
  78.3737414  72.2185599  41.4294546  77.5195702  73.4655327  41.5150746
  90.2531943  79.7967492  46.4399461  91.1223103  79.9708145  46.0786096
  89.7738695  80.6161909  46.3175191  86.2482161  66.9926690  26.6931217
  86.2360831  67.9368529  26.8499488  87.1405583  66.8096835  26.3990678
  84.4218123  86.9164593  38.1188895  85.3245370  86.9488204  38.4355390
  84.1955493  85.9865044  38.1335231  86.1771725  85.6695580  34.7798974
  85.2267356  85.6697442  34.6663346  86.4804211  84.9228315  34.2635008
  90.0634281  63.5869466  30.9477154  89.2966677  63.0327953  31.0933836
  90.4744986  63.6591335  31.8091306  82.0676042  69.8754262  45.0382335
  82.9307503  69.5191067  45.2485660  81.4941453  69.5368157  45.7257739
 101.9124419  91.5056118  35.8444736 102.5502829  91.3862866  35.1408076
 101.7945262  92.4536962  35.9032688  98.7214125  91.4583546  35.7806261
  98.3832637  91.3424611  34.8926796  99.5903893  91.0574712  35.7607267
  94.5800941  93.3119023  31.7703152  94.0165806  93.2208960  31.0019440
  94.4653336  92.4918927  32.2505644  99.2033908  92.6118398  41.7392466
  99.1922549  92.2171196  40.8672970  99.3654548  91.8784471  42.3326238
  92.1265373  94.8070214  34.6087372  92.9186665  94.4661039  34.1933672
  92.3662023  94.9165190  35.5289526 100.1600500  96.9789991  27.0817617
  99.5088479  97.5644071  26.6951630 100.9544862  97.5096186  27.1412654
  94.0856127  94.0679128  27.4804751  94.8587003  93.5208115  27.3417627
  94.4381526  94.9323377  27.6919212  95.9241169  95.3955510  40.6871650
  95.6331035  96.3001141  40.5718317  96.5598154  95.4372038  41.4015720
  96.8497376  92.7732359  37.2773010  97.4460948  92.5488381  36.5629973
  96.9072348  92.0317104  37.8798458  96.4222404  90.2271794  25.1123201
  96.6747925  89.7053315  24.3506664  95.4846964  90.0637939  25.2149885
 101.4665687  89.2307572  32.9197944 102.2528777  88.8126995  32.5688361
 101.7304392  90.1353664  33.0879593 101.6375765  94.6680423  27.6186601
 101.0021598  94.7415049  28.3307506 101.3073171  95.2574021  26.9405680
 106.8674114  89.1682805  33.8230923 107.5999286  88.5982022  34.0568752
 106.1113470  88.7804406  34.2637428  96.1418693  92.1299900  27.3147576
  96.0254951  91.4544803  27.9828660  96.2520953  91.6432274  26.4979729
  98.4850234  91.5910047  31.0194265  98.1208441  91.0640668  31.7307187
  99.3417350  91.2008516  30.8460751 104.3899535  82.8804380  38.2825531
 104.0582860  83.7499790  38.0586746 103.7945148  82.5640664  38.9619562
  98.1255721  86.6199947  26.0155614  98.2930123  87.4880183  26.3826085
  97.9352890  86.7827228  25.0916903 100.8831054  95.0816926  37.6821444
 100.5831777  95.9841964  37.5737251 100.5382114  94.8149109  38.5342597
  94.3343536  91.5330722  33.7158148  93.4094032  91.4006936  33.9235840
  94.5827949  92.3124942  34.2128091 104.2828198  87.5999466  35.3618881
 103.3745075  87.5314874  35.0677642 104.2315794  88.0771411  36.1900707
  98.1044942  89.0757604  27.0002280  97.9844567  89.5214655  27.8387761
  97.4097530  89.4242922  26.4415819  91.6952347  91.1763996  34.5501938
  91.8244728  91.4298475  35.4641349  91.0149798  91.7691704  34.2306593
  95.8651834 101.8461246  30.6492412  95.7875864 102.7969071  30.7280892
  95.2613478 101.5007118  31.3067338  98.3569064  89.0189111  43.3053779
  97.5802398  89.5783031  43.2956643  98.9959627  89.5045894  43.8268649
 106.1489845  85.8015904  37.1396755 105.5064225  86.0948437  36.4936550
 105.6444773  85.6868824  37.9449952 103.8030008  89.5479077  27.8282615
 104.7147864  89.7806464  27.6530312 103.2939655  90.1316122  27.2657693
  96.6115436  91.8274565  42.8671746  97.3530121  92.3659609  42.5906569
  95.9052422  92.4540853  43.0243297 102.0870776  93.9703705  41.4643907
 102.4954132  93.5286116  40.7198539 101.3648037  93.3956333  41.7178100
  98.4401846  88.9076312  38.8377464  99.2863041  89.3315725  38.9812113
  98.3800484  88.2509936  39.5316027 102.4099590  94.5304896  35.2196196
 101.7808453  94.6950610  34.5172264 102.0225253  94.9446505  35.9907160
 106.2888822  95.4659334  32.5740560 105.6039861  95.8458235  32.0237593
 106.3732672  96.0754660  33.3072508 101.5901291  86.5680680  40.4958638
 101.3462223  87.3222741  39.9592913 101.8661222  86.9466028  41.3305885
 103.5439754  93.1119293  39.1735903 103.7556649  93.7551053  38.4970284
 103.4969502  92.2781609  38.7057833 101.1465983  85.7237113  36.0772475
 100.2850462  86.0218367  36.3689213 101.1728418  85.9407512  35.1453508
  97.9627552  94.2679304  32.4846281  98.4265898  94.5467007  31.6950904
  97.6984350  93.3662748  32.3019372  94.8551633  93.8150785  35.4226044
  95.4252990  94.2438054  34.7843529  95.4459745  93.5333370  36.1210230
  96.8996438  90.3902456  29.2935846  97.6020482  90.8423500  29.7609773
  96.5677067  89.7486275  29.9215739  95.3476800  88.9814213  43.6687056
  94.7175461  89.6630494  43.9022452  95.2412888  88.8697294  42.7240194
  90.6421772  88.6486009  34.5952980  89.8520826  88.9043537  34.1193090
  91.1333020  89.4634347  34.7005020 104.6585582  95.9891248  37.3458261
 105.4803026  95.5871435  37.0640942 104.6547985  95.8859482  38.2974376
  92.5936518  89.0130588  31.5536457  91.7967681  89.1249282  32.0719952
  92.3662110  89.3517240  30.6877347  98.4242185  95.5375291  39.5018971
  98.4886618  95.9995699  40.3377143  97.7153109  94.9072656  39.6301281
  88.9259475  88.9016499  37.0267971  89.1767514  89.7863509  37.2925547
  89.4619024  88.7221101  36.2543062 112.7491575  92.3329997  33.6943232
 111.9955283  91.7637395  33.5387237 112.8839116  92.2992661  34.6413867
  98.1390203  97.2043399  29.3697951  98.0035878  98.0494935  29.7982799
  98.6800016  97.4062676  28.6063885  94.6257543  83.2834979  46.0312307
  94.2324488  82.7301177  46.7059951  95.4423683  83.5945557  46.4218824
  91.5919600  94.7218837  29.9425877  92.1044121  95.5162087  30.0931441
  92.2442313  94.0245127  29.8759478  93.4014485  97.8384593  32.0248630
  93.5781113  98.7602558  31.8369614  94.1971319  97.5243012  32.4543010
  97.5425504  84.6992858  43.6232563  98.2835217  85.3000011  43.5437026
  97.7743426  83.9570496  43.0650606  92.6866842  89.8849225  41.9010793
  92.5720357  88.9834482  42.2017892  91.8311359  90.1312922  41.5495609
  99.7658679  97.8266965  43.4998294  99.3222534  97.0403344  43.1819198
 100.4275893  98.0146116  42.8342184  94.5245801  99.3562767  38.0258972
  95.0753226  99.2279830  37.2535966  93.6857276  99.6557656  37.6753865
 101.8639917  98.1069765  41.5279695 101.8458393  98.9278646  41.0359964
 102.7859838  97.9823840  41.7529836  98.3212972  95.6213895  42.3703203
  98.8541308  94.8602183  42.1402511  97.7927053  95.3287547  43.1127358
 101.4882667  80.7273961  37.8996845 101.1446936  81.6175602  37.8235956
 101.8561629  80.5375618  37.0366430  89.5568517  93.0507491  30.7185447
  90.3943739  93.4604500  30.5019155  89.7346785  92.1106933  30.6885641
 101.4532949  90.7182572  26.4069280 100.9379573  91.4887176  26.6457667
 101.1810258  90.0447708  27.0302341  99.0380060  85.5632273  31.4654518
  98.1821657  85.1739123  31.2860157  99.4507012  85.6424233  30.6054304
 100.5679207  83.0978616  35.8646078 100.0644003  83.0608751  35.0513883
 100.8609814  84.0071359  35.9242735  96.8122093  83.1817346  34.8712260
  97.6775090  82.9860154  34.5118149  96.8799602  82.9527697  35.7981617
 106.4267223  93.4714926  28.3422454 105.6496666  93.1326086  27.8977616
 107.1058704  93.4767550  27.6677419 101.2419252  88.5909664  28.2329061
 100.9369388  88.9055813  29.0839204 102.1949695  88.6691084  28.2756394
  99.6865684  94.7499887  29.8822015  99.1587046  94.0152647  29.5695253
  99.1853187  95.5274564  29.6361984 104.6658530  92.9448908  34.9989061
 104.0082205  93.6348169  35.0869190 105.4698930  93.3345340  35.3423048
  94.4184412  85.4119554  32.2428627  94.9928164  85.1894735  31.5101820
  95.0055394  85.4808248  32.9957228 103.4763989  91.2993280  33.0493003
 103.9895871  91.9323272  33.5514713 104.1265213  90.6994476  32.6836363
  94.7453999  87.4424015  26.2624512  93.9091311  87.7798701  26.5833787
  94.6058769  87.3072994  25.3251649  96.7207080  82.2860802  30.9703696
  96.0671492  81.9709820  30.3460311  96.6787554  81.6636543  31.6963519
  97.8318285  92.5680097  22.8856988  96.9245346  92.3369351  23.0848137
  98.3289316  91.7717717  23.0730970  99.9544820  88.7742736  35.2951344
  99.0367381  88.9957683  35.1373032 100.3704964  88.8489046  34.4363051
 100.7379868  90.1734152  30.4254024 101.4851687  90.6855549  30.1161146
 101.0071457  89.8518204  31.2858418  99.0106518  92.6692692  27.4080978
  98.1017737  92.3851725  27.5053448  99.0401602  93.0891771  26.5484285
 104.2425785  96.2799282  31.1772146 103.7888112  95.4390192  31.2337336
 103.6119752  96.9160680  31.5146926 103.1858705  87.2091268  32.4072813
 102.4481462  86.6968654  32.7383056 103.4385478  86.7691649  31.5956090
 102.6858725  98.1175779  32.1121964 102.9781699  98.6780836  31.3934330
 103.1957345  98.4104340  32.8675123 103.2870332  79.9867520  33.0014583
 103.5929209  79.1264883  32.7140498 104.0122937  80.5785140  32.8013577
  89.5794688  90.3898206  31.3896181  89.3819088  89.7967567  30.6647247
  89.0241352  90.0850417  32.1072119  97.5591412  90.2821313  33.5090774
  97.6140022  89.3295149  33.4333250  96.7482614  90.4380752  33.9932072
  98.7082606  94.2101436  24.7469057  98.2702036  93.4937295  24.2874694
  99.4493047  94.4377551  24.1854148  95.4983772  88.8998373  31.2681153
  94.6851637  89.1992543  31.6746345  95.9942766  88.5054061  31.9855635
  97.6492350  98.8956130  33.2015417  97.6068529  99.1216976  32.2723949
  98.5655049  98.6619504  33.3501218 101.0957984  89.3640197  40.0996046
 101.4507371  89.5911670  40.9590512 101.7430115  89.6958574  39.4773302
 106.8255721  92.4858633  30.8045375 106.6873619  92.6760229  29.8766565
 106.4691939  93.2478016  31.2613427  94.9897847  86.4716728  36.8842387
  95.6297226  86.3305487  36.1865351  94.1575377  86.1851242  36.5080989
 106.8525100  94.5535160  35.8156647 107.2861607  94.4610449  36.6639701
 107.5656681  94.5292661  35.1776663  95.7658151  95.7719159  32.9977380
  96.5598749  95.2769479  32.7959955  95.0549843  95.2437022  32.6345086
 100.5852995  98.1537254  37.3489748 100.6390017  98.7228190  38.1167463
  99.7167776  98.3239139  36.9843785  92.0740914  89.9162240  29.0737133
  91.1438502  89.8546696  29.2907095  92.1698386  89.3938193  28.2773774
  91.9926463  86.4417053  31.6615374  92.2533280  87.3562386  31.5524535
  92.8143635  85.9741496  31.8111987  93.4651388  87.8554810  38.8314199
  94.1374442  87.6472173  38.1826848  92.6381175  87.6576896  38.3919431
 107.7140650  94.5958861  38.3489532 107.9076540  95.5004671  38.5948807
 107.6141268  94.1366280  39.1828117  99.3676960  84.4816751  40.8479860
  98.7204875  85.1806701  40.7544336 100.1377976  84.9152895  41.2156108
 102.7755758  94.7465603  43.9230413 102.6241265  94.5176155  43.0060497
 102.7660438  95.7036205  43.9361758  99.5441095  92.3197516  38.9076679
 100.4733155  92.4708676  38.7345647  99.1232125  92.4081537  38.0525326
  98.3429427  96.3448181  36.6775217  98.2040512  95.9766965  37.5501155
  97.5544023  96.8595820  36.5059175  98.9377579 101.4457277  28.0200754
  99.1129334 100.9745320  28.8346376  98.2510367 102.0723043  28.2482014
  99.8934642  95.7229783  34.0664055  99.5584474  95.6830553  34.9621705
  99.3938587  95.0574499  33.5934465  93.8678886  91.1297413  39.5916636
  93.7298684  90.3977652  40.1928175  94.7783809  91.0406313  39.3100824
 102.8293833  93.0685818  24.3401114 102.2123004  92.3432646  24.2434167
 102.3610322  93.8295178  23.9968189  96.4961186  90.8417373  39.0800316
  97.2060805  90.2010565  39.0386934  96.4530495  91.0930268  40.0026496
 104.4847965  97.7784726  42.0006895 104.4260511  97.0943946  41.3337478
 104.8867483  98.5203716  41.5487521  95.2090120  87.8282591  40.8995955
  94.6727477  87.3773329  41.5517551  94.6206829  87.9628499  40.1566419
  93.5038664 104.5946640  34.7940614  93.7435262 105.2265164  35.4719632
  92.6607860 104.2434680  35.0805973  94.6192379  87.2871242  23.4622419
  93.7421846  87.1660043  23.0984665  95.0950132  86.4957320  23.2101307
 104.4865372  95.7424310  40.2320875 103.5992151  95.4050232  40.3547273
 105.0563923  95.0107341  40.4689640  86.1394519  92.0748402  33.5563926
  86.8265559  91.7610132  32.9684941  85.9842648  92.9789766  33.2831177
  90.9429242  86.9638598  37.9848950  90.8587430  86.3564268  37.2499360
  90.1211948  87.4547617  37.9858446  98.0166526 100.4025762  37.1982118
  97.9436697 101.2080734  37.7101422  97.5743919 100.6017728  36.3730139
  97.8056305  99.6397532  30.7084939  97.0223827 100.1819213  30.8023164
  98.5049050 100.1571512  31.1079180 101.1152955  85.4492162  33.3519145
 101.6121655  84.6962124  33.0320215 100.3439937  85.4856478  32.7862354
 108.9682713  91.1532527  34.9937436 108.9572589  92.0357243  34.6231369
 108.1000092  90.8004078  34.7991973 100.4765209 100.3012596  39.3540276
 101.1893181 100.9360061  39.2816178  99.9855238 100.3976462  38.5380278
 102.1982736  94.2063849  30.9257568 101.2639015  94.3265311  30.7562272
 102.3759405  93.3036316  30.6617578  97.6987924  87.5909545  33.0790829
  97.3285712  87.0380585  33.7671735  98.1947017  86.9867678  32.5265829
 105.5855287  90.0481168  31.4607602 106.0515740  90.8809160  31.3867905
 106.0362788  89.5826150  32.1652861  95.5277123  98.0507040  40.1745847
  96.2286582  98.6843523  40.3275241  95.0572238  98.3921771  39.4141486
 103.6531519  96.3924990  28.4593754 103.9291362  96.2781584  29.3687628
 102.7836017  95.9942474  28.4205927 103.5571950  82.4161755  35.4998504
 102.6435030  82.6465982  35.6680710 103.9865052  82.5000199  36.3512536
 103.3278409  90.6051647  37.9998398 102.6749859  90.8527555  37.3450850
 103.7058789  89.7915785  37.6660875 100.2885583 100.6411340  32.1026568
 100.4707977  99.8232996  32.5654320 101.1118569 100.8579033  31.6651458
 100.6227748  99.5679526  29.3641616 101.1515515  99.0571980  28.7511778
 100.8855968  99.2522056  30.2287149  99.3765982  91.3471458  44.4864435
  98.7006619  91.2465588  45.1566810 100.1993616  91.1910672  44.9500432
  91.1244841  97.5843395  37.1076950  91.7098278  96.8387083  37.2404854
  90.9269679  97.8947352  37.9913614  93.9783496 100.6194642  32.1239392
  93.3093871 101.1040770  31.6403432  93.8396366 100.8663863  33.0382771
  85.7162496  90.1548995  35.8281393  85.7546595  89.6212586  36.6218511
  85.2102788  89.6284201  35.2092370  98.1188765 102.6538386  38.7222051
  98.6707073 102.8170007  39.4871136  98.4594958 103.2442824  38.0502075
  93.0953258  85.0013536  39.3243935  93.1594584  85.8628366  38.9121333
  93.0320378  84.3887537  38.5916294  92.5705530  87.0736668  42.9716970
  93.1977569  86.6913745  43.5854494  91.7133449  86.8550870  43.3372662
 102.9699639  97.4799643  44.5770705 103.5139543  98.0929602  44.0825660
 102.3886484  98.0379222  45.0937718  89.3471073  88.8813097  28.9035324
  89.6424514  87.9723776  28.8502378  88.4459109  88.8600837  28.5816327
 101.2557152 100.6020361  35.7085733 101.1308291  99.8010101  35.1996678
 101.9136243 101.0966555  35.2199703  92.8765320  86.9569094  34.8862873
  92.1551906  87.5705062  34.7470346  93.6658576  87.4926859  34.8079519
 103.3192060  98.4029381  37.3365283 102.3722396  98.2834733  37.2643610
 103.6674833  97.5151879  37.4191544  95.6791634  84.2923520  41.1603525
  96.2026035  84.5385817  41.9229834  95.4603967  85.1243555  40.7406662
  91.0758915  86.5627195  29.0274650  90.7471621  85.6824574  28.8449755
  91.4298285  86.5074864  29.9151039 100.3238494  98.1982098  33.5369635
 100.1763456  97.2698805  33.7177205 101.1491987  98.2202188  33.0526710
  94.1900738  86.8500165  29.3950127  94.5296810  87.3786086  28.6728736
  94.6372858  87.1880571  30.1708694 103.9272615  99.0210656  34.6234508
 104.8519163  98.8153518  34.4858959 103.7587919  98.7727057  35.5323849
  96.8844179  85.2337215  38.8453195  96.5440999  84.4345028  39.2473875
  96.1783185  85.5338926  38.2730028  97.5360651  82.3186528  37.2980518
  98.3586720  81.8447006  37.1759409  97.7798714  83.0977012  37.7979205
  96.1768885  85.3474786  27.5943420  96.8977248  85.7256039  27.0907137
  95.5534189  86.0663663  27.6978398 100.3200008  86.0519935  28.5301752
 100.5363622  86.9344573  28.2290580  99.8394075  85.6606149  27.8007394
  95.0599229  89.0105648  35.1072497  94.9143810  89.3245952  35.9996778
  94.5824433  89.6290549  34.5543396  96.9195612  86.0008196  35.1553386
  96.9057181  85.1049290  34.8185684  97.6368040  86.0078860  35.7891673
  98.7721743  86.4345537  37.2006514  98.5139521  87.3562607  37.1990844
  98.2406783  86.0375971  37.8906978 103.7167932  99.5396324  29.9796599
 103.8904809  98.9742746  29.2270452 104.2096823 100.3397219  29.7976089
  89.5344891  91.5510993  38.0460158  88.9898360  92.3270801  38.1780432
  90.4124241  91.8981797  37.8879280  96.3232508  84.8822577  30.4240957
  96.4448419  83.9539223  30.6231844  96.0334550  84.8961263  29.5119272
  99.1923698  82.5677487  33.5607676  99.2145395  82.6316820  32.6059656
  99.6091757  81.7281996  33.7548183 109.5707323  92.3032747  31.5986899
 110.0138469  91.5540072  31.2006022 108.6933833  92.2942883  31.2160631
 104.7043104  98.8563088  27.0793498 105.3994009  99.4769781  27.2980812
 105.0466254  98.0058439  27.3545875  90.3210913  90.6780889  40.9390315
  89.5792649  90.8263524  41.5254945  90.0003658  90.9389155  40.0757064
 106.6034527  96.3062794  28.6080828 107.1285851  96.6450066  27.8830148
 106.5156880  95.3709809  28.4243963  98.2654576 100.2196867  40.7370705
  98.5741702  99.9746014  41.6093405  99.0630058 100.4243506  40.2489575
  98.2875188 102.3734777  32.9676082  97.8480178 101.8811156  33.6608938
  99.0383305 101.8307745  32.7268157  90.7667527  98.5646318  32.9700710
  91.5925547  98.2650090  32.5899353  90.4161579  97.7953940  33.4190498
  95.7349060  97.9172786  35.0398383  95.1129069  97.2543491  34.7400611
  96.4053927  97.9433918  34.3572031  88.9676132  96.4832644  33.9289643
  88.1308040  96.0554819  33.7473644  88.9399777  96.6765088  34.8660434
  95.8073588  86.3954574  44.6330889  95.8561743  87.2716697  44.2508659
  96.3496102  85.8531967  44.0602532 106.2928433  96.9395697  43.9132026
 105.5023977  96.9219836  43.3736526 106.0561788  97.4783991  44.6681063
 106.4126308  93.7888164  41.2264755 106.4624313  93.6238171  42.1680278
 106.3040232  92.9215423  40.8362636  95.2962567  96.4676709  28.5156844
  95.4450687  97.1512174  27.8623516  96.1029011  96.4481799  29.0306299
 103.7030071  89.7719092  42.5424062 104.6039934  89.6325557  42.2508059
 103.7778045  89.9373547  43.4822239  98.0372876  87.1485947  41.3877248
  97.1676185  87.4419513  41.1159836  98.2732356  87.7326392  42.1084512
 107.9144505  96.2085105  41.4706776 107.6229313  96.5715086  42.3070237
 107.3016636  95.4952114  41.2920108 109.1140187  93.7737985  33.9909347
 109.9487079  94.2127789  34.1546907 109.2499316  93.2976638  33.1717592
 106.1631693  91.3317720  39.9386834 106.6385815  91.5245366  39.1305686
 105.2397259  91.3876906  39.6930218  93.0515200  92.4941887  29.5217913
  92.8061242  91.5904217  29.7198123  93.2211115  92.4959037  28.5797391
 100.7411910  83.3665563  38.9042668 101.2593854  84.1026590  38.5789157
 100.3867043  83.6729557  39.7389427  92.3210848  88.2270245  27.0204074
  91.6280093  88.3014600  26.3644110  92.0762599  87.4630588  27.5425591
 100.9924504  79.7865846  34.4243565 101.2726258  79.1189035  35.0503991
 101.7775111  79.9794942  33.9118229  98.7957973  98.9624840  25.9868591
  98.2231940  99.5815027  25.5339063  99.3690766  99.5124202  26.5208513
 104.8633362  88.2083480  38.1715140 105.8150785  88.3081578  38.1927364
 104.6936813  87.4161749  38.6813224 102.8847742  85.2939063  38.3574541
 102.2897674  85.5744076  37.6621030 102.5997439  85.7832964  39.1291282
 102.0155232  99.2461990  27.1177173 102.9485906  99.1807552  27.3210049
 101.9278445 100.0818257  26.6591706 107.3421440  91.4289600  37.2857440
 107.3097760  90.4905600  37.4717123 107.9522064  91.5073636  36.5523265
  99.1804771  90.2985653  23.3284644 100.1263876  90.1691861  23.3973062
  98.8019016  89.5600315  23.8054072 107.4915929  88.2200643  37.3315723
 106.9754977  87.4359100  37.1445652 108.3755877  87.8919360  37.4962242
 105.1526656  81.9641659  33.2911535 104.9551477  81.6556747  34.1754867
 105.7626361  82.6903298  33.4209465 113.1597990  92.4905606  36.4263476
 113.8901379  92.2290895  36.9871180 112.5504936  91.7534328  36.4665544
 111.2413287  90.6313469  37.0237928 110.5146451  90.4969434  36.4154419
 110.8260574  90.9390298  37.8294646  99.0643464  94.3503399  44.7885301
  99.9846473  94.5281998  44.9825347  99.0293047  93.4059444  44.6365000
  97.3647688  88.2235629  23.2639529  96.4579144  87.9268742  23.3402242
  97.6423669  87.9265447  22.3973815  88.2825629  89.5441992  33.7138575
  87.9628413  88.6907301  33.4212949  87.7359057  89.7590571  34.4696543
  92.0605536  92.2604433  37.4308082  92.2791546  93.1921541  37.4496116
  92.4731310  91.9012408  38.2162886  98.9809754  82.7672519  29.4183770
  98.1710482  82.4219604  29.7939016  99.6694171  82.4580062  30.0071382
 100.9100302  81.8450566  31.0408067 101.4631341  82.2646019  31.6998090
 101.1470389  80.9186314  31.0831023  96.9333401  87.8337639  46.8210831
  96.8330128  88.7831996  46.7522922  96.7154944  87.5055878  45.9486901
  96.1346473  85.0822564  23.4051508  96.9965637  85.4077463  23.6647325
  96.3196817  84.2954060  22.8924574  88.1513889  93.1644904  35.6831697
  87.4577360  92.7498857  35.1701651  88.8986880  93.2065440  35.0865116
 104.2879109  83.9551091  30.5486731 103.7077778  84.6135895  30.1664783
 104.0215042  83.1328435  30.1374149 102.7382676  83.3556148  32.7508051
 103.2382454  83.4672683  31.9422370 103.3818284  83.0517201  33.3908860
  96.7964672  91.2634778  45.6375892  96.3131753  92.0635138  45.8439781
  96.8825611  91.2742723  44.6843336  90.0650631  93.0963158  33.5597712
  90.0421319  93.1950845  32.6079595  90.3751268  93.9428308  33.8814878
  92.7238009  95.1539313  37.6744326  93.6781263  95.1223255  37.6074258
  92.5250533  94.6929936  38.4894552  93.3137391  93.7240429  40.2415124
  94.1330280  94.2184507  40.2649961  93.5874199  92.8072397  40.2132691
 103.0703987  86.1151181  29.6043079 102.1829842  86.4000832  29.3863274
 103.4857976  85.9544944  28.7570356 106.4218523  86.1397702  33.3197419
 107.1978914  86.6294154  33.5922035 105.6966658  86.5655756  33.7769288
 108.8591082  86.8525321  34.3771359 109.4535573  86.6121057  33.6664667
 108.9317666  86.1332452  35.0044896  91.0788238 100.6958932  34.6914524
  90.9442706  99.9359333  34.1252522  90.6620300 101.4199832  34.2243313
 103.0445011  91.6305717  29.8193370 102.9880212  92.0874268  28.9801002
 103.5973354  90.8696402  29.6416212 106.8549817  87.4195449  30.6443489
 106.5986751  87.0192085  31.4751697 106.2302685  88.1339243  30.5193628
 111.1662155  90.1591522  33.1514780 110.6061713  90.2284711  33.9246342
 110.5605658  89.9832507  32.4314277  94.2357364 101.5928249  34.9032967
  94.1189748 102.5373682  34.8011657  93.4149810 101.2901811  35.2918766
 104.1233898  96.3178385  25.7489559 104.9579502  95.8859583  25.5667034
 103.9618241  96.1460399  26.6766454 103.7779790  92.8210498  27.1145899
 103.7228594  92.6554770  26.1734343 103.1525846  93.5286531  27.2708088
  88.5672305  88.0578563  40.9407321  89.2131169  87.5477517  41.4294546
  88.3589457  88.7947244  41.5150746 101.0925698  95.1259410  46.4399461
 101.9616857  95.3000062  46.0786096 100.6132449  95.9453827  46.3175191
  97.0875916  82.3218607  26.6931217  97.0754586  83.2660447  26.8499488
  97.9799338  82.1388753  26.3990678  95.2611878 102.2456511  38.1188895
  96.1639125 102.2780121  38.4355390  95.0349248 101.3156962  38.1335231
  97.0165480 100.9987498  34.7798974  96.0661111 100.9989359  34.6663346
  97.3197966 100.2520232  34.2635008 100.9028035  78.9161384  30.9477154
 100.1360431  78.3619871  31.0933836 101.3138740  78.9883253  31.8091306
  92.9069796  85.2046180  45.0382335  93.7701258  84.8482985  45.2485660
  92.3335207  84.8660075  45.7257739 112.7518173 106.8348036  35.8444736
 113.3896583 106.7154783  35.1408076 112.6339016 107.7828880  35.9032688
 109.5607880 106.7875464  35.7806261 109.2226391 106.6716529  34.8926796
 110.4297648 106.3866629  35.7607267 110.0427663 107.9410316  41.7392466
 110.0316303 107.5463114  40.8672970 110.2048302 107.2076388  42.3326238
 102.9659127 110.1362132  34.6087372 103.7580419 109.7952957  34.1933672
 103.2055777 110.2457107  35.5289526 106.7634924 110.7247428  40.6871650
 106.4724790 111.6293059  40.5718317 107.3991908 110.7663955  41.4015720
 107.6891131 108.1024276  37.2773010 108.2854703 107.8780299  36.5629973
 107.7466102 107.3609022  37.8798458 115.2293289  98.2096297  38.2825531
 114.8976614  99.0791708  38.0586746 114.6338903  97.8932581  38.9619562
 105.1737290 106.8622640  33.7158148 104.2487787 106.7298854  33.9235840
 105.4221703 107.6416859  34.2128091 115.1221953 102.9291383  35.3618881
 114.2138830 102.8606792  35.0677642 115.0709548 103.4063328  36.1900707
 102.5346101 106.5055914  34.5501938 102.6638482 106.7590393  35.4641349
 101.8543553 107.0983622  34.2306593 109.1962818 104.3481029  43.3053779
 108.4196152 104.9074949  43.2956643 109.8353381 104.8337812  43.8268649
 116.9883599 101.1307822  37.1396755 116.3457979 101.4240355  36.4936550
 116.4838528 101.0160742  37.9449952 107.4509191 107.1566482  42.8671746
 108.1923875 107.6951526  42.5906569 106.7446176 107.7832771  43.0243297
 112.9264530 109.2995623  41.4643907 113.3347886 108.8578033  40.7198539
 112.2041792 108.7248250  41.7178100 109.2795600 104.2368230  38.8377464
 110.1256796 104.6607643  38.9812113 109.2194238 103.5801854  39.5316027
 112.4295046 101.8972598  40.4958638 112.1855978 102.6514658  39.9592913
 112.7054976 102.2757946  41.3305885 111.9859737 101.0529031  36.0772475
 111.1244216 101.3510285  36.3689213 112.0122172 101.2699430  35.1453508
 105.6945388 109.1442703  35.4226044 106.2646745 109.5729971  34.7843529
 106.2853500 108.8625288  36.1210230 106.1870554 104.3106131  43.6687056
 105.5569215 104.9922411  43.9022452 106.0806642 104.1989212  42.7240194
 101.4815527 103.9777927  34.5952980 100.6914581 104.2335455  34.1193090
 101.9726774 104.7926264  34.7005020 103.4330272 104.3422506  31.5536457
 102.6361436 104.4541200  32.0719952 103.2055864 104.6809158  30.6877347
 109.2635940 110.8667209  39.5018971 109.3280372 111.3287616  40.3377143
 108.5546864 110.2364574  39.6301281  99.7653230 104.2308417  37.0267971
 100.0161268 105.1155427  37.2925547 100.3012778 104.0513019  36.2543062
 105.4651297  98.6126896  46.0312307 105.0718243  98.0593095  46.7059951
 106.2817437  98.9237475  46.4218824 108.3819258 100.0284775  43.6232563
 109.1228972 100.6291929  43.5437026 108.6137181  99.2862413  43.0650606
 103.5260596 105.2141143  41.9010793 103.4114111 104.3126400  42.2017892
 102.6705114 105.4604839  41.5495609 105.3639555 114.6854685  38.0258972
 105.9146980 114.5571748  37.2535966 104.5251031 114.9849574  37.6753865
 109.1606726 110.9505812  42.3703203 109.6935063 110.1894101  42.1402511
 108.6320807 110.6579464  43.1127358 112.3276421  96.0565878  37.8996845
 111.9840690  96.9467520  37.8235956 112.6955384  95.8667536  37.0366430
 109.8773815 100.8924190  31.4654518 109.0215411 100.5031041  31.2860157
 110.2900767 100.9716151  30.6054304 111.4072961  98.4270534  35.8646078
 110.9037757  98.3900669  35.0513883 111.7003568  99.3363276  35.9242735
 107.6515847  98.5109263  34.8712260 108.5168844  98.3152072  34.5118149
 107.7193356  98.2819615  35.7981617 105.2578166 100.7411471  32.2428627
 105.8321918 100.5186653  31.5101820 105.8449149 100.8100166  32.9957228
 107.5600834  97.6152720  30.9703696 106.9065246  97.3001737  30.3460311
 107.5181308  96.9928461  31.6963519 110.7938575 104.1034654  35.2951344
 109.8761136 104.3249601  35.1373032 111.2098718 104.1780964  34.4363051
 114.1264087  95.3159438  33.0014583 114.4322964  94.4556801  32.7140498
 114.8516692  95.9077058  32.8013577 100.4188443 105.7190124  31.3896181
 100.2212843 105.1259485  30.6647247  99.8635107 105.4142334  32.1072119
 108.3985166 105.6113231  33.5090774 108.4533776 104.6587067  33.4333250
 107.5876369 105.7672670  33.9932072 106.3377526 104.2290290  31.2681153
 105.5245392 104.5284461  31.6746345 106.8336521 103.8345979  31.9855635
 111.9351738 104.6932115  40.0996046 112.2901126 104.9203588  40.9590512
 112.5823869 105.0250492  39.4773302 105.8291601 101.8008646  36.8842387
 106.4690980 101.6597405  36.1865351 104.9969132 101.5143159  36.5080989
 102.8320218 101.7708971  31.6615374 103.0927035 102.6854304  31.5524535
 103.6537390 101.3033413  31.8111987 104.3045143 103.1846728  38.8314199
 104.9768196 102.9764090  38.1826848 103.4774929 102.9868814  38.3919431
 110.2070715  99.8108669  40.8479860 109.5598630 100.5098619  40.7544336
 110.9771730 100.2444813  41.2156108 110.3834849 107.6489434  38.9076679
 111.3126909 107.8000594  38.7345647 109.9625879 107.7373455  38.0525326
 109.1823181 111.6740098  36.6775217 109.0434267 111.3058883  37.5501155
 108.3937777 112.1887738  36.5059175 104.7072640 106.4589331  39.5916636
 104.5692438 105.7269570  40.1928175 105.6177564 106.3698231  39.3100824
 107.3354941 106.1709290  39.0800316 108.0454559 105.5302483  39.0386934
 107.2924249 106.4222185  40.0026496 106.0483875 103.1574508  40.8995955
 105.5121232 102.7065247  41.5517551 105.4600583 103.2920417  40.1566419
  96.9788274 107.4040319  33.5563926  97.6659314 107.0902049  32.9684941
  96.8236403 108.3081684  33.2831177 101.7822996 102.2930516  37.9848950
 101.6981185 101.6856186  37.2499360 100.9605702 102.7839534  37.9858446
 111.9546710 100.7784079  33.3519145 112.4515409 100.0254042  33.0320215
 111.1833691 100.8148396  32.7862354 108.5381679 102.9201462  33.0790829
 108.1679466 102.3672503  33.7671735 109.0340771 102.3159596  32.5265829
 106.3670877 113.3798957  40.1745847 107.0680337 114.0135440  40.3275241
 105.8965992 113.7213689  39.4141486 114.3965705  97.7453673  35.4998504
 113.4828785  97.9757900  35.6680710 114.8258806  97.8292117  36.3512536
 114.1672163 105.9343565  37.9998398 113.5143613 106.1819472  37.3450850
 114.5452543 105.1207703  37.6660875 110.2159736 106.6763376  44.4864435
 109.5400373 106.5757505  45.1566810 111.0387370 106.5202590  44.9500432
 101.9638595 112.9135313  37.1076950 102.5492032 112.1679000  37.2404854
 101.7663434 113.2239269  37.9913614  96.5556250 105.4840913  35.8281393
  96.5940350 104.9504503  36.6218511  96.0496543 104.9576118  35.2092370
 103.9347012 100.3305453  39.3243935 103.9988339 101.1920284  38.9121333
 103.8714133  99.7179455  38.5916294 103.4099285 102.4028586  42.9716970
 104.0371324 102.0205663  43.5854494 102.5527204 102.1842788  43.3372662
 100.1864828 104.2105015  28.9035324 100.4818269 103.3015693  28.8502378
  99.2852863 104.1892754  28.5816327 103.7159075 102.2861011  34.8862873
 102.9945660 102.8996979  34.7470346 104.5052330 102.8218776  34.8079519
 106.5185388  99.6215438  41.1603525 107.0419790  99.8677735  41.9229834
 106.2997721 100.4535473  40.7406662 101.9152669 101.8919113  29.0274650
 101.5865375 101.0116491  28.8449755 102.2692040 101.8366781  29.9151039
 107.7237933 100.5629133  38.8453195 107.3834754  99.7636946  39.2473875
 107.0176939 100.8630844  38.2730028 108.3754405  97.6478445  37.2980518
 109.1980474  97.1738924  37.1759409 108.6192469  98.4268929  37.7979205
 105.8992984 104.3397566  35.1072497 105.7537564 104.6537869  35.9996778
 105.4218187 104.9582466  34.5543396 107.7589367 101.3300114  35.1553386
 107.7450935 100.4341207  34.8185684 108.4761795 101.3370778  35.7891673
 109.6115497 101.7637454  37.2006514 109.3533275 102.6854525  37.1990844
 109.0800538 101.3667889  37.8906978 100.3738646 106.8802911  38.0460158
  99.8292114 107.6562718  38.1780432 101.2517996 107.2273715  37.8879280
 107.1626263 100.2114494  30.4240957 107.2842174  99.2831141  30.6231844
 106.8728305 100.2253180  29.5119272 110.0317453  97.8969405  33.5607676
 110.0539150  97.9608738  32.6059656 110.4485512  97.0573913  33.7548183
 101.1604668 106.0072807  40.9390315 100.4186404 106.1555442  41.5254945
 100.8397412 106.2681072  40.0757064  99.8069887 111.8124562  33.9289643
  98.9701795 111.3846736  33.7473644  99.7793532 112.0057005  34.8660434
 106.6467342 101.7246492  44.6330889 106.6955498 102.6008615  44.2508659
 107.1889856 101.1823885  44.0602532 114.5423825 105.1011009  42.5424062
 115.4433688 104.9617474  42.2508059 114.6171800 105.2665464  43.4822239
 108.8766631 102.4777864  41.3877248 108.0069940 102.7711430  41.1159836
 109.1126111 103.0618309  42.1084512 111.5805664  98.6957481  38.9042668
 112.0987608  99.4318508  38.5789157 111.2260797  99.0021474  39.7389427
 111.8318259  95.1157764  34.4243565 112.1120012  94.4480953  35.0503991
 112.6168865  95.3086859  33.9118229 115.7027117 103.5375398  38.1715140
 116.6544540 103.6373495  38.1927364 115.5330567 102.7453666  38.6813224
 113.7241496 100.6230981  38.3574541 113.1291428 100.9035994  37.6621030
 113.4391193 101.1124882  39.1291282 118.3309683 103.5492561  37.3315723
 117.8148732 102.7651017  37.1445652 119.2149632 103.2211277  37.4962242
 115.9920410  97.2933576  33.2911535 115.7945231  96.9848665  34.1754867
 116.6020116  98.0195215  33.4209465 109.9037218 109.6795316  44.7885301
 110.8240228 109.8573915  44.9825347 109.8686801 108.7351362  44.6365000
  99.1219383 104.8733910  33.7138575  98.8022167 104.0199218  33.4212949
  98.5752811 105.0882488  34.4696543 102.8999291 107.5896351  37.4308082
 103.1185300 108.5213459  37.4496116 103.3125064 107.2304325  38.2162886
 109.8203508  98.0964436  29.4183770 109.0104237  97.7511521  29.7939016
 110.5087925  97.7871980  30.0071382 111.7494057  97.1742483  31.0408067
 112.3025095  97.5937937  31.6998090 111.9864143  96.2478231  31.0831023
 107.7727156 103.1629557  46.8210831 107.6723883 104.1123914  46.7522922
 107.5548698 102.8347796  45.9486901  98.9907643 108.4936822  35.6831697
  98.2971115 108.0790774  35.1701651  99.7380634 108.5357358  35.0865116
 113.5776430  98.6848066  32.7508051 114.0776209  98.7964601  31.9422370
 114.2212038  98.3809119  33.3908860 107.6358426 106.5926696  45.6375892
 107.1525508 107.3927056  45.8439781 107.7219365 106.6034641  44.6843336
 100.9044386 108.4255075  33.5597712 100.8815074 108.5242763  32.6079595
 101.2145022 109.2720226  33.8814878 103.5631764 110.4831230  37.6744326
 104.5175017 110.4515173  37.6074258 103.3644287 110.0221854  38.4894552
 104.1531146 109.0532346  40.2415124 104.9724035 109.5476425  40.2649961
 104.4267953 108.1364315  40.2132691  99.4066060 103.3870480  40.9407321
 100.0524923 102.8769434  41.4294546  99.1983211 104.1239162  41.5150746
 111.7421790  94.2453302  30.9477154 110.9754186  93.6911788  31.0933836
 112.1532495  94.3175170  31.8091306 103.7463551 100.5338097  45.0382335
 104.6095012 100.1774902  45.2485660 103.1728962 100.1951992  45.7257739
  50.2879194  -1.8612740  28.7252201  50.2291740  -2.5453520  28.0582784
  50.6898712  -1.1193750  28.2732827  48.7730868  -2.1597823  31.3016012
  49.3170772  -1.5467864  30.8070966  48.1917713  -1.6018244  31.8183025
  52.0959662  -2.7001768  30.6377333  51.3055206  -2.7177630  30.0981832
  51.8593017  -2.1613475  31.3926370  53.7175734  -3.4312361  28.1952083
  53.4260542  -3.0682380  29.0315544  53.1047865  -4.1445352  28.0165415
  46.8956926  -4.5138056  33.1644768  47.7648086  -4.3397403  32.8031403
  46.4163678  -3.6943639  33.0420497  58.5549402   7.1950570  22.5690043
  59.1927812   7.0757318  21.8653383  58.4370245   8.1431414  22.6277995
  55.3639108   7.1477998  22.5051567  55.0257620   7.0319063  21.6172102
  56.2328877   6.7469163  22.4852574  55.8458891   8.3012850  28.4637773
  55.8347532   7.9065648  27.5918277  56.0079531   7.5678923  29.0571544
  48.7690356  10.4964666  21.3332679  49.5611648  10.1555491  20.9178978
  49.0087006  10.6059641  22.2534832  52.5666153  11.0849962  27.4116957
  52.2756019  11.9895593  27.2963623  53.2023137  11.1266490  28.1261027
  53.4922359   8.4626810  24.0018317  54.0885932   8.2382833  23.2875280
  53.5497331   7.7211556  24.6043764  63.5099098   4.8577257  20.5476229
  64.2424270   4.2876474  20.7814059  62.7538453   4.4698858  20.9882735
  61.0324518  -1.4301169  25.0070838  60.7007843  -0.5605758  24.7832053
  60.4370131  -1.7464885  25.6864868  57.5256038  10.7711377  24.4066751
  57.2256761  11.6736416  24.2982558  57.1807097  10.5043561  25.2587904
  60.9253181   3.2893918  22.0864188  60.0170059   3.2209326  21.7922949
  60.8740777   3.7665863  22.9146013  52.5076817  17.5355698  17.3737718
  52.4300847  18.4863523  17.4526199  51.9038461  17.1901570  18.0312645
  54.9994047   4.7083563  30.0299085  54.2227381   5.2677483  30.0201950
  55.6384610   5.1940346  30.5513955  62.7914828   1.4910356  23.8642062
  62.1489208   1.7842889  23.2181856  62.2869756   1.3763276  24.6695259
  53.2540419   7.5169017  29.5917052  53.9955104   8.0554061  29.3151876
  52.5477405   8.1435305  29.7488604  58.7295759   9.6598157  28.1889214
  59.1379115   9.2180568  27.4443846  58.0073021   9.0850785  28.4423407
  55.0826829   4.5970764  25.5622771  55.9288024   5.0210177  25.7057420
  55.0225467   3.9404388  26.2561334  59.0524574  10.2199348  21.9441503
  58.4233436  10.3845062  21.2417570  58.6650236  10.6340957  22.7152467
  62.9313806  11.1553785  19.2985866  62.2464844  11.5352687  18.7482900
  63.0157655  11.7649112  20.0317814  58.2326275   2.2575132  27.2203944
  57.9887206   3.0117193  26.6838220  58.5086205   2.6360480  28.0551191
  60.1864737   8.8013745  25.8981210  60.3981633   9.4445504  25.2215591
  60.1394486   7.9676061  25.4303140  51.4976617   9.5045237  22.1471351
  52.0677974   9.9332506  21.5088835  52.0884729   9.2227822  22.8455537
  51.9901783   4.6708665  30.3932362  51.3600444   5.3524946  30.6267759
  51.8837871   4.5591746  29.4485501  61.3010565  11.6785700  24.0703567
  62.1228009  11.2765887  23.7886249  61.2972968  11.5753934  25.0219683
  55.0667169  11.2269743  26.2264278  55.1311601  11.6890150  27.0622450
  54.3578093  10.5967108  26.3546588  69.3916558   8.0224448  20.4188539
  68.6380267   7.4531846  20.2632543  69.5264099   7.9887113  21.3659173
  51.2682526  -1.0270569  32.7557613  50.8749472  -1.5804371  33.4305258
  52.0848666  -0.7159991  33.1464131  50.0439468  13.5279045  18.7493936
  50.2206097  14.4497010  18.5614920  50.8396302  13.2137464  19.1788316
  54.1850487   0.3887310  30.3477870  54.9260200   0.9894463  30.2682332
  54.4168410  -0.3535053  29.7895912  49.3291825   5.5743677  28.6256100
  49.2145340   4.6728934  28.9263198  48.4736343   5.8207374  28.2740916
  56.4083663  13.5161417  30.2243600  55.9647517  12.7297796  29.9064505
  57.0700876  13.7040568  29.5587491  51.1670784  15.0457219  24.7504279
  51.7178209  14.9174282  23.9781273  50.3282260  15.3452108  24.3999171
  58.5064901  13.7964217  28.2525001  58.4883376  14.6173098  27.7605271
  59.4284821  13.6718292  28.4775143  54.9637955  11.3108347  29.0948510
  55.4966292  10.5496635  28.8647818  54.4352036  11.0181998  29.8372664
  61.3083514   8.6343360  21.7234368  60.6507188   9.3242621  21.8114497
  62.1123913   9.0239792  22.0668354  60.1188972   6.9887732  19.7738310
  60.6320854   7.6217724  20.2760020  60.7690196   6.3888928  19.4081670
  56.5969803   4.4637188  22.0196650  55.6792365   4.6852135  21.8618338
  57.0129947   4.5383498  21.1608358  60.8850769  11.9693734  17.9017453
  60.4313096  11.1284644  17.9582643  60.2544735  12.6055132  18.2392233
  59.3283708  13.8070230  18.8367271  59.6206682  14.3675288  18.1179636
  59.8382328  14.0998791  19.5920430  54.2917333  14.5850582  19.9260724
  54.2493512  14.8111428  18.9969256  55.2080032  14.3513956  20.0746525
  57.7382967   5.0534649  26.8241353  58.0932355   5.2806122  27.6835819
  58.3855098   5.3853026  26.2018608  63.4680704   8.1753085  17.5290682
  63.3298602   8.3654681  16.6011871  63.1116923   8.9372468  17.9858733
  63.4950083  10.2429612  22.5401954  63.9286590  10.1504901  23.3885008
  64.2081664  10.2187112  21.9021970  57.2277978  13.8431706  24.0735054
  57.2815001  14.4122642  24.8412770  56.3592760  14.0133591  23.7089091
  50.1076372   3.5449262  25.5559505  50.7799425   3.3366624  24.9072154
  49.2806158   3.3471348  25.1164738  64.3565633  10.2853313  25.0734839
  64.5501523  11.1899123  25.3194114  64.2566251   9.8260732  25.9073424
  56.0101944   0.1711203  27.5725166  55.3629859   0.8701153  27.4789643
  56.7802959   0.6047347  27.9401415  59.4180742  10.4360055  30.6475720
  59.2666248  10.2070607  29.7305803  59.4085421  11.3930657  30.6607065
  56.1866078   8.0091968  25.6321986  57.1158138   8.1603128  25.4590953
  55.7657108   8.0975989  24.7770633  54.9854410  12.0342633  23.4020524
  54.8465496  11.6661417  24.2746462  54.1969006  12.5490272  23.2304481
  55.5802562  17.1351729  14.7446060  55.7554318  16.6639772  15.5591683
  54.8935350  17.7617495  14.9727321  56.5359625  11.4124235  20.7909361
  56.2009458  11.3725005  21.6867011  56.0363571  10.7468951  20.3179772
  50.5103869   6.8191865  26.3161943  50.3723667   6.0872104  26.9173482
  51.4208792   6.7300765  26.0346130  53.1386170   6.5311825  25.8045622
  53.8485788   5.8905017  25.7632241  53.0955478   6.7824719  26.7271803
  61.1272948  13.4679178  28.7252201  61.0685494  12.7838398  28.0582784
  61.5292467  14.2098168  28.2732827  51.8515104   3.5177042  27.6241262
  51.3152461   3.0667781  28.2762858  51.2631812   3.6522951  26.8811726
  50.1463647  20.2841092  21.5185920  50.3860245  20.9159616  22.1964939
  49.3032844  19.9329132  21.8051280  61.1290356  11.4318762  26.9566181
  60.2417134  11.0944684  27.0792580  61.6988907  10.7001793  27.1934947
  54.6591509  16.0920214  23.9227424  54.5861680  16.8975186  24.4346729
  54.2168902  16.2912180  23.0975446  54.4481289  15.3291984  17.4330246
  53.6648811  15.8713664  17.5268470  55.1474034  15.8465964  17.8324487
  65.6107696   6.8426979  21.7182743  65.5997572   7.7251695  21.3476676
  64.7425076   6.4898530  21.5237280  57.1190193  15.9907048  26.0785583
  57.8318165  16.6254513  26.0061484  56.6280221  16.0870914  25.2625585
  52.1702106  13.7401492  26.8991154  52.8711566  14.3737975  27.0520548
  51.6997221  14.0816223  26.1386793  59.9703392   6.2946099  24.7243704
  59.3174842   6.5422007  24.0696157  60.3483772   5.4810237  24.3906181
  56.9310566  16.3305792  18.8271874  57.1132960  15.5127448  19.2899627
  57.7543552  16.5473485  18.3896764  57.2652731  15.2573977  16.0886923
  57.7940498  14.7466432  15.4757085  57.5280951  14.9416508  16.9532456
  56.0190965   7.0365910  31.2109741  55.3431602   6.9360040  31.8812116
  56.8418599   6.8805124  31.6745738  47.7669824  13.2737847  23.8322257
  48.3523261  12.5281535  23.9650161  47.5694663  13.5841803  24.7158920
  50.6208479  16.3089094  18.8484699  49.9518855  16.7935222  18.3648739
  50.4821349  16.5558315  19.7628077  54.7613748  18.3432838  25.4467357
  55.3132056  18.5064459  26.2116442  55.1019941  18.9337275  24.7747382
  49.2130514   2.7631120  29.6962276  49.8402552   2.3808197  30.3099801
  48.3558433   2.5445322  30.0617969  59.6124622  13.1694095  31.3016012
  60.1564526  13.7824053  30.8070966  59.0311467  13.7273674  31.8183025
  57.8982135  16.2914813  22.4331039  57.7733275  15.4904553  21.9241985
  58.5561226  16.7861007  21.9445009  59.9617044  14.0923833  24.0610590
  59.0147379  13.9729184  23.9888916  60.3099817  13.2046331  24.1436851
  52.3216617  -0.0182028  27.8848831  52.8451019   0.2280269  28.6475141
  52.1028950   0.8138007  27.4651969  56.9663477  13.8876549  20.2614942
  56.8188439  12.9593257  20.4422512  57.7916970  13.9096640  19.7772017
  60.5697599  14.7105108  21.3479814  61.4944146  14.5047970  21.2104266
  60.4012902  14.4621509  22.2569156  53.5269162   0.9231667  25.5698502
  53.1865982   0.1239480  25.9719182  52.8208168   1.2233378  24.9975335
  55.4146726   2.1239989  23.9251821  55.1564504   3.0457059  23.9236151
  54.8831767   1.7270423  24.6152285  60.3592915  15.2290776  16.7041906
  60.5329792  14.6637198  15.9515758  60.8521806  16.0291671  16.5221396
  46.1769875   7.2405445  24.7705465  45.6323343   8.0165253  24.9025739
  47.0549225   7.5876249  24.6124586  66.2132306   7.9927199  18.3232206
  66.6563452   7.2434524  17.9251329  65.3358816   7.9837335  17.9405938
  61.3468087  14.5457540  13.8038804  62.0418992  15.1664233  14.0226119
  61.6891238  13.6952891  14.0791182  46.9635897   6.3675341  27.6635622
  46.2217633   6.5157976  28.2500252  46.6428641   6.6283607  26.8002371
  63.2459511  11.9957246  15.3326135  63.7710835  12.3344518  14.6075455
  63.1581863  11.0604261  15.1489270  54.9079559  15.9091319  27.4616012
  55.2166686  15.6640466  28.3338711  55.7055041  16.1137958  26.9734882
  54.9300171  18.0629229  19.6921388  54.4905162  17.5705608  20.3854245
  55.6808288  17.5202197  19.4513463  47.4092510  14.2540770  19.6946016
  48.2350530  13.9544542  19.3144660  47.0586562  13.4848392  20.1435805
  52.3774043  13.6067238  21.7643690  51.7554053  12.9437943  21.4645918
  53.0478910  13.6328370  21.0817338  52.4498571   2.0849026  31.3576196
  52.4986726   2.9611149  30.9753965  52.9921085   1.5426419  30.7847839
  62.9353417  12.6290149  30.6377333  62.1448960  12.6114288  30.0981832
  62.6986771  13.1678443  31.3926370  63.0551292   9.4782616  27.9510061
  63.1049297   9.3132623  28.8925584  62.9465215   8.6109875  27.5607942
  60.3455054   5.4613544  29.2669368  61.2464917   5.3220008  28.9753366
  60.4203029   5.6267998  30.2067546  54.6797859   2.8380398  28.1122555
  53.8101169   3.1313964  27.8405143  54.9157340   3.4220843  28.8329818
  64.5569488  11.8979557  28.1952083  64.2654297  12.2609538  29.0315544
  63.9441620  11.1846565  28.0165415  65.7565171   9.4632437  20.7154653
  66.5912062   9.9022241  20.8792214  65.8924300   8.9871090  19.8962899
  62.8056677   7.0212172  26.6632141  63.2810798   7.2139818  25.8550992
  61.8822242   7.0771358  26.4175525  57.3836893  -0.9439985  25.6287975
  57.9018837  -0.2078958  25.3034463  57.0292026  -0.6375991  26.4634734
  61.5058346   3.8977932  24.8960447  62.4575769   3.9976030  24.9172671
  61.3361796   3.1056200  25.4058531  59.5272725   0.9833515  25.0819848
  58.9322657   1.2638528  24.3866336  59.2422422   1.4727416  25.8536589
  63.9846424   7.1184052  24.0102746  63.9522744   6.1800052  24.1962430
  64.5947047   7.1968088  23.2768571  64.1340912   3.9095095  24.0561029
  63.6179961   3.1253552  23.8690958  65.0180861   3.5813812  24.2207549
  69.8022973   8.1800058  23.1508783  70.5326362   7.9185347  23.7116486
  69.1929919   7.4428780  23.1910851  67.8838270   6.3207921  23.7483234
  67.1571434   6.1863886  23.1399726  67.4685557   6.6284750  24.5539952
  55.7068447  10.0397851  31.5130607  56.6271456  10.2176450  31.7070654
  55.6718030   9.0953896  31.3610307  48.7030519   7.9498885  24.1553388
  48.9216529   8.8815993  24.1741422  49.1156293   7.5906860  24.9408192
  53.5758385   3.5232091  33.5456137  53.4755112   4.4726448  33.4768228
  53.3579927   3.1950330  32.6732207  53.4389655   6.9529230  32.3621199
  52.9556737   7.7529590  32.5685088  53.5250594   6.9637175  31.4088643
  49.3662992  10.8433765  24.3989633  50.3206246  10.8117707  24.3319564
  49.1675516  10.3824388  25.2139859  49.9562374   9.4134881  26.9660430
  50.7755263   9.9078959  26.9895268  50.2299182   8.4966849  26.9377998
  65.5016065   2.5419773  21.1016666  66.0960556   2.3015509  20.3909974
  65.5742649   1.8226904  21.7290202  47.7213221  16.3853384  21.4159831
  47.5867689  15.6253785  20.8497829  47.3045283  17.1094284  20.9488620
  67.8087138   5.8485974  19.8760087  67.2486696   5.9179163  20.6491649
  67.2030642   5.6726959  19.1559583  50.8782347  17.2822701  21.6278273
  50.7614731  18.2268134  21.5256964  50.0574793  16.9796263  22.0164073
  45.2097289   3.7473015  27.6652628  45.8556152   3.2371968  28.1539853
  45.0014440   4.4841696  28.2396053  57.7350681  10.8153862  33.1644768
  58.6041841  10.9894514  32.8031403  57.2557432  11.6348279  33.0420497
  51.9036861  17.9350963  24.8434202  52.8064108  17.9674573  25.1600697
  51.6774231  17.0051414  24.8580538  53.6590463  16.6881950  21.5044280
  52.7086094  16.6883811  21.3908653  53.9622949  15.9414684  20.9880315
  49.5494780   0.8940632  31.7627642  50.4126241   0.5377436  31.9730966
  48.9760190   0.5554526  32.4503046  69.3943157  22.5242488  22.5690043
  70.0321567  22.4049235  21.8653383  69.2764000  23.4723332  22.6277995
  66.2032863  22.4769916  22.5051567  65.8651374  22.3610981  21.6172102
  67.0722631  22.0761081  22.4852574  62.0619679  24.3305392  18.4948458
  61.4984544  24.2395329  17.7264746  61.9472074  23.5105297  18.9750951
  66.6852646  23.6304768  28.4637773  66.6741287  23.2357566  27.5918277
  66.8473285  22.8970840  29.0571544  59.6084111  25.8256584  21.3332679
  60.4005402  25.4847409  20.9178978  59.8480761  25.9351559  22.2534832
  67.6419237  27.9976360  13.8062923  66.9907217  28.5830441  13.4196937
  68.4363600  28.5282555  13.8657961  61.5674864  25.0865497  14.2050058
  62.3405740  24.5394484  14.0662933  61.9200263  25.9509747  14.4164519
  63.4059907  26.4141880  27.4116957  63.1149773  27.3187510  27.2963623
  64.0416891  26.4558407  28.1261027  64.3316114  23.7918728  24.0018317
  64.9279686  23.5674750  23.2875280  64.3891085  23.0503474  24.6043764
  63.9041142  21.2458163  11.8368508  64.1566663  20.7239685  11.0751971
  62.9665701  21.0824309  11.9395191  68.9484425  20.2493942  19.6443251
  69.7347514  19.8313365  19.2933668  69.2123129  21.1540034  19.8124899
  69.1194502  25.6866792  14.3431908  68.4840335  25.7601419  15.0552812
  68.7891909  26.2760391  13.6650987  74.3492852  20.1869175  20.5476229
  75.0818024  19.6168392  20.7814059  73.5932208  19.7990775  20.9882735
  63.6237431  23.1486269  14.0392883  63.5073689  22.4731173  14.7073967
  63.7339691  22.6618643  13.2225036  65.9668972  22.6096416  17.7439572
  65.6027179  22.0827037  18.4552493  66.8236088  22.2194886  17.5706057
  71.8718273  13.8990749  25.0070838  71.5401597  14.7686160  24.7832053
  71.2763886  13.5827033  25.6864868  65.6074459  17.6386316  12.7400920
  65.7748861  18.5066553  13.1071391  65.4171628  17.8013598  11.8162210
  68.3649792  26.1003295  24.4066751  68.0650515  27.0028334  24.2982558
  68.0200852  25.8335478  25.2587904  61.8162274  22.5517092  20.4403455
  60.8912770  22.4193306  20.6481147  62.0646687  23.3311311  20.9373397
  71.7646936  18.6185835  22.0864188  70.8563813  18.5501244  21.7922949
  71.7134532  19.0957780  22.9146013  65.5863680  20.0943974  13.7247587
  65.4663305  20.5401024  14.5633067  64.8916268  20.4429291  13.1661125
  59.1771085  22.1950365  21.2747244  59.3063466  22.4484844  22.1886656
  58.4968536  22.7878073  20.9551899  63.3470572  32.8647615  17.3737718
  63.2694602  33.8155441  17.4526199  62.7432215  32.5193488  18.0312645
  65.8387802  20.0375481  30.0299085  65.0621136  20.5969401  30.0201950
  66.4778365  20.5232264  30.5513955  73.6308582  16.8202274  23.8642062
  72.9882963  17.1134807  23.2181856  73.1263511  16.7055194  24.6695259
  71.2848746  20.5665447  14.5527921  72.1966602  20.7992834  14.3775619
  70.7758393  21.1502491  13.9903000  64.0934174  22.8460934  29.5917052
  64.8348858  23.3845978  29.3151876  63.3871159  23.4727223  29.7488604
  69.5689514  24.9890075  28.1889214  69.9772870  24.5472485  27.4443846
  68.8466775  24.4142702  28.4423407  65.9220584  19.9262681  25.5622771
  66.7681779  20.3502095  25.7057420  65.8619221  19.2696306  26.2561334
  69.8918328  25.5491265  21.9441503  69.2627191  25.7136979  21.2417570
  69.5043990  25.9632875  22.7152467  73.7707560  26.4845703  19.2985866
  73.0858598  26.8644605  18.7482900  73.8551409  27.0941030  20.0317814
  69.0720029  17.5867050  27.2203944  68.8280961  18.3409110  26.6838220
  69.3479960  17.9652397  28.0551191  71.0258492  24.1305662  25.8981210
  71.2375387  24.7737422  25.2215591  70.9788240  23.2967979  25.4303140
  68.6284721  16.7423483  22.8017782  67.7669200  17.0404736  23.0934520
  68.6547155  16.9593882  21.8698815  65.4446290  25.2865673  19.2091588
  65.9084636  25.5653376  18.4196210  65.1803088  24.3849118  19.0264678
  62.3370371  24.8337155  22.1471351  62.9071728  25.2624423  21.5088835
  62.9278483  24.5519740  22.8455537  64.3815176  21.4088826  16.0181153
  65.0839220  21.8609869  16.4855079  64.0495805  20.7672645  16.6461046
  62.8295538  20.0000582  30.3932362  62.1994198  20.6816863  30.6267759
  62.7231626  19.8883664  29.4485501  58.1240510  19.6672378  21.3198286
  57.3339564  19.9229907  20.8438397  58.6151758  20.4820716  21.4250327
  72.1404320  27.0077618  24.0703567  72.9621763  26.6057805  23.7886249
  72.1366723  26.9045852  25.0219683  60.0755256  20.0316958  18.2781763
  59.2786419  20.1435652  18.7965259  59.8480848  20.3703610  17.4122654
  65.9060923  26.5561661  26.2264278  65.9705356  27.0182068  27.0622450
  65.1971847  25.9259026  26.3546588  56.4078213  19.9202869  23.7513277
  56.6586252  20.8049879  24.0170853  56.9437762  19.7407470  22.9788369
  80.2310313  23.3516366  20.4188539  79.4774021  22.7823764  20.2632543
  80.3657854  23.3179031  21.3659173  65.6208941  28.2229768  16.0943258
  65.4854616  29.0681304  16.5228106  66.1618753  28.4249046  15.3309192
  62.1076280  14.3021348  32.7557613  61.7143226  13.7487547  33.4305258
  62.9242421  14.6131927  33.1464131  59.0738338  25.7405206  16.6671183
  59.5862859  26.5348457  16.8176748  59.7261051  25.0431497  16.6004785
  60.8833223  28.8570963  18.7493936  61.0599851  29.7788927  18.5614920
  61.6790056  28.5429382  19.1788316  65.0244241  15.7179227  30.3477870
  65.7653955  16.3186380  30.2682332  65.2562164  14.9756865  29.7895912
  60.1685579  20.9035595  28.6256100  60.0539095  20.0020852  28.9263198
  59.3130097  21.1499291  28.2740916  67.2477417  28.8453335  30.2243600
  66.8041271  28.0589713  29.9064505  67.9094631  29.0332485  29.5587491
  62.0064538  30.3749136  24.7504279  62.5571963  30.2466200  23.9781273
  61.1676014  30.6744026  24.3999171  69.3458655  29.1256135  28.2525001
  69.3277131  29.9465016  27.7605271  70.2678575  29.0010210  28.4775143
  65.8031709  26.6400264  29.0948510  66.3360046  25.8788552  28.8647818
  65.2745791  26.3473916  29.8372664  68.9701404  11.7460330  24.6242152
  68.6265674  12.6361972  24.5481262  69.3380367  11.5561988  23.7611737
  57.0387255  24.0693861  17.4430754  57.8762477  24.4790869  17.2264461
  57.2165523  23.1293303  17.4130948  68.9351687  21.7368941  13.1314587
  68.4198311  22.5073546  13.3702974  68.6628996  21.0634078  13.7547648
  66.5198798  16.5818642  18.1899825  65.6640394  16.1925493  18.0105464
  66.9325750  16.6610603  17.3299611  68.0497945  14.1164985  22.5891385
  67.5462740  14.0795121  21.7759190  68.3428552  15.0257728  22.6488041
  64.2940831  14.2003715  21.5957567  65.1593827  14.0046524  21.2363456
  64.3618340  13.9714067  22.5226923  73.9085961  24.4901296  15.0667760
  73.1315404  24.1512456  14.6222922  74.5877442  24.4953919  14.3922725
  68.7237990  19.6096033  14.9574368  68.4188126  19.9242183  15.8084511
  69.6768432  19.6877453  15.0001701  67.1684422  25.7686257  16.6067322
  66.6405784  25.0339016  16.2940559  66.6671925  26.5460933  16.3607290
  72.1477268  23.9635277  21.7234368  71.4900943  24.6534539  21.8114497
  72.9517667  24.3531709  22.0668354  61.9003150  16.4305923  18.9673933
  62.4746902  16.2081105  18.2347126  62.4874132  16.4994618  19.7202535
  70.9582727  22.3179650  19.7738310  71.4714609  22.9509642  20.2760020
  71.6083951  21.7180845  19.4081670  62.2272737  18.4610384  12.9869819
  61.3910049  18.7985071  13.3079093  62.0877506  18.3259364  12.0496956
  64.2025817  13.3047172  17.6949003  63.5490230  12.9896189  17.0705618
  64.1606292  12.6822912  18.4208826  65.3137022  23.5866467   9.6102295
  64.4064084  23.3555721   9.8093444  65.8108054  22.7904086   9.7976276
  68.2205101  32.2963974  12.5298981  67.5466800  32.5995671  13.1383939
  68.6070923  33.0993055  12.1804438  67.4363558  19.7929106  22.0196650
  66.5186119  20.0144053  21.8618338  67.8523701  19.8675416  21.1608358
  68.2198606  21.1920521  17.1499331  68.9670425  21.7041918  16.8406453
  68.4890195  20.8704574  18.0103724  66.4925256  23.6879062  14.1326285
  65.5836475  23.4038095  14.2298755  66.5220340  24.1078140  13.2729592
  71.7244523  27.2985651  17.9017453  71.2706850  26.4576561  17.9582643
  71.0938490  27.9347050  18.2392233  70.6677443  18.2277637  19.1318120
  69.9300200  17.7155024  19.4628363  70.9204216  17.7878019  18.3201397
  70.1677462  29.1362148  18.8367271  70.4600437  29.6967205  18.1179636
  70.6776083  29.4290709  19.5920430  70.7689070  11.0053889  19.7259889
  71.0747947  10.1451253  19.4385804  71.4941675  11.5971510  19.5258883
  57.0613426  21.4084576  18.1141487  56.8637826  20.8153937  17.3892554
  56.5060090  21.1036786  18.8317426  65.0410150  21.3007683  20.2336080
  65.0958760  20.3481519  20.1578557  64.2301352  21.4567122  20.7177379
  66.1901344  25.2287806  11.4714364  65.7520773  24.5123665  11.0120001
  66.9311784  25.4563920  10.9099455  62.9802510  19.9184742  17.9926459
  62.1670375  20.2178913  18.3991651  63.4761504  19.5240431  18.7100941
  65.1311088  29.9142499  19.9260724  65.0887266  30.1403346  18.9969256
  66.0473786  29.6805874  20.0746525  68.5776721  20.3826567  26.8241353
  68.9326109  20.6098040  27.6835819  69.2248853  20.7144944  26.2018608
  74.3074458  23.5045003  17.5290682  74.1692357  23.6946599  16.6011871
  73.9510677  24.2664385  17.9858733  62.4716584  17.4903098  23.6087694
  63.1115964  17.3491857  22.9110657  61.6394115  17.2037611  23.2326296
  74.3343838  25.5721530  22.5401954  74.7680345  25.4796819  23.3885008
  75.0475419  25.5479030  21.9021970  63.2476888  26.7905528  19.7222687
  64.0417487  26.2955848  19.5205262  62.5368581  26.2623391  19.3590392
  68.0671733  29.1723624  24.0735054  68.1208755  29.7414560  24.8412770
  67.1986514  29.3425509  23.7089091  59.5559652  20.9348610  15.7982439
  58.6257240  20.8733065  16.0152401  59.6517124  20.4124563  15.0019081
  59.4745201  17.4603423  18.3860681  59.7352018  18.3748756  18.2769841
  60.2962373  16.9927865  18.5357294  60.9470126  18.8741180  25.5559505
  61.6193180  18.6658542  24.9072154  60.1199913  18.6763266  25.1164738
  75.1959388  25.6145230  25.0734839  75.3895278  26.5191041  25.3194114
  75.0960006  25.1552649  25.9073424  66.8495698  15.5003121  27.5725166
  66.2023613  16.1993071  27.4789643  67.6196714  15.9339265  27.9401415
  70.2574496  25.7651973  30.6475720  70.1060003  25.5362525  29.7305803
  70.2479176  26.7222574  30.6607065  67.0259833  23.3383886  25.6321986
  67.9551893  23.4895045  25.4590953  66.6050863  23.4267907  24.7770633
  65.8248164  27.3634550  23.4020524  65.6859250  26.9953335  24.2746462
  65.0362761  27.8782190  23.2304481  66.4196316  32.4643647  14.7446060
  66.5948072  31.9931690  15.5591683  65.7329104  33.0909413  14.9727321
  67.3753380  26.7416153  20.7909361  67.0403212  26.7016923  21.6867011
  66.8757325  26.0760869  20.3179772  61.3497623  22.1483783  26.3161943
  61.2117421  21.4164022  26.9173482  62.2602547  22.0592683  26.0346130
  70.3112571  24.0872187  11.0646421  69.6941742  23.3619015  10.9679474
  69.8429060  24.8481548  10.7213495  63.9779924  21.8603742  25.8045622
  64.6879543  21.2196934  25.7632241  63.9349232  22.1116637  26.7271803
  71.9666703  28.7971096  28.7252201  71.9079249  28.1130316  28.0582784
  72.3686221  29.5390086  28.2732827  62.6908858  18.8468960  27.6241262
  62.1546215  18.3959699  28.2762858  62.1025567  18.9814869  26.8811726
  60.9857402  35.6133009  21.5185920  61.2254000  36.2451534  22.1964939
  60.1426598  35.2621049  21.8051280  71.9684110  26.7610680  26.9566181
  71.0810889  26.4236601  27.0792580  72.5382661  26.0293711  27.1934947
  53.6213257  23.0934771  20.2809233  54.3084297  22.7796501  19.6930248
  53.4661386  23.9976136  20.0076484  58.4247979  17.9824968  24.7094256
  58.3406168  17.3750637  23.9744666  57.6030686  18.4733986  24.7103753
  65.4985263  31.4212132  23.9227424  65.4255435  32.2267103  24.4346729
  65.0562657  31.6204098  23.0975446  65.2875043  30.6583902  17.4330246
  64.5042565  31.2005582  17.5268470  65.9867788  31.1757882  17.8324487
  68.5971693  16.4678531  20.0764451  69.0940393  15.7148494  19.7565522
  67.8258675  16.5042848  19.5107661  76.4501451  22.1718897  21.7182743
  76.4391327  23.0543612  21.3476676  75.5818830  21.8190448  21.5237280
  67.9583947  31.3198966  26.0785583  68.6711919  31.9546431  26.0061484
  67.4673976  31.4162832  25.2625585  69.6801474  25.2250219  17.6502875
  68.7457753  25.3451681  17.4807579  69.8578142  24.3222685  17.3862885
  65.1806662  18.6095914  19.8036136  64.8104449  18.0566955  20.4917041
  65.6765754  18.0054048  19.2511136  73.0674025  21.0667538  18.1852909
  73.5334477  21.8995529  18.1113211  73.5181526  20.6012519  18.8898167
  63.0095861  29.0693409  26.8991154  63.7105320  29.7029892  27.0520548
  62.5390976  29.4108141  26.1386793  71.1350256  27.4111359  15.1839061
  71.4110100  27.2967954  16.0932935  70.2654755  27.0128844  15.1451234
  71.0390688  13.4348125  22.2243810  70.1253768  13.6652352  22.3926017
  71.4683789  13.5186569  23.0757843  70.8097147  21.6238017  24.7243704
  70.1568597  21.8713924  24.0696157  71.1877526  20.8102155  24.3906181
  67.7704320  31.6597710  18.8271874  67.9526715  30.8419366  19.2899627
  68.5937306  31.8765402  18.3896764  68.1046486  30.5865895  16.0886923
  68.6334252  30.0758350  15.4757085  68.3674705  30.2708425  16.9532456
  66.8584720  22.3657828  31.2109741  66.1825357  22.2651957  31.8812116
  67.6812353  22.2097042  31.6745738  58.6063579  28.6029764  23.8322257
  59.1917015  27.8573452  23.9650161  58.4088417  28.9133721  24.7158920
  61.4602234  31.6381012  18.8484699  60.7912609  32.1227139  18.3648739
  61.3215104  31.8850232  19.7628077  53.1981233  21.1735365  22.5526700
  53.2365333  20.6398955  23.3463818  52.6921526  20.6470570  21.9337677
  65.6007502  33.6724755  25.4467357  66.1525810  33.8356377  26.2116442
  65.9413696  34.2629193  24.7747382  60.5771996  16.0199905  26.0489242
  60.6413322  16.8814736  25.6366640  60.5139116  15.4073907  25.3161600
  60.0524268  18.0923038  29.6962276  60.6796307  17.7100115  30.3099801
  59.1952187  17.8737240  30.0617969  70.4518377  28.4986013  31.3016012
  70.9958281  29.1115971  30.8070966  69.8705222  29.0565591  31.8183025
  56.8289811  19.8999467  15.6280631  57.1243252  18.9910145  15.5747685
  55.9277847  19.8787206  15.3061633  68.7375890  31.6206731  22.4331039
  68.6127029  30.8196471  21.9241985  69.3954981  32.1152924  21.9445009
  60.3584058  17.9755463  21.6108180  59.6370644  18.5891431  21.4715653
  61.1477314  18.5113228  21.5324826  70.8010798  29.4215751  24.0610590
  69.8541134  29.3021102  23.9888916  71.1493571  28.5338249  24.1436851
  63.1610371  15.3109890  27.8848831  63.6844773  15.5572186  28.6475141
  62.9422705  16.1429925  27.4651969  58.5577653  17.5813564  15.7519956
  58.2290359  16.7010943  15.5695062  58.9117023  17.5261233  16.6396345
  67.8057231  29.2168467  20.2614942  67.6582194  28.2885175  20.4422512
  68.6310725  29.2388558  19.7772017  61.6719476  17.8686534  16.1195434
  62.0115548  18.3972455  15.3974042  62.1191596  18.2066940  16.8954000
  71.4091353  30.0397026  21.3479814  72.3337901  29.8339887  21.2104266
  71.2406657  29.7913427  22.2569156  64.3662916  16.2523585  25.5698502
  64.0259737  15.4531398  25.9719182  63.6601923  16.5525296  24.9975335
  65.0179388  13.3372897  24.0225825  65.8405458  12.8633376  23.9004715
  65.2617452  14.1163381  24.5224511  63.6587623  16.3661156  14.3188727
  64.3795985  16.7442409  13.8152444  63.0352927  17.0850033  14.4223705
  67.8018746  17.0706305  15.2547059  68.0182360  17.9530943  14.9535887
  67.3212813  16.6792518  14.5252701  62.5417967  20.0292018  21.8317804
  62.3962548  20.3432321  22.7242085  62.0643171  20.6476918  21.2788702
  64.4014350  17.0194566  21.8798693  64.3875919  16.1235659  21.5430991
  65.1186778  17.0265230  22.5136979  66.2540481  17.4531906  23.9251821
  65.9958258  18.3748977  23.9236151  65.7225521  17.0562341  24.6152285
  71.1986669  30.5582693  16.7041906  71.3723547  29.9929116  15.9515758
  71.6915561  31.3583588  16.5221396  57.0163629  22.5697362  24.7705465
  56.4717097  23.3457170  24.9025739  57.8942979  22.9168167  24.6124586
  63.8051246  15.9008946  17.1486263  63.9267157  14.9725592  17.3477151
  63.5153288  15.9147632  16.2364579  66.6742436  13.5863857  20.2852983
  66.6964133  13.6503190  19.3304963  67.0910495  12.7468365  20.4793489
  77.0526061  23.3219116  18.3232206  77.4957207  22.5726441  17.9251329
  76.1752571  23.3129253  17.9405938  72.1861842  29.8749458  13.8038804
  72.8812747  30.4956150  14.0226119  72.5284992  29.0244809  14.0791182
  57.8029651  21.6967259  27.6635622  57.0611387  21.8449894  28.2500252
  57.4822395  21.9575524  26.8002371  74.0853265  27.3249163  15.3326135
  74.6104589  27.6636436  14.6075455  73.9975618  26.3896179  15.1489270
  65.7473314  31.2383237  27.4616012  66.0560440  30.9932384  28.3338711
  66.5448796  31.4429875  26.9734882  65.7693926  33.3921147  19.6921388
  65.3298916  32.8997525  20.3854245  66.5202043  32.8494114  19.4513463
  58.2486265  29.5832687  19.6946016  59.0744285  29.2836459  19.3144660
  57.8980317  28.8140310  20.1435805  63.2167798  28.9359156  21.7643690
  62.5947807  28.2729861  21.4645918  63.8872665  28.9620288  21.0817338
  56.4494870  27.5019014  20.6534950  55.6126778  27.0741188  20.4718951
  56.4218515  27.6951457  21.5905741  63.2892325  17.4140944  31.3576196
  63.3380481  18.2903066  30.9753965  63.8314840  16.8718337  30.7847839
  73.7747171  27.9582067  30.6377333  72.9842715  27.9406206  30.0981832
  73.5380526  28.4970361  31.3926370  73.8945046  24.8074533  27.9510061
  73.9443051  24.6424541  28.8925584  73.7858969  23.9401792  27.5607942
  62.7781305  27.4863079  15.2402150  62.9269425  28.1698543  14.5868823
  63.5847748  27.4668169  15.7551606  71.1848809  20.7905461  29.2669368
  72.0858671  20.6511926  28.9753366  71.2596783  20.9559916  30.2067546
  65.5191614  18.1672316  28.1122555  64.6494923  18.4605882  27.8405143
  65.7551094  18.7512761  28.8329818  75.3963243  27.2271475  28.1952083
  75.1048051  27.5901455  29.0315544  74.7835374  26.5138483  28.0165415
  76.5958925  24.7924355  20.7154653  77.4305817  25.2314159  20.8792214
  76.7318054  24.3163008  19.8962899  73.6450431  22.3504089  26.6632141
  74.1204553  22.5431736  25.8550992  72.7215997  22.4063275  26.4175525
  60.5333938  23.5128257  16.2463219  60.2879980  22.6090587  16.4443429
  60.7029852  23.5145407  15.3042697  68.2230648  14.3851933  25.6287975
  68.7412592  15.1212960  25.3034463  67.8685780  14.6915926  26.4634734
  59.8029585  19.2456614  13.7449381  59.1098830  19.3200969  13.0889417
  59.5581337  18.4816958  14.2670898  68.4743242  10.8052216  21.1488872
  68.7544996  10.1375405  21.7749298  69.2593849  10.9981311  20.6363535
  66.2776710  29.9811209  12.7113898  65.7050677  30.6001397  12.2584370
  66.8509504  30.5310571  13.2453820  72.3452100  19.2269850  24.8960447
  73.2969523  19.3267947  24.9172671  72.1755551  18.4348118  25.4058531
  70.3666480  16.3125433  25.0819848  69.7716412  16.5930445  24.3866336
  70.0816176  16.8019334  25.8536589  69.4973970  30.2648360  13.8422480
  70.4304643  30.1993921  14.0455356  69.4097183  31.1004626  13.3837013
  72.1261987  29.5814230  10.8026428  72.0475618  29.2474094  11.6962186
  72.9471654  30.0735998  10.8017900  74.8240178  22.4475969  24.0102746
  74.7916498  21.5091970  24.1962430  75.4340802  22.5260006  23.2768571
  66.6623509  21.3172022  10.0529950  67.6082614  21.1878230  10.1218368
  66.2837754  20.5786684  10.5299378  74.9734666  19.2387013  24.0561029
  74.4573715  18.4545469  23.8690958  75.8574615  18.9105729  24.2207549
  72.6345393  12.9828028  20.0156842  72.4370215  12.6743116  20.9000174
  73.2445099  13.7089667  20.1454772  80.6416728  23.5091976  23.1508783
  81.3720116  23.2477264  23.7116486  80.0323673  22.7720698  23.1910851
  78.7232025  21.6499839  23.7483234  77.9965189  21.5155804  23.1399726
  78.3079312  21.9576667  24.5539952  66.5462201  25.3689768  31.5130607
  67.4665211  25.5468367  31.7070654  66.5111784  24.4245814  31.3610307
  55.7644366  20.5628362  20.4383882  55.4447151  19.7093670  20.1458256
  55.2177795  20.7776940  21.1941849  59.5424274  23.2790803  24.1553388
  59.7610284  24.2107911  24.1741422  59.9550048  22.9198777  24.9408192
  66.4628492  13.7858888  16.1429077  65.6529220  13.4405973  16.5184323
  67.1512909  13.4766432  16.7316688  68.3919040  12.8636935  17.7653373
  68.9450079  13.2832389  18.4243397  68.6289126  11.9372683  17.8076329
  64.4152139  18.8524009  33.5456137  64.3148866  19.8018366  33.4768228
  64.1973681  18.5242248  32.6732207  55.6332626  24.1831273  22.4077004
  54.9396098  23.7685226  21.8946958  56.3805617  24.2251810  21.8110422
  71.7697847  14.9737460  17.2732038  71.1896516  15.6322264  16.8910090
  71.5033780  14.1514805  16.8619455  70.2201413  14.3742518  19.4753358
  70.7201192  14.4859052  18.6667677  70.8637021  14.0703571  20.1154167
  64.2783409  22.2821148  32.3621199  63.7950491  23.0821508  32.5685088
  64.3644348  22.2929092  31.4088643  57.5469369  24.1149527  20.2843018
  57.5240057  24.2137215  19.3324902  57.8570005  24.9614678  20.6060185
  60.2056747  26.1725682  24.3989633  61.1600000  26.1409625  24.3319564
  60.0069270  25.7116306  25.2139859  60.7956129  24.7426798  26.9660430
  61.6149018  25.2370877  26.9895268  61.0692937  23.8258766  26.9377998
  70.5522725  17.1337551  16.3288386  69.6648580  17.4187201  16.1108581
  70.9676714  16.9731314  15.4815663  73.9037261  17.1584072  20.0442725
  74.6797651  17.6480524  20.3167342  73.1785395  17.5842126  20.5014595
  76.3409820  17.8711691  21.1016666  76.9354311  17.6307427  20.3909974
  76.4136404  17.1518821  21.7290202  58.5606976  31.7145302  21.4159831
  58.4261444  30.9545703  20.8497829  58.1439038  32.4386202  20.9488620
  69.6965939  26.8982225  10.4236406  70.4001789  27.1032228  11.0394062
  68.9728587  27.4658987  10.6885490  70.5263749  22.6492087  16.5438676
  70.4698950  23.1060638  15.7046309  71.0792091  21.8882771  16.3661519
  74.3368555  18.4381818  17.3688796  74.0805489  18.0378454  18.1997003
  73.7121423  19.1525612  17.2438935  78.6480893  21.1777892  19.8760087
  78.0880451  21.2471081  20.6491649  78.0424396  21.0018876  19.1559583
  61.7176101  32.6114619  21.6278273  61.6008486  33.5560051  21.5256964
  60.8968548  32.3088180  22.0164073  71.6052636  27.3364755  12.4734866
  72.4398240  26.9045953  12.2912341  71.4436979  27.1646768  13.4011761
  71.2598528  23.8396868  13.8391205  71.2047332  23.6741139  12.8979649
  70.6344583  24.5472901  13.9953395  56.0491043  19.0764932  27.6652628
  56.6949907  18.5663886  28.1539853  55.8408194  19.8133614  28.2396053
  68.5744435  26.1445780  33.1644768  69.4435595  26.3186432  32.8031403
  68.0951187  26.9640197  33.0420497  64.5694654  13.3404977  13.4176524
  64.5573323  14.2846817  13.5744795  65.4618076  13.1575122  13.1235985
  62.7430616  33.2642881  24.8434202  63.6457862  33.2966491  25.1600697
  62.5167986  32.3343332  24.8580538  64.4984218  32.0173867  21.5044280
  63.5479849  32.0175729  21.3908653  64.8016704  31.2706602  20.9880315
  68.3846773   9.9347753  17.6722461  67.6179169   9.3806240  17.8179143
  68.7957478  10.0069622  18.5336612  60.3888534  16.2232549  31.7627642
  61.2519996  15.8669354  31.9730966  59.8153945  15.8846444  32.4503046
  80.2336911  37.8534406  22.5690043  80.8715321  37.7341153  21.8653383
  80.1157754  38.8015250  22.6277995  77.0426617  37.8061834  22.5051567
  76.7045129  37.6902898  21.6172102  77.9116386  37.4052999  22.4852574
  72.9013433  39.6597310  18.4948458  72.3378298  39.5687247  17.7264746
  72.7865828  38.8397215  18.9750951  70.4477865  41.1548502  21.3332679
  71.2399157  40.8139326  20.9178978  70.6874515  41.2643477  22.2534832
  78.4812992  43.3268278  13.8062923  77.8300972  43.9122358  13.4196937
  79.2757355  43.8574473  13.8657961  72.4068619  40.4157415  14.2050058
  73.1799495  39.8686402  14.0662933  72.7594018  41.2801664  14.4164519
  75.1709868  39.1210646  24.0018317  75.7673441  38.8966668  23.2875280
  75.2284840  38.3795391  24.6043764  74.7434897  36.5750081  11.8368508
  74.9960417  36.0531602  11.0751971  73.8059456  36.4116227  11.9395191
  79.7878180  35.5785859  19.6443251  80.5741269  35.1605283  19.2933668
  80.0516884  36.4831952  19.8124899  79.9588257  41.0158710  14.3431908
  79.3234090  41.0893336  15.0552812  79.6285663  41.6052309  13.6650987
  85.1886607  35.5161093  20.5476229  85.9211779  34.9460309  20.7814059
  84.4325962  35.1282693  20.9882735  74.4631186  38.4778187  14.0392883
  74.3467444  37.8023090  14.7073967  74.5733445  37.9910561  13.2225036
  76.8062726  37.9388334  17.7439572  76.4420934  37.4118955  18.4552493
  77.6629842  37.5486803  17.5706057  82.7112027  29.2282667  25.0070838
  82.3795352  30.0978078  24.7832053  82.1157640  28.9118951  25.6864868
  76.4468213  32.9678234  12.7400920  76.6142616  33.8358470  13.1071391
  76.2565382  33.1305516  11.8162210  79.2043547  41.4295213  24.4066751
  78.9044270  42.3320252  24.2982558  78.8594606  41.1627396  25.2587904
  72.6556028  37.8809010  20.4403455  71.7306525  37.7485224  20.6481147
  72.9040441  38.6603229  20.9373397  82.6040690  33.9477753  22.0864188
  81.6957568  33.8793161  21.7922949  82.5528286  34.4249698  22.9146013
  76.4257434  35.4235891  13.7247587  76.3057059  35.8692942  14.5633067
  75.7310023  35.7721209  13.1661125  70.0164839  37.5242283  21.2747244
  70.1457220  37.7776762  22.1886656  69.3362290  38.1169991  20.9551899
  74.1864326  48.1939533  17.3737718  74.1088356  49.1447358  17.4526199
  73.5825970  47.8485406  18.0312645  84.4702337  32.1494191  23.8642062
  83.8276717  32.4426725  23.2181856  83.9657265  32.0347112  24.6695259
  82.1242500  35.8957365  14.5527921  83.0360357  36.1284751  14.3775619
  81.6152148  36.4794409  13.9903000  74.9327928  38.1752852  29.5917052
  75.6742613  38.7137896  29.3151876  74.2264914  38.8019141  29.7488604
  76.7614338  35.2554599  25.5622771  77.6075533  35.6794013  25.7057420
  76.7012976  34.5988223  26.2561334  80.7312083  40.8783183  21.9441503
  80.1020945  41.0428897  21.2417570  80.3437745  41.2924793  22.7152467
  84.6101315  41.8137621  19.2985866  83.9252353  42.1936522  18.7482900
  84.6945164  42.4232947  20.0317814  79.9113783  32.9158967  27.2203944
  79.6674715  33.6701028  26.6838220  80.1873714  33.2944315  28.0551191
  81.8652246  39.4597580  25.8981210  82.0769142  40.1029340  25.2215591
  81.8181995  38.6259896  25.4303140  79.4678475  32.0715401  22.8017782
  78.6062954  32.3696654  23.0934520  79.4940910  32.2885799  21.8698815
  76.2840045  40.6157591  19.2091588  76.7478390  40.8945294  18.4196210
  76.0196843  39.7141036  19.0264678  73.1764126  40.1629073  22.1471351
  73.7465483  40.5916341  21.5088835  73.7672238  39.8811657  22.8455537
  75.2208931  36.7380743  16.0181153  75.9232974  37.1901787  16.4855079
  74.8889559  36.0964562  16.6461046  73.6689292  35.3292500  30.3932362
  73.0387953  36.0108781  30.6267759  73.5625380  35.2175582  29.4485501
  68.9634265  34.9964296  21.3198286  68.1733319  35.2521825  20.8438397
  69.4545512  35.8112634  21.4250327  82.9798074  42.3369535  24.0703567
  83.8015518  41.9349723  23.7886249  82.9760477  42.2337769  25.0219683
  70.9149010  35.3608875  18.2781763  70.1180173  35.4727570  18.7965259
  70.6874602  35.6995528  17.4122654  67.2471968  35.2494787  23.7513277
  67.4980006  36.1341796  24.0170853  67.7831516  35.0699388  22.9788369
  91.0704067  38.6808284  20.4188539  90.3167776  38.1115682  20.2632543
  91.2051608  38.6470948  21.3659173  76.4602695  43.5521686  16.0943258
  76.3248370  44.3973222  16.5228106  77.0012508  43.7540964  15.3309192
  72.9470035  29.6313266  32.7557613  72.5536981  29.0779464  33.4305258
  73.7636175  29.9423844  33.1464131  69.9132093  41.0697124  16.6671183
  70.4256613  41.8640374  16.8176748  70.5654806  40.3723415  16.6004785
  71.7226977  44.1862880  18.7493936  71.8993606  45.1080845  18.5614920
  72.5183811  43.8721300  19.1788316  71.0079334  36.2327512  28.6256100
  70.8932849  35.3312770  28.9263198  70.1523852  36.4791209  28.2740916
  79.8095159  27.0752248  24.6242152  79.4659428  27.9653890  24.5481262
  80.1774121  26.8853906  23.7611737  67.8781009  39.3985778  17.4430754
  68.7156231  39.8082787  17.2264461  68.0559277  38.4585221  17.4130948
  79.7745442  37.0660859  13.1314587  79.2592065  37.8365464  13.3702974
  79.5022750  36.3925995  13.7547648  77.3592553  31.9110560  18.1899825
  76.5034149  31.5217410  18.0105464  77.7719504  31.9902521  17.3299611
  78.8891699  29.4456903  22.5891385  78.3856495  29.4087038  21.7759190
  79.1822306  30.3549646  22.6488041  75.1334585  29.5295633  21.5957567
  75.9987582  29.3338442  21.2363456  75.2012094  29.3005985  22.5226923
  84.7479716  39.8193214  15.0667760  83.9709159  39.4804373  14.6222922
  85.4271197  39.8245837  14.3922725  79.5631745  34.9387951  14.9574368
  79.2581880  35.2534100  15.8084511  80.5162187  35.0169371  15.0001701
  78.0078177  41.0978174  16.6067322  77.4799538  40.3630934  16.2940559
  77.5065679  41.8752851  16.3607290  82.9871023  39.2927195  21.7234368
  82.3294697  39.9826456  21.8114497  83.7911422  39.6823627  22.0668354
  72.7396904  31.7597841  18.9673933  73.3140656  31.5373022  18.2347126
  73.3267887  31.8286535  19.7202535  81.7976481  37.6471568  19.7738310
  82.3108363  38.2801559  20.2760020  82.4477705  37.0472763  19.4081670
  73.0666491  33.7902302  12.9869819  72.2303804  34.1276988  13.3079093
  72.9271261  33.6551282  12.0496956  75.0419572  28.6339090  17.6949003
  74.3883984  28.3188107  17.0705618  75.0000046  28.0114830  18.4208826
  76.1530777  38.9158385   9.6102295  75.2457839  38.6847638   9.8093444
  76.6501809  38.1196004   9.7976276  79.0598856  47.6255892  12.5298981
  78.3860554  47.9287589  13.1383939  79.4464678  48.4284972  12.1804438
  78.2757312  35.1221023  22.0196650  77.3579874  35.3435970  21.8618338
  78.6917456  35.1967334  21.1608358  79.0592360  36.5212439  17.1499331
  79.8064179  37.0333836  16.8406453  79.3283950  36.1996492  18.0103724
  77.3319010  39.0170980  14.1326285  76.4230229  38.7330012  14.2298755
  77.3614094  39.4370058  13.2729592  82.5638278  42.6277569  17.9017453
  82.1100605  41.7868479  17.9582643  81.9332244  43.2638967  18.2392233
  81.5071197  33.5569555  19.1318120  80.7693954  33.0446941  19.4628363
  81.7597971  33.1169937  18.3201397  81.0071217  44.4654066  18.8367271
  81.2994191  45.0259123  18.1179636  81.5169837  44.7582627  19.5920430
  81.6082825  26.3345807  19.7259889  81.9141701  25.4743171  19.4385804
  82.3335429  26.9263427  19.5258883  67.9007181  36.7376494  18.1141487
  67.7031580  36.1445854  17.3892554  67.3453845  36.4328704  18.8317426
  75.8803904  36.6299600  20.2336080  75.9352514  35.6773437  20.1578557
  75.0695106  36.7859039  20.7177379  77.0295098  40.5579723  11.4714364
  76.5914528  39.8415582  11.0120001  77.7705539  40.7855838  10.9099455
  73.8196264  35.2476660  17.9926459  73.0064130  35.5470831  18.3991651
  74.3155258  34.8532349  18.7100941  75.9704842  45.2434417  19.9260724
  75.9281021  45.4695263  18.9969256  76.8867541  45.0097791  20.0746525
  79.4170476  35.7118484  26.8241353  79.7719864  35.9389958  27.6835819
  80.0642607  36.0436861  26.2018608  85.1468213  38.8336920  17.5290682
  85.0086111  39.0238516  16.6011871  84.7904432  39.5956303  17.9858733
  73.3110339  32.8195015  23.6087694  73.9509718  32.6783775  22.9110657
  72.4787870  32.5329529  23.2326296  85.1737592  40.9013447  22.5401954
  85.6074099  40.8088736  23.3885008  85.8869173  40.8770948  21.9021970
  74.0870643  42.1197446  19.7222687  74.8811241  41.6247766  19.5205262
  73.3762335  41.5915309  19.3590392  70.3953406  36.2640528  15.7982439
  69.4650994  36.2024983  16.0152401  70.4910878  35.7416480  15.0019081
  70.3138955  32.7895340  18.3860681  70.5745773  33.7040674  18.2769841
  71.1356128  32.3219783  18.5357294  71.7863881  34.2033098  25.5559505
  72.4586934  33.9950460  24.9072154  70.9593667  34.0055184  25.1164738
  86.0353142  40.9437148  25.0734839  86.2289032  41.8482958  25.3194114
  85.9353760  40.4844567  25.9073424  77.8653587  38.6675803  25.6321986
  78.7945647  38.8186963  25.4590953  77.4444617  38.7559824  24.7770633
  76.6641919  42.6926468  23.4020524  76.5253005  42.3245252  24.2746462
  75.8756515  43.2074107  23.2304481  77.2590071  47.7935564  14.7446060
  77.4341827  47.3223608  15.5591683  76.5722859  48.4201331  14.9727321
  78.2147134  42.0708071  20.7909361  77.8796967  42.0308841  21.6867011
  77.7151080  41.4052786  20.3179772  72.1891378  37.4775701  26.3161943
  72.0511176  36.7455939  26.9173482  73.0996301  37.3884601  26.0346130
  81.1506326  39.4164105  11.0646421  80.5335496  38.6910933  10.9679474
  80.6822814  40.1773465  10.7213495  74.8173679  37.1895660  25.8045622
  75.5273297  36.5488852  25.7632241  74.7742987  37.4408555  26.7271803
  82.8060457  44.1263013  28.7252201  82.7473003  43.4422233  28.0582784
  83.2079976  44.8682003  28.2732827  73.5302613  34.1760878  27.6241262
  72.9939970  33.7251616  28.2762858  72.9419321  34.3106787  26.8811726
  72.9404872  33.6349529  10.1867725  72.0634338  33.5138330   9.8229972
  73.4162625  32.8435608   9.9346614  82.8077865  42.0902597  26.9566181
  81.9204643  41.7528519  27.0792580  83.3776416  41.3585628  27.1934947
  64.4607012  38.4226689  20.2809233  65.1478052  38.1088419  19.6930248
  64.3055140  39.3268054  20.0076484  69.2641734  33.3116886  24.7094256
  69.1799923  32.7042555  23.9744666  68.4424440  33.8025904  24.7103753
  76.1268798  45.9875820  17.4330246  75.3436319  46.5297500  17.5268470
  76.8261543  46.5049799  17.8324487  79.4365448  31.7970449  20.0764451
  79.9334147  31.0440411  19.7565522  78.6652429  31.8334766  19.5107661
  87.2895205  37.5010815  21.7182743  87.2785081  38.3835530  21.3476676
  86.4212585  37.1482365  21.5237280  80.5195228  40.5542136  17.6502875
  79.5851507  40.6743599  17.4807579  80.6971897  39.6514603  17.3862885
  76.0200416  33.9387832  19.8036136  75.6498204  33.3858872  20.4917041
  76.5159509  33.3345966  19.2511136  83.9067780  36.3959456  18.1852909
  84.3728232  37.2287447  18.1113211  84.3575280  35.9304437  18.8898167
  81.9744011  42.7403277  15.1839061  82.2503855  42.6259871  16.0932935
  81.1048510  42.3420762  15.1451234  81.8784442  28.7640043  22.2243810
  80.9647522  28.9944269  22.3926017  82.3077544  28.8478487  23.0757843
  81.6490901  36.9529935  24.7243704  80.9962351  37.2005842  24.0696157
  82.0271281  36.1394073  24.3906181  78.6098075  46.9889628  18.8271874
  78.7920469  46.1711284  19.2899627  79.4331061  47.2057320  18.3896764
  78.9440240  45.9157813  16.0886923  79.4728007  45.4050267  15.4757085
  79.2068460  45.6000343  16.9532456  69.4457333  43.9321682  23.8322257
  70.0310770  43.1865370  23.9650161  69.2482172  44.2425639  24.7158920
  72.2995988  46.9672929  18.8484699  71.6306364  47.4519057  18.3648739
  72.1608858  47.2142150  19.7628077  64.0374988  36.5027282  22.5526700
  64.0759087  35.9690873  23.3463818  63.5315281  35.9762488  21.9337677
  71.4165750  31.3491823  26.0489242  71.4807077  32.2106654  25.6366640
  71.3532870  30.7365824  25.3161600  70.8918023  33.4214955  29.6962276
  71.5190061  33.0392033  30.3099801  70.0345942  33.2029157  30.0617969
  67.6683565  35.2291384  15.6280631  67.9637006  34.3202063  15.5747685
  66.7671601  35.2079124  15.3061633  79.5769644  46.9498649  22.4331039
  79.4520784  46.1488388  21.9241985  80.2348735  47.4444842  21.9445009
  71.1977812  33.3047381  21.6108180  70.4764398  33.9183349  21.4715653
  71.9871068  33.8405146  21.5324826  81.6404553  44.7507669  24.0610590
  80.6934888  44.6313020  23.9888916  81.9887326  43.8630167  24.1436851
  74.0004126  30.6401808  27.8848831  74.5238528  30.8864104  28.6475141
  73.7816459  31.4721842  27.4651969  69.3971407  32.9105482  15.7519956
  69.0684113  32.0302861  15.5695062  69.7510778  32.8553151  16.6396345
  78.6450986  44.5460385  20.2614942  78.4975948  43.6177092  20.4422512
  79.4704479  44.5680476  19.7772017  72.5113230  33.1978452  16.1195434
  72.8509303  33.7264373  15.3974042  72.9585351  33.5358858  16.8954000
  82.2485108  45.3688944  21.3479814  83.1731655  45.1631805  21.2104266
  82.0800411  45.1205345  22.2569156  75.2056671  31.5815503  25.5698502
  74.8653491  30.7823316  25.9719182  74.4995677  31.8817213  24.9975335
  75.8573143  28.6664815  24.0225825  76.6799212  28.1925293  23.9004715
  76.1011206  29.4455299  24.5224511  74.4981377  31.6953074  14.3188727
  75.2189740  32.0734326  13.8152444  73.8746681  32.4141950  14.4223705
  78.6412500  32.3998222  15.2547059  78.8576115  33.2822860  14.9535887
  78.1606567  32.0084436  14.5252701  73.3811722  35.3583936  21.8317804
  73.2356302  35.6724239  22.7242085  72.9036925  35.9768836  21.2788702
  75.2408104  32.3486484  21.8798693  75.2269673  31.4527577  21.5430991
  75.9580533  32.3557147  22.5136979  77.0934235  32.7823824  23.9251821
  76.8352013  33.7040895  23.9236151  76.5619276  32.3854258  24.6152285
  82.0380424  45.8874611  16.7041906  82.2117301  45.3221034  15.9515758
  82.5309315  46.6875506  16.5221396  67.8557384  37.8989280  24.7705465
  67.3110852  38.6749088  24.9025739  68.7336734  38.2460085  24.6124586
  74.6445000  31.2300864  17.1486263  74.7660912  30.3017510  17.3477151
  74.3547043  31.2439550  16.2364579  77.5136191  28.9155774  20.2852983
  77.5357888  28.9795107  19.3304963  77.9304250  28.0760283  20.4793489
  87.8919815  38.6511034  18.3232206  88.3350961  37.9018359  17.9251329
  87.0146325  38.6421170  17.9405938  83.0255596  45.2041375  13.8038804
  83.7206501  45.8248068  14.0226119  83.3678747  44.3536727  14.0791182
  68.6423406  37.0259176  27.6635622  67.9005142  37.1741812  28.2500252
  68.3216150  37.2867442  26.8002371  84.9247020  42.6541081  15.3326135
  85.4498344  42.9928354  14.6075455  84.8369372  41.7188096  15.1489270
  76.6087680  48.7213064  19.6921388  76.1692671  48.2289443  20.3854245
  77.3595797  48.1786032  19.4513463  69.0880019  44.9124605  19.6946016
  69.9138039  44.6128377  19.3144660  68.7374071  44.1432228  20.1435805
  74.0561552  44.2651073  21.7643690  73.4341562  43.6021778  21.4645918
  74.7266419  44.2912205  21.0817338  67.2888624  42.8310932  20.6534950
  66.4520533  42.4033106  20.4718951  67.2612270  43.0243375  21.5905741
  84.7338801  40.1366451  27.9510061  84.7836806  39.9716458  28.8925584
  84.6252724  39.2693710  27.5607942  73.6175059  42.8154997  15.2402150
  73.7663180  43.4990461  14.5868823  74.4241503  42.7960087  15.7551606
  87.4352680  40.1216272  20.7154653  88.2699571  40.5606076  20.8792214
  87.5711809  39.6454925  19.8962899  84.4844186  37.6796007  26.6632141
  84.9598307  37.8723653  25.8550992  83.5609751  37.7355193  26.4175525
  71.3727692  38.8420174  16.2463219  71.1273734  37.9382504  16.4443429
  71.5423607  38.8437325  15.3042697  79.0624402  29.7143851  25.6287975
  79.5806346  30.4504878  25.3034463  78.7079535  30.0207844  26.4634734
  70.6423340  34.5748532  13.7449381  69.9492585  34.6492887  13.0889417
  70.3975092  33.8108876  14.2670898  79.3136996  26.1344133  21.1488872
  79.5938750  25.4667322  21.7749298  80.0987603  26.3273229  20.6363535
  77.1170465  45.3103127  12.7113898  76.5444432  45.9293314  12.2584370
  77.6903259  45.8602489  13.2453820  83.1845855  34.5561767  24.8960447
  84.1363278  34.6559865  24.9172671  83.0149305  33.7640036  25.4058531
  81.2060234  31.6417350  25.0819848  80.6110166  31.9222363  24.3866336
  80.9209931  32.1311251  25.8536589  80.3367725  45.5940277  13.8422480
  81.2698398  45.5285839  14.0455356  80.2490937  46.4296544  13.3837013
  82.9655741  44.9106148  10.8026428  82.8869373  44.5766011  11.6962186
  83.7865408  45.4027915  10.8017900  85.6633932  37.7767887  24.0102746
  85.6310253  36.8383888  24.1962430  86.2734556  37.8551924  23.2768571
  77.5017263  36.6463940  10.0529950  78.4476368  36.5170148  10.1218368
  77.1231508  35.9078602  10.5299378  85.8128421  34.5678930  24.0561029
  85.2967470  33.7837387  23.8690958  86.6968370  34.2397647  24.2207549
  83.4739148  28.3119946  20.0156842  83.2763969  28.0035034  20.9000174
  84.0838853  29.0381585  20.1454772  91.4810482  38.8383894  23.1508783
  92.2113871  38.5769182  23.7116486  90.8717428  38.1012616  23.1910851
  89.5625779  36.9791756  23.7483234  88.8358943  36.8447721  23.1399726
  89.1473066  37.2868585  24.5539952  75.6860181  34.5713916   9.9884836
  74.7791636  34.2747029  10.0647549  75.9636162  34.2743734   9.1219122
  66.6038121  35.8920280  20.4383882  66.2840905  35.0385588  20.1458256
  66.0571549  36.1068858  21.1941849  70.3818028  38.6082721  24.1553388
  70.6004038  39.5399828  24.1741422  70.7943802  38.2490695  24.9408192
  77.3022246  29.1150806  16.1429077  76.4922975  28.7697891  16.5184323
  77.9906663  28.8058350  16.7316688  79.2312795  28.1928853  17.7653373
  79.7843833  28.6124306  18.4243397  79.4682881  27.2664601  17.8076329
  74.4558965  31.4300851  10.1296815  75.3178129  31.7555750  10.3892632
  74.6409309  30.6432347   9.6169881  66.4726381  39.5123191  22.4077004
  65.7789852  39.0977144  21.8946958  67.2199372  39.5543728  21.8110422
  82.6091602  30.3029378  17.2732038  82.0290271  30.9614182  16.8910090
  82.3427534  29.4806723  16.8619455  81.0595168  29.7034436  19.4753358
  81.5594946  29.8150970  18.6667677  81.7030776  29.3995488  20.1154167
  68.3863123  39.4441445  20.2843018  68.3633812  39.5429132  19.3324902
  68.6963760  40.2906596  20.6060185  81.3916480  32.4629468  16.3288386
  80.5042335  32.7479119  16.1108581  81.8070469  32.3023232  15.4815663
  84.7431016  32.4875989  20.0442725  85.5191406  32.9772442  20.3167342
  84.0179150  32.9134043  20.5014595  87.1803574  33.2003609  21.1016666
  87.7748065  32.9599344  20.3909974  87.2530158  32.4810739  21.7290202
  69.4000730  47.0437219  21.4159831  69.2655198  46.2837620  20.8497829
  68.9832792  47.7678119  20.9488620  80.5359693  42.2274143  10.4236406
  81.2395543  42.4324145  11.0394062  79.8122342  42.7950905  10.6885490
  81.3657503  37.9784004  16.5438676  81.3092705  38.4352556  15.7046309
  81.9185846  37.2174689  16.3661519  85.1762309  33.7673736  17.3688796
  84.9199244  33.3670372  18.1997003  84.5515177  34.4817530  17.2438935
  89.4874647  36.5069809  19.8760087  88.9274205  36.5762999  20.6491649
  88.8818151  36.3310794  19.1559583  82.4446390  42.6656672  12.4734866
  83.2791994  42.2337871  12.2912341  82.2830733  42.4938686  13.4011761
  82.0992283  39.1688785  13.8391205  82.0441086  39.0033057  12.8979649
  81.4738338  39.8764818  13.9953395  66.8884798  34.4056850  27.6652628
  67.5343661  33.8955804  28.1539853  66.6801949  35.1425532  28.2396053
  75.4088408  28.6696894  13.4176524  75.3967078  29.6138734  13.5744795
  76.3011830  28.4867040  13.1235985  75.3377972  47.3465785  21.5044280
  74.3873603  47.3467647  21.3908653  75.6410458  46.5998519  20.9880315
  79.2240528  25.2639671  17.6722461  78.4572923  24.7098158  17.8179143
  79.6351233  25.3361540  18.5336612  71.2282289  31.5524467  31.7627642
  72.0913750  31.1961272  31.9730966  70.6547699  31.2138362  32.4503046
  91.0730666  53.1826323  22.5690043  91.7109076  53.0633071  21.8653383
  90.9551508  54.1307167  22.6277995  87.8820372  53.1353751  22.5051567
  87.5438883  53.0194816  21.6172102  88.7510140  52.7344916  22.4852574
  83.7407188  54.9889228  18.4948458  83.1772053  54.8979165  17.7264746
  83.6259583  54.1689132  18.9750951  88.3640155  54.2888603  28.4637773
  88.3528796  53.8941401  27.5918277  88.5260794  53.5554676  29.0571544
  81.2871619  56.4840419  21.3332679  82.0792911  56.1431244  20.9178978
  81.5268270  56.5935394  22.2534832  89.3206746  58.6560196  13.8062923
  88.6694726  59.2414276  13.4196937  90.1151109  59.1866390  13.8657961
  83.2462373  55.7449333  14.2050058  84.0193249  55.1978320  14.0662933
  83.5987772  56.6093582  14.4164519  85.0847416  57.0725715  27.4116957
  84.7937282  57.9771346  27.2963623  85.7204400  57.1142243  28.1261027
  86.0103623  54.4502563  24.0018317  86.6067195  54.2258586  23.2875280
  86.0678594  53.7087309  24.6043764  85.5828651  51.9041999  11.8368508
  85.8354172  51.3823520  11.0751971  84.6453210  51.7408144  11.9395191
  90.6271934  50.9077777  19.6443251  91.4135023  50.4897200  19.2933668
  90.8910638  51.8123869  19.8124899  90.7982011  56.3450627  14.3431908
  90.1627844  56.4185254  15.0552812  90.4679418  56.9344226  13.6650987
  96.0280361  50.8453010  20.5476229  96.7605533  50.2752227  20.7814059
  95.2719717  50.4574611  20.9882735  85.3024940  53.8070105  14.0392883
  85.1861198  53.1315008  14.7073967  85.4127200  53.3202479  13.2225036
  87.6456481  53.2680252  17.7439572  87.2814688  52.7410873  18.4552493
  88.5023597  52.8778721  17.5706057  93.5505782  44.5574584  25.0070838
  93.2189106  45.4269995  24.7832053  92.9551395  44.2410868  25.6864868
  87.2861968  48.2970152  12.7400920  87.4536370  49.1650388  13.1071391
  87.0959137  48.4597433  11.8162210  90.0437301  56.7587130  24.4066751
  89.7438024  57.6612169  24.2982558  89.6988361  56.4919314  25.2587904
  83.4949783  53.2100927  20.4403455  82.5700279  53.0777141  20.6481147
  83.7434196  53.9895147  20.9373397  93.4434445  49.2769671  22.0864188
  92.5351322  49.2085079  21.7922949  93.3922041  49.7541616  22.9146013
  87.2651189  50.7527809  13.7247587  87.1450814  51.1984860  14.5633067
  86.5703777  51.1013127  13.1661125  80.8558594  52.8534201  21.2747244
  80.9850975  53.1068680  22.1886656  80.1756045  53.4461909  20.9551899
  85.0258081  63.5231451  17.3737718  84.9482111  64.4739276  17.4526199
  84.4219724  63.1777323  18.0312645  87.5175311  50.6959316  30.0299085
  86.7408645  51.2553236  30.0201950  88.1565874  51.1816099  30.5513955
  95.3096091  47.4786109  23.8642062  94.6670472  47.7718642  23.2181856
  94.8051020  47.3639029  24.6695259  92.9636255  51.2249282  14.5527921
  93.8754111  51.4576669  14.3775619  92.4545902  51.8086326  13.9903000
  85.7721683  53.5044770  29.5917052  86.5136367  54.0429814  29.3151876
  85.0658668  54.1311058  29.7488604  91.2477023  55.6473910  28.1889214
  91.6560379  55.2056321  27.4443846  90.5254284  55.0726538  28.4423407
  87.6008093  50.5846517  25.5622771  88.4469288  51.0085930  25.7057420
  87.5406730  49.9280141  26.2561334  91.5705837  56.2075101  21.9441503
  90.9414700  56.3720815  21.2417570  91.1831499  56.6216710  22.7152467
  95.4495069  57.1429539  19.2985866  94.7646107  57.5228440  18.7482900
  95.5338918  57.7524865  20.0317814  90.7507538  48.2450885  27.2203944
  90.5068470  48.9992946  26.6838220  91.0267468  48.6236233  28.0551191
  92.7046001  54.7889498  25.8981210  92.9162896  55.4321257  25.2215591
  92.6575749  53.9551814  25.4303140  90.3072230  47.4007318  22.8017782
  89.4456709  47.6988572  23.0934520  90.3334664  47.6177717  21.8698815
  87.1233799  55.9449509  19.2091588  87.5872145  56.2237212  18.4196210
  86.8590597  55.0432953  19.0264678  84.0157880  55.4920990  22.1471351
  84.5859237  55.9208259  21.5088835  84.6065992  55.2103575  22.8455537
  86.0602685  52.0672661  16.0181153  86.7626729  52.5193705  16.4855079
  85.7283314  51.4256480  16.6461046  84.5083047  50.6584418  30.3932362
  83.8781707  51.3400699  30.6267759  84.4019135  50.5467499  29.4485501
  79.8028019  50.3256214  21.3198286  79.0127073  50.5813742  20.8438397
  80.2939267  51.1404552  21.4250327  93.8191829  57.6661453  24.0703567
  94.6409272  57.2641640  23.7886249  93.8154232  57.5629687  25.0219683
  81.7542765  50.6900793  18.2781763  80.9573928  50.8019487  18.7965259
  81.5268357  51.0287445  17.4122654  87.5848432  57.2145496  26.2264278
  87.6492865  57.6765903  27.0622450  86.8759356  56.5842861  26.3546588
 101.9097822  54.0100201  20.4188539 101.1561530  53.4407600  20.2632543
 102.0445363  53.9762866  21.3659173  87.2996450  58.8813604  16.0943258
  87.1642125  59.7265139  16.5228106  87.8406262  59.0832881  15.3309192
  83.7863789  44.9605184  32.7557613  83.3930735  44.4071382  33.4305258
  84.6029930  45.2715762  33.1464131  80.7525847  56.3989042  16.6671183
  81.2650368  57.1932292  16.8176748  81.4048560  55.7015332  16.6004785
  82.5620732  59.5154798  18.7493936  82.7387360  60.4372763  18.5614920
  83.3577565  59.2013217  19.1788316  88.9264926  59.5037170  30.2243600
  88.4828780  58.7173549  29.9064505  89.5882140  59.6916321  29.5587491
  83.6852047  61.0332972  24.7504279  84.2359472  60.9050035  23.9781273
  82.8463523  61.3327861  24.3999171  91.0246164  59.7839970  28.2525001
  91.0064640  60.6048851  27.7605271  91.9466084  59.6594045  28.4775143
  87.4819218  57.2984100  29.0948510  88.0147555  56.5372388  28.8647818
  86.9533300  57.0057751  29.8372664  90.6488913  42.4044166  24.6242152
  90.3053183  43.2945807  24.5481262  91.0167876  42.2145823  23.7611737
  78.7174764  54.7277696  17.4430754  79.5549986  55.1374704  17.2264461
  78.8953032  53.7877138  17.4130948  90.6139196  52.3952777  13.1314587
  90.0985820  53.1657381  13.3702974  90.3416505  51.7217913  13.7547648
  88.1986307  47.2402478  18.1899825  87.3427903  46.8509328  18.0105464
  88.6113259  47.3194438  17.3299611  89.7285454  44.7748821  22.5891385
  89.2250249  44.7378956  21.7759190  90.0216061  45.6841564  22.6488041
  85.9728340  44.8587551  21.5957567  86.8381336  44.6630359  21.2363456
  86.0405849  44.6297902  22.5226923  95.5873470  55.1485131  15.0667760
  94.8102913  54.8096291  14.6222922  96.2664951  55.1537755  14.3922725
  90.4025499  50.2679869  14.9574368  90.0975635  50.5826018  15.8084511
  91.3555941  50.3461289  15.0001701  88.8471931  56.4270092  16.6067322
  88.3193293  55.6922852  16.2940559  88.3459434  57.2044768  16.3607290
  93.8264777  54.6219113  21.7234368  93.1688452  55.3118374  21.8114497
  94.6305176  55.0115545  22.0668354  83.5790659  47.0889758  18.9673933
  84.1534411  46.8664940  18.2347126  84.1661641  47.1578453  19.7202535
  92.6370236  52.9763485  19.7738310  93.1502118  53.6093477  20.2760020
  93.2871460  52.3764681  19.4081670  83.9060246  49.1194219  12.9869819
  83.0697558  49.4568906  13.3079093  83.7665015  48.9843199  12.0496956
  85.8813326  43.9631007  17.6949003  85.2277739  43.6480025  17.0705618
  85.8393801  43.3406748  18.4208826  86.9924531  54.2450302   9.6102295
  86.0851593  54.0139556   9.8093444  87.4895563  53.4487922   9.7976276
  89.8992610  62.9547810  12.5298981  89.2254309  63.2579506  13.1383939
  90.2858432  63.7576890  12.1804438  89.1151067  50.4512941  22.0196650
  88.1973628  50.6727888  21.8618338  89.5311210  50.5259251  21.1608358
  89.8986115  51.8504357  17.1499331  90.6457933  52.3625754  16.8406453
  90.1677704  51.5288409  18.0103724  88.1712765  54.3462897  14.1326285
  87.2623984  54.0621930  14.2298755  88.2007849  54.7661976  13.2729592
  93.4032032  57.9569487  17.9017453  92.9494359  57.1160397  17.9582643
  92.7725999  58.5930885  18.2392233  92.3464952  48.8861473  19.1318120
  91.6087708  48.3738859  19.4628363  92.5991725  48.4461854  18.3201397
  91.8464971  59.7945983  18.8367271  92.1387946  60.3551041  18.1179636
  92.3563592  60.0874544  19.5920430  92.4476579  41.6637725  19.7259889
  92.7535456  40.8035088  19.4385804  93.1729184  42.2555345  19.5258883
  78.7400935  52.0668411  18.1141487  78.5425335  51.4737772  17.3892554
  78.1847599  51.7620622  18.8317426  86.7197659  51.9591518  20.2336080
  86.7746269  51.0065354  20.1578557  85.9088861  52.1150957  20.7177379
  87.8688853  55.8871641  11.4714364  87.4308282  55.1707500  11.0120001
  88.6099293  56.1147756  10.9099455  84.6590019  50.5768578  17.9926459
  83.8457884  50.8762748  18.3991651  85.1549013  50.1824266  18.7100941
  86.8098597  60.5726335  19.9260724  86.7674775  60.7987181  18.9969256
  87.7261295  60.3389709  20.0746525  90.2564230  51.0410402  26.8241353
  90.6113618  51.2681875  27.6835819  90.9036362  51.3728779  26.2018608
  95.9861967  54.1628838  17.5290682  95.8479866  54.3530434  16.6011871
  95.6298186  54.9248221  17.9858733  84.1504093  48.1486933  23.6087694
  84.7903473  48.0075692  22.9110657  83.3181624  47.8621447  23.2326296
  96.0131347  56.2305365  22.5401954  96.4467854  56.1380654  23.3885008
  96.7262928  56.2062865  21.9021970  84.9264397  57.4489364  19.7222687
  85.7204996  56.9539684  19.5205262  84.2156090  56.9207227  19.3590392
  89.7459242  59.8307459  24.0735054  89.7996264  60.3998395  24.8412770
  88.8774023  60.0009344  23.7089091  81.2347161  51.5932445  15.7982439
  80.3044749  51.5316901  16.0152401  81.3304633  51.0708398  15.0019081
  81.1532710  48.1187258  18.3860681  81.4139527  49.0332591  18.2769841
  81.9749882  47.6511701  18.5357294  82.6257635  49.5325015  25.5559505
  83.2980689  49.3242377  24.9072154  81.7987422  49.3347101  25.1164738
  96.8746896  56.2729066  25.0734839  97.0682787  57.1774876  25.3194114
  96.7747515  55.8136485  25.9073424  88.5283207  46.1586956  27.5725166
  87.8811122  46.8576906  27.4789643  89.2984223  46.5923100  27.9401415
  91.9362005  56.4235808  30.6475720  91.7847512  56.1946360  29.7305803
  91.9266685  57.3806410  30.6607065  88.7047342  53.9967721  25.6321986
  89.6339402  54.1478881  25.4590953  88.2838372  54.0851742  24.7770633
  87.5035673  58.0218386  23.4020524  87.3646759  57.6537170  24.2746462
  86.7150270  58.5366025  23.2304481  88.0983825  63.1227482  14.7446060
  88.2735581  62.6515525  15.5591683  87.4116613  63.7493248  14.9727321
  89.0540888  57.3999988  20.7909361  88.7190721  57.3600758  21.6867011
  88.5544834  56.7344704  20.3179772  83.0285132  52.8067618  26.3161943
  82.8904930  52.0747857  26.9173482  83.9390056  52.7176518  26.0346130
  91.9900080  54.7456023  11.0646421  91.3729251  54.0202851  10.9679474
  91.5216569  55.5065383  10.7213495  85.6567433  52.5187578  25.8045622
  86.3667052  51.8780770  25.7632241  85.6136741  52.7700472  26.7271803
  93.6454212  59.4554931  28.7252201  93.5866758  58.7714151  28.0582784
  94.0473730  60.1973921  28.2732827  84.3696367  49.5052795  27.6241262
  83.8333724  49.0543534  28.2762858  83.7813076  49.6398704  26.8811726
  82.6644911  66.2716845  21.5185920  82.9041509  66.9035369  22.1964939
  81.8214107  65.9204885  21.8051280  83.7798626  48.9641447  10.1867725
  82.9028092  48.8430248   9.8229972  84.2556379  48.1727525   9.9346614
  93.6471619  57.4194515  26.9566181  92.7598398  57.0820437  27.0792580
  94.2170170  56.6877546  27.1934947  75.3000766  53.7518607  20.2809233
  75.9871806  53.4380337  19.6930248  75.1448895  54.6559971  20.0076484
  87.1772772  62.0795967  23.9227424  87.1042944  62.8850939  24.4346729
  86.7350166  62.2787933  23.0975446  86.9662552  61.3167737  17.4330246
  86.1830074  61.8589417  17.5268470  87.6655297  61.8341717  17.8324487
  90.2759202  47.1262367  20.0764451  90.7727902  46.3732329  19.7565522
  89.5046184  47.1626683  19.5107661  98.1288960  52.8302732  21.7182743
  98.1178836  53.7127448  21.3476676  97.2606339  52.4774283  21.5237280
  89.6371456  61.9782801  26.0785583  90.3499428  62.6130266  26.0061484
  89.1461485  62.0746667  25.2625585  91.3588983  55.8834054  17.6502875
  90.4245262  56.0035516  17.4807579  91.5365651  54.9806521  17.3862885
  86.8594171  49.2679750  19.8036136  86.4891958  48.7150790  20.4917041
  87.3553263  48.6637883  19.2511136  94.7461534  51.7251373  18.1852909
  95.2121986  52.5579365  18.1113211  95.1969035  51.2596355  18.8898167
  84.6883370  59.7277245  26.8991154  85.3892829  60.3613728  27.0520548
  84.2178485  60.0691976  26.1386793  92.8137765  58.0695195  15.1839061
  93.0897609  57.9551789  16.0932935  91.9442264  57.6712679  15.1451234
  92.7178197  44.0931960  22.2243810  91.8041277  44.3236187  22.3926017
  93.1471298  44.1770404  23.0757843  92.4884655  52.2821852  24.7243704
  91.8356106  52.5297760  24.0696157  92.8665035  51.4685990  24.3906181
  89.4491829  62.3181545  18.8271874  89.6314224  61.5003201  19.2899627
  90.2724815  62.5349238  18.3896764  89.7833995  61.2449730  16.0886923
  90.3121761  60.7342185  15.4757085  90.0462214  60.9292261  16.9532456
  88.5372229  53.0241663  31.2109741  87.8612866  52.9235793  31.8812116
  89.3599862  52.8680877  31.6745738  80.2851088  59.2613600  23.8322257
  80.8704524  58.5157288  23.9650161  80.0875926  59.5717556  24.7158920
  83.1389743  62.2964847  18.8484699  82.4700118  62.7810975  18.3648739
  83.0002612  62.5434068  19.7628077  74.8768742  51.8319200  22.5526700
  74.9152842  51.2982791  23.3463818  74.3709035  51.3054405  21.9337677
  87.2795011  64.3308591  25.4467357  87.8313319  64.4940212  26.2116442
  87.6201205  64.9213029  24.7747382  82.2559505  46.6783740  26.0489242
  82.3200831  47.5398571  25.6366640  82.1926625  46.0657742  25.3161600
  92.1305886  59.1569848  31.3016012  92.6745790  59.7699806  30.8070966
  91.5492731  59.7149427  31.8183025  78.5077320  50.5583302  15.6280631
  78.8030761  49.6493981  15.5747685  77.6065356  50.5371042  15.3061633
  90.4163399  62.2790566  22.4331039  90.2914538  61.4780306  21.9241985
  91.0742490  62.7736760  21.9445009  82.0371567  48.6339299  21.6108180
  81.3158153  49.2475266  21.4715653  82.8264823  49.1697064  21.5324826
  92.4798307  60.0799586  24.0610590  91.5328643  59.9604937  23.9888916
  92.8281080  59.1922084  24.1436851  84.8397880  45.9693725  27.8848831
  85.3632282  46.2156022  28.6475141  84.6210214  46.8013760  27.4651969
  80.2365161  48.2397400  15.7519956  79.9077868  47.3594779  15.5695062
  80.5904532  48.1845068  16.6396345  89.4844740  59.8752303  20.2614942
  89.3369703  58.9469010  20.4422512  90.3098234  59.8972393  19.7772017
  83.3506985  48.5270370  16.1195434  83.6903057  49.0556291  15.3974042
  83.7979105  48.8650776  16.8954000  93.0878862  60.6980861  21.3479814
  94.0125410  60.4923723  21.2104266  92.9194166  60.4497262  22.2569156
  86.0450425  46.9107420  25.5698502  85.7047246  46.1115233  25.9719182
  85.3389432  47.2109131  24.9975335  86.6966897  43.9956733  24.0225825
  87.5192967  43.5217211  23.9004715  86.9404961  44.7747217  24.5224511
  85.3375132  47.0244991  14.3188727  86.0583494  47.4026244  13.8152444
  84.7140436  47.7433868  14.4223705  89.4806255  47.7290140  15.2547059
  89.6969869  48.6114778  14.9535887  89.0000322  47.3376354  14.5252701
  84.2205476  50.6875853  21.8317804  84.0750057  51.0016156  22.7242085
  83.7430680  51.3060754  21.2788702  86.0801859  47.6778401  21.8798693
  86.0663428  46.7819495  21.5430991  86.7974287  47.6849065  22.5136979
  87.9327990  48.1115742  23.9251821  87.6745767  49.0332812  23.9236151
  87.4013030  47.7146176  24.6152285  92.8774178  61.2166529  16.7041906
  93.0511056  60.6512951  15.9515758  93.3703070  62.0167424  16.5221396
  85.4838755  46.5592782  17.1486263  85.6054666  45.6309428  17.3477151
  85.1940797  46.5731468  16.2364579  88.3529945  44.2447692  20.2852983
  88.3751642  44.3087025  19.3304963  88.7698004  43.4052201  20.4793489
  98.7313570  53.9802952  18.3232206  99.1744716  53.2310277  17.9251329
  97.8540080  53.9713088  17.9405938  93.8649351  60.5333293  13.8038804
  94.5600256  61.1539986  14.0226119  94.2072501  59.6828644  14.0791182
  95.7640774  57.9832999  15.3326135  96.2892098  58.3220271  14.6075455
  95.6763127  57.0480014  15.1489270  87.4260823  61.8967072  27.4616012
  87.7347949  61.6516219  28.3338711  88.2236305  62.1013711  26.9734882
  87.4481435  64.0504982  19.6921388  87.0086425  63.5581361  20.3854245
  88.1989552  63.5077950  19.4513463  79.9273774  60.2416523  19.6946016
  80.7531794  59.9420295  19.3144660  79.5767826  59.4724145  20.1435805
  84.8955307  59.5942991  21.7643690  84.2735316  58.9313696  21.4645918
  85.5660174  59.6204123  21.0817338  78.1282379  58.1602849  20.6534950
  77.2914287  57.7325024  20.4718951  78.1006024  58.3535293  21.5905741
  84.9679834  48.0724779  31.3576196  85.0167990  48.9486902  30.9753965
  85.5102349  47.5302172  30.7847839  95.4534680  58.6165902  30.6377333
  94.6630224  58.5990041  30.0981832  95.2168035  59.1554196  31.3926370
  95.5732555  55.4658369  27.9510061  95.6230560  55.3008376  28.8925584
  95.4646478  54.5985628  27.5607942  84.4568814  58.1446914  15.2402150
  84.6056934  58.8282379  14.5868823  85.2635257  58.1252004  15.7551606
  92.8636318  51.4489297  29.2669368  93.7646180  51.3095762  28.9753366
  92.9384292  51.6143752  30.2067546  87.1979123  48.8256151  28.1122555
  86.3282432  49.1189717  27.8405143  87.4338603  49.4096596  28.8329818
  97.0750752  57.8855310  28.1952083  96.7835560  58.2485291  29.0315544
  96.4622883  57.1722318  28.0165415  98.2746434  55.4508190  20.7154653
  99.1093326  55.8897994  20.8792214  98.4105563  54.9746843  19.8962899
  95.3237940  53.0087925  26.6632141  95.7992062  53.2015571  25.8550992
  94.4003506  53.0647111  26.4175525  82.2121447  54.1712092  16.2463219
  81.9667489  53.2674422  16.4443429  82.3817361  54.1729242  15.3042697
  89.9018157  45.0435768  25.6287975  90.4200101  45.7796795  25.3034463
  89.5473289  45.3499762  26.4634734  81.4817094  49.9040450  13.7449381
  80.7886339  49.9784805  13.0889417  81.2368846  49.1400793  14.2670898
  90.1530751  41.4636051  21.1488872  90.4332505  40.7959240  21.7749298
  90.9381358  41.6565146  20.6363535  87.9564219  60.6395045  12.7113898
  87.3838186  61.2585232  12.2584370  88.5297013  61.1894406  13.2453820
  94.0239609  49.8853685  24.8960447  94.9757032  49.9851783  24.9172671
  93.8543060  49.0931953  25.4058531  92.0453989  46.9709268  25.0819848
  91.4503921  47.2514281  24.3866336  91.7603685  47.4603169  25.8536589
  91.1761479  60.9232195  13.8422480  92.1092152  60.8577757  14.0455356
  91.0884692  61.7588462  13.3837013  93.8049496  60.2398065  10.8026428
  93.7263127  59.9057929  11.6962186  94.6259163  60.7319833  10.8017900
  96.5027687  53.1059805  24.0102746  96.4704007  52.1675805  24.1962430
  97.1128311  53.1843841  23.2768571  88.3411018  51.9755858  10.0529950
  89.2870123  51.8462066  10.1218368  87.9625263  51.2370519  10.5299378
  96.6522175  49.8970848  24.0561029  96.1361224  49.1129305  23.8690958
  97.5362124  49.5689565  24.2207549  94.3132902  43.6411864  20.0156842
  94.1157724  43.3326952  20.9000174  94.9232608  44.3673502  20.1454772
 102.3204237  54.1675811  23.1508783 103.0507625  53.9061100  23.7116486
 101.7111182  53.4304533  23.1910851 100.4019534  52.3083674  23.7483234
  99.6752698  52.1739639  23.1399726  99.9866821  52.6160503  24.5539952
  88.2249710  56.0273604  31.5130607  89.1452720  56.2052203  31.7070654
  88.1899293  55.0829649  31.3610307  86.5253935  49.9005834   9.9884836
  85.6185390  49.6038947  10.0647549  86.8029916  49.6035652   9.1219122
  77.4431875  51.2212197  20.4383882  77.1234660  50.3677506  20.1458256
  76.8965304  51.4360775  21.1941849  88.1416001  44.4442724  16.1429077
  87.3316729  44.0989809  16.5184323  88.8300418  44.1350267  16.7316688
  90.0706549  43.5220770  17.7653373  90.6237588  43.9416224  18.4243397
  90.3076635  42.5956519  17.8076329  86.0939648  49.5107844  33.5456137
  85.9936375  50.4602201  33.4768228  85.8761190  49.1826083  32.6732207
  85.2952720  46.7592769  10.1296815  86.1571884  47.0847667  10.3892632
  85.4803064  45.9724265   9.6169881  77.3120135  54.8415109  22.4077004
  76.6183607  54.4269062  21.8946958  78.0593126  54.8835645  21.8110422
  93.4485356  45.6321296  17.2732038  92.8684025  46.2906100  16.8910090
  93.1821289  44.8098640  16.8619455  91.8988922  45.0326353  19.4753358
  92.3988701  45.1442888  18.6667677  92.5424530  44.7287406  20.1154167
  79.2256878  54.7733363  20.2843018  79.2027566  54.8721050  19.3324902
  79.5357514  55.6198513  20.6060185  81.8844256  56.8309518  24.3989633
  82.8387509  56.7993460  24.3319564  81.6856779  56.3700141  25.2139859
  92.2310234  47.7921386  16.3288386  91.3436089  48.0771037  16.1108581
  92.6464223  47.6315149  15.4815663  95.5824770  47.8167907  20.0442725
  96.3585160  48.3064359  20.3167342  94.8572904  48.2425961  20.5014595
  98.0197329  48.5295526  21.1016666  98.6141820  48.2891262  20.3909974
  98.0923913  47.8102657  21.7290202  80.2394485  62.3729137  21.4159831
  80.1048953  61.6129538  20.8497829  79.8226547  63.0970037  20.9488620
  91.3753448  57.5566061  10.4236406  92.0789298  57.7616063  11.0394062
  90.6516096  58.1242823  10.6885490  92.2051258  53.3075922  16.5438676
  92.1486459  53.7644473  15.7046309  92.7579600  52.5466607  16.3661519
  96.0156064  49.0965654  17.3688796  95.7592998  48.6962289  18.1997003
  95.3908932  49.8109448  17.2438935 100.3268402  51.8361727  19.8760087
  99.7667960  51.9054916  20.6491649  99.7211905  51.6602712  19.1559583
  83.3963610  63.2698454  21.6278273  83.2795995  64.2143887  21.5256964
  82.5756057  62.9672016  22.0164073  93.2840145  57.9948590  12.4734866
  94.1185749  57.5629788  12.2912341  93.1224488  57.8230604  13.4011761
  92.9386037  54.4980703  13.8391205  92.8834841  54.3324975  12.8979649
  92.3132092  55.2056736  13.9953395  90.2531944  56.8029615  33.1644768
  91.1223104  56.9770267  32.8031403  89.7738696  57.6224032  33.0420497
  86.2482163  43.9988812  13.4176524  86.2360832  44.9430652  13.5744795
  87.1405584  43.8158958  13.1235985  84.4218125  63.9226716  24.8434202
  85.3245371  63.9550326  25.1600697  84.1955495  62.9927167  24.8580538
  86.1771727  62.6757703  21.5044280  85.2267358  62.6759564  21.3908653
  86.4804213  61.9290437  20.9880315  90.0634282  40.5931589  17.6722461
  89.2966678  40.0390076  17.8179143  90.4744987  40.6653458  18.5336612
 101.9124420  68.5118241  22.5690043 102.5502830  68.3924988  21.8653383
 101.7945263  69.4599085  22.6277995  98.7214126  68.4645669  22.5051567
  98.3832638  68.3486734  21.6172102  99.5903895  68.0636834  22.4852574
  94.5800942  70.3181145  18.4948458  94.0165807  70.2271082  17.7264746
  94.4653337  69.4981050  18.9750951  99.2033909  69.6180521  28.4637773
  99.1922550  69.2233319  27.5918277  99.3654549  68.8846593  29.0571544
  92.1265374  71.8132337  21.3332679  92.9186666  71.4723162  20.9178978
  92.3662024  71.9227312  22.2534832 100.1600501  73.9852113  13.8062923
  99.5088481  74.5706194  13.4196937 100.9544864  74.5158308  13.8657961
  94.0856128  71.0741250  14.2050058  94.8587004  70.5270237  14.0662933
  94.4381527  71.9385500  14.4164519  95.9241170  72.4017633  27.4116957
  95.6331036  73.3063263  27.2963623  96.5598155  72.4434160  28.1261027
  96.8497377  69.7794481  24.0018317  97.4460950  69.5550504  23.2875280
  96.9072349  69.0379227  24.6043764  96.4222406  67.2333916  11.8368508
  96.6747926  66.7115438  11.0751971  95.4846965  67.0700062  11.9395191
 101.4665689  66.2369695  19.6443251 102.2528778  65.8189118  19.2933668
 101.7304393  67.1415787  19.8124899 101.6375766  71.6742545  14.3431908
 101.0021599  71.7477172  15.0552812 101.3073172  72.2636144  13.6650987
 106.8674116  66.1744928  20.5476229 107.5999288  65.6044145  20.7814059
 106.1113471  65.7866528  20.9882735  96.1418694  69.1362022  14.0392883
  96.0254953  68.4606926  14.7073967  96.2520954  68.6494396  13.2225036
  98.4850235  68.5972170  17.7439572  98.1208443  68.0702790  18.4552493
  99.3417351  68.2070639  17.5706057 104.3899536  59.8866502  25.0070838
 104.0582861  60.7561913  24.7832053 103.7945149  59.5702786  25.6864868
  98.1255722  63.6262069  12.7400920  98.2930125  64.4942306  13.1071391
  97.9352891  63.7889351  11.8162210 100.8831056  72.0879048  24.4066751
 100.5831779  72.9904087  24.2982558 100.5382115  71.8211231  25.2587904
  94.3343537  68.5392845  20.4403455  93.4094034  68.4069059  20.6481147
  94.5827950  69.3187064  20.9373397 104.2828199  64.6061588  22.0864188
 103.3745077  64.5376997  21.7922949 104.2315795  65.0833533  22.9146013
  98.1044943  66.0819727  13.7247587  97.9844568  66.5276777  14.5633067
  97.4097532  66.4305044  13.1661125  91.6952348  68.1826119  21.2747244
  91.8244729  68.4360597  22.1886656  91.0149799  68.7753827  20.9551899
  95.8651835  78.8523368  17.3737718  95.7875865  79.8031194  17.4526199
  95.2613479  78.5069241  18.0312645  98.3569065  66.0251234  30.0299085
  97.5802399  66.5845154  30.0201950  98.9959628  66.5108017  30.5513955
 106.1489846  62.8078027  23.8642062 105.5064226  63.1010560  23.2181856
 105.6444774  62.6930947  24.6695259 103.8030009  66.5541200  14.5527921
 104.7147866  66.7868587  14.3775619 103.2939656  67.1378244  13.9903000
  96.6115437  68.8336687  29.5917052  97.3530122  69.3721731  29.3151876
  95.9052423  69.4602976  29.7488604 102.0870777  70.9765828  28.1889214
 102.4954133  70.5348238  27.4443846 101.3648039  70.4018455  28.4423407
  98.4401847  65.9138434  25.5622771  99.2863042  66.3377848  25.7057420
  98.3800485  65.2572059  26.2561334 102.4099592  71.5367018  21.9441503
 101.7808454  71.7012732  21.2417570 102.0225254  71.9508628  22.7152467
 106.2888824  72.4721456  19.2985866 105.6039862  72.8520358  18.7482900
 106.3732673  73.0816783  20.0317814 101.5901292  63.5742803  27.2203944
 101.3462224  64.3284863  26.6838220 101.8661223  63.9528150  28.0551191
 103.5439755  70.1181415  25.8981210 103.7556650  70.7613175  25.2215591
 103.4969503  69.2843732  25.4303140 101.1465984  62.7299236  22.8017782
 100.2850463  63.0280489  23.0934520 101.1728419  62.9469635  21.8698815
  97.9627554  71.2741426  19.2091588  98.4265899  71.5529129  18.4196210
  97.6984352  70.3724871  19.0264678  94.8551635  70.8212908  22.1471351
  95.4252992  71.2500176  21.5088835  95.4459747  70.5395493  22.8455537
  96.8996440  67.3964579  16.0181153  97.6020483  67.8485622  16.4855079
  96.5677068  66.7548398  16.6461046  95.3476801  65.9876335  30.3932362
  94.7175462  66.6692616  30.6267759  95.2412889  65.8759417  29.4485501
  90.6421774  65.6548131  21.3198286  89.8520828  65.9105660  20.8438397
  91.1333021  66.4696469  21.4250327 104.6585583  72.9953371  24.0703567
 105.4803027  72.5933558  23.7886249 104.6547986  72.8921605  25.0219683
  92.5936519  66.0192711  18.2781763  91.7967682  66.1311405  18.7965259
  92.3662111  66.3579363  17.4122654  98.4242187  72.5437414  26.2264278
  98.4886619  73.0057821  27.0622450  97.7153111  71.9134779  26.3546588
  88.9259477  65.9078622  23.7513277  89.1767515  66.7925632  24.0170853
  89.4619025  65.7283223  22.9788369 112.7491576  69.3392119  20.4188539
 111.9955285  68.7699517  20.2632543 112.8839117  69.3054784  21.3659173
  98.1390204  74.2105521  16.0943258  98.0035879  75.0557057  16.5228106
  98.6800017  74.4124799  15.3309192  94.6257544  60.2897101  32.7557613
  94.2324489  59.7363300  33.4305258  95.4423684  60.6007680  33.1464131
  91.5919602  71.7280959  16.6671183  92.1044122  72.5224210  16.8176748
  92.2442315  71.0307250  16.6004785  93.4014486  74.8446716  18.7493936
  93.5781115  75.7664680  18.5614920  94.1971320  74.5305135  19.1788316
  97.5425505  61.7054980  30.3477870  98.2835218  62.3062133  30.2682332
  97.7743428  60.9632618  29.7895912  92.6866843  66.8911348  28.6256100
  92.5720358  65.9896605  28.9263198  91.8311361  67.1375044  28.2740916
  99.7658681  74.8329088  30.2243600  99.3222535  74.0465466  29.9064505
 100.4275894  75.0208238  29.5587491  94.5245802  76.3624890  24.7504279
  95.0753227  76.2341953  23.9781273  93.6857278  76.6619779  24.3999171
 101.8639919  75.1131888  28.2525001 101.8458394  75.9340769  27.7605271
 102.7859839  74.9885963  28.4775143  98.3212973  72.6276017  29.0948510
  98.8541310  71.8664306  28.8647818  97.7927054  72.3349669  29.8372664
 101.4882668  57.7336083  24.6242152 101.1446937  58.6237725  24.5481262
 101.8561630  57.5437741  23.7611737  89.5568518  70.0569614  17.4430754
  90.3943740  70.4666622  17.2264461  89.7346786  69.1169056  17.4130948
 101.4532951  67.7244694  13.1314587 100.9379574  68.4949299  13.3702974
 101.1810259  67.0509831  13.7547648  99.0380062  62.5694395  18.1899825
  98.1821658  62.1801246  18.0105464  99.4507013  62.6486356  17.3299611
 100.5679208  60.1040738  22.5891385 100.0644004  60.0670874  21.7759190
 100.8609815  61.0133481  22.6488041  96.8122094  60.1879468  21.5957567
  97.6775091  59.9922277  21.2363456  96.8799603  59.9589820  22.5226923
 106.4267225  70.4777049  15.0667760 105.6496667  70.1388209  14.6222922
 107.1058706  70.4829672  14.3922725 101.2419254  65.5971787  14.9574368
 100.9369389  65.9117936  15.8084511 102.1949696  65.6753206  15.0001701
  99.6865686  71.7562010  16.6067322  99.1587047  71.0214769  16.2940559
  99.1853188  72.5336686  16.3607290 104.6658532  69.9511030  21.7234368
 104.0082206  70.6410292  21.8114497 105.4698931  70.3407462  22.0668354
  94.4184413  62.4181676  18.9673933  94.9928165  62.1956858  18.2347126
  95.0055396  62.4870371  19.7202535 103.4763990  68.3055403  19.7738310
 103.9895872  68.9385395  20.2760020 104.1265214  67.7056599  19.4081670
  94.7454000  64.4486137  12.9869819  93.9091313  64.7860824  13.3079093
  94.6058770  64.3135117  12.0496956  96.7207081  59.2922925  17.6949003
  96.0671493  58.9771942  17.0705618  96.6787555  58.6698665  18.4208826
  97.8318286  69.5742220   9.6102295  96.9245348  69.3431474   9.8093444
  98.3289318  68.7779839   9.7976276  99.9544821  65.7804859  22.0196650
  99.0367383  66.0019806  21.8618338 100.3704965  65.8551169  21.1608358
 100.7379869  67.1796274  17.1499331 101.4851688  67.6917671  16.8406453
 101.0071459  66.8580327  18.0103724  99.0106519  69.6754815  14.1326285
  98.1017738  69.3913848  14.2298755  99.0401603  70.0953894  13.2729592
 104.2425787  73.2861404  17.9017453 103.7888114  72.4452314  17.9582643
 103.6119753  73.9222803  18.2392233 103.1858706  64.2153390  19.1318120
 102.4481463  63.7030777  19.4628363 103.4385480  63.7753772  18.3201397
 102.6858726  75.1237901  18.8367271 102.9781700  75.6842958  18.1179636
 103.1957346  75.4166462  19.5920430 103.2870334  56.9929642  19.7259889
 103.5929210  56.1327006  19.4385804 104.0122938  57.5847263  19.5258883
  89.5794690  67.3960329  18.1141487  89.3819089  66.8029690  17.3892554
  89.0241354  67.0912539  18.8317426  97.5591413  67.2883436  20.2336080
  97.6140023  66.3357272  20.1578557  96.7482615  67.4442875  20.7177379
  98.7082607  71.2163559  11.4714364  98.2702037  70.4999418  11.0120001
  99.4493048  71.4439673  10.9099455  95.4983773  65.9060495  17.9926459
  94.6851639  66.2054666  18.3991651  95.9942767  65.5116184  18.7100941
  97.6492351  75.9018252  19.9260724  97.6068530  76.1279099  18.9969256
  98.5655050  75.6681627  20.0746525 101.0957985  66.3702320  26.8241353
 101.4507373  66.5973793  27.6835819 101.7430116  66.7020697  26.2018608
 106.8255722  69.4920756  17.5290682 106.6873620  69.6822352  16.6011871
 106.4691941  70.2540138  17.9858733  94.9897848  63.4778851  23.6087694
  95.6297227  63.3367610  22.9110657  94.1575378  63.1913364  23.2326296
 106.8525101  71.5597283  22.5401954 107.2861608  71.4672572  23.3885008
 107.5656682  71.5354783  21.9021970  95.7658152  72.7781281  19.7222687
  96.5598750  72.2831601  19.5205262  95.0549844  72.2499144  19.3590392
 100.5852996  75.1599377  24.0735054 100.6390019  75.7290313  24.8412770
  99.7167778  75.3301262  23.7089091  92.0740915  66.9224363  15.7982439
  91.1438503  66.8608818  16.0152401  92.1698387  66.4000316  15.0019081
  91.9926464  63.4479176  18.3860681  92.2533282  64.3624509  18.2769841
  92.8143637  62.9803618  18.5357294  93.4651390  64.8616933  25.5559505
  94.1374443  64.6534295  24.9072154  92.6381176  64.6639019  25.1164738
 107.7140651  71.6020983  25.0734839 107.9076541  72.5066794  25.3194114
 107.6141269  71.1428402  25.9073424  99.3676962  61.4878874  27.5725166
  98.7204877  62.1868824  27.4789643 100.1377977  61.9215018  27.9401415
 102.7755760  71.7527726  30.6475720 102.6241266  71.5238278  29.7305803
 102.7660439  72.7098327  30.6607065  99.5441096  69.3259639  25.6321986
 100.4733156  69.4770798  25.4590953  99.1232126  69.4143660  24.7770633
  98.3429428  73.3510303  23.4020524  98.2040514  72.9829088  24.2746462
  97.5544024  73.8657943  23.2304481  98.9377580  78.4519400  14.7446060
  99.1129335  77.9807443  15.5591683  98.2510368  79.0785166  14.9727321
  99.8934643  72.7291906  20.7909361  99.5584476  72.6892676  21.6867011
  99.3938589  72.0636622  20.3179772  93.8678887  68.1359536  26.3161943
  93.7298685  67.4039775  26.9173482  94.7783810  68.0468436  26.0346130
 102.8293835  70.0747940  11.0646421 102.2123005  69.3494768  10.9679474
 102.3610323  70.8357301  10.7213495  96.4961188  67.8479495  25.8045622
  97.2060806  67.2072687  25.7632241  96.4530496  68.0992390  26.7271803
 104.4847966  74.7846849  28.7252201 104.4260512  74.1006069  28.0582784
 104.8867485  75.5265839  28.2732827  95.2090122  64.8344713  27.6241262
  94.6727479  64.3835452  28.2762858  94.6206830  64.9690622  26.8811726
  93.5038665  81.6008762  21.5185920  93.7435263  82.2327287  22.1964939
  92.6607862  81.2496802  21.8051280  94.6192381  64.2933365  10.1867725
  93.7421847  64.1722165   9.8229972  95.0950134  63.5019443   9.9346614
 104.4865374  72.7486433  26.9566181 103.5992152  72.4112354  27.0792580
 105.0563925  72.0169464  27.1934947  86.1394521  69.0810524  20.2809233
  86.8265561  68.7672254  19.6930248  85.9842649  69.9851889  20.0076484
  90.9429243  63.9700721  24.7094256  90.8587432  63.3626390  23.9744666
  90.1211949  64.4609739  24.7103753  98.0166527  77.4087885  23.9227424
  97.9436698  78.2142856  24.4346729  97.5743920  77.6079851  23.0975446
  97.8056307  76.6459655  17.4330246  97.0223828  77.1881335  17.5268470
  98.5049052  77.1633635  17.8324487 101.1152957  62.4554284  20.0764451
 101.6121656  61.7024247  19.7565522 100.3439938  62.4918601  19.5107661
 108.9682714  68.1594650  21.7182743 108.9572590  69.0419365  21.3476676
 108.1000094  67.8066201  21.5237280 100.4765210  77.3074719  26.0785583
 101.1893183  77.9422184  26.0061484  99.9855239  77.4038585  25.2625585
 102.1982737  71.2125972  17.6502875 101.2639016  71.3327434  17.4807579
 102.3759406  70.3098438  17.3862885  97.6987925  64.5971667  19.8036136
  97.3285713  64.0442708  20.4917041  98.1947018  63.9929801  19.2511136
 105.5855289  67.0543291  18.1852909 106.0515741  67.8871282  18.1113211
 106.0362789  66.5888272  18.8898167  95.5277124  75.0569162  26.8991154
  96.2286584  75.6905645  27.0520548  95.0572239  75.3983894  26.1386793
 103.6531520  73.3987112  15.1839061 103.9291364  73.2843707  16.0932935
 102.7836019  73.0004597  15.1451234 103.5571951  59.4223878  22.2243810
 102.6435031  59.6528105  22.3926017 103.9865053  59.5062322  23.0757843
 103.3278410  67.6113770  24.7243704 102.6749860  67.8589677  24.0696157
 103.7058790  66.7977908  24.3906181 100.2885584  77.6473463  18.8271874
 100.4707978  76.8295119  19.2899627 101.1118570  77.8641155  18.3896764
 100.6227749  76.5741648  16.0886923 101.1515516  76.0634103  15.4757085
 100.8855969  76.2584178  16.9532456  99.3765983  68.3533581  31.2109741
  98.7006620  68.2527710  31.8812116 100.1993617  68.1972795  31.6745738
  91.1244842  74.5905517  23.8322257  91.7098279  73.8449205  23.9650161
  90.9269681  74.9009474  24.7158920  93.9783497  77.6256765  18.8484699
  93.3093873  78.1102892  18.3648739  93.8396367  77.8725985  19.7628077
  85.7162497  67.1611118  22.5526700  85.7546596  66.6274708  23.3463818
  85.2102790  66.6346323  21.9337677  98.1188766  79.6600508  25.4467357
  98.6707074  79.8232130  26.2116442  98.4594959  80.2504946  24.7747382
  93.0953259  62.0075658  26.0489242  93.1594586  62.8690489  25.6366640
  93.0320379  61.3949660  25.3161600  92.5705532  64.0798791  29.6962276
  93.1977570  63.6975868  30.3099801  91.7133450  63.8612993  30.0617969
 102.9699640  74.4861766  31.3016012 103.5139544  75.0991724  30.8070966
 102.3886485  75.0441344  31.8183025  89.3471074  65.8875220  15.6280631
  89.6424515  64.9785898  15.5747685  88.4459110  65.8662959  15.3061633
 101.2557153  77.6082484  22.4331039 101.1308293  76.8072224  21.9241985
 101.9136244  78.1028677  21.9445009  92.8765321  63.9631216  21.6108180
  92.1551907  64.5767184  21.4715653  93.6658577  64.4988981  21.5324826
 103.3192062  75.4091504  24.0610590 102.3722397  75.2896855  23.9888916
 103.6674835  74.5214002  24.1436851  95.6791635  61.2985643  27.8848831
  96.2026037  61.5447939  28.6475141  95.4603968  62.1305678  27.4651969
  91.0758916  63.5689317  15.7519956  90.7471622  62.6886696  15.5695062
  91.4298287  63.5136986  16.6396345 100.3238495  75.2044220  20.2614942
 100.1763457  74.2760928  20.4422512 101.1491988  75.2264311  19.7772017
  94.1900739  63.8562287  16.1195434  94.5296812  64.3848209  15.3974042
  94.6372860  64.1942693  16.8954000 103.9272617  76.0272779  21.3479814
 104.8519164  75.8215640  21.2104266 103.7587920  75.7789180  22.2569156
  96.8844180  62.2399338  25.5698502  96.5441000  61.4407151  25.9719182
  96.1783186  62.5401049  24.9975335  97.5360652  59.3248650  24.0225825
  98.3586721  58.8509129  23.9004715  97.7798715  60.1039134  24.5224511
  96.1768886  62.3536909  14.3188727  96.8977249  62.7318162  13.8152444
  95.5534190  63.0725786  14.4223705 100.3200009  63.0582058  15.2547059
 100.5363624  63.9406696  14.9535887  99.8394076  62.6668271  14.5252701
  95.0599231  66.0167771  21.8317804  94.9143811  66.3308074  22.7242085
  94.5824434  66.6352671  21.2788702  96.9195613  63.0070319  21.8798693
  96.9057182  62.1111412  21.5430991  97.6368042  63.0140983  22.5136979
  98.7721744  63.4407659  23.9251821  98.5139522  64.3624730  23.9236151
  98.2406785  63.0438094  24.6152285 103.7167933  76.5458446  16.7041906
 103.8904810  75.9804869  15.9515758 104.2096824  77.3459341  16.5221396
  89.5344893  68.5573115  24.7705465  88.9898361  69.3332923  24.9025739
  90.4124243  68.9043920  24.6124586  96.3232509  61.8884699  17.1486263
  96.4448421  60.9601346  17.3477151  96.0334552  61.9023385  16.2364579
  99.1923700  59.5739610  20.2852983  99.2145397  59.6378943  19.3304963
  99.6091759  58.7344118  20.4793489 109.5707324  69.3094869  18.3232206
 110.0138470  68.5602195  17.9251329 108.6933834  69.3005006  17.9405938
 104.7043105  75.8625211  13.8038804 105.3994010  76.4831903  14.0226119
 105.0466256  75.0120562  14.0791182  90.3210915  67.6843012  27.6635622
  89.5792651  67.8325647  28.2500252  90.0003659  67.9451277  26.8002371
 106.6034529  73.3124916  15.3326135 107.1285853  73.6512189  14.6075455
 106.5156881  72.3771932  15.1489270  98.2654577  77.2258990  27.4616012
  98.5741704  76.9808137  28.3338711  99.0630059  77.4305628  26.9734882
  98.2875189  79.3796900  19.6921388  97.8480180  78.8873278  20.3854245
  99.0383306  78.8369867  19.4513463  90.7667528  75.5708440  19.6946016
  91.5925548  75.2712212  19.3144660  90.4161580  74.8016063  20.1435805
  95.7349061  74.9234909  21.7643690  95.1129071  74.2605614  21.4645918
  96.4053928  74.9496041  21.0817338  88.9676133  73.4894767  20.6534950
  88.1308042  73.0616941  20.4718951  88.9399779  73.6827210  21.5905741
  95.8073589  63.4016697  31.3576196  95.8561744  64.2778819  30.9753965
  96.3496103  62.8594090  30.7847839 106.2928435  73.9457820  30.6377333
 105.5023978  73.9281959  30.0981832 106.0561789  74.4846114  31.3926370
 106.4126310  70.7950286  27.9510061 106.4624315  70.6300294  28.8925584
 106.3040233  69.9277545  27.5607942  95.2962568  73.4738832  15.2402150
  95.4450689  74.1574296  14.5868823  96.1029012  73.4543922  15.7551606
 103.7030072  66.7781214  29.2669368 104.6039935  66.6387679  28.9753366
 103.7778047  66.9435669  30.2067546  98.0372877  64.1548069  28.1122555
  97.1676187  64.4481635  27.8405143  98.2732358  64.7388514  28.8329818
 107.9144506  73.2147228  28.1952083 107.6229315  73.5777208  29.0315544
 107.3016638  72.5014236  28.0165415 109.1140189  70.7800108  20.7154653
 109.9487080  71.2189912  20.8792214 109.2499318  70.3038761  19.8962899
 106.1631695  68.3379842  26.6632141 106.6385816  68.5307489  25.8550992
 105.2397260  68.3939028  26.4175525  93.0515201  69.5004010  16.2463219
  92.8061243  68.5966340  16.4443429  93.2211116  69.5021160  15.3042697
 100.7411911  60.3727686  25.6287975 101.2593855  61.1088713  25.3034463
 100.3867044  60.6791679  26.4634734  92.3210849  65.2332367  13.7449381
  91.6280094  65.3076722  13.0889417  92.0762601  64.4692711  14.2670898
 100.9924505  56.7927969  21.1488872 101.2726259  56.1251158  21.7749298
 101.7775112  56.9857064  20.6363535  98.7957974  75.9686962  12.7113898
  98.2231941  76.5877150  12.2584370  99.3690768  76.5186324  13.2453820
 104.8633364  65.2145603  24.8960447 105.8150787  65.3143700  24.9172671
 104.6936814  64.4223871  25.4058531 102.8847743  62.3001186  25.0819848
 102.2897675  62.5806198  24.3866336 102.5997440  62.7895087  25.8536589
 102.0155234  76.2524113  13.8422480 102.9485907  76.1869674  14.0455356
 101.9278446  77.0880379  13.3837013 107.3421441  68.4351722  24.0102746
 107.3097762  67.4967723  24.1962430 107.9522065  68.5135759  23.2768571
  99.1804772  67.3047775  10.0529950 100.1263877  67.1753983  10.1218368
  98.8019017  66.5662437  10.5299378 107.4915930  65.2262766  24.0561029
 106.9754979  64.4421222  23.8690958 108.3755878  64.8981482  24.2207549
 105.1526657  58.9703781  20.0156842 104.9551478  58.6618869  20.9000174
 105.7626362  59.6965420  20.1454772 113.1597991  69.4967729  23.1508783
 113.8901380  69.2353017  23.7116486 112.5504937  68.7596451  23.1910851
 111.2413288  67.6375592  23.7483234 110.5146452  67.5031557  23.1399726
 110.8260575  67.9452420  24.5539952  99.0643465  71.3565521  31.5130607
  99.9846474  71.5344120  31.7070654  99.0293048  70.4121567  31.3610307
  97.3647689  65.2297752   9.9884836  96.4579145  64.9330864  10.0647549
  97.6423670  64.9327570   9.1219122  88.2825630  66.5504115  20.4383882
  87.9628414  65.6969423  20.1458256  87.7359058  66.7652693  21.1941849
  92.0605537  69.2666556  24.1553388  92.2791547  70.1983664  24.1741422
  92.4731311  68.9074530  24.9408192  98.9809755  59.7734641  16.1429077
  98.1710484  59.4281726  16.5184323  99.6694172  59.4642185  16.7316688
 100.9100303  58.8512688  17.7653373 101.4631342  59.2708142  18.4243397
 101.1470390  57.9248436  17.8076329  96.9333403  64.8399762  33.5456137
  96.8330130  65.7894119  33.4768228  96.7154945  64.5118001  32.6732207
  96.1346474  62.0884687  10.1296815  96.9965638  62.4139585  10.3892632
  96.3196818  61.3016183   9.6169881  88.1513890  70.1707026  22.4077004
  87.4577361  69.7560979  21.8946958  88.8986881  70.2127563  21.8110422
 104.2879111  60.9613213  17.2732038 103.7077780  61.6198017  16.8910090
 104.0215043  60.1390558  16.8619455 102.7382677  60.3618271  19.4753358
 103.2382455  60.4734806  18.6667677 103.3818285  60.0579324  20.1154167
  96.7964673  68.2696901  32.3621199  96.3131754  69.0697261  32.5685088
  96.8825612  68.2804845  31.4088643  90.0650632  70.1025280  20.2843018
  90.0421321  70.2012968  19.3324902  90.3751269  70.9490431  20.6060185
  92.7238010  72.1601435  24.3989633  93.6781264  72.1285378  24.3319564
  92.5250534  71.6992059  25.2139859  93.3137392  70.7302551  26.9660430
  94.1330281  71.2246630  26.9895268  93.5874200  69.8134519  26.9377998
 103.0703989  63.1213304  16.3288386 102.1829844  63.4062954  16.1108581
 103.4857978  62.9607067  15.4815663 106.4218525  63.1459825  20.0442725
 107.1978915  63.6356277  20.3167342 105.6966659  63.5717879  20.5014595
 108.8591083  63.8587444  21.1016666 109.4535574  63.6183180  20.3909974
 108.9317667  63.1394574  21.7290202  91.0788239  77.7021055  21.4159831
  90.9442707  76.9421456  20.8497829  90.6620301  78.4261955  20.9488620
 103.0445012  68.6367840  16.5438676 102.9880214  69.0936391  15.7046309
 103.5973355  67.8758524  16.3661519 106.8549818  64.4257571  17.3688796
 106.5986752  64.0254207  18.1997003 106.2302686  65.1401365  17.2438935
 111.1662156  67.1653645  19.8760087 110.6061714  67.2346834  20.6491649
 110.5605659  66.9894629  19.1559583  94.2357365  78.5990372  21.6278273
  94.1189749  79.5435804  21.5256964  93.4149811  78.2963933  22.0164073
 104.1233899  73.3240508  12.4734866 104.9579503  72.8921706  12.2912341
 103.9618242  73.1522521  13.4011761 103.7779792  69.8272621  13.8391205
 103.7228595  69.6616892  12.8979649 103.1525847  70.5348654  13.9953395
  88.5672307  65.0640685  27.6652628  89.2131170  64.5539639  28.1539853
  88.3589458  65.8009367  28.2396053 101.0925699  72.1321533  33.1644768
 101.9616858  72.3062185  32.8031403 100.6132450  72.9515950  33.0420497
  97.0875917  59.3280730  13.4176524  97.0754587  60.2722570  13.5744795
  97.9799339  59.1450875  13.1235985  95.2611879  79.2518634  24.8434202
  96.1639126  79.2842244  25.1600697  95.0349249  78.3219085  24.8580538
  97.0165481  78.0049620  21.5044280  96.0661112  78.0051482  21.3908653
  97.3197967  77.2582355  20.9880315 100.9028037  55.9223506  17.6722461
 100.1360432  55.3681993  17.8179143 101.3138742  55.9945375  18.5336612
  92.9069798  62.2108302  31.7627642  93.7701259  61.8545107  31.9730966
  92.3335208  61.8722197  32.4503046 112.7518175  83.8410159  22.5690043
 113.3896585  83.7216906  21.8653383 112.6339017  84.7891003  22.6277995
 109.5607881  83.7937587  22.5051567 109.2226392  83.6778651  21.6172102
 110.4297649  83.3928752  22.4852574 110.0427664  84.9472438  28.4637773
 110.0316305  84.5525237  27.5918277 110.2048303  84.2138511  29.0571544
 102.9659128  87.1424255  21.3332679 103.7580420  86.8015079  20.9178978
 103.2055779  87.2519230  22.2534832 106.7634925  87.7309550  27.4116957
 106.4724791  88.6355181  27.2963623 107.3991909  87.7726078  28.1261027
 107.6891132  85.1086399  24.0018317 108.2854704  84.8842421  23.2875280
 107.7466103  84.3671144  24.6043764 115.2293291  75.2158420  25.0070838
 114.8976615  76.0853831  24.7832053 114.6338904  74.8994704  25.6864868
 111.7224810  87.4170966  24.4066751 111.4225533  88.3196005  24.2982558
 111.3775870  87.1503149  25.2587904 105.1737292  83.8684763  20.4403455
 104.2487788  83.7360977  20.6481147 105.4221705  84.6478982  20.9373397
 115.1221954  79.9353506  22.0864188 114.2138831  79.8668914  21.7922949
 115.0709550  80.4125451  22.9146013 102.5346103  83.5118036  21.2747244
 102.6638484  83.7652515  22.1886656 101.8543554  84.1045744  20.9551899
 109.1962820  81.3543152  30.0299085 108.4196154  81.9137072  30.0201950
 109.8353383  81.8399935  30.5513955 116.9883600  78.1369944  23.8642062
 116.3457980  78.4302478  23.2181856 116.4838529  78.0222865  24.6695259
 107.4509192  84.1628605  29.5917052 108.1923876  84.7013649  29.3151876
 106.7446177  84.7894894  29.7488604 112.9264532  86.3057745  28.1889214
 113.3347888  85.8640156  27.4443846 112.2041793  85.7310373  28.4423407
 109.2795602  81.2430352  25.5622771 110.1256797  81.6669766  25.7057420
 109.2194239  80.5863976  26.2561334 112.4295047  78.9034721  27.2203944
 112.1855979  79.6576781  26.6838220 112.7054977  79.2820068  28.0551191
 114.3833510  85.4473333  25.8981210 114.5950405  86.0905093  25.2215591
 114.3363258  84.6135649  25.4303140 111.9859739  78.0591154  22.8017782
 111.1244218  78.3572407  23.0934520 112.0122173  78.2761552  21.8698815
 105.6945389  86.1504826  22.1471351 106.2646746  86.5792094  21.5088835
 106.2853501  85.8687410  22.8455537 106.1870556  81.3168253  30.3932362
 105.5569216  81.9984534  30.6267759 106.0806644  81.2051335  29.4485501
 101.4815528  80.9840049  21.3198286 100.6914582  81.2397578  20.8438397
 101.9726775  81.7988387  21.4250327 103.4330273  81.3484628  18.2781763
 102.6361437  81.4603323  18.7965259 103.2055866  81.6871281  17.4122654
 109.2635941  87.8729332  26.2264278 109.3280374  88.3349739  27.0622450
 108.5546865  87.2426697  26.3546588  99.7653231  81.2370540  23.7513277
 100.0161270  82.1217550  24.0170853 100.3012779  81.0575141  22.9788369
 105.4651298  75.6189019  32.7557613 105.0718244  75.0655218  33.4305258
 106.2817439  75.9299597  33.1464131 108.3819259  77.0346898  30.3477870
 109.1228973  77.6354051  30.2682332 108.6137182  76.2924536  29.7895912
 103.5260597  82.2203265  28.6256100 103.4114113  81.3188523  28.9263198
 102.6705115  82.4666962  28.2740916 110.6052435  90.1621006  30.2243600
 110.1616289  89.3757384  29.9064505 111.2669649  90.3500156  29.5587491
 105.3639556  91.6916807  24.7504279 105.9146981  91.5633871  23.9781273
 104.5251032  91.9911696  24.3999171 112.7033673  90.4423806  28.2525001
 112.6852149  91.2632687  27.7605271 113.6253593  90.3177881  28.4775143
 109.1606727  87.9567935  29.0948510 109.6935064  87.1956223  28.8647818
 108.6320808  87.6641587  29.8372664 112.3276422  73.0628001  24.6242152
 111.9840692  73.9529643  24.5481262 112.6955385  72.8729659  23.7611737
 109.8773816  77.8986313  18.1899825 109.0215412  77.5093163  18.0105464
 110.2900768  77.9778274  17.3299611 111.4072963  75.4332656  22.5891385
 110.9037758  75.3962791  21.7759190 111.7003570  76.3425399  22.6488041
 107.6515849  75.5171386  21.5957567 108.5168845  75.3214195  21.2363456
 107.7193358  75.2881738  22.5226923 105.2578168  77.7473594  18.9673933
 105.8321920  77.5248775  18.2347126 105.8449150  77.8162288  19.7202535
 107.5600835  74.6214843  17.6949003 106.9065248  74.3063860  17.0705618
 107.5181310  73.9990583  18.4208826 110.7938576  81.1096776  22.0196650
 109.8761137  81.3311723  21.8618338 111.2098719  81.1843087  21.1608358
 114.1264088  72.3221560  19.7259889 114.4322965  71.4618924  19.4385804
 114.8516693  72.9139180  19.5258883 100.4188444  82.7252247  18.1141487
 100.2212844  82.1321607  17.3892554  99.8635108  82.4204457  18.8317426
 108.3985168  82.6175353  20.2336080 108.4533778  81.6649190  20.1578557
 107.5876370  82.7734792  20.7177379 106.3377528  81.2352413  17.9926459
 105.5245393  81.5346584  18.3991651 106.8336522  80.8408102  18.7100941
 111.9351739  81.6994237  26.8241353 112.2901127  81.9265711  27.6835819
 112.5823871  82.0312614  26.2018608 105.8291602  78.8070769  23.6087694
 106.4690982  78.6659528  22.9110657 104.9969133  78.5205282  23.2326296
 102.8320219  78.7771093  18.3860681 103.0927036  79.6916427  18.2769841
 103.6537391  78.3095536  18.5357294 104.3045144  80.1908851  25.5559505
 104.9768198  79.9826213  24.9072154 103.4774931  79.9930937  25.1164738
 110.2070716  76.8170792  27.5725166 109.5598631  77.5160741  27.4789643
 110.9771732  77.2506936  27.9401415 113.6149514  87.0819644  30.6475720
 113.4635021  86.8530195  29.7305803 113.6054194  88.0390245  30.6607065
 110.3834851  84.6551556  25.6321986 111.3126911  84.8062716  25.4590953
 109.9625881  84.7435577  24.7770633 109.1823182  88.6802221  23.4020524
 109.0434268  88.3121005  24.2746462 108.3937779  89.1949860  23.2304481
 104.7072641  83.4651454  26.3161943 104.5692439  82.7331692  26.9173482
 105.6177565  83.3760354  26.0346130 107.3354942  83.1771413  25.8045622
 108.0454561  82.5364605  25.7632241 107.2924250  83.4284308  26.7271803
 115.3241721  90.1138766  28.7252201 115.2654267  89.4297986  28.0582784
 115.7261239  90.8557756  28.2732827 106.0483876  80.1636631  27.6241262
 105.5121233  79.7127369  28.2762858 105.4600585  80.2982540  26.8811726
 115.3259128  88.0778350  26.9566181 114.4385907  87.7404272  27.0792580
 115.8957679  87.3461381  27.1934947  96.9788275  84.4102442  20.2809233
  97.6659315  84.0964172  19.6930248  96.8236404  85.3143807  20.0076484
 101.7822997  79.2992639  24.7094256 101.6981186  78.6918308  23.9744666
 100.9605704  79.7901657  24.7103753 111.9546711  77.7846202  20.0764451
 112.4515411  77.0316164  19.7565522 111.1833693  77.8210519  19.5107661
 108.5381680  79.9263585  19.8036136 108.1679467  79.3734625  20.4917041
 109.0340772  79.3221719  19.2511136 106.3670878  90.3861080  26.8991154
 107.0680338  91.0197563  27.0520548 105.8965993  90.7275812  26.1386793
 114.3965706  74.7515796  22.2243810 113.4828786  74.9820022  22.3926017
 114.8258807  74.8354240  23.0757843 114.1672164  82.9405688  24.7243704
 113.5143615  83.1881595  24.0696157 114.5452544  82.1269826  24.3906181
 110.2159737  83.6825499  31.2109741 109.5400375  83.5819628  31.8812116
 111.0387371  83.5264712  31.6745738 101.9638597  89.9197435  23.8322257
 102.5492033  89.1741123  23.9650161 101.7663435  90.2301392  24.7158920
  96.5556251  82.4903035  22.5526700  96.5940351  81.9566626  23.3463818
  96.0496544  81.9638241  21.9337677 103.9347014  77.3367576  26.0489242
 103.9988340  78.1982407  25.6366640 103.8714134  76.7241577  25.3161600
 103.4099286  79.4090708  29.6962276 104.0371325  79.0267786  30.3099801
 102.5527205  79.1904910  30.0617969 113.8093395  89.8153684  31.3016012
 114.3533299  90.4283642  30.8070966 113.2280240  90.3733262  31.8183025
 100.1864829  81.2167137  15.6280631 100.4818270  80.3077816  15.5747685
  99.2852865  81.1954877  15.3061633 103.7159076  79.2923134  21.6108180
 102.9945662  79.9059102  21.4715653 104.5052332  79.8280899  21.5324826
 106.5185389  76.6277561  27.8848831 107.0419791  76.8739857  28.6475141
 106.2997723  77.4597595  27.4651969 101.9152670  78.8981235  15.7519956
 101.5865377  78.0178614  15.5695062 102.2692041  78.8428904  16.6396345
 107.7237934  77.5691256  25.5698502 107.3834755  76.7699069  25.9719182
 107.0176941  77.8692967  24.9975335 108.3754406  74.6540568  24.0225825
 109.1980476  74.1801046  23.9004715 108.6192470  75.4331052  24.5224511
 105.8992985  81.3459689  21.8317804 105.7537566  81.6599992  22.7242085
 105.4218189  81.9644589  21.2788702 107.7589368  78.3362237  21.8798693
 107.7450937  77.4403330  21.5430991 108.4761796  78.3432900  22.5136979
 109.6115499  78.7699577  23.9251821 109.3533276  79.6916648  23.9236151
 109.0800539  78.3730011  24.6152285 100.3738647  83.8865033  24.7705465
  99.8292115  84.6624841  24.9025739 101.2517997  84.2335838  24.6124586
 107.1626264  77.2176617  17.1486263 107.2842175  76.2893263  17.3477151
 106.8728306  77.2315303  16.2364579 110.0317454  74.9031527  20.2852983
 110.0539151  74.9670861  19.3304963 110.4485513  74.0636036  20.4793489
 101.1604669  83.0134929  27.6635622 100.4186405  83.1617565  28.2500252
 100.8397413  83.2743195  26.8002371 109.1048332  92.5550908  27.4616012
 109.4135458  92.3100054  28.3338711 109.9023814  92.7597546  26.9734882
  99.8069888  88.8186685  20.6534950  98.9701796  88.3908859  20.4718951
  99.7793533  89.0119128  21.5905741 106.6467343  78.7308614  31.3576196
 106.6955499  79.6070737  30.9753965 107.1889858  78.1886007  30.7847839
 117.1322189  89.2749738  30.6377333 116.3417733  89.2573876  30.0981832
 116.8955544  89.8138031  31.3926370 117.2520064  86.1242204  27.9510061
 117.3018069  85.9592211  28.8925584 117.1433987  85.2569463  27.5607942
 114.5423827  82.1073132  29.2669368 115.4433689  81.9679597  28.9753366
 114.6171801  82.2727587  30.2067546 108.8766632  79.4839987  28.1122555
 108.0069941  79.7773553  27.8405143 109.1126112  80.0680432  28.8329818
 118.7538261  88.5439146  28.1952083 118.4623069  88.9069126  29.0315544
 118.1410392  87.8306154  28.0165415 117.0025449  83.6671760  26.6632141
 117.4779571  83.8599406  25.8550992 116.0791015  83.7230946  26.4175525
 111.5805666  75.7019604  25.6287975 112.0987610  76.4380631  25.3034463
 111.2260798  76.0083597  26.4634734 111.8318260  72.1219886  21.1488872
 112.1120014  71.4543075  21.7749298 112.6168867  72.3148982  20.6363535
 115.7027118  80.5437520  24.8960447 116.6544541  80.6435618  24.9172671
 115.5330569  79.7515789  25.4058531 113.7241498  77.6293103  25.0819848
 113.1291430  77.9098116  24.3866336 113.4391194  78.1187004  25.8536589
 118.3309684  80.5554683  24.0561029 117.8148733  79.7713140  23.8690958
 119.2149633  80.2273400  24.2207549 115.9920411  74.2995699  20.0156842
 115.7945233  73.9910787  20.9000174 116.6020117  75.0257338  20.1454772
 109.9037219  86.6857439  31.5130607 110.8240229  86.8636038  31.7070654
 109.8686802  85.7413484  31.3610307  99.1219384  81.8796033  20.4383882
  98.8022169  81.0261341  20.1458256  98.5752813  82.0944611  21.1941849
 102.8999292  84.5958474  24.1553388 103.1185302  85.5275581  24.1741422
 103.3125066  84.2366448  24.9408192 109.8203510  75.1026559  16.1429077
 109.0104238  74.7573644  16.5184323 110.5087927  74.7934103  16.7316688
 111.7494058  74.1804606  17.7653373 112.3025097  74.6000059  18.4243397
 111.9864144  73.2540354  17.8076329 107.7727157  80.1691679  33.5456137
 107.6723884  81.1186036  33.4768228 107.5548699  79.8409918  32.6732207
  98.9907644  85.4998944  22.4077004  98.2971116  85.0852897  21.8946958
  99.7380635  85.5419481  21.8110422 113.5776431  75.6910189  19.4753358
 114.0776210  75.8026723  18.6667677 114.2212039  75.3871242  20.1154167
 107.6358427  83.5988818  32.3621199 107.1525509  84.3989178  32.5685088
 107.7219366  83.6096763  31.4088643 100.9044387  85.4317198  20.2843018
 100.8815075  85.5304885  19.3324902 101.2145023  86.2782349  20.6060185
 103.5631765  87.4893353  24.3989633 104.5175018  87.4577295  24.3319564
 103.3644288  87.0283977  25.2139859 104.1531147  86.0594469  26.9660430
 104.9724036  86.5538548  26.9895268 104.4267955  85.1426437  26.9377998
  99.4066061  80.3932603  27.6652628 100.0524925  79.8831557  28.1539853
  99.1983212  81.1301285  28.2396053 111.9319453  87.4613450  33.1644768
 112.8010613  87.6354103  32.8031403 111.4526205  88.2807867  33.0420497
 106.1005634  94.5810551  24.8434202 107.0032880  94.6134162  25.1600697
 105.8743004  93.6511002  24.8580538 111.7421791  71.2515424  17.6722461
 110.9754187  70.6973911  17.8179143 112.1532496  71.3237293  18.5336612
 103.7463552  77.5400220  31.7627642 104.6095014  77.1837025  31.9730966
 103.1728963  77.2014115  32.4503046 116.3045053  90.9480937  32.7557613
 115.9111998  90.3947135  33.4305258 117.1211193  91.2591515  33.1464131
 119.2213014  92.3638816  30.3477870 119.9622727  92.9645969  30.2682332
 119.4530937  91.6216454  29.7895912 114.2493041  94.7382626  29.6962276
 114.8765079  94.3559703  30.3099801 113.3920959  94.5196828  30.0617969
 117.4861098  94.0600532  31.3576196 117.5349253  94.9362655  30.9753965
 118.0283612  93.5177925  30.7847839 118.6120912  95.4983597  33.5456137
 118.5117639  96.4477954  33.4768228 118.3942454  95.1701836  32.6732207
 110.2459816  95.7224521  27.6652628 110.8918679  95.2123475  28.1539853
 110.0376967  96.4593202  28.2396053 114.5857307  92.8692138  31.7627642
 115.4488768  92.5128942  31.9730966 114.0122717  92.5306032  32.4503046
  71.9666704   5.8033218  15.4497508  71.9079250   5.1192438  14.7828091
  72.3686222   6.5452208  14.9978134  70.4518378   5.5048135  18.0261318
  70.9958282   6.1178094  17.5316273  69.8705223   6.0627714  18.5428331
  73.7747172   4.9644190  17.3622640  72.9842716   4.9468328  16.8227139
  73.5380527   5.5032483  18.1171676  75.3963244   4.2333597  14.9197390
  75.1048053   4.5963578  15.7560851  74.7835376   3.5200606  14.7410722
  68.5744437   3.1507902  19.8890075  69.4435596   3.3248555  19.5276710
  68.0951188   3.9702319  19.7665804  80.2336912  14.8596528   9.2935349
  80.8715322  14.7403276   8.5898689  80.1157755  15.8077372   9.3523302
  77.0426619  14.8123956   9.2296874  76.7045130  14.6965021   8.3417409
  77.9116387  14.4115121   9.2097880  77.5246402  15.9658808  15.1883080
  77.5135042  15.5711606  14.3163583  77.6867041  15.2324881  15.7816851
  70.4477866  18.1610624   8.0577986  71.2399158  17.8201449   7.6424285
  70.6874516  18.2705599   8.9780139  74.2453663  18.7495920  14.1362264
  73.9543529  19.6541551  14.0208930  74.8810647  18.7912447  14.8506333
  75.1709870  16.1272768  10.7263623  75.7673442  15.9028791  10.0120586
  75.2284841  15.3857514  11.3289071  82.7112028   6.2344789  11.7316145
  82.3795353   7.1040200  11.5077360  82.1157642   5.9181073  12.4110175
  79.2043548  18.4357335  11.1312057  78.9044271  19.3382374  11.0227865
  78.8594607  18.1689519  11.9833210  82.6040692  10.9539876   8.8109495
  81.6957569  10.8855284   8.5168256  82.5528287  11.4311820   9.6391320
  74.1864328  25.2001656   4.0983025  74.1088357  26.1509481   4.1771506
  73.5825971  24.8547528   4.7557951  76.6781557  12.3729521  16.7544392
  75.9014891  12.9323441  16.7447257  77.3172120  12.8586304  17.2759262
  74.9327930  15.1814974  16.3162359  75.6742614  15.7200018  16.0397183
  74.2264915  15.8081263  16.4733911  80.4083269  17.3244115  14.9134520
  80.8166625  16.8826525  14.1689153  79.6860531  16.7496742  15.1668713
  76.7614339  12.2616722  12.2868077  77.6075535  12.6856135  12.4302726
  76.7012977  11.6050346  12.9806640  80.7312084  17.8845306   8.6686809
  80.1020946  18.0491020   7.9662877  80.3437746  18.2986915   9.4397773
  84.6101316  18.8199743   6.0231173  83.9252354  19.1998645   5.4728206
  84.6945165  19.4295070   6.7563121  79.9113785   9.9221090  13.9449251
  79.6674717  10.6763151  13.4083527  80.1873715  10.3006438  14.7796498
  81.8652248  16.4659702  12.6226517  82.0769143  17.1091462  11.9460898
  81.8181996  15.6322019  12.1548447  73.1764127  17.1691195   8.8716658
  73.7465484  17.5978464   8.2334142  73.7672239  16.8873780   9.5700843
  73.6689293  12.3354623  17.1177669  73.0387954  13.0170904  17.3513066
  73.5625381  12.2237704  16.1730807  82.9798075  19.3431658  10.7948874
  83.8015519  18.9411845  10.5131556  82.9760478  19.2399892  11.7464990
  76.7454679  18.8915701  12.9509584  76.8099111  19.3536108  13.7867756
  76.0365603  18.2613066  13.0791894  72.9470036   6.6375389  19.4802920
  72.5536982   6.0841587  20.1550564  73.7636177   6.9485967  19.8709437
  71.7226979  21.1925003   5.4739243  71.8993607  22.1142968   5.2860227
  72.5183812  20.8783422   5.9033623  75.8637997   8.0533268  17.0723177
  76.6047711   8.6540421  16.9927639  76.0955920   7.3110905  16.5141219
  71.0079335  13.2389635  15.3501406  70.8932850  12.3374892  15.6508505
  70.1523853  13.4853332  14.9986223  78.0871173  21.1807375  16.9488907
  77.6435027  20.3943754  16.6309811  78.7488387  21.3686526  16.2832798
  72.8458294  22.7103177  11.4749585  73.3965719  22.5820240  10.7026579
  72.0069770  23.0098066  11.1244478  80.1852411  21.4610175  14.9770308
  80.1670886  22.2819056  14.4850577  81.1072331  21.3364250  15.2020449
  76.6425465  18.9754305  15.8193816  77.1753802  18.2142593  15.5893124
  76.1139546  18.6827956  16.5617971  82.9871024  16.2989318   8.4479675
  82.3294698  16.9888579   8.5359803  83.7911423  16.6885749   8.7913661
  78.2757314  12.1283146   8.7441957  77.3579875  12.3498093   8.5863645
  78.6917457  12.2029456   7.8853664  82.5638279  19.6339692   4.6262759
  82.1100606  18.7930602   4.6827950  81.9332246  20.2701090   4.9637539
  81.0071218  21.4716188   5.5612577  81.2994193  22.0321245   4.8424943
  81.5169839  21.7644749   6.3165736  75.9704843  22.2496539   6.6506030
  75.9281022  22.4757386   5.7214563  76.8867542  22.0159914   6.7991832
  79.4170477  12.7180607  13.5486660  79.7719865  12.9452080  14.4081125
  80.0642608  13.0498984  12.9263915  85.1737594  17.9075570   9.2647260
  85.6074100  17.8150859  10.1130314  85.8869174  17.8833070   8.6267276
  78.9065489  21.5077664  10.7980361  78.9602511  22.0768600  11.5658077
  78.0380270  21.6779549  10.4334398  71.7863882  11.2095220  12.2804812
  72.4586935  11.0012582  11.6317461  70.9593668  11.0117306  11.8410044
  86.0353143  17.9499271  11.7980146  86.2289033  18.8545081  12.0439421
  85.9353761  17.4906690  12.6318731  77.6889454   7.8357161  14.2970473
  77.0417369   8.5347111  14.2034949  78.4590469   8.2693305  14.6646721
  81.0968252  18.1006013  17.3721026  80.9453758  17.8716565  16.4551110
  81.0872931  19.0576615  17.3852371  77.8653588  15.6737926  12.3567293
  78.7945648  15.8249086  12.1836260  77.4444618  15.7621947  11.5015939
  76.6641920  19.6988590  10.1265830  76.5253006  19.3307375  10.9991768
  75.8756516  20.2136230   9.9549788  77.2590072  24.7997687   1.4691367
  77.4341828  24.3285730   2.2836990  76.5722860  25.4263453   1.6972628
  78.2147135  19.0770193   7.5154668  77.8796968  19.0370963   8.4112318
  77.7151081  18.4114909   7.0425078  72.1891379  14.4837823  13.0407249
  72.0511177  13.7518062  13.6418788  73.0996303  14.3946723  12.7591437
  74.8173680  14.1957783  12.5290929  75.5273298  13.5550975  12.4877547
  74.7742988  14.4470677  13.4517110  82.8060459  21.1325136  15.4497508
  82.7473005  20.4484356  14.7828091  83.2079977  21.8744126  14.9978134
  73.5302614  11.1823000  14.3486568  72.9939971  10.7313739  15.0008165
  72.9419322  11.3168909  13.6057033  71.8251157  27.9487050   8.2431227
  72.0647756  28.5805574   8.9210246  70.9820354  27.5975090   8.5296586
  82.8077866  19.0964720  13.6811488  81.9204645  18.7590642  13.8037887
  83.3776417  18.3647751  13.9180253  76.3379019  23.7566172  10.6472731
  76.2649191  24.5621144  11.1592036  75.8956412  23.9558138   9.8220752
  76.1268799  22.9937942   4.1575553  75.3436321  23.5359622   4.2513777
  76.8261544  23.5111922   4.5569794  78.7977703  23.6553006  12.8030890
  79.5105675  24.2900471  12.7306791  78.3067731  23.7516872  11.9870891
  73.8489616  21.4047450  13.6236460  74.5499076  22.0383933  13.7765855
  73.3784731  21.7462181  12.8632100  81.6490902  13.9592057  11.4489011
  80.9962352  14.2067965  10.7941464  82.0271282  13.1456195  11.1151488
  78.6098076  23.9951750   5.5517181  78.7920471  23.1773406   6.0144933
  79.4331062  24.2119443   5.1142071  78.9440242  22.9219935   2.8132230
  79.4728008  22.4112390   2.2002392  79.2068461  22.6062466   3.6777763
  77.6978475  14.7011868  17.9355048  77.0219112  14.6005997  18.6057423
  78.5206109  14.5451082  18.3991045  69.4457334  20.9383805  10.5567563
  70.0310771  20.1927493  10.6895467  69.2482173  21.2487761  11.4404227
  72.2995990  23.9735052   5.5730006  71.6306365  24.4581180   5.0894046
  72.1608859  24.2204273   6.4873384  76.4401258  26.0078796  12.1712664
  76.9919566  26.1710417  12.9361749  76.7807452  26.5983233  11.4992689
  70.8918024  10.4277078  16.4207583  71.5190063  10.0454155  17.0345107
  70.0345943  10.2091280  16.7863275  81.2912132  20.8340053  18.0261318
  81.8352036  21.4470011  17.5316273  80.7098977  21.3919632  18.5428331
  79.5769645  23.9560771   9.1576346  79.4520785  23.1550511   8.6487292
  80.2348737  24.4506964   8.6690316  81.6404554  21.7569791  10.7855896
  80.6934889  21.6375142  10.7134223  81.9887327  20.8692289  10.8682158
  74.0004127   7.6463930  14.6094138  74.5238529   7.8926227  15.3720447
  73.7816460   8.4783965  14.1897275  78.6450987  21.5522507   6.9860248
  78.4975950  20.6239215   7.1667818  79.4704481  21.5742598   6.5017324
  82.2485109  22.3751066   8.0725121  83.1731656  22.1693928   7.9349572
  82.0800412  22.1267467   8.9814463  75.2056672   8.5877625  12.2943809
  74.8653493   7.7885438  12.6964488  74.4995678   8.8879336  11.7220642
  77.0934236   9.7885946  10.6497127  76.8352014  10.7103017  10.6481458
  76.5619277   9.3916381  11.3397591  82.0380425  22.8936734   3.4287213
  82.2117303  22.3283156   2.6761065  82.5309316  23.6937628   3.2466703
  67.8557385  14.9051403  11.4950771  67.3110853  15.6811211  11.6271046
  68.7336735  15.2522207  11.3369893  68.6423407  14.0321299  14.3880928
  67.9005143  14.1803934  14.9745559  68.3216151  14.2929565  13.5247678
  76.5867069  23.5737277  14.1861318  76.8954196  23.3286424  15.0584018
  77.3842551  23.7783916  13.6980188  76.6087682  25.7275187   6.4166695
  76.1692672  25.2351566   7.1099552  77.3595798  25.1848154   6.1758770
  69.0880021  21.9186728   6.4191323  69.9138040  21.6190500   6.0389966
  68.7374073  21.1494350   6.8681112  74.0561554  21.2713196   8.4888996
  73.4341563  20.6083901   8.1891224  74.7266421  21.2974328   7.8062644
  74.1286081   9.7494984  18.0821503  74.1774237  10.6257107  17.6999272
  74.6708595   9.2072377  17.5093146  84.6140927  20.2936107  17.3622640
  83.8236471  20.2760246  16.8227139  84.3774281  20.8324401  18.1171676
  84.7338802  17.1428574  14.6755368  84.7836807  16.9778581  15.6170891
  84.6252725  16.2755833  14.2853249  82.0242564  13.1259502  15.9914675
  82.9252427  12.9865966  15.6998673  82.0990539  13.2913956  16.9312852
  76.3585370  10.5026356  14.8367861  75.4888679  10.7959922  14.5650450
  76.5944850  11.0866801  15.5575125  86.2356999  19.5625515  14.9197390
  85.9441807  19.9255496  15.7560851  85.6229130  18.8492523  14.7410722
  84.4844187  14.6858130  13.3877448  84.9598309  14.8785776  12.5796299
  83.5609752  14.7417316  13.1420831  79.0624403   6.7205973  12.3533282
  79.5806347   7.4567000  12.0279770  78.7079536   7.0269967  13.1880041
  83.1845856  11.5623890  11.6205753  84.1363279  11.6621987  11.6417977
  83.0149306  10.7702158  12.1303838  81.2060235   8.6479473  11.8065154
  80.6110168   8.9284486  11.1111643  80.9209932   9.1373374  12.5781895
  85.6633934  14.7830009  10.7348053  85.6310254  13.8446010  10.9207737
  86.2734557  14.8614046  10.0013878  77.3855957  17.7043809  18.2375914
  78.3058967  17.8822408  18.4315960  77.3505540  16.7599854  18.0855613
  70.3818030  15.6144843  10.8798695  70.6004039  16.5461951  10.8986729
  70.7943804  15.2552818  11.6653499  75.2545895  11.1878049  20.2701444
  75.1542622  12.1372406  20.2013535  75.0367437  10.8596288  19.3977514
  75.1177165  14.6175188  19.0866506  74.6344247  15.4175548  19.2930395
  75.2038104  14.6283133  18.1333950  71.0450503  18.5079723  11.1234939
  71.9993756  18.4763665  11.0564871  70.8463026  18.0470346  11.9385165
  71.6349885  17.0780839  13.6905737  72.4542774  17.5724917  13.7140574
  71.9086692  16.1612807  13.6623305  69.4000731  24.0499342   8.1405137
  69.2655199  23.2899743   7.5743135  68.9832794  24.7740242   7.6733926
  72.5569857  24.9468659   8.3523580  72.4402241  25.8914092   8.2502270
  71.7362303  24.6442221   8.7409379  66.8884799  11.4118972  14.3897934
  67.5343663  10.9017926  14.8785159  66.6801950  12.1487654  14.9641359
  79.4138191  18.4799820  19.8890075  80.2829351  18.6540472  19.5276710
  78.9344943  19.2994237  19.7665804  73.5824371  25.5996921  11.5679508
  74.4851618  25.6320531  11.8846003  73.3561741  24.6697372  11.5825844
  75.3377973  24.3527908   8.2289587  74.3873604  24.3529769   8.1153959
  75.6410460  23.6060642   7.7125622  71.2282290   8.5586590  18.4872948
  72.0913751   8.2023394  18.6976273  70.6547701   8.2200484  19.1748353
  91.0730667  30.1888446   9.2935349  91.7109077  30.0695193   8.5898689
  90.9551510  31.1369290   9.3523302  87.8820373  30.1415874   9.2296874
  87.5438885  30.0256939   8.3417409  88.7510141  29.7407039   9.2097880
  83.7407189  31.9951350   5.2193765  83.1772054  31.9041287   4.4510053
  83.6259584  31.1751255   5.6996258  88.3640156  31.2950726  15.1883080
  88.3528797  30.9003524  14.3163583  88.5260796  30.5616798  15.7816851
  81.2871621  33.4902542   8.0577986  82.0792913  33.1493367   7.6424285
  81.5268271  33.5997517   8.9780139  89.3206748  35.6622318   0.5308230
  88.6694727  36.2476399   0.1442244  90.1151110  36.1928513   0.5903267
  83.2462375  32.7511455   0.9295364  84.0193251  32.2040442   0.7908240
  83.5987774  33.6155705   1.1409826  85.0847417  34.0787838  14.1362264
  84.7937283  34.9833468  14.0208930  85.7204402  34.1204365  14.8506333
  86.0103624  31.4564686  10.7263623  86.6067196  31.2320708  10.0120586
  86.0678596  30.7149432  11.3289071  85.3024941  30.8132227   0.7638189
  85.1861199  30.1377131   1.4319274  85.4127201  30.3264601  -0.0529658
  87.6456482  30.2742374   4.4684878  87.2814689  29.7472995   5.1797800
  88.5023598  29.8840843   4.2951364  93.5505783  21.5636707  11.7316145
  93.2189108  22.4332118  11.5077360  92.9551396  21.2472991  12.4110175
  90.0437302  33.7649253  11.1312057  89.7438025  34.6674292  11.0227865
  89.6988362  33.4981436  11.9833210  83.4949784  30.2163050   7.1648762
  82.5700280  30.0839264   7.3726454  83.7434197  30.9957269   7.6618704
  93.4434446  26.2831793   8.8109495  92.5351323  26.2147202   8.5168256
  93.3922042  26.7603738   9.6391320  80.8558595  29.8596323   7.9992551
  80.9850976  30.1130802   8.9131963  80.1756046  30.4524031   7.6797206
  85.0258082  40.5293573   4.0983025  84.9482112  41.4801398   4.1771506
  84.4219726  40.1839446   4.7557951  87.5175312  27.7021439  16.7544392
  86.7408646  28.2615359  16.7447257  88.1565875  28.1878222  17.2759262
  85.7721684  30.5106892  16.3162359  86.5136369  31.0491936  16.0397183
  85.0658670  31.1373181  16.4733911  91.2477024  32.6536033  14.9134520
  91.6560380  32.2118443  14.1689153  90.5254285  32.0788660  15.1668713
  87.6008094  27.5908639  12.2868077  88.4469289  28.0148053  12.4302726
  87.5406732  26.9342264  12.9806640  91.5705839  33.2137223   8.6686809
  90.9414701  33.3782937   7.9662877  91.1831501  33.6278833   9.4397773
  95.4495070  34.1491661   6.0231173  94.7646109  34.5290562   5.4728206
  95.5338920  34.7586988   6.7563121  90.7507539  25.2513008  13.9449251
  90.5068471  26.0055068  13.4083527  91.0267470  25.6298355  14.7796498
  92.7046002  31.7951620  12.6226517  92.9162897  32.4383380  11.9460898
  92.6575750  30.9613937  12.1548447  90.3072231  24.4069441   9.5263089
  89.4456710  24.7050694   9.8179826  90.3334666  24.6239840   8.5944121
  87.1233800  32.9511631   5.9336894  87.5872146  33.2299334   5.1441517
  86.8590598  32.0495076   5.7509985  84.0157881  32.4983113   8.8716658
  84.5859239  32.9270381   8.2334142  84.6065993  32.2165698   9.5700843
  86.0602686  29.0734784   2.7426460  86.7626730  29.5255827   3.2100386
  85.7283315  28.4318603   3.3706353  84.5083048  27.6646540  17.1177669
  83.8781709  28.3462821  17.3513066  84.4019136  27.5529622  16.1730807
  79.8028020  27.3318336   8.0443593  79.0127074  27.5875865   7.5683704
  80.2939268  28.1466674   8.1495634  93.8191830  34.6723576  10.7948874
  94.6409274  34.2703763  10.5131556  93.8154233  34.5691810  11.7464990
  81.7542766  27.6962916   5.0027070  80.9573929  27.8081610   5.5210565
  81.5268358  28.0349568   4.1367960  87.5848433  34.2207619  12.9509584
  87.6492866  34.6828026  13.7867756  86.8759357  33.5904984  13.0791894
  78.0865723  27.5848827  10.4758584  78.3373762  28.4695837  10.7416160
  78.6225272  27.4053428   9.7033676  87.2996451  35.8875726   2.8188565
  87.1642126  36.7327262   3.2473413  87.8406264  36.0895004   2.0554499
  83.7863791  21.9667306  19.4802920  83.3930736  21.4133505  20.1550564
  84.6029931  22.2777885  19.8709437  80.7525848  33.4051164   3.3916490
  81.2650369  34.1994415   3.5422055  81.4048561  32.7077455   3.3250091
  82.5620733  36.5216921   5.4739243  82.7387361  37.4434885   5.2860227
  83.3577567  36.2075340   5.9033623  86.7031752  23.3825185  17.0723177
  87.4441465  23.9832338  16.9927639  86.9349675  22.6402823  16.5141219
  81.8473090  28.5681553  15.3501406  81.7326605  27.6666810  15.6508505
  80.9917607  28.8145249  14.9986223  88.9264927  36.5099293  16.9488907
  88.4828782  35.7235671  16.6309811  89.5882141  36.6978443  16.2832798
  83.6852049  38.0395094  11.4749585  84.2359474  37.9112158  10.7026579
  82.8463525  38.3389983  11.1244478  91.0246166  36.7902093  14.9770308
  91.0064641  37.6110974  14.4850577  91.9466086  36.6656168  15.2020449
  87.4819220  34.3046222  15.8193816  88.0147556  33.5434510  15.5893124
  86.9533301  34.0119874  16.5617971  78.7174765  31.7339819   4.1676060
  79.5549987  32.1436827   3.9509768  78.8953033  30.7939261   4.1376254
  89.7285455  21.7810943   9.3136691  89.2250251  21.7441079   8.5004497
  90.0216062  22.6903686   9.3733348  85.9728341  21.8649673   8.3202873
  86.8381338  21.6692482   7.9608763  86.0405850  21.6360025   9.2472230
  88.8471932  33.4332215   3.3312628  88.3193294  32.6984974   3.0185866
  88.3459435  34.2106891   3.0852597  93.8264778  31.6281235   8.4479675
  93.1688453  32.3180497   8.5359803  94.6305178  32.0177667   8.7913661
  83.5790660  24.0951881   5.6919240  84.1534412  23.8727063   4.9592433
  84.1661642  24.1640576   6.4447841  89.8992611  39.9609932  -0.7455712
  89.2254310  40.2641629  -0.1370755  90.2858433  40.7639013  -1.0950255
  89.1151068  27.4575063   8.7441957  88.1973629  27.6790010   8.5863645
  89.5311212  27.5321374   7.8853664  93.4032033  34.9631609   4.6262759
  92.9494361  34.1222519   4.6827950  92.7726000  35.5993008   4.9637539
  91.8464973  36.8008106   5.5612577  92.1387947  37.3613163   4.8424943
  92.3563593  37.0936667   6.3165736  78.7400936  29.0730534   4.8386794
  78.5425336  28.4799895   4.1137860  78.1847600  28.7682744   5.5562733
  86.7197660  28.9653640   6.9581387  86.7746270  28.0127477   6.8823864
  85.9088862  29.1213080   7.4422685  84.6590020  27.5830700   4.7171766
  83.8457885  27.8824871   5.1236958  85.1549014  27.1886389   5.4346248
  86.8098598  37.5788457   6.6506030  86.7674777  37.8049303   5.7214563
  87.7261297  37.3451832   6.7991832  90.2564232  28.0472525  13.5486660
  90.6113619  28.2743998  14.4081125  90.9036363  28.3790901  12.9263915
  84.1504095  25.1549056  10.3333001  84.7903474  25.0137815   9.6355964
  83.3181625  24.8683569   9.9571603  96.0131348  33.2367488   9.2647260
  96.4467855  33.1442777  10.1130314  96.7262929  33.2124988   8.6267276
  84.9264399  34.4551486   6.4467993  85.7204997  33.9601806   6.2450568
  84.2156091  33.9269349   6.0835699  89.7459243  36.8369582  10.7980361
  89.7996265  37.4060518  11.5658077  88.8774024  37.0071467  10.4334398
  81.2347162  28.5994568   2.5227746  80.3044750  28.5379023   2.7397708
  81.3304634  28.0770521   1.7264387  81.1532711  25.1249381   5.1105988
  81.4139528  26.0394714   5.0015148  81.9749883  24.6573823   5.2602600
  82.6257636  26.5387138  12.2804812  83.2980690  26.3304500  11.6317461
  81.7987423  26.3409224  11.8410044  96.8746898  33.2791188  11.7980146
  97.0682788  34.1836999  12.0439421  96.7747516  32.8198607  12.6318731
  88.5283208  23.1649079  14.2970473  87.8811124  23.8639028  14.2034949
  89.2984224  23.5985223  14.6646721  91.9362006  33.4297931  17.3721026
  91.7847513  33.2008483  16.4551110  91.9266686  34.3868532  17.3852371
  88.7047343  31.0029844  12.3567293  89.6339403  31.1541003  12.1836260
  88.2838373  31.0913865  11.5015939  87.5035675  35.0280508  10.1265830
  87.3646760  34.6599293  10.9991768  86.7150271  35.5428148   9.9549788
  88.0983827  40.1289605   1.4691367  88.2735582  39.6577648   2.2836990
  87.4116615  40.7555371   1.6972628  89.0540890  34.4062111   7.5154668
  88.7190722  34.3662881   8.4112318  88.5544835  33.7406827   7.0425078
  83.0285134  29.8129741  13.0407249  82.8904932  29.0809980  13.6418788
  83.9390057  29.7238641  12.7591437  85.6567434  29.5249700  12.5290929
  86.3667053  28.8842892  12.4877547  85.6136743  29.7762595  13.4517110
  93.6454213  36.4617054  15.4497508  93.5866759  35.7776274  14.7828091
  94.0473731  37.2036044  14.9978134  84.3696368  26.5114918  14.3486568
  83.8333725  26.0605657  15.0008165  83.7813077  26.6460827  13.6057033
  82.6644912  43.2778967   8.2431227  82.9041510  43.9097492   8.9210246
  81.8214108  42.9267007   8.5296586  93.6471620  34.4256637  13.6811488
  92.7598399  34.0882559  13.8037887  94.2170171  33.6939669  13.9180253
  75.3000767  30.7580729   7.0054539  75.9871807  30.4442459   6.4175554
  75.1448896  31.6622094   6.7321791  80.1035490  25.6470926  11.4339563
  80.0193678  25.0396595  10.6989973  79.2818196  26.1379944  11.4349059
  87.1772774  39.0858090  10.6472731  87.1042945  39.8913061  11.1592036
  86.7350167  39.2850056   9.8220752  86.9662553  38.3229860   4.1575553
  86.1830075  38.8651540   4.2513777  87.6655299  38.8403839   4.5569794
  89.6371457  38.9844924  12.8030890  90.3499429  39.6192389  12.7306791
  89.1461486  39.0808790  11.9870891  91.3588984  32.8896177   4.3748181
  90.4245263  33.0097639   4.2052886  91.5365653  31.9868643   4.1108191
  86.8594172  26.2741872   6.5281443  86.4891960  25.7212913   7.2162348
  87.3553265  25.6700006   5.9756443  84.6883371  36.7339367  13.6236460
  85.3892830  37.3675850  13.7765855  84.2178486  37.0754099  12.8632100
  92.4884657  29.2883975  11.4489011  91.8356107  29.5359882  10.7941464
  92.8665037  28.4748113  11.1151488  89.4491831  39.3243668   5.5517181
  89.6314225  38.5065324   6.0144933  90.2724817  39.5411360   5.1142071
  89.7833996  38.2511853   2.8132230  90.3121763  37.7404308   2.2002392
  90.0462216  37.9354383   3.6777763  88.5372230  30.0303786  17.9355048
  87.8612867  29.9297915  18.6057423  89.3599864  29.8743000  18.3991045
  80.2851089  36.2675722  10.5567563  80.8704526  35.5219410  10.6895467
  80.0875927  36.5779679  11.4404227  83.1389744  39.3026970   5.5730006
  82.4700119  39.7873097   5.0894046  83.0002614  39.5496190   6.4873384
  74.8768744  28.8381323   9.2772006  74.9152843  28.3044913  10.0709124
  74.3709036  28.3116528   8.6582983  87.2795013  41.3370713  12.1712664
  87.8313321  41.5002335  12.9361749  87.6201206  41.9275151  11.4992689
  82.2559506  23.6845863  12.7734549  82.3200832  24.5460694  12.3611946
  82.1926626  23.0719865  12.0406907  81.7311778  25.7568996  16.4207583
  82.3583817  25.3746073  17.0345107  80.8739697  25.5383198  16.7863275
  92.1305887  36.1631971  18.0261318  92.6745791  36.7761929  17.5316273
  91.5492732  36.7211549  18.5428331  78.5077321  27.5645425   2.3525938
  78.8030762  26.6556103   2.2992991  77.6065357  27.5433164   2.0306940
  90.4163400  39.2852689   9.1576346  90.2914539  38.4842429   8.6487292
  91.0742491  39.7798882   8.6690316  82.0371568  25.6401421   8.3353486
  81.3158154  26.2537389   8.1960960  82.8264824  26.1759186   8.2570132
  92.4798308  37.0861709  10.7855896  91.5328644  36.9667060  10.7134223
  92.8281081  36.1984207  10.8682158  84.8397882  22.9755848  14.6094138
  85.3632283  23.2218144  15.3720447  84.6210215  23.8075883  14.1897275
  80.2365163  25.2459522   2.4765263  79.9077869  24.3656901   2.2940369
  80.5904533  25.1907191   3.3641652  89.4844742  36.8814425   6.9860248
  89.3369704  35.9531133   7.1667818  90.3098235  36.9034516   6.5017324
  83.3506986  25.5332492   2.8440741  83.6903058  26.0618413   2.1219349
  83.7979106  25.8712898   3.6199307  93.0878863  37.7042984   8.0725121
  94.0125411  37.4985845   7.9349572  92.9194167  37.4559385   8.9814463
  86.0450427  23.9169543  12.2943809  85.7047247  23.1177356  12.6964488
  85.3389433  24.2171254  11.7220642  86.6966899  21.0018855  10.7471132
  87.5192968  20.5279334  10.6250022  86.9404962  21.7809339  11.2469818
  84.2205477  27.6937976   8.5563110  84.0750058  28.0078279   9.4487392
  83.7430681  28.3122876   8.0034009  86.0801860  24.6840524   8.6044000
  86.0663429  23.7881617   8.2676298  86.7974288  24.6911188   9.2382286
  87.9327991  25.1177864  10.6497127  87.6745769  26.0394935  10.6481458
  87.4013031  24.7208299  11.3397591  92.8774180  38.2228651   3.4287213
  93.0511057  37.6575074   2.6761065  93.3703071  39.0229546   3.2466703
  78.6951139  30.2343320  11.4950771  78.1504608  31.0103128  11.6271046
  79.5730489  30.5814125  11.3369893  79.4817161  29.3613217  14.3880928
  78.7398897  29.5095852  14.9745559  79.1609906  29.6221482  13.5247678
  87.4260824  38.9029195  14.1861318  87.7347950  38.6578342  15.0584018
  88.2236306  39.1075833  13.6980188  87.4481436  41.0567105   6.4166695
  87.0086426  40.5643483   7.1099552  88.1989553  40.5140072   6.1758770
  79.9273775  37.2478645   6.4191323  80.7531795  36.9482417   6.0389966
  79.5767827  36.4786268   6.8681112  84.8955308  36.6005114   8.4888996
  84.2735317  35.9375819   8.1891224  85.5660175  36.6266245   7.8062644
  78.1282380  35.1664972   7.3780256  77.2914288  34.7387146   7.1964258
  78.1006025  35.3597415   8.3151048  84.9679836  25.0786902  18.0821503
  85.0167991  25.9549024  17.6999272  85.5102350  24.5364295  17.5093146
  95.4534681  35.6228025  17.3622640  94.6630225  35.6052164  16.8227139
  95.2168036  36.1616319  18.1171676  95.5732556  32.4720491  14.6755368
  95.6230561  32.3070499  15.6170891  95.4646480  31.6047750  14.2853249
  84.4568815  35.1509037   1.9647457  84.6056935  35.8344501   1.3114130
  85.2635259  35.1314127   2.4796913  92.8636319  28.4551419  15.9914675
  93.7646182  28.3157884  15.6998673  92.9384293  28.6205874  16.9312852
  87.1979124  25.8318274  14.8367861  86.3282434  26.1251840  14.5650450
  87.4338604  26.4158719  15.5575125  97.0750753  34.8917433  14.9197390
  96.7835562  35.2547413  15.7560851  96.4622884  34.1784441  14.7410722
  95.3237941  30.0150047  13.3877448  95.7992063  30.2077694  12.5796299
  94.4003507  30.0709233  13.1420831  82.2121448  31.1774215   2.9708526
  81.9667490  30.2736545   3.1688736  82.3817363  31.1791365   2.0288004
  89.9018158  22.0497891  12.3533282  90.4200102  22.7858918  12.0279770
  89.5473291  22.3561884  13.1880041  81.4817096  26.9102572   0.4694687
  80.7886341  26.9846927  -0.1865277  81.2368847  26.1462916   0.9916204
  87.9564221  37.6457167  -0.5640796  87.3838188  38.2647355  -1.0170324
  88.5297014  38.1956529  -0.0300874  94.0239610  26.8915807  11.6205753
  94.9757033  26.9913905  11.6417977  93.8543061  26.0994076  12.1303838
  92.0453990  23.9771391  11.8065154  91.4503922  24.2576403  11.1111643
  91.7603687  24.4665292  12.5781895  96.5027688  30.1121927  10.7348053
  96.4704008  29.1737928  10.9207737  97.1128312  30.1905964  10.0013878
  88.2249712  33.0335726  18.2375914  89.1452721  33.2114325  18.4315960
  88.1899295  32.0891772  18.0855613  77.4431877  28.2274320   7.1629189
  77.1234661  27.3739628   6.8703563  76.8965305  28.4422898   7.9187156
  81.2211784  30.9436761  10.8798695  81.4397794  31.8753869  10.8986729
  81.6337558  30.5844735  11.6653499  86.0939649  26.5169967  20.2701444
  85.9936376  27.4664324  20.2013535  85.8761192  26.1888206  19.3977514
  77.3120137  31.8477231   9.1322310  76.6183608  31.4331184   8.6192265
  78.0593128  31.8897768   8.5355729  85.9570920  29.9467106  19.0866506
  85.4738001  30.7467466  19.2930395  86.0431859  29.9575050  18.1333950
  79.2256879  31.7795485   7.0088325  79.2027567  31.8783172   6.0570208
  79.5357516  32.6260636   7.3305491  81.8844257  33.8371640  11.1234939
  82.8387511  33.8055583  11.0564871  81.6856781  33.3762264  11.9385165
  82.4743639  32.4072756  13.6905737  83.2936528  32.9016835  13.7140574
  82.7480447  31.4904724  13.6623305  80.2394486  39.3791260   8.1405137
  80.1048954  38.6191661   7.5743135  79.8226548  40.1032160   7.6733926
  83.3963612  40.2760577   8.3523580  83.2795996  41.2206009   8.2502270
  82.5756058  39.9734138   8.7409379  77.7278553  26.7410890  14.3897934
  78.3737417  26.2309844  14.8785159  77.5195705  27.4779572  14.9641359
  90.2531946  33.8091738  19.8890075  91.1223105  33.9832390  19.5276710
  89.7738697  34.6286154  19.7665804  84.4218126  40.9288839  11.5679508
  85.3245373  40.9612449  11.8846003  84.1955496  39.9989290  11.5825844
  86.1771728  39.6819825   8.2289587  85.2267359  39.6821687   8.1153959
  86.4804214  38.9352560   7.7125622  82.0676044  23.8878507  18.4872948
  82.9307506  23.5315312  18.6976273  81.4941455  23.5492402  19.1748353
 101.9124421  45.5180364   9.2935349 102.5502831  45.3987111   8.5898689
 101.7945264  46.4661208   9.3523302  98.7214128  45.4707792   9.2296874
  98.3832639  45.3548856   8.3417409  99.5903896  45.0698957   9.2097880
  94.5800943  47.3243268   5.2193765  94.0165808  47.2333205   4.4510053
  94.4653338  46.5043173   5.6996258  99.2033911  46.6242643  15.1883080
  99.1922551  46.2295442  14.3163583  99.3654550  45.8908716  15.7816851
  92.1265375  48.8194460   8.0577986  92.9186667  48.4785284   7.6424285
  92.3662025  48.9289435   8.9780139 100.1600502  50.9914236   0.5308230
  99.5088482  51.5768316   0.1442244 100.9544865  51.5220431   0.5903267
  94.0856129  48.0803373   0.9295364  94.8587005  47.5332360   0.7908240
  94.4381528  48.9447622   1.1409826  95.9241172  49.4079755  14.1362264
  95.6331038  50.3125386  14.0208930  96.5598156  49.4496283  14.8506333
  96.8497379  46.7856604  10.7263623  97.4460951  46.5612626  10.0120586
  96.9072350  46.0441349  11.3289071  96.1418696  46.1424145   0.7638189
  96.0254954  45.4669048   1.4319274  96.2520956  45.6556519  -0.0529658
  98.4850237  45.6034292   4.4684878  98.1208444  45.0764913   5.1797800
  99.3417353  45.2132761   4.2951364 104.3899537  36.8928625  11.7316145
 104.0582862  37.7624036  11.5077360 103.7945151  36.5764909  12.4110175
 100.8831057  49.0941171  11.1312057 100.5831780  49.9966210  11.0227865
 100.5382116  48.8273354  11.9833210  94.3343538  45.5454968   7.1648762
  93.4094035  45.4131182   7.3726454  94.5827952  46.3249187   7.6618704
 104.2828201  41.6123711   8.8109495 103.3745078  41.5439119   8.5168256
 104.2315796  42.0895656   9.6391320  91.6952349  45.1888241   7.9992551
  91.8244731  45.4422720   8.9131963  91.0149801  45.7815949   7.6797206
  95.8651837  55.8585491   4.0983025  95.7875866  56.8093316   4.1771506
  95.2613480  55.5131364   4.7557951  98.3569066  43.0313356  16.7544392
  97.5802400  43.5907277  16.7447257  98.9959629  43.5170139  17.2759262
  96.6115439  45.8398810  16.3162359  97.3530123  46.3783854  16.0397183
  95.9052424  46.4665099  16.4733911 102.0870778  47.9827950  14.9134520
 102.4954134  47.5410361  14.1689153 101.3648040  47.4080578  15.1668713
  98.4401848  42.9200557  12.2868077  99.2863044  43.3439971  12.4302726
  98.3800486  42.2634181  12.9806640 102.4099593  48.5429141   8.6686809
 101.7808455  48.7074855   7.9662877 102.0225255  48.9570750   9.4397773
 106.2888825  49.4783579   6.0231173 105.6039863  49.8582480   5.4728206
 106.3732674  50.0878905   6.7563121 101.5901294  40.5804925  13.9449251
 101.3462226  41.3346986  13.4083527 101.8661224  40.9590273  14.7796498
 103.5439756  47.1243538  12.6226517 103.7556652  47.7675298  11.9460898
 103.4969505  46.2905854  12.1548447 101.1465985  39.7361358   9.5263089
 100.2850464  40.0342612   9.8179826 101.1728420  39.9531757   8.5944121
  97.9627555  48.2803549   5.9336894  98.4265900  48.5591252   5.1441517
  97.6984353  47.3786994   5.7509985  94.8551636  47.8275031   8.8716658
  95.4252993  48.2562299   8.2334142  95.4459748  47.5457615   9.5700843
  96.8996441  44.4026701   2.7426460  97.6020484  44.8547745   3.2100386
  96.5677069  43.7610520   3.3706353  95.3476802  42.9938458  17.1177669
  94.7175463  43.6754739  17.3513066  95.2412890  42.8821540  16.1730807
  90.6421775  42.6610254   8.0443593  89.8520829  42.9167783   7.5683704
  91.1333022  43.4758592   8.1495634 104.6585584  50.0015493  10.7948874
 105.4803028  49.5995681  10.5131556 104.6547987  49.8983727  11.7464990
  92.5936520  43.0254833   5.0027070  91.7967684  43.1373528   5.5210565
  92.3662112  43.3641486   4.1367960  98.4242188  49.5499537  12.9509584
  98.4886620  50.0119944  13.7867756  97.7153112  48.9196901  13.0791894
  88.9259478  42.9140745  10.4758584  89.1767516  43.7987754  10.7416160
  89.4619026  42.7345346   9.7033676  98.1390206  51.2167644   2.8188565
  98.0035880  52.0619180   3.2473413  98.6800018  51.4186922   2.0554499
  94.6257545  37.2959224  19.4802920  94.2324491  36.7425422  20.1550564
  95.4423686  37.6069802  19.8709437  91.5919603  48.7343082   3.3916490
  92.1044124  49.5286332   3.5422055  92.2442316  48.0369373   3.3250091
  93.4014488  51.8508838   5.4739243  93.5781116  52.7726803   5.2860227
  94.1971321  51.5367258   5.9033623  97.5425506  38.7117103  17.0723177
  98.2835220  39.3124256  16.9927639  97.7743429  37.9694741  16.5141219
  92.6866844  43.8973470  15.3501406  92.5720359  42.9958727  15.6508505
  91.8311362  44.1437167  14.9986223  99.7658682  51.8391211  16.9488907
  99.3222536  51.0527589  16.6309811 100.4275896  52.0270361  16.2832798
  94.5245803  53.3687012  11.4749585  95.0753228  53.2404075  10.7026579
  93.6857279  53.6681901  11.1244478 101.8639920  52.1194010  14.9770308
 101.8458395  52.9402892  14.4850577 102.7859840  51.9948086  15.2020449
  98.3212974  49.6338140  15.8193816  98.8541311  48.8726428  15.5893124
  97.7927055  49.3411792  16.5617971  89.5568520  47.0631736   4.1676060
  90.3943742  47.4728745   3.9509768  89.7346787  46.1231179   4.1376254
 100.5679210  37.1102861   9.3136691 100.0644005  37.0732996   8.5004497
 100.8609816  38.0195604   9.3733348  96.8122095  37.1941591   8.3202873
  97.6775092  36.9984399   7.9608763  96.8799604  36.9651943   9.2472230
  99.6865687  48.7624132   3.3312628  99.1587048  48.0276892   3.0185866
  99.1853190  49.5398809   3.0852597 104.6658533  46.9573153   8.4479675
 104.0082207  47.6472414   8.5359803 105.4698932  47.3469585   8.7913661
  94.4184414  39.4243799   5.6919240  94.9928166  39.2018980   4.9592433
  95.0055397  39.4932493   6.4447841  99.9544823  42.7866981   8.7441957
  99.0367384  43.0081928   8.5863645 100.3704966  42.8613292   7.8853664
 104.2425788  50.2923527   4.6262759 103.7888115  49.4514437   4.6827950
 103.6119755  50.9284925   4.9637539 102.6858727  52.1300024   5.5612577
 102.9781702  52.6905081   4.8424943 103.1957348  52.4228585   6.3165736
  89.5794691  44.4022452   4.8386794  89.3819091  43.8091812   4.1137860
  89.0241355  44.0974662   5.5562733  97.5591415  44.2945558   6.9581387
  97.6140024  43.3419395   6.8823864  96.7482617  44.4504997   7.4422685
  95.4983774  42.9122618   4.7171766  94.6851640  43.2116788   5.1236958
  95.9942769  42.5178307   5.4346248  97.6492352  52.9080375   6.6506030
  97.6068531  53.1341221   5.7214563  98.5655051  52.6743749   6.7991832
 101.0957986  43.3764442  13.5486660 101.4507374  43.6035916  14.4081125
 101.7430117  43.7082819  12.9263915  94.9897849  40.4840973  10.3333001
  95.6297229  40.3429733   9.6355964  94.1575380  40.1975487   9.9571603
 106.8525103  48.5659405   9.2647260 107.2861609  48.4734694  10.1130314
 107.5656683  48.5416906   8.6267276  95.7658153  49.7843404   6.4467993
  96.5598752  49.2893724   6.2450568  95.0549845  49.2561267   6.0835699
 100.5852998  52.1661499  10.7980361 100.6390020  52.7352436  11.5658077
  99.7167779  52.3363384  10.4334398  92.0740917  43.9286486   2.5227746
  91.1438505  43.8670941   2.7397708  92.1698389  43.4062438   1.7264387
  91.9926466  40.4541298   5.1105988  92.2533283  41.3686632   5.0015148
  92.8143638  39.9865741   5.2602600  93.4651391  41.8679056  12.2804812
  94.1374444  41.6596418  11.6317461  92.6381177  41.6701142  11.8410044
 107.7140652  48.6083106  11.7980146 107.9076542  49.5128916  12.0439421
 107.6141270  48.1490525  12.6318731  99.3676963  38.4940996  14.2970473
  98.7204878  39.1930946  14.2034949 100.1377978  38.9277140  14.6646721
 102.7755761  48.7589849  17.3721026 102.6241267  48.5300400  16.4551110
 102.7660440  49.7160450  17.3852371  99.5441097  46.3321761  12.3567293
 100.4733157  46.4832921  12.1836260  99.1232127  46.4205782  11.5015939
  98.3429429  50.3572426  10.1265830  98.2040515  49.9891210  10.9991768
  97.5544025  50.8720065   9.9549788  98.9377581  55.4581522   1.4691367
  99.1129337  54.9869565   2.2836990  98.2510369  56.0847288   1.6972628
  99.8934644  49.7354029   7.5154668  99.5584477  49.6954798   8.4112318
  99.3938590  49.0698744   7.0425078  93.8678888  45.1421659  13.0407249
  93.7298686  44.4101897  13.6418788  94.7783812  45.0530559  12.7591437
  96.4961189  44.8541618  12.5290929  97.2060807  44.2134810  12.4877547
  96.4530497  45.1054513  13.4517110 104.4847968  51.7908971  15.4497508
 104.4260514  51.1068191  14.7828091 104.8867486  52.5327961  14.9978134
  95.2090123  41.8406836  14.3486568  94.6727480  41.3897574  15.0008165
  94.6206831  41.9752745  13.6057033  93.5038666  58.6070885   8.2431227
  93.7435265  59.2389409   8.9210246  92.6607863  58.2558925   8.5296586
 104.4865375  49.7548555  13.6811488 103.5992154  49.4174477  13.8037887
 105.0563926  49.0231586  13.9180253  86.1394522  46.0872647   7.0054539
  86.8265562  45.7734377   6.4175554  85.9842651  46.9914012   6.7321791
  90.9429244  40.9762843  11.4339563  90.8587433  40.3688513  10.6989973
  90.1211950  41.4671862  11.4349059  98.0166528  54.4150007  10.6472731
  97.9436700  55.2204979  11.1592036  97.5743921  54.6141973   9.8220752
  97.8056308  53.6521778   4.1575553  97.0223830  54.1943458   4.2513777
  98.5049053  54.1695757   4.5569794 100.4765212  54.3136842  12.8030890
 101.1893184  54.9484306  12.7306791  99.9855240  54.4100708  11.9870891
 102.1982739  48.2188094   4.3748181 101.2639017  48.3389557   4.2052886
 102.3759407  47.3160561   4.1108191  97.6987927  41.6033790   6.5281443
  97.3285714  41.0504830   7.2162348  98.1947019  40.9991923   5.9756443
  95.5277125  52.0631285  13.6236460  96.2286585  52.6967768  13.7765855
  95.0572240  52.4046017  12.8632100 103.3278411  44.6175892  11.4489011
 102.6749861  44.8651800  10.7941464 103.7058791  43.8040031  11.1151488
 100.2885585  54.6535586   5.5517181 100.4707980  53.8357242   6.0144933
 101.1118571  54.8703278   5.1142071 100.6227751  53.5803771   2.8132230
 101.1515517  53.0696225   2.2002392 100.8855970  53.2646301   3.6777763
  99.3765984  45.3595704  17.9355048  98.7006621  45.2589833  18.6057423
 100.1993618  45.2034917  18.3991045  91.1244843  51.5967640  10.5567563
  91.7098280  50.8511328  10.6895467  90.9269682  51.9071597  11.4404227
  93.9783499  54.6318887   5.5730006  93.3093874  55.1165015   5.0894046
  93.8396368  54.8788108   6.4873384  85.7162498  44.1673240   9.2772006
  85.7546598  43.6336831  10.0709124  85.2102791  43.6408446   8.6582983
  98.1188767  56.6662631  12.1712664  98.6707075  56.8294252  12.9361749
  98.4594961  57.2567069  11.4992689  93.0953260  39.0137781  12.7734549
  93.1594587  39.8752612  12.3611946  93.0320381  38.4011782  12.0406907
  92.5705533  41.0860913  16.4207583  93.1977572  40.7037991  17.0345107
  91.7133452  40.8675115  16.7863275 102.9699641  51.4923888  18.0261318
 103.5139545  52.1053847  17.5316273 102.3886486  52.0503467  18.5428331
  89.3471076  42.8937342   2.3525938  89.6424517  41.9848021   2.2992991
  88.4459111  42.8725082   2.0306940 101.2557154  54.6144606   9.1576346
 101.1308294  53.8134346   8.6487292 101.9136246  55.1090800   8.6690316
  92.8765323  40.9693339   8.3353486  92.1551908  41.5829307   8.1960960
  93.6658578  41.5051104   8.2570132 103.3192063  52.4153627  10.7855896
 102.3722398  52.2958978  10.7134223 103.6674836  51.5276125  10.8682158
  95.6791636  38.3047765  14.6094138  96.2026038  38.5510062  15.3720447
  95.4603969  39.1367800  14.1897275  91.0758917  40.5751440   2.4765263
  90.7471623  39.6948819   2.2940369  91.4298288  40.5199109   3.3641652
 100.3238496  52.2106343   6.9860248 100.1763459  51.2823050   7.1667818
 101.1491990  52.2326433   6.5017324  94.1900740  40.8624410   2.8440741
  94.5296813  41.3910331   2.1219349  94.6372861  41.2004816   3.6199307
 103.9272618  53.0334902   8.0725121 104.8519165  52.8277763   7.9349572
 103.7587921  52.7851303   8.9814463  96.8844181  39.2461461  12.2943809
  96.5441002  38.4469274  12.6964488  96.1783187  39.5463171  11.7220642
  97.5360653  36.3310773  10.7471132  98.3586722  35.8571251  10.6250022
  97.7798717  37.1101257  11.2469818  95.0599232  43.0229894   8.5563110
  94.9143813  43.3370197   9.4487392  94.5824435  43.6414794   8.0034009
  96.9195615  40.0132442   8.6044000  96.9057183  39.1173535   8.2676298
  97.6368043  40.0203105   9.2382286  98.7721745  40.4469782  10.6497127
  98.5139523  41.3686852  10.6481458  98.2406786  40.0500216  11.3397591
 103.7167934  53.5520569   3.4287213 103.8904812  52.9866991   2.6761065
 104.2096825  54.3521464   3.2466703  89.5344894  45.5635238  11.4950771
  88.9898362  46.3395046  11.6271046  90.4124244  45.9106043  11.3369893
  90.3210916  44.6905134  14.3880928  89.5792652  44.8387770  14.9745559
  90.0003660  44.9513400  13.5247678  98.2654578  54.2321113  14.1861318
  98.5741705  53.9870259  15.0584018  99.0630060  54.4367751  13.6980188
  98.2875191  56.3859022   6.4166695  97.8480181  55.8935401   7.1099552
  99.0383307  55.8431990   6.1758770  90.7667529  52.5770563   6.4191323
  91.5925549  52.2774335   6.0389966  90.4161581  51.8078185   6.8681112
  95.7349063  51.9297031   8.4888996  95.1129072  51.2667736   8.1891224
  96.4053930  51.9558163   7.8062644  88.9676135  50.4956889   7.3780256
  88.1308043  50.0679064   7.1964258  88.9399780  50.6889333   8.3151048
  95.8073590  40.4078819  18.0821503  95.8561746  41.2840942  17.6999272
  96.3496104  39.8656212  17.5093146 106.2928436  50.9519943  17.3622640
 105.5023980  50.9344081  16.8227139 106.0561790  51.4908236  18.1171676
 106.4126311  47.8012409  14.6755368 106.4624316  47.6362416  15.6170891
 106.3040234  46.9339668  14.2853249  95.2962570  50.4800955   1.9647457
  95.4450690  51.1636419   1.3114130  96.1029013  50.4606045   2.4796913
 103.7030073  43.7843337  15.9914675 104.6039936  43.6449802  15.6998673
 103.7778048  43.9497792  16.9312852  98.0372879  41.1610192  14.8367861
  97.1676188  41.4543758  14.5650450  98.2732359  41.7450637  15.5575125
 107.9144508  50.2209350  14.9197390 107.6229316  50.5839331  15.7560851
 107.3016639  49.5076359  14.7410722 106.1631696  45.3441965  13.3877448
 106.6385818  45.5369611  12.5796299 105.2397261  45.4001151  13.1420831
  93.0515203  46.5066132   2.9708526  92.8061244  45.6028462   3.1688736
  93.2211117  46.5083283   2.0288004 100.7411912  37.3789809  12.3533282
 101.2593856  38.1150836  12.0279770 100.3867045  37.6853802  13.1880041
  92.3210850  42.2394490   0.4694687  91.6280095  42.3138845  -0.1865277
  92.0762602  41.4754833   0.9916204  98.7957975  52.9749085  -0.5640796
  98.2231942  53.5939272  -1.0170324  99.3690769  53.5248447  -0.0300874
 104.8633365  42.2207725  11.6205753 105.8150788  42.3205823  11.6417977
 104.6936815  41.4285994  12.1303838 102.8847744  39.3063308  11.8065154
 102.2897677  39.5868321  11.1111643 102.5997441  39.7957209  12.5781895
 107.3421443  45.4413845  10.7348053 107.3097763  44.5029846  10.9207737
 107.9522066  45.5197882  10.0013878  99.0643466  48.3627644  18.2375914
  99.9846476  48.5406243  18.4315960  99.0293049  47.4183689  18.0855613
  88.2825631  43.5566238   7.1629189  87.9628415  42.7031546   6.8703563
  87.7359059  43.7714816   7.9187156  92.0605539  46.2728679  10.8798695
  92.2791548  47.2045786  10.8986729  92.4731312  45.9136653  11.6653499
  96.9333404  41.8461884  20.2701444  96.8330131  42.7956241  20.2013535
  96.7154946  41.5180123  19.3977514  88.1513891  47.1769149   9.1322310
  87.4577363  46.7623102   8.6192265  88.8986882  47.2189686   8.5355729
  96.7964674  45.2759023  19.0866506  96.3131756  46.0759383  19.2930395
  96.8825613  45.2866968  18.1333950  90.0650634  47.1087403   7.0088325
  90.0421322  47.2075090   6.0570208  90.3751270  47.9552554   7.3305491
  92.7238012  49.1663558  11.1234939  93.6781265  49.1347500  11.0564871
  92.5250535  48.7054182  11.9385165  93.3137394  47.7364674  13.6905737
  94.1330283  48.2308753  13.7140574  93.5874201  46.8196642  13.6623305
  91.0788240  54.7083177   8.1405137  90.9442708  53.9483578   7.5743135
  90.6620303  55.4324077   7.6733926  94.2357366  55.6052494   8.3523580
  94.1189750  56.5497927   8.2502270  93.4149812  55.3026056   8.7409379
  88.5672308  42.0702808  14.3897934  89.2131172  41.5601762  14.8785159
  88.3589459  42.8071489  14.9641359 101.0925700  49.1383655  19.8890075
 101.9616860  49.3124308  19.5276710 100.6132452  49.9578072  19.7665804
  95.2611880  56.2580756  11.5679508  96.1639127  56.2904367  11.8846003
  95.0349250  55.3281207  11.5825844  97.0165482  55.0111743   8.2289587
  96.0661113  55.0113604   8.1153959  97.3197968  54.2644477   7.7125622
  92.9069799  39.2170425  18.4872948  93.7701260  38.8607230  18.6976273
  92.3335210  38.8784320  19.1748353 112.7518176  60.8472281   9.2935349
 113.3896586  60.7279029   8.5898689 112.6339019  61.7953125   9.3523302
 109.5607882  60.7999709   9.2296874 109.2226394  60.6840774   8.3417409
 110.4297650  60.3990874   9.2097880 110.0427665  61.9534561  15.1883080
 110.0316306  61.5587359  14.3163583 110.2048305  61.2200634  15.7816851
 102.9659130  64.1486377   8.0577986 103.7580422  63.8077202   7.6424285
 103.2055780  64.2581352   8.9780139 106.7634926  64.7371673  14.1362264
 106.4724792  65.6417304  14.0208930 107.3991911  64.7788200  14.8506333
 107.6891133  62.1148521  10.7263623 108.2854705  61.8904544  10.0120586
 107.7466105  61.3733267  11.3289071 115.2293292  52.2220542  11.7316145
 114.8976617  53.0915953  11.5077360 114.6338905  51.9056826  12.4110175
 111.7224811  64.4233088  11.1312057 111.4225534  65.3258127  11.0227865
 111.3775871  64.1565272  11.9833210 105.1737293  60.8746885   7.1648762
 104.2487789  60.7423099   7.3726454 105.4221706  61.6541104   7.6618704
 115.1221955  56.9415629   8.8109495 114.2138832  56.8731037   8.5168256
 115.0709551  57.4187574   9.6391320 102.5346104  60.5180159   7.9992551
 102.6638485  60.7714638   8.9131963 101.8543555  61.1107867   7.6797206
 109.1962821  58.3605274  16.7544392 108.4196155  58.9199194  16.7447257
 109.8353384  58.8462057  17.2759262 107.4509193  61.1690728  16.3162359
 108.1923878  61.7075771  16.0397183 106.7446179  61.7957016  16.4733911
 112.9264533  63.3119868  14.9134520 113.3347889  62.8702279  14.1689153
 112.2041794  62.7372496  15.1668713 109.2795603  58.2492475  12.2868077
 110.1256798  58.6731888  12.4302726 109.2194241  57.5926099  12.9806640
 112.4295048  55.9096843  13.9449251 112.1855980  56.6638904  13.4083527
 112.7054979  56.2882191  14.7796498 114.3833511  62.4535455  12.6226517
 114.5950406  63.0967215  11.9460898 114.3363259  61.6197772  12.1548447
 111.9859740  55.0653276   9.5263089 111.1244219  55.3634530   9.8179826
 112.0122175  55.2823675   8.5944121 105.6945390  63.1566948   8.8716658
 106.2646747  63.5854217   8.2334142 106.2853502  62.8749533   9.5700843
 106.1870557  58.3230376  17.1177669 105.5569218  59.0046657  17.3513066
 106.0806645  58.2113457  16.1730807 101.4815529  57.9902172   8.0443593
 100.6914583  58.2459700   7.5683704 101.9726777  58.8050510   8.1495634
 103.4330275  58.3546751   5.0027070 102.6361438  58.4665445   5.5210565
 103.2055867  58.6933403   4.1367960 109.2635942  64.8791454  12.9509584
 109.3280375  65.3411861  13.7867756 108.5546866  64.2488819  13.0791894
  99.7653232  58.2432662  10.4758584 100.0161271  59.1279672  10.7416160
 100.3012781  58.0637264   9.7033676 105.4651300  52.6251142  19.4802920
 105.0718245  52.0717340  20.1550564 106.2817440  52.9361720  19.8709437
 108.3819261  54.0409021  17.0723177 109.1228974  54.6416174  16.9927639
 108.6137183  53.2986658  16.5141219 103.5260599  59.2265388  15.3501406
 103.4114114  58.3250645  15.6508505 102.6705116  59.4729085  14.9986223
 110.6052436  67.1683128  16.9488907 110.1616291  66.3819507  16.6309811
 111.2669650  67.3562279  16.2832798 105.3639558  68.6978930  11.4749585
 105.9146983  68.5695993  10.7026579 104.5251033  68.9973819  11.1244478
 112.7033674  67.4485928  14.9770308 112.6852150  68.2694809  14.4850577
 113.6253595  67.3240003  15.2020449 109.1606729  64.9630058  15.8193816
 109.6935065  64.2018346  15.5893124 108.6320810  64.6703709  16.5617971
 111.4072964  52.4394779   9.3136691 110.9037760  52.4024914   8.5004497
 111.7003571  53.3487521   9.3733348 107.6515850  52.5233508   8.3202873
 108.5168847  52.3276317   7.9608763 107.7193359  52.2943860   9.2472230
 105.2578169  54.7535716   5.6919240 105.8321921  54.5310898   4.9592433
 105.8449151  54.8224411   6.4447841 110.7938577  58.1158899   8.7441957
 109.8761138  58.3373846   8.5863645 111.2098721  58.1905209   7.8853664
 100.4188445  59.7314369   4.8386794 100.2212845  59.1383730   4.1137860
  99.8635109  59.4266580   5.5562733 108.3985169  59.6237476   6.9581387
 108.4533779  58.6711312   6.8823864 107.5876371  59.7796915   7.4422685
 106.3377529  58.2414536   4.7171766 105.5245394  58.5408706   5.1236958
 106.8336523  57.8470224   5.4346248 111.9351741  58.7056360  13.5486660
 112.2901128  58.9327833  14.4081125 112.5823872  59.0374737  12.9263915
 105.8291604  55.8132891  10.3333001 106.4690983  55.6721650   9.6355964
 104.9969134  55.5267404   9.9571603 102.8320220  55.7833216   5.1105988
 103.0927037  56.6978549   5.0015148 103.6537392  55.3157659   5.2602600
 104.3045145  57.1970973  12.2804812 104.9768199  56.9888335  11.6317461
 103.4774932  56.9993059  11.8410044 110.2070717  53.8232914  14.2970473
 109.5598632  54.5222864  14.2034949 110.9771733  54.2569058  14.6646721
 113.6149515  64.0881766  17.3721026 113.4635022  63.8592318  16.4551110
 113.6054195  65.0452368  17.3852371 110.3834852  61.6613679  12.3567293
 111.3126912  61.8124839  12.1836260 109.9625882  61.7497700  11.5015939
 109.1823184  65.6864344  10.1265830 109.0434269  65.3183128  10.9991768
 108.3937780  66.2011983   9.9549788 104.7072643  60.4713576  13.0407249
 104.5692441  59.7393815  13.6418788 105.6177566  60.3822476  12.7591437
 107.3354943  60.1833536  12.5290929 108.0454562  59.5426728  12.4877547
 107.2924252  60.4346430  13.4517110 115.3241722  67.1200889  15.4497508
 115.2654268  66.4360109  14.7828091 115.7261240  67.8619879  14.9978134
 106.0483877  57.1698753  14.3486568 105.5121234  56.7189492  15.0008165
 105.4600586  57.3044662  13.6057033 115.3259129  65.0840473  13.6811488
 114.4385908  64.7466395  13.8037887 115.8957680  64.3523504  13.9180253
  96.9788276  61.4164565   7.0054539  97.6659316  61.1026295   6.4175554
  96.8236405  62.3205929   6.7321791 101.7822999  56.3054761  11.4339563
 101.6981187  55.6980431  10.6989973 100.9605705  56.7963779  11.4349059
 108.5381681  56.9325708   6.5281443 108.1679469  56.3796748   7.2162348
 109.0340774  56.3283841   5.9756443 106.3670880  67.3923203  13.6236460
 107.0680339  68.0259686  13.7765855 105.8965995  67.7337934  12.8632100
 114.1672166  59.9467810  11.4489011 113.5143616  60.1943718  10.7941464
 114.5452546  59.1331948  11.1151488 110.2159739  60.6887621  17.9355048
 109.5400376  60.5881751  18.6057423 111.0387373  60.5326835  18.3991045
 101.9638598  66.9259558  10.5567563 102.5492035  66.1803246  10.6895467
 101.7663436  67.2363514  11.4404227  96.5556253  59.4965158   9.2772006
  96.5940352  58.9628749  10.0709124  96.0496545  58.9700363   8.6582983
 103.9347015  54.3429698  12.7734549 103.9988341  55.2044529  12.3611946
 103.8714135  53.7303700  12.0406907 103.4099287  56.4152831  16.4207583
 104.0371326  56.0329908  17.0345107 102.5527206  56.1967033  16.7863275
 113.8093396  66.8215806  18.0261318 114.3533300  67.4345764  17.5316273
 113.2280241  67.3795385  18.5428331 100.1864830  58.2229260   2.3525938
 100.4818271  57.3139938   2.2992991  99.2852866  58.2017000   2.0306940
 103.7159077  56.2985257   8.3353486 102.9945663  56.9121224   8.1960960
 104.5052333  56.8343021   8.2570132 106.5185391  53.6339683  14.6094138
 107.0419792  53.8801980  15.3720447 106.2997724  54.4659718  14.1897275
 101.9152672  55.9043358   2.4765263 101.5865378  55.0240737   2.2940369
 102.2692042  55.8491026   3.3641652 107.7237936  54.5753378  12.2943809
 107.3834756  53.7761191  12.6964488 107.0176942  54.8755089  11.7220642
 108.3754408  51.6602691  10.7471132 109.1980477  51.1863169  10.6250022
 108.6192471  52.4393174  11.2469818 105.8992986  58.3521811   8.5563110
 105.7537567  58.6662114   9.4487392 105.4218190  58.9706712   8.0034009
 107.7589369  55.3424359   8.6044000 107.7450938  54.4465453   8.2676298
 108.4761797  55.3495023   9.2382286 109.6115500  55.7761700  10.6497127
 109.3533278  56.6978770  10.6481458 109.0800540  55.3792134  11.3397591
 100.3738648  60.8927156  11.4950771  99.8292117  61.6686964  11.6271046
 101.2517998  61.2397960  11.3369893 101.1604670  60.0197052  14.3880928
 100.4186406  60.1679687  14.9745559 100.8397415  60.2805318  13.5247678
 109.1048333  69.5613030  14.1861318 109.4135459  69.3162177  15.0584018
 109.9023815  69.7659669  13.6980188  99.8069889  65.8248807   7.3780256
  98.9701797  65.3970982   7.1964258  99.7793534  66.0181251   8.3151048
 106.6467345  55.7370737  18.0821503 106.6955500  56.6132860  17.6999272
 107.1889859  55.1948130  17.5093146 117.1322190  66.2811860  17.3622640
 116.3417734  66.2635999  16.8227139 116.8955545  66.8200154  18.1171676
 117.2520065  63.1304327  14.6755368 117.3018070  62.9654334  15.6170891
 117.1433989  62.2631586  14.2853249 114.5423828  59.1135255  15.9914675
 115.4433691  58.9741719  15.6998673 114.6171802  59.2789709  16.9312852
 108.8766633  56.4902109  14.8367861 108.0069942  56.7835675  14.5650450
 109.1126113  57.0742554  15.5575125 118.7538262  65.5501268  14.9197390
 118.4623070  65.9131249  15.7560851 118.1410393  64.8368276  14.7410722
 117.0025450  60.6733883  13.3877448 117.4779572  60.8661529  12.5796299
 116.0791016  60.7293069  13.1420831 111.5805667  52.7081726  12.3533282
 112.0987611  53.4442753  12.0279770 111.2260800  53.0145720  13.1880041
 115.7027119  57.5499643  11.6205753 116.6544542  57.6497740  11.6417977
 115.5330570  56.7577911  12.1303838 113.7241499  54.6355226  11.8065154
 113.1291431  54.9160239  11.1111643 113.4391196  55.1249127  12.5781895
 109.9037221  63.6919562  18.2375914 110.8240230  63.8698161  18.4315960
 109.8686804  62.7475607  18.0855613  99.1219386  58.8858155   7.1629189
  98.8022170  58.0323463   6.8703563  98.5752814  59.1006733   7.9187156
 102.8999293  61.6020596  10.8798695 103.1185303  62.5337704  10.8986729
 103.3125067  61.2428571  11.6653499 107.7727158  57.1753802  20.2701444
 107.6723885  58.1248159  20.2013535 107.5548701  56.8472041  19.3977514
  98.9907646  62.5061067   9.1322310  98.2971117  62.0915020   8.6192265
  99.7380637  62.5481603   8.5355729 107.6358429  60.6050941  19.0866506
 107.1525510  61.4051301  19.2930395 107.7219368  60.6158886  18.1333950
 100.9044388  62.4379321   7.0088325 100.8815076  62.5367008   6.0570208
 101.2145025  63.2844471   7.3305491 103.5631766  64.4955476  11.1234939
 104.5175020  64.4639418  11.0564871 103.3644290  64.0346099  11.9385165
 104.1531148  63.0656592  13.6905737 104.9724037  63.5600670  13.7140574
 104.4267956  62.1488560  13.6623305  99.4066062  57.3994725  14.3897934
 100.0524926  56.8893679  14.8785159  99.1983214  58.1363407  14.9641359
 111.9319455  64.4675573  19.8890075 112.8010614  64.6416225  19.5276710
 111.4526206  65.2869990  19.7665804 106.1005635  71.5872674  11.5679508
 107.0032882  71.6196284  11.8846003 105.8743005  70.6573125  11.5825844
 103.7463553  54.5462343  18.4872948 104.6095015  54.1899147  18.6976273
 103.1728964  54.2076237  19.1748353 116.3045054  67.9543059  19.4802920
 115.9112000  67.4009258  20.1550564 117.1211194  68.2653638  19.8709437
 119.2213015  69.3700938  17.0723177 119.9622729  69.9708091  16.9927639
 119.4530938  68.6278576  16.5141219 114.2493042  71.7444749  16.4207583
 114.8765081  71.3621826  17.0345107 113.3920961  71.5258951  16.7863275
 117.4861099  71.0662655  18.0821503 117.5349255  71.9424777  17.6999272
 118.0283613  70.5240048  17.5093146 118.6120913  72.5045720  20.2701444
 118.5117640  73.4540077  20.2013535 118.3942455  72.1763959  19.3977514
 110.2459817  72.7286643  14.3897934 110.8918680  72.2185597  14.8785159
 110.0376968  73.4655325  14.9641359 114.5857308  69.8754260  18.4872948
 115.4488769  69.5191065  18.6976273 114.0122719  69.5368155  19.1748353
   4.3554025  77.0038082  86.7962002   3.6017733  76.4345480  86.6406007
   4.4901566  76.9700747  87.7432637   0.7202638  78.4446071  87.0928117
   1.5549529  78.8835875  87.2565677   0.8561766  77.9684724  86.2736363
   4.7660440  77.1613692  89.5282247   5.4963829  76.8998980  90.0889950
   4.1567386  76.4242414  89.5684315   2.8475737  75.3021555  90.1256698
   2.1208901  75.1677520  89.5173190   2.4323024  75.6098384  90.9313416
   0.4653532  71.5233407  87.4790130   1.0598023  71.2829143  86.7683438
   0.5380116  70.8040538  88.1063666   2.7724605  74.8299608  86.2533551
   2.2124163  74.8992797  87.0265113   2.1668108  74.6540593  85.5333047
   4.3580623  91.5056122  88.9463507   4.9959033  91.3862869  88.2426847
   4.2401466  92.4536966  89.0051459   1.1670330  91.4583550  88.8825031
   0.8288841  91.3424615  87.9945566   2.0360098  91.0574715  88.8626037
   2.6056704  96.9789994  80.1836387   1.9544684  97.5644075  79.7970401
   3.4001067  97.5096189  80.2431425   3.9121892  89.2307576  86.0216715
   4.6984981  88.8126999  85.6707132   4.1760596  90.1353668  86.1898363
   4.0831969  94.6680426  80.7205371   3.4477802  94.7415053  81.4326276
   3.7529376  95.2574025  80.0424451   9.3130319  89.1682809  86.9249693
  10.0455491  88.5982026  87.1587523   8.5569675  88.7804409  87.3656199
   0.9306439  91.5910050  84.1213036   0.5664646  91.0640671  84.8325957
   1.7873555  91.2008520  83.9479521   6.8355739  82.8804383  91.3844302
   6.5039064  83.7499794  91.1605517   6.2401353  82.5640667  92.0638332
   3.3287259  95.0816929  90.7840214   3.0287982  95.9841968  90.6756022
   2.9838318  94.8149112  91.6361367   6.7284403  87.5999469  88.4637652
   5.8201280  87.5314878  88.1696413   6.6771998  88.0771414  89.2919477
   8.5946049  85.8015908  90.2415526   7.9520429  86.0948441  89.5955320
   8.0900978  85.6868828  91.0468722   6.2486213  89.5479081  80.9301385
   7.1604069  89.7806468  80.7549082   5.7395860  90.1316125  80.3676464
   0.8858050  88.9076315  91.9396234   1.7319246  89.3315729  92.0830883
   0.8256688  88.2509940  92.6334798   4.8555795  94.5304899  88.3214966
   4.2264657  94.6950613  87.6191034   4.4681457  94.9446509  89.0925930
   8.7345027  95.4659337  85.6759330   8.0496065  95.8458239  85.1256363
   8.8188876  96.0754664  86.4091278   4.0357496  86.5680684  93.5977408
   3.7918428  87.3222744  93.0611684   4.3117426  86.9466031  94.4324655
   5.9895959  93.1119296  92.2754674   6.2012854  93.7551056  91.5989055
   5.9425707  92.2781613  91.8076604   3.5922188  85.7237117  89.1791246
   2.7306667  86.0218370  89.4707983   3.6184622  85.9407516  88.2472278
   7.1041786  95.9891252  90.4477031   7.9259230  95.5871439  90.1659713
   7.1004189  95.8859486  91.3993147  15.1947780  92.3330000  86.7962002
  14.4411488  91.7637398  86.6406007  15.3295321  92.2992665  87.7432637
   0.5846408  97.2043402  82.4716722   0.4492082  98.0494938  82.9001570
   1.1256220  97.4062680  81.7082656   3.9338871  80.7273964  91.0015615
   3.5903141  81.6175606  90.9254726   4.3017834  80.5375622  90.1385200
   3.8989154  90.7182575  79.5088050   3.3835777  91.4887180  79.7476438
   3.6266462  90.0447712  80.1321112   1.4836265  85.5632276  84.5673289
   0.6277861  85.1739127  84.3878927   1.8963217  85.6424237  83.7073074
   3.0135412  83.0978619  88.9664849   2.5100207  83.0608755  88.1532654
   3.3066018  84.0071362  89.0261505   8.8723428  93.4714930  81.4441224
   8.0952871  93.1326090  80.9996386   9.5514909  93.4767553  80.7696189
   3.6875457  88.5909667  81.3347832   3.3825593  88.9055817  82.1857975
   4.6405899  88.6691087  81.3775165   2.1321889  94.7499891  82.9840786
   1.6043250  94.0152650  82.6714023   1.6309392  95.5274567  82.7380754
   7.1114735  92.9448911  88.1007832   6.4538409  93.6348173  88.1887960
   7.9155134  93.3345343  88.4441818   5.9220194  91.2993284  86.1511774
   6.4352075  91.9323276  86.6533483   6.5721418  90.6994479  85.7855134
   3.1842568 101.2777608  78.9072445   2.5104267 101.5809305  79.5157403
   3.5708390 102.0806689  78.5577902   2.4001025  88.7742740  88.3970114
   1.4823586  88.9957687  88.2391802   2.8161168  88.8489050  87.5381821
   3.1836072  90.1734155  83.5272794   3.9307891  90.6855552  83.2179916
   3.4527662  89.8518208  84.3877188   1.4562723  92.6692696  80.5099749
   0.5473942  92.3851729  80.6072218   1.4857806  93.0891774  79.6503056
   6.6881990  96.2799285  84.2790916   6.2344317  95.4390195  84.3356107
   6.0575957  96.9160684  84.6165696   5.6314909  87.2091271  85.5091584
   4.8937666  86.6968658  85.8401826   5.8841683  86.7691653  84.6974861
   5.1314929  98.1175782  85.2140734   5.4237904  98.6780839  84.4953100
   5.6413550  98.4104343  85.9693893   5.7326537  79.9867523  86.1033353
   6.0385414  79.1264887  85.8159268   6.4579142  80.5785144  85.9032347
   1.1538810  94.2101440  77.8487827   0.7158240  93.4937299  77.3893465
   1.8949251  94.4377554  77.2872919   3.5414188  89.3640201  93.2014817
   3.8963576  89.5911674  94.0609283   4.1886319  89.6958578  92.5792072
   9.2711925  92.4858637  83.9064146   9.1329824  92.6760233  82.9785335
   8.9148144  93.2478019  84.3632197   9.2981305  94.5535164  88.9175417
   9.7317811  94.4610453  89.7658471  10.0112885  94.5292664  88.2795433
  10.1596854  94.5958864  91.4508303  10.3532744  95.5004675  91.6967578
  10.0597472  94.1366283  92.2846888   1.8133165  84.4816755  93.9498630
   1.1661080  85.1806705  93.8563106   2.5834180  84.9152899  94.3174878
   1.9897299  92.3197520  92.0095450   2.9189359  92.4708679  91.8364417
   1.5688329  92.4081541  91.1544096   1.3833783 101.4457281  81.1219524
   1.5585539 100.9745324  81.9365147   0.6966571 102.0723047  81.3500785
   2.3390846  95.7229787  87.1682825   2.0040679  95.6830557  88.0640475
   1.8394792  95.0574503  86.6953235   5.2750038  93.0685821  77.4419885
   4.6579209  92.3432649  77.3452938   4.8066526  93.8295182  77.0986959
   6.9321577  95.7424314  93.3339645   6.0448356  95.4050235  93.4566044
   7.5020128  95.0107345  93.5708410   3.5609160  85.4492165  86.4537915
   4.0577860  84.6962128  86.1338985   2.7896141  85.4856482  85.8881124
  11.4138917  91.1532531  88.0956207  11.4028794  92.0357246  87.7250140
  10.5456297  90.8004082  87.9010744   4.6438941  94.2063853  84.0276338
   3.7095219  94.3265315  83.8581043   4.8215609  93.3036319  83.7636348
   8.0311492  90.0481172  84.5626373   8.4971944  90.8809163  84.4886675
   8.4818993  89.5826153  85.2671631   6.0987723  96.3924993  81.5612525
   6.3747567  96.2781588  82.4706399   5.2292222  95.9942478  81.5224698
   6.0028155  82.4161759  88.6017274   5.0891235  82.6465986  88.7699481
   6.4321256  82.5000203  89.4531306   5.7734613  90.6051651  91.1017168
   5.1206064  90.8527558  90.4469621   6.1514993  89.7915789  90.7679645
   2.7341787 100.6411344  85.2045338   2.9164182  99.8233000  85.6673091
   3.5574773 100.8579036  84.7670228   3.0683953  99.5679529  82.4660387
   3.5971719  99.0571984  81.8530549   3.3312172  99.2522059  83.3305920
   3.7013356 100.6020365  88.8104503   3.5764496  99.8010105  88.3015449
   4.3592448 101.0966558  88.3218473   5.7648265  98.4029385  90.4384053
   4.8178600  98.2834736  90.3662380   6.1131038  97.5151883  90.5210315
   2.7694698  98.1982101  86.6388405   2.6219661  97.2698809  86.8195976
   3.5948192  98.2202192  86.1545481   6.3728820  99.0210660  87.7253278
   7.2975367  98.8153521  87.5877729   6.2044123  98.7727061  88.6342620
   2.7656212  86.0519939  81.6320523   2.9819827  86.9344577  81.3309351
   2.2850280  85.6606152  80.9026165   1.2177947  86.4345540  90.3025284
   0.9595725  87.3562611  90.3009615   0.6862988  86.0375975  90.9925748
   6.1624136  99.5396327  83.0815370   6.3361014  98.9742750  82.3289222
   6.6553027 100.3397222  82.8994860   1.6379903  82.5677491  86.6626447
   1.6601600  82.6316824  85.7078426   2.0547962  81.7281999  86.8566953
  12.0163527  92.3032750  84.7005669  12.4594673  91.5540075  84.3024793
  11.1390038  92.2942887  84.3179401   7.1499309  98.8563092  80.1812268
   7.8450213  99.4769784  80.3999583   7.4922459  98.0058443  80.4564646
   9.0490732  96.3062797  81.7099599   9.5742056  96.6450070  80.9848919
   8.9613084  95.3709813  81.5262733   8.8582513  93.7888167  94.3283525
   8.9080518  93.6238175  95.2699048   8.7496436  92.9215426  93.9381406
   6.1486275  89.7719095  95.6442832   7.0496138  89.6325560  95.3526830
   6.2234250  89.9373550  96.5841009  10.3600710  96.2085109  94.5725547
  10.0685518  96.5715089  95.4089008   9.7472841  95.4952117  94.3938879
  11.5596392  93.7737989  87.0928117  12.3943283  94.2127793  87.2565677
  11.6955521  93.2976642  86.2736363   8.6087898  91.3317723  93.0405605
   9.0842020  91.5245370  92.2324456   7.6853463  91.3876909  92.7948988
   3.1868114  83.3665567  92.0061439   3.7050058  84.1026594  91.6807927
   2.8323247  83.6729560  92.8408198   3.4380709  79.7865850  87.5262335
   3.7182462  79.1189039  88.1522762   4.2231316  79.9794945  87.0136999
   1.2414177  98.9624843  79.0887362   0.6688144  99.5815031  78.6357833
   1.8146971  99.5124205  79.6227283   7.3089567  88.2083484  91.2733910
   8.2606990  88.3081581  91.2946134   7.1393017  87.4161752  91.7831995
   5.3303946  85.2939067  91.4593311   4.7353879  85.5744079  90.7639800
   5.0453643  85.7832968  92.2310052   4.4611437  99.2461994  80.2195944
   5.3942110  99.1807555  80.4228819   4.3734650 100.0818260  79.7610476
   7.0899454  98.5627864  77.1799891   7.0113085  98.2287727  78.0735649
   7.9109120  99.0549632  77.1791364   9.7877645  91.4289603  90.3876210
   9.7553965  90.4905604  90.5735894  10.3978268  91.5073640  89.6542035
   1.6260976  90.2985656  76.4303414   2.5720080  90.1691864  76.4991832
   1.2475221  89.5600318  76.9072842   9.9372133  88.2200647  90.4334493
   9.4211182  87.4359103  90.2464422  10.8212082  87.8919363  90.5981013
   7.5982860  81.9641662  86.3930306   7.4007681  81.6556750  87.2773638
   8.2082566  82.6903301  86.5228236  15.6054195  92.4905610  89.5282247
  16.3357583  92.2290898  90.0889950  14.9961140  91.7534332  89.5684315
  13.6869492  90.6313473  90.1256698  12.9602655  90.4969438  89.5173190
  13.2716779  90.9390301  90.9313416   1.4265959  82.7672522  82.5202541
   0.6166687  82.4219607  82.8957787   2.1150375  82.4580066  83.1090152
   3.3556507  81.8450569  84.1426837   3.9087545  82.2646023  84.8016860
   3.5926593  80.9186317  84.1849793   6.7335314  83.9551094  83.6505501
   6.1533983  84.6135898  83.2683554   6.4671247  83.1328439  83.2392919
   5.1838880  83.3556152  85.8526822   5.6838659  83.4672686  85.0441141
   5.8274488  83.0517205  86.4927630   5.5160192  86.1151185  82.7061850
   4.6286047  86.4000835  82.4882044   5.9314181  85.9544948  81.8589127
   8.8674728  86.1397706  86.4216189   9.6435118  86.6294158  86.6940806
   8.1422862  86.5655760  86.8788058  11.3047287  86.8525325  87.4790130
  11.8991777  86.6121061  86.7683438  11.3773870  86.1332455  88.1063666
   4.6603405  95.8795859  76.8009870   5.3639255  96.0845862  77.4167525
   3.9366054  96.4472621  77.0658953   5.4901216  91.6305721  82.9212140
   5.4336417  92.0874272  82.0819772   6.0429558  90.8696405  82.7434983
   9.3006022  87.4195452  83.7462259   9.0442956  87.0192088  84.5770467
   8.6758890  88.1339246  83.6212399  13.6118359  90.1591526  86.2533551
  13.0517917  90.2284715  87.0265113  13.0061863  89.9832510  85.5333047
   6.5690103  96.3178388  78.8508330   7.4035707  95.8859587  78.6685805
   6.4074446  96.1460402  79.7785224   6.2235995  92.8210502  80.2164669
   6.1684799  92.6554773  79.2753113   5.5982050  93.5286535  80.3726859
   3.3484240  78.9161387  84.0495924   2.5816636  78.3619874  84.1952607
   3.7594945  78.9883256  84.9110076  15.1974378 106.8348040  88.9463507
  15.8352788 106.7154787  88.2426847  15.0795221 107.7828884  89.0051459
  12.0064084 106.7875468  88.8825031  11.6682596 106.6716532  87.9945566
  12.8753852 106.3866633  88.8626037   9.7072364 105.5563715  78.2141971
   9.9597884 105.0345236  77.4525434   8.7696923 105.3929861  78.3168655
  14.7515646 104.5599493  86.0216715  15.5378736 104.1418917  85.6707132
  15.0154351 105.4645586  86.1898363  20.1524073 104.4974727  86.9249693
  20.8849245 103.9273943  87.1587523  19.3963429 104.1096327  87.3656199
  11.7700193 106.9201968  84.1213036  11.4058400 106.3932589  84.8325957
  12.6267309 106.5300437  83.9479521  17.6749494  98.2096301  91.3844302
  17.3432819  99.0791712  91.1605517  17.0795107  97.8932585  92.0638332
  11.4105680 101.9491868  79.1174384  11.5780083 102.8172104  79.4844855
  11.2202849 102.1119150  78.1935673  17.5678157 102.9291387  88.4637652
  16.6595034 102.8606795  88.1696413  17.5165753 103.4063332  89.2919477
  11.3894901 104.4049525  80.1021051  11.2694526 104.8506576  80.9406531
  10.6947489 104.7534843  79.5434589  19.4339804 101.1307825  90.2415526
  18.7914184 101.4240358  89.5955320  18.9294732 101.0160746  91.0468722
  17.0879967 104.8770999  80.9301385  17.9997823 105.1098385  80.7549082
  16.5789614 105.4608043  80.3676464  11.7251805 104.2368233  91.9396234
  12.5713000 104.6607647  92.0830883  11.6650443 103.5801857  92.6334798
  14.8751250 101.8972601  93.5977408  14.6312182 102.6514662  93.0611684
  15.1511181 102.2757949  94.4324655  16.8289713 108.4411214  92.2754674
  17.0406608 109.0842974  91.5989055  16.7819461 107.6073530  91.8076604
  14.4315942 101.0529034  89.1791246  13.5700421 101.3510288  89.4707983
  14.4578377 101.2699433  88.2472278  10.1846397 105.7194377  82.3954617
  10.8870441 106.1715421  82.8628543   9.8527026 105.0778196  83.0234510
   3.9271731 103.9777930  87.6971750   3.1370785 104.2335459  87.2211861
   4.4182979 104.7926268  87.8023791   5.8786477 104.3422509  84.6555227
   5.0817640 104.4541204  85.1738723   5.6512069 104.6809162  83.7896117
  26.0341534 107.6621918  86.7962002  25.2805242 107.0929316  86.6406007
  26.1689075 107.6284582  87.7432637  14.7732626  96.0565882  91.0015615
  14.4296895  96.9467524  90.9254726  15.1411588  95.8667540  90.1385200
  14.7382908 106.0474493  79.5088050  14.2229532 106.8179098  79.7476438
  14.4660217 105.3739629  80.1321112  12.3230019 100.8924194  84.5673289
  11.4671616 100.5031044  84.3878927  12.7356971 100.9716155  83.7073074
  13.8529166  98.4270537  88.9664849  13.3493962  98.3900672  88.1532654
  14.1459773  99.3363280  89.0261505  10.0972052  98.5109267  87.9731030
  10.9625049  98.3152075  87.6136920  10.1649561  98.2819619  88.9000387
  19.7117183 108.8006848  81.4441224  18.9346625 108.4618007  80.9996386
  20.3908663 108.8059471  80.7696189  14.5269212 103.9201585  81.3347832
  14.2219347 104.2347734  82.1857975  15.4799654 103.9983005  81.3775165
  17.9508489 108.2740829  88.1007832  17.2932164 108.9640090  88.1887960
  18.7548889 108.6637261  88.4441818   7.7034371 100.7411475  85.3447397
   8.2778123 100.5186656  84.6120590   8.2905353 100.8100169  86.0975998
  16.7613948 106.6285202  86.1511774  17.2745830 107.2615193  86.6533483
  17.4115172 106.0286397  85.7855134   8.0303958 102.7715936  79.3643282
   7.1941270 103.1090622  79.6852557   7.8908728 102.6364916  78.4270419
  10.0057039  97.6152724  84.0722467   9.3521451  97.3001741  83.4479081
   9.9637513  96.9928464  84.7982289  13.2394779 104.1034657  88.3970114
  12.3217340 104.3249604  88.2391802  13.6554923 104.1780968  87.5381821
  14.0229827 105.5026073  83.5272794  14.7701646 106.0147470  83.2179916
  14.2921416 105.1810126  84.3877188  16.4708664 102.5383189  85.5091584
  15.7331421 102.0260575  85.8401826  16.7235438 102.0983571  84.6974861
  16.5720291  95.3159441  86.1033353  16.8779168  94.4556805  85.8159268
  17.2972896  95.9077061  85.9032347  10.8441371 105.6113234  86.6109544
  10.8989981 104.6587071  86.5352021  10.0332573 105.7672673  87.0950842
   8.7833731 104.2290294  84.3699923   7.9701597 104.5284464  84.7765115
   9.2792725 103.8345983  85.0874405  14.3807943 104.6932118  93.2014817
  14.7357330 104.9203592  94.0609283  15.0280074 105.0250495  92.5792072
  20.1105680 107.8150554  83.9064146  19.9723578 108.0052150  82.9785335
  19.7541898 108.5769937  84.3632197   8.2747806 101.8008649  89.9861158
   8.9147185 101.6597409  89.2884121   7.4425336 101.5143163  89.6099760
  20.1375059 109.8827081  88.9175417  20.5711566 109.7902370  89.7658471
  20.8506640 109.8584582  88.2795433   5.3590873 105.2454162  82.1755903
   4.4288461 105.1838617  82.3925865   5.4548345 104.7230114  81.3792544
   5.2776422 101.7708974  84.7634145   5.5383239 102.6854308  84.6543305
   6.0993594 101.3033417  84.9130757  20.9990609 109.9250782  91.4508303
  21.1926499 110.8296592  91.6967578  20.8991227 109.4658201  92.2846888
  12.6526919  99.8108673  93.9498630  12.0054835 100.5098622  93.8563106
  13.4227935 100.2444816  94.3174878  12.8291054 107.6489437  92.0095450
  13.7583114 107.8000597  91.8364417  12.4082084 107.7373458  91.1544096
  16.1143792 108.3977739  77.4419885  15.4972963 107.6724567  77.3452938
  15.6460281 109.1587099  77.0986959   7.9042338 102.6163163  76.5641189
   7.0271805 102.4951964  76.2003436   8.3800091 101.8249242  76.3120078
  14.4002914 100.7784083  86.4537915  14.8971614 100.0254045  86.1338985
  13.6289896 100.8148400  85.8881124  22.2532672 106.4824449  88.0956207
  22.2422548 107.3649164  87.7250140  21.3850051 106.1295999  87.9010744
  10.9837883 102.9201466  86.1809600  10.6135671 102.3672506  86.8690505
  11.4796976 102.3159600  85.6284600  18.8705247 105.3773090  84.5626373
  19.3365699 106.2101081  84.4886675  19.3212747 104.9118071  85.2671631
  16.8421909  97.7453677  88.6017274  15.9284989  97.9757903  88.7699481
  17.2715011  97.8292121  89.4531306  16.6128368 105.9343568  91.1017168
  15.9599818 106.1819476  90.4469621  16.9908748 105.1207707  90.7679645
   6.3803217 100.3305457  92.4262706   6.4444543 101.1920288  92.0140103
   6.3170337  99.7179458  91.6935064   2.6321032 104.2105018  82.0054095
   2.9274473 103.3015697  81.9521148   1.7309068 104.1892758  81.6835097
   6.1615279 102.2861015  87.9881643   5.4401865 102.8996983  87.8489117
   6.9508535 102.8218780  87.9098289   8.9641593  99.6215442  94.2622295
   9.4875995  99.8677738  95.0248604   8.7453926 100.4535476  93.8425432
   4.3608874 101.8919116  82.1293420   4.0321580 101.0116495  81.9468526
   4.7148244 101.8366785  83.0169809   7.4750697 102.1792086  82.4968898
   7.8146769 102.7078007  81.7747506   7.9222817 102.5172492  83.2727464
  10.1694138 100.5629137  91.9471966   9.8290958  99.7636950  92.3492646
   9.4633144 100.8630847  91.3748799  10.8210610  97.6478449  90.3999289
  11.6436679  97.1738927  90.2778179  11.0648673  98.4268933  90.8997975
   9.4618844 100.6766708  80.6962190  10.1827207 101.0547960  80.1925907
   8.8384148 101.3955584  80.7997168  13.6049967 101.3811856  81.6320523
  13.8213581 102.2636494  81.3309351  13.1244034 100.9898070  80.9026165
   8.3449188 104.3397570  88.2091267   8.1993769 104.6537873  89.1015549
   7.8674392 104.9582470  87.6562166  10.2045571 101.3300118  88.2572157
  10.1907140 100.4341211  87.9204455  10.9217999 101.3370781  88.8910443
  12.0571702 101.7637458  90.3025284  11.7989480 102.6854529  90.3009615
  11.5256742 101.3667892  90.9925748   9.6082467 100.2114498  83.5259727
   9.7298378  99.2831144  83.7250615   9.3184510 100.2253184  82.6138042
  12.4773658  97.8969408  86.6626447  12.4995354  97.9608741  85.7078426
  12.8941717  97.0573917  86.8566953  22.8557282 107.6324668  84.7005669
  23.2988428 106.8831993  84.3024793  21.9783792 107.6234804  84.3179401
  19.6976267 109.1180085  94.3283525  19.7474272 108.9530092  95.2699048
  19.5890191 108.2507344  93.9381406  16.9880030 105.1011013  95.6442832
  17.8889893 104.9617478  95.3526830  17.0628004 105.2665468  96.5841009
  11.3222835 102.4777868  94.4896018  10.4526145 102.7711434  94.2178607
  11.5582315 103.0618313  95.2103282  22.3990147 109.1029906  87.0928117
  23.2337038 109.5419710  87.2565677  22.5349275 108.6268559  86.2736363
  19.4481652 106.6609641  93.0405605  19.9235774 106.8537287  92.2324456
  18.5247218 106.7168827  92.7948988  14.0261869  98.6957485  92.0061439
  14.5443813  99.4318512  91.6807927  13.6717002  99.0021478  92.8408198
   5.6060807 103.5562166  80.1222845   4.9130052 103.6306521  79.4662880
   5.3612559 102.7922509  80.6444361  14.2774463  95.1157767  87.5262335
  14.5576217  94.4480956  88.1522762  15.0625070  95.3086863  87.0136999
  18.1483321 103.5375401  91.2733910  19.1000744 103.6373499  91.2946134
  17.9786772 102.7453670  91.7831995  16.1697701 100.6230984  91.4593311
  15.5747633 100.9035997  90.7639800  15.8847398 101.1124885  92.2310052
  20.6271399 106.7581521  90.3876210  20.5947719 105.8197522  90.5735894
  21.2372023 106.8365558  89.6542035  12.4654730 105.6277574  76.4303414
  13.4113835 105.4983782  76.4991832  12.0868975 104.8892236  76.9072842
  20.7765888 103.5492564  90.4334493  20.2604936 102.7651021  90.2464422
  21.6605836 103.2211281  90.5981013  18.4376615  97.2933580  86.3930306
  18.2401436  96.9848668  87.2773638  19.0476320  98.0195219  86.5228236
  26.4447949 107.8197528  89.5282247  27.1751338 107.5582816  90.0889950
  25.8354895 107.0826250  89.5684315  24.5263246 105.9605390  90.1256698
  23.7996410 105.8261355  89.5173190  24.1110533 106.2682219  90.9313416
  10.6497647 103.5527550  76.3658299   9.7429103 103.2560663  76.4421013
  10.9273628 103.2557368  75.4992586  12.2659713  98.0964440  82.5202541
  11.4560441  97.7511525  82.8957787  12.9544130  97.7871984  83.1090152
  14.1950261  97.1742487  84.1426837  14.7481300  97.5937940  84.8016860
  14.4320348  96.2478235  84.1849793   9.4196432 100.4114485  76.5070278
  10.2815596 100.7369384  76.7666096   9.6046776  99.6245981  75.9943344
  17.5729068  99.2843012  83.6505501  16.9927737  99.9427816  83.2683554
  17.3065001  98.4620357  83.2392919  16.0232635  98.6848070  85.8526822
  16.5232413  98.7964604  85.0441141  16.6668243  98.3809122  86.4927630
  16.3553946 101.4443102  82.7061850  15.4679801 101.7292753  82.4882044
  16.7707935 101.2836866  81.8589127  19.7068483 101.4689623  86.4216189
  20.4828873 101.9586076  86.6940806  18.9816617 101.8947677  86.8788058
  22.1441041 102.1817243  87.4790130  22.7385532 101.9412978  86.7683438
  22.2167625 101.4624373  88.1063666  16.3294970 106.9597638  82.9212140
  16.2730172 107.4166190  82.0819772  16.8823313 106.1988323  82.7434983
  20.1399776 102.7487370  83.7462259  19.8836710 102.3484006  84.5770467
  19.5152644 103.4631164  83.6212399  24.4512114 105.4883443  86.2533551
  23.8911672 105.5576633  87.0265113  23.8455617 105.3124428  85.5333047
  17.0629749 108.1502419  80.2164669  17.0078553 107.9846691  79.2753113
  16.4375805 108.8578452  80.3726859  10.3725875  97.6510528  79.7949987
  10.3604545  98.5952368  79.9518258  11.2649297  97.4680674  79.5009449
  14.1877994  94.2453305  84.0495924  13.4210390  93.6911792  84.1952607
  14.5988699  94.3175174  84.9110076  25.6126380 111.3857800  91.0015615
  25.2690650 112.2759441  90.9254726  25.9805343 111.1959457  90.1385200
  27.4114046 110.6451359  86.1033353  27.7172923 109.7848722  85.8159268
  28.1366651 111.2368979  85.9032347  25.1168218 110.4449685  87.5262335
  25.3969971 109.7772874  88.1522762  25.9018825 110.6378780  87.0136999
  29.2770369 112.6225498  86.3930306  29.0795190 112.3140586  87.2773638
  29.8870075 113.3487136  86.5228236  25.0271749 109.5745223  84.0495924
  24.2604145 109.0203710  84.1952607  25.4382454 109.6467092  84.9110076
   4.3554026  54.0100205  73.5207309   3.6017735  53.4407603  73.3651314
   4.4901568  53.9762870  74.4677944   0.7202639  55.4508194  73.8173424
   1.5549530  55.8897998  73.9810984   0.8561768  54.9746847  72.9981669
   4.7660441  54.1675815  76.2527553   5.4963830  53.9061103  76.8135257
   4.1567387  53.4304537  76.2929621   2.8475739  52.3083678  76.8502005
   2.1208902  52.1739642  76.2418496   2.4323025  52.6160506  77.6558723
   0.4653533  48.5295530  74.2035436   1.0598024  48.2891266  73.4928744
   0.5380117  47.8102660  74.8308973   2.7724606  51.8361731  72.9778857
   2.2124164  51.9054920  73.7510419   2.1668110  51.6602715  72.2578354
   4.3580625  68.5118245  75.6708813   4.9959035  68.3924992  74.9672153
   4.2401468  69.4599088  75.7296765   1.1670331  68.4645673  75.6070338
   0.8288842  68.3486737  74.7190873   2.0360099  68.0636838  75.5871344
   1.6490114  69.6180524  81.5656543   1.6378755  69.2233323  80.6937047
   1.8110753  68.8846597  82.1590315   2.6056705  73.9852117  66.9081694
   1.9544685  74.5706197  66.5215707   3.4001068  74.5158312  66.9676731
   3.9121893  66.2369698  72.7462021   4.6984982  65.8189122  72.3952438
   4.1760597  67.1415791  72.9143670   4.0831970  71.6742549  67.4450678
   3.4477803  71.7477175  68.1571583   3.7529377  72.2636148  66.7669757
   9.3130320  66.1744932  73.6495000  10.0455492  65.6044148  73.8832829
   8.5569676  65.7866532  74.0901505   0.9306440  68.5972173  70.8458342
   0.5664647  68.0702794  71.5571264   1.7873556  68.2070642  70.6724828
   6.8355741  59.8866506  78.1089608   6.5039065  60.7561917  77.8850823
   6.2401354  59.5702790  78.7883639   3.3287260  72.0879052  77.5085521
   3.0287983  72.9904090  77.4001328   2.9838320  71.8211235  78.3606674
   6.7284404  64.6061592  75.1882958   5.8201281  64.5377000  74.8941719
   6.6772000  65.0833537  76.0164784   8.5946050  62.8078030  76.9660832
   7.9520431  63.1010563  76.3200627   8.0900979  62.6930951  77.7714029
   6.2486214  66.5541203  67.6546692   7.1604070  66.7868590  67.4794389
   5.7395861  67.1378248  67.0921770   4.5326982  70.9765831  81.2907984
   4.9410338  70.5348242  80.5462616   3.8104243  70.4018459  81.5442177
   0.8858052  65.9138438  78.6641541   1.7319247  66.3377852  78.8076190
   0.8256689  65.2572062  79.3580104   4.8555796  71.5367022  75.0460273
   4.2264659  71.7012736  74.3436341   4.4681458  71.9508631  75.8171237
   8.7345028  72.4721460  72.4004637   8.0496066  72.8520361  71.8501670
   8.8188878  73.0816786  73.1336585   4.0357497  63.5742806  80.3222715
   3.7918429  64.3284867  79.7856990   4.3117428  63.9528154  81.1569962
   5.9895960  70.1181419  78.9999980   6.2012855  70.7613179  78.3234361
   5.9425708  69.2843735  78.5321910   3.5922189  62.7299239  75.9036552
   2.7306668  63.0280493  76.1953290   3.6184623  62.9469638  74.9717585
   7.1041788  72.9953374  77.1722338   7.9259231  72.5933561  76.8905019
   7.1004191  72.8921608  78.1238453  15.1947781  69.3392123  73.5207309
  14.4411489  68.7699521  73.3651314  15.3295322  69.3054787  74.4677944
   0.5846409  74.2105525  69.1962028   0.4492084  75.0557061  69.6246876
   1.1256221  74.4124803  68.4327962   2.2114885  74.8329091  83.3262371
   1.7678739  74.0465470  83.0083275   2.8732099  75.0208242  82.6606261
   4.3096123  75.1131891  81.3543772   4.2914599  75.9340772  80.8624041
   5.2316043  74.9885967  81.5793913   3.9338872  57.7336087  77.7260922
   3.5903142  58.6237729  77.6500033   4.3017835  57.5437745  76.8630507
   3.8989155  67.7244698  66.2333357   3.3835779  68.4949303  66.4721744
   3.6266464  67.0509834  66.8566418   1.4836266  62.5694399  71.2918595
   0.6277863  62.1801249  71.1124234   1.8963218  62.6486360  70.4318381
   3.0135413  60.1040742  75.6910155   2.5100208  60.0670877  74.8777960
   3.3066020  61.0133485  75.7506812   8.8723429  70.4777053  68.1686531
   8.0952872  70.1388212  67.7241693   9.5514910  70.4829676  67.4941496
   3.6875458  65.5971790  68.0593138   3.3825594  65.9117939  68.9103281
   4.6405900  65.6753210  68.1020471   2.1321890  71.7562013  69.7086092
   1.6043252  71.0214773  69.3959330   1.6309393  72.5336690  69.4626061
   7.1114736  69.9511034  74.8253139   6.4538411  70.6410295  74.9133267
   7.9155135  70.3407466  75.1687125   5.9220195  68.3055407  72.8757080
   6.4352077  68.9385398  73.3778790   6.5721419  67.7056602  72.5100440
   3.1842569  78.2839731  65.6317751   2.5104268  78.5871428  66.2402709
   3.5708391  79.0868811  65.2823208   2.4001026  65.7804862  75.1215421
   1.4823587  66.0019809  74.9637109   2.8161169  65.8551173  74.2627128
   3.1836074  67.1796278  70.2518101   3.9307893  67.6917675  69.9425223
   3.4527663  66.8580331  71.1122495   1.4562724  69.6754819  67.2345055
   0.5473943  69.3913851  67.3317525   1.4857808  70.0953897  66.3748362
   6.6881991  73.2861408  71.0036223   6.2344318  72.4452318  71.0601413
   6.0575958  73.9222806  71.3411003   5.6314911  64.2153394  72.2336890
   4.8937668  63.7030780  72.5647133   5.8841684  63.7753776  71.4220167
   5.1314930  75.1237905  71.9386041   5.4237905  75.6842962  71.2198407
   5.6413551  75.4166466  72.6939200   5.7326538  56.9929646  72.8278660
   6.0385415  56.1327009  72.5404575   6.4579143  57.5847266  72.6277654
   1.1538812  71.2163562  64.5733134   0.7158242  70.4999421  64.1138771
   1.8949252  71.4439677  64.0118225   3.5414189  66.3702323  79.9260123
   3.8963577  66.5973796  80.7854589   4.1886321  66.7020700  79.3037379
   9.2711926  69.4920759  70.6309452   9.1329825  69.6822355  69.7030642
   8.9148145  70.2540142  71.0877504   9.2981306  71.5597286  75.6420724
   9.7317813  71.4672575  76.4903778  10.0112887  71.5354787  75.0040740
   3.0309201  75.1599380  77.1753825   3.0846223  75.7290317  77.9431540
   2.1623982  75.3301265  76.8107862  10.1596856  71.6020987  78.1753609
  10.3532746  72.5066797  78.4212884  10.0597474  71.1428406  79.0092194
   1.8133166  61.4878877  80.6743937   1.1661081  62.1868827  80.5808413
   2.5834182  61.9215021  81.0420185   5.2211964  71.7527730  83.7494490
   5.0697471  71.5238281  82.8324574   5.2116644  72.7098331  83.7625835
   1.9897301  69.3259642  78.7340756   2.9189361  69.4770802  78.5609724
   1.5688331  69.4143663  77.8789403   1.3833784  78.4519403  67.8464831
   1.5585540  77.9807446  68.6610453   0.6966572  79.0785169  68.0746091
   2.3390848  72.7291909  73.8928132   2.0040680  72.6892679  74.7885782
   1.8394793  72.0636625  73.4198542   5.2750039  70.0747944  64.1665191
   4.6579210  69.3494772  64.0698244   4.8066528  70.8357304  63.8232266
   6.9304171  74.7846852  81.8270972   6.8716717  74.1006072  81.1601555
   7.3323689  75.5265842  81.3751598   6.9321578  72.7486436  80.0584952
   6.0448357  72.4112358  80.1811350   7.5020129  72.0169467  80.2953717
   3.5609161  62.4554288  73.1783222   4.0577861  61.7024250  72.8584292
   2.7896143  62.4918605  72.6126431  11.4138919  68.1594653  74.8201513
  11.4028795  69.0419369  74.4495446  10.5456298  67.8066204  74.6256050
   2.9221415  77.3074722  79.1804353   3.6349387  77.9422187  79.1080255
   2.4311444  77.4038588  78.3644355   4.6438942  71.2125975  70.7521645
   3.7095221  71.3327438  70.5826349   4.8215610  70.3098442  70.4881655
   8.0311493  67.0543294  71.2871679   8.4971945  67.8871286  71.2131982
   8.4818994  66.5888276  71.9916938   6.0987724  73.3987116  68.2857831
   6.3747568  73.2843710  69.1951705   5.2292223  73.0004601  68.2470004
   6.0028156  59.4223881  75.3262581   5.0891236  59.6528108  75.4944787
   6.4321258  59.5062326  76.1776613   5.7734615  67.6113773  77.8262475
   5.1206065  67.8589681  77.1714927   6.1514994  66.7977912  77.4924952
   2.7341788  77.6473467  71.9290645   2.9164183  76.8295123  72.3918397
   3.5574774  77.8641159  71.4915535   3.0683954  76.5741652  69.1905693
   3.5971720  76.0634106  68.5775855   3.3312173  76.2584182  70.0551226
   1.8222188  68.3533584  84.3128512   1.1462825  68.2527714  84.9830887
   2.6449821  68.1972798  84.7764509   0.5644970  79.6600512  78.5486128
   1.1163278  79.8232133  79.3135213   0.9051164  80.2504950  77.8766152
   5.4155845  74.4861769  84.4034782   5.9595749  75.0991728  83.9089737
   4.8342690  75.0441348  84.9201795   3.7013358  77.6082487  75.5349810
   3.5764497  76.8072227  75.0260755   4.3592449  78.1028681  75.0463780
   5.7648266  75.4091508  77.1629360   4.8178602  75.2896859  77.0907687
   6.1131039  74.5214006  77.2455621   2.7694699  75.2044224  73.3633712
   2.6219662  74.2760931  73.5441282   3.5948193  75.2264314  72.8790787
   6.3728821  76.0272782  74.4498585   7.2975369  75.8215644  74.3123036
   6.2044125  75.7789184  75.3587926   2.7656214  63.0582061  68.3565829
   2.9819828  63.9406699  68.0554658   2.2850281  62.6668275  67.6271471
   1.2177949  63.4407663  77.0270591   0.9595727  64.3624733  77.0254921
   0.6862989  63.0438097  77.7171055   6.1624137  76.5458450  69.8060676
   6.3361015  75.9804872  69.0534529   6.6553029  77.3459345  69.6240166
   1.6379904  59.5739613  73.3871753   1.6601601  59.6378946  72.4323733
   2.0547963  58.7344122  73.5812260  12.0163529  69.3094873  71.4250976
  12.4594675  68.5602198  71.0270099  11.1390039  69.3005009  71.0424708
   7.1499310  75.8625214  66.9057575   7.8450215  76.4831907  67.1244889
   7.4922460  75.0120566  67.1809952   9.0490733  73.3124920  68.4344905
   9.5742057  73.6512193  67.7094225   8.9613086  72.3771935  68.2508040
   0.7110782  77.2258994  80.5634782   1.0197908  76.9808140  81.4357482
   1.5086264  77.4305632  80.0753652   8.7384639  73.9457824  83.7396103
   7.9480183  73.9281962  83.2000603   8.5017994  74.4846117  84.4945140
   8.8582514  70.7950290  81.0528832   8.9080519  70.6300297  81.9944355
   8.7496438  69.9277549  80.6626713   6.1486277  66.7781218  82.3688139
   7.0496139  66.6387683  82.0772136   6.2234251  66.9435673  83.3086316
  10.3600711  73.2147231  81.2970853  10.0685519  73.5777212  82.1334314
   9.7472842  72.5014240  81.1184185  11.5596393  70.7800111  73.8173424
  12.3943285  71.2189915  73.9810984  11.6955522  70.3038764  72.9981669
   8.6087899  68.3379846  79.7650911   9.0842021  68.5307492  78.9569763
   7.6853465  68.3939032  79.5194295   3.1868116  60.3727690  78.7306745
   3.7050060  61.1088717  78.4053234   2.8323249  60.6791683  79.5653504
   3.4380710  56.7927972  74.2507642   3.7182464  56.1251161  74.8768068
   4.2231317  56.9857068  73.7382306   1.2414178  75.9686966  65.8132668
   0.6688145  76.5877153  65.3603140   1.8146972  76.5186328  66.3472590
   7.3089568  65.2145606  77.9979217   8.2606991  65.3143704  78.0191441
   7.1393019  64.4223875  78.5077301   5.3303948  62.3001189  78.1838618
   4.7353880  62.5806202  77.4885107   5.0453644  62.7895090  78.9555359
   4.4611438  76.2524116  66.9441250   5.3942111  76.1869678  67.1474126
   4.3734651  77.0880383  66.4855783   7.0899455  75.5689986  63.9045198
   7.0113086  75.2349850  64.7980956   7.9109122  76.0611754  63.9036670
   9.7877646  68.4351726  77.1121517   9.7553966  67.4967727  77.2981200
  10.3978270  68.5135763  76.3787342   1.6260977  67.3047779  63.1548721
   2.5720082  67.1753987  63.2237139   1.2475222  66.5662441  63.6318149
   9.9372135  65.2262769  77.1579800   9.4211183  64.4421226  76.9709729
  10.8212083  64.8981486  77.3226319   7.5982861  58.9703785  73.1175612
   7.4007683  58.6618873  74.0018944   8.2082567  59.6965424  73.2473542
  15.6054196  69.4967733  76.2527553  16.3357584  69.2353021  76.8135257
  14.9961141  68.7596455  76.2929621  13.6869493  67.6375595  76.8502005
  12.9602657  67.5031560  76.2418496  13.2716780  67.9452424  77.6558723
   1.5099669  71.3565525  84.6149378   2.4302679  71.5344124  84.8089424
   1.4749252  70.4121570  84.4629077   1.4265960  59.7734645  69.2447847
   0.6166688  59.4281730  69.6203093   2.1150377  59.4642189  69.8335459
   3.3556508  58.8512692  70.8672144   3.9087547  59.2708145  71.5262167
   3.5926594  57.9248440  70.9095100   6.7335315  60.9613217  70.3750808
   6.1533984  61.6198021  69.9928861   6.4671248  60.1390561  69.9638226
   5.1838882  60.3618275  72.5772128   5.6838660  60.4734809  71.7686447
   5.8274489  60.0579327  73.2172937   5.5160193  63.1213307  69.4307156
   4.6286048  63.4062958  69.2127351   5.9314182  62.9607071  68.5834433
   8.8674729  63.1459828  73.1461496   9.6435119  63.6356281  73.4186112
   8.1422863  63.5717882  73.6033365  11.3047288  63.8587447  74.2035436
  11.8991779  63.6183183  73.4928744  11.3773872  63.1394578  74.8308973
   4.6603407  72.8857982  63.5255176   5.3639257  73.0907984  64.1412832
   3.9366055  73.4534744  63.7904260   5.4901217  68.6367843  69.6457447
   5.4336418  69.0936395  68.8065079   6.0429559  67.8758528  69.4680289
   9.3006023  64.4257575  70.4707566   9.0442957  64.0254211  71.3015774
   8.6758891  65.1401369  70.3457705  13.6118361  67.1653648  72.9778857
  13.0517919  67.2346838  73.7510419  13.0061864  66.9894633  72.2578354
   6.5690104  73.3240511  65.5753636   7.4035708  72.8921710  65.3931111
   6.4074447  73.1522525  66.5030531   6.2235996  69.8272624  66.9409976
   6.1684800  69.6616896  65.9998420   5.5982051  70.5348657  67.0972165
   3.5381903  72.1321536  86.2663538   4.4073063  72.3062189  85.9050173
   3.0588655  72.9515953  86.1439268   3.3484241  55.9223510  70.7741231
   2.5816637  55.3681997  70.9197913   3.7594946  55.9945379  71.6355383
  15.1974379  83.8410162  75.6708813  15.8352789  83.7216910  74.9672153
  15.0795222  84.7891006  75.7296765  12.0064085  83.7937590  75.6070338
  11.6682597  83.6778655  74.7190873  12.8753854  83.3928755  75.5871344
   7.8650901  85.6473067  71.5967229   7.3015766  85.5563004  70.8283517
   7.7503296  84.8272971  72.0769721  12.4883868  84.9472442  81.5656543
  12.4772509  84.5525240  80.6937047  12.6504508  84.2138515  82.1590315
   5.4115333  87.1424258  74.4351449   6.2036625  86.8015083  74.0197749
   5.6511983  87.2519233  75.3553603  13.4450460  89.3144034  66.9081694
  12.7938440  89.8998115  66.5215707  14.2394823  89.8450229  66.9676731
   7.3706087  86.4033172  67.3068828   8.1436963  85.8562159  67.1681704
   7.7231486  87.2677421  67.5183289   9.2091130  87.7309554  80.5135727
   8.9180996  88.6355185  80.3982394   9.8448114  87.7726081  81.2279797
  10.1347336  85.1086402  77.1037087  10.7310909  84.8842425  76.3894050
  10.1922308  84.3671148  77.7062535   9.7072365  82.5625838  64.9387278
   9.9597885  82.0407359  64.1770741   8.7696924  82.3991983  65.0413962
  14.7515648  81.5661616  72.7462021  15.5378737  81.1481039  72.3952438
  15.0154352  82.4707708  72.9143670  14.9225725  87.0034466  67.4450678
  14.2871558  87.0769093  68.1571583  14.5923131  87.5928065  66.7669757
  20.1524075  81.5036849  73.6495000  20.8849247  80.9336066  73.8832829
  19.3963430  81.1158450  74.0901505   9.4268654  84.4653944  67.1411653
   9.3104912  83.7898847  67.8092737   9.5370913  83.9786318  66.3243806
  11.7700194  83.9264091  70.8458342  11.4058402  83.3994712  71.5571264
  12.6267310  83.5362560  70.6724828  17.6749495  75.2158423  78.1089608
  17.3432820  76.0853834  77.8850823  17.0795108  74.8994707  78.7883639
  11.4105681  78.9553990  65.8419691  11.5780084  79.8234227  66.2090162
  11.2202851  79.1181272  64.9180980  14.1681015  87.4170969  77.5085521
  13.8681738  88.3196008  77.4001328  13.8232074  87.1503153  78.3606674
   7.6193496  83.8684766  73.5422225   6.6943993  83.7360980  73.7499917
   7.8677909  84.6478985  74.0392168  17.5678158  79.9353510  75.1882958
  16.6595036  79.8668918  74.8941719  17.5165754  80.4125454  76.0164784
  11.3894902  81.4111648  66.8266357  11.2694528  81.8568699  67.6651838
  10.6947491  81.7596966  66.2679896   4.9802307  83.5118040  74.3766015
   5.1094688  83.7652519  75.2905426   4.2999758  84.1045748  74.0570670
   9.1501794  94.1815290  70.4756489   9.0725824  95.1323115  70.5544969
   8.5463438  93.8361162  71.1331415  11.6419024  81.3543155  83.1317856
  10.8652358  81.9137075  83.1220720  12.2809587  81.8399938  83.6532726
  19.4339805  78.1369948  76.9660832  18.7914185  78.4302481  76.3200627
  18.9294733  78.0222868  77.7714029  17.0879968  81.8833121  67.6546692
  17.9997825  82.1160508  67.4794389  16.5789616  82.4670165  67.0921770
   9.8965397  84.1628608  82.6935823  10.6380081  84.7013652  82.4170646
   9.1902382  84.7894897  82.8507374  15.3720736  86.3057749  81.2907984
  15.7804092  85.8640159  80.5462616  14.6497998  85.7310376  81.5442177
  11.7251806  81.2430356  78.6641541  12.5713001  81.6669769  78.8076190
  11.6650444  80.5863980  79.3580104  15.6949551  86.8658940  75.0460273
  15.0658413  87.0304654  74.3436341  15.3075213  87.2800549  75.8171237
  19.5738783  87.8013377  72.4004637  18.8889821  88.1812279  71.8501670
  19.6582632  88.4108704  73.1336585  14.8751252  78.9034724  80.3222715
  14.6312183  79.6576785  79.7856990  15.1511182  79.2820072  81.1569962
  16.8289714  85.4473336  78.9999980  17.0406610  86.0905096  78.3234361
  16.7819463  84.6135653  78.5321910  14.4315943  78.0591157  75.9036552
  13.5700422  78.3572411  76.1953290  14.4578378  78.2761556  74.9717585
  11.2477513  86.6033348  72.3110358  11.7115858  86.8821051  71.5214981
  10.9834311  85.7016792  72.1283449   8.1401594  86.1504829  75.2490121
   8.7102951  86.5792098  74.6107606   8.7309706  85.8687414  75.9474307
  10.1846399  82.7256500  69.1199923  10.8870442  83.1777544  69.5873850
   9.8527027  82.0840319  69.7479816   8.6326760  81.3168257  83.4951133
   8.0025421  81.9984538  83.7286529   8.5262848  81.2051338  82.5504271
   3.9271733  80.9840053  74.4217057   3.1370787  81.2397581  73.9457167
   4.4182980  81.7988391  74.5269097  17.9435542  88.3245292  77.1722338
  18.7652986  87.9225479  76.8905019  17.9397945  88.2213526  78.1238453
   5.8786478  81.3484632  71.3800534   5.0817641  81.4603326  71.8984029
   5.6512070  81.6871284  70.5141424  11.7092146  87.8729335  79.3283048
  11.7736578  88.3349742  80.1641220  11.0003070  87.2426700  79.4565358
   2.2109436  81.2370543  76.8532048   2.4617474  82.1217553  77.1189624
   2.7468984  81.0575145  76.0807139  26.0341535  84.6684040  73.5207309
  25.2805244  84.0991438  73.3651314  26.1689077  84.6346705  74.4677944
  11.4240163  89.5397443  69.1962028  11.2885838  90.3848978  69.6246876
  11.9649976  89.7416720  68.4327962   7.9107503  75.6189023  85.8576384
   7.5174449  75.0655221  86.5324028   8.7273643  75.9299601  86.2482901
   4.8769561  87.0572881  69.7689954   5.3894081  87.8516131  69.9195518
   5.5292274  86.3599171  69.7023555   6.6864445  90.1738637  71.8512707
   6.8631074  91.0956602  71.6633691   7.4821279  89.8597056  72.2807087
  10.8275464  77.0346902  83.4496640  11.5685177  77.6354055  83.3701103
  11.0593387  76.2924539  82.8914683   5.9716802  82.2203269  81.7274870
   5.8570317  81.3188526  82.0281969   5.1161320  82.4666966  81.3759686
  13.0508640  90.1621009  83.3262371  12.6072494  89.3757388  83.0083275
  13.7125853  90.3500160  82.6606261   7.8095761  91.6916811  77.8523049
   8.3603186  91.5633874  77.0800043   6.9707237  91.9911700  77.5017942
  15.1489878  90.4423809  81.3543772  15.1308353  91.2632690  80.8624041
  16.0709798  90.3177884  81.5793913  11.6062932  87.9567939  82.1967280
  12.1391269  87.1956227  81.9666588  11.0777013  87.6641590  82.9391435
  14.7732627  73.0628005  77.7260922  14.4296896  73.9529646  77.6500033
  15.1411590  72.8729662  76.8630507   2.8418478  85.3861535  70.5449524
   3.6793700  85.7958543  70.3283232   3.0196745  84.4460977  70.5149718
  14.7382910  83.0536616  66.2333357  14.2229533  83.8241220  66.4721744
  14.4660218  82.3801752  66.8566418  12.3230021  77.8986316  71.2918595
  11.4671617  77.5093167  71.1124234  12.7356972  77.9778277  70.4318381
  13.8529167  75.4332660  75.6910155  13.3493963  75.3962795  74.8777960
  14.1459774  76.3425402  75.7506812  10.0972053  75.5171389  74.6976337
  10.9625050  75.3214198  74.3382226  10.1649562  75.2881741  75.6245694
  19.7117184  85.8068970  68.1686531  18.9346627  85.4680130  67.7241693
  20.3908665  85.8121593  67.4941496  14.5269213  80.9263708  68.0593138
  14.2219348  81.2409857  68.9103281  15.4799655  81.0045128  68.1020471
  12.9715645  87.0853931  69.7086092  12.4437006  86.3506691  69.3959330
  12.4703147  87.8628607  69.4626061  17.9508491  85.2802952  74.8253139
  17.2932165  85.9702213  74.9133267  18.7548890  85.6699383  75.1687125
   7.7034372  77.7473597  72.0692704   8.2778124  77.5248779  71.3365897
   8.2905355  77.8162292  72.8221305  16.7613949  83.6347324  72.8757080
  17.2745831  84.2677316  73.3778790  17.4115173  83.0348520  72.5100440
   8.0303959  79.7778058  66.0888589   7.1941272  80.1152745  66.4097864
   7.8908729  79.6427038  65.1515726  10.0057040  74.6214846  70.7967773
   9.3521452  74.3063863  70.1724388   9.9637514  73.9990587  71.5227596
  11.1168245  84.9034141  62.7121065  10.2095307  84.6723395  62.9112214
  11.6139277  84.1071761  62.8995047  14.0236324  93.6131649  65.6317751
  13.3498022  93.9163345  66.2402709  14.4102146  94.4160729  65.2823208
  13.2394780  81.1096780  75.1215421  12.3217342  81.3311727  74.9637109
  13.6554924  81.1843090  74.2627128  14.0229828  82.5088195  70.2518101
  14.7701647  83.0209593  69.9425223  14.2921418  82.1872248  71.1122495
  12.2956478  85.0046736  67.2345055  11.3867698  84.7205769  67.3317525
  12.3251562  85.4245815  66.3748362  17.5275746  88.6153326  71.0036223
  17.0738073  87.7744236  71.0601413  16.8969712  89.2514724  71.3411003
  16.4708665  79.5445312  72.2336890  15.7331422  79.0322698  72.5647133
  16.7235439  79.1045693  71.4220167  15.9708685  90.4529822  71.9386041
  16.2631659  91.0134879  71.2198407  16.4807305  90.7458383  72.6939200
  16.5720293  72.3221564  72.8278660  16.8779169  71.4618927  72.5404575
  17.2972897  72.9139184  72.6277654   2.8644649  82.7252250  71.2160258
   2.6669048  82.1321611  70.4911324   2.3091313  82.4204461  71.9336196
  10.8441372  82.6175357  73.3354851  10.8989982  81.6649193  73.2597327
  10.0332574  82.7734796  73.8196149  11.9932566  86.5455480  64.5733134
  11.5551996  85.8291339  64.1138771  12.7343007  86.7731595  64.0118225
   8.7833732  81.2352417  71.0945230   7.9701598  81.5346587  71.5010422
   9.2792726  80.8408105  71.8119712  10.9342310  91.2310173  73.0279494
  10.8918489  91.4571020  72.0988026  11.8505009  90.9973548  73.1765295
  14.3807944  81.6994241  79.9260123  14.7357332  81.9265714  80.7854589
  15.0280075  82.0312618  79.3037379  20.1105681  84.8212677  70.6309452
  19.9723579  85.0114273  69.7030642  19.7541900  85.5832060  71.0877504
   8.2747807  78.8070772  76.7106464   8.9147186  78.6659531  76.0129428
   7.4425338  78.5205285  76.3345066  20.1375060  86.8889204  75.6420724
  20.5711567  86.7964493  76.4903778  20.8506641  86.8646704  75.0040740
   9.0508111  88.1073202  72.8241457   9.8448709  87.6123523  72.6224032
   8.3399803  87.5791066  72.4609163  13.8702955  90.4891298  77.1753825
  13.9239978  91.0582234  77.9431540  13.0017737  90.6593183  76.8107862
   5.3590874  82.2516284  68.9001210   4.4288462  82.1900740  69.1171172
   5.4548346  81.7292237  68.1037851   5.2776423  78.7771097  71.4879451
   5.5383241  79.6916430  71.3788612   6.0993596  78.3095540  71.6376064
   6.7501349  80.1908854  78.6578276   7.4224402  79.9826216  78.0090925
   5.9231135  79.9930940  78.2183508  20.9990610  86.9312905  78.1753609
  21.1926500  87.8358715  78.4212884  20.8991228  86.4720324  79.0092194
  12.6526921  76.8170795  80.6743937  12.0054836  77.5160745  80.5808413
  13.4227936  77.2506939  81.0420185  16.0605719  87.0819647  83.7494490
  15.9091225  86.8530199  82.8324574  16.0510398  88.0390249  83.7625835
  12.8291055  84.6551560  78.7340756  13.7583115  84.8062720  78.5609724
  12.4082085  84.7435581  77.8789403  11.6279387  88.6802224  76.5039294
  11.4890473  88.3121009  77.3765232  10.8393983  89.1949864  76.3323252
  12.2227539  93.7811321  67.8464831  12.3979295  93.3099364  68.6610453
  11.5360327  94.4077087  68.0746091  13.1784602  88.0583827  73.8928132
  12.8434435  88.0184597  74.7885782  12.6788548  87.3928543  73.4198542
   7.1528846  83.4651457  79.4180713   7.0148644  82.7331696  80.0192252
   8.0633769  83.3760357  79.1364901  16.1143794  85.4039862  64.1665191
  15.4972964  84.6786690  64.0698244  15.6460282  86.1649222  63.8232266
   9.7811147  83.1771417  78.9064393  10.4910765  82.5364609  78.8651011
   9.7380455  83.4284311  79.8290573  17.7697925  90.1138770  81.8270972
  17.7110471  89.4297990  81.1601555  18.1717444  90.8557760  81.3751598
   8.4940081  80.1636634  80.7260032   7.9577438  79.7127373  81.3781628
   7.9056789  80.2982543  79.9830496   6.7888624  96.9300684  74.6204691
   7.0285222  97.5619208  75.2983709   5.9457821  96.5788724  74.9070050
   7.9042340  79.6225286  63.2886496   7.0271806  79.5014087  62.9248742
   8.3800093  78.8311364  63.0365384  17.7715333  88.0778354  80.0584952
  16.8842111  87.7404276  80.1811350  18.3413884  87.3461385  80.2953717
   4.2279202  79.2992642  77.8113027   4.1437391  78.6918312  77.0763437
   3.4061908  79.7901660  77.8122523  11.3016486  92.7379806  77.0246195
  11.2286657  93.5434778  77.5365499  10.8593879  92.9371772  76.1994216
  11.0906266  91.9751576  70.5349016  10.3073788  92.5173256  70.6287241
  11.7899011  92.4925556  70.9343257  14.4002916  77.7846206  73.1783222
  14.8971615  77.0316168  72.8584292  13.6289897  77.8210522  72.6126431
  22.2532673  83.4886571  74.8201513  22.2422549  84.3711287  74.4495446
  21.3850053  83.1358122  74.6256050  13.7615170  92.6366640  79.1804353
  14.4743142  93.2714105  79.1080255  13.2705198  92.7330506  78.3644355
  15.4832696  86.5417893  70.7521645  14.5488975  86.6619355  70.5826349
  15.6609365  85.6390360  70.4881655  10.9837884  79.9263589  72.9054906
  10.6135672  79.3734629  73.5935812  11.4796977  79.3221722  72.3529906
  18.8705248  82.3835212  71.2871679  19.3365700  83.2163204  71.2131982
  19.3212748  81.9180194  71.9916938   8.8127083  90.3861084  80.0009924
   9.5136543  91.0197567  80.1539318   8.3422198  90.7275815  79.2405563
  16.9381479  88.7279033  68.2857831  17.2141323  88.6135628  69.1951705
  16.0685978  88.3296518  68.2470004  16.8421911  74.7515799  75.3262581
  15.9284990  74.9820026  75.4944787  17.2715012  74.8354243  76.1776613
  16.6128369  82.9405691  77.8262475  15.9599819  83.1881599  77.1714927
  16.9908749  82.1269829  77.4924952  13.5735543  92.9765384  71.9290645
  13.7557937  92.1587040  72.3918397  14.3968529  93.1933077  71.4915535
  13.9077708  91.9033569  69.1905693  14.4365475  91.3926024  68.5775855
  14.1705928  91.5876100  70.0551226  12.6615942  83.6825502  84.3128512
  11.9856579  83.5819631  84.9830887  13.4843576  83.5264716  84.7764509
   4.4094801  89.9197439  76.9341027   4.9948238  89.1741127  77.0668931
   4.2119640  90.2301395  77.8177691   7.2633456  92.9548686  71.9503469
   6.5943832  93.4394814  71.4667509   7.1246326  93.2017907  72.8646848
  11.4038725  94.9892430  78.5486128  11.9557033  95.1524051  79.3135213
  11.7444918  95.5796867  77.8766152   6.3803218  77.3367579  79.1508012
   6.4444545  78.1982410  78.7385410   6.3170338  76.7241581  78.4180371
   5.8555491  79.4090712  82.7981047   6.4827529  79.0267789  83.4118571
   4.9983410  79.1904914  83.1636739  16.2549599  89.8153687  84.4034782
  16.7989503  90.4283645  83.9089737  15.6736444  90.3733266  84.9201795
   2.6321033  81.2167141  68.7299401   2.9274475  80.3077819  68.6766455
   1.7309069  81.1954880  68.4080404  14.5407112  92.9374405  75.5349810
  14.4158252  92.1364145  75.0260755  15.1986203  93.4320598  75.0463780
   6.1615280  79.2923138  74.7126950   5.4401866  79.9059105  74.5734423
   6.9508536  79.8280902  74.6343596  16.6042021  90.7383425  77.1629360
  15.6572356  90.6188776  77.0907687  16.9524794  89.8505923  77.2455621
   8.9641594  76.6277564  80.9867602   9.4875996  76.8739861  81.7493911
   8.7453927  77.4597599  80.5670739   4.3608875  78.8981239  68.8538727
   4.0321581  78.0178618  68.6713832   4.7148246  78.8428907  69.7415116
  13.6088454  90.5336141  73.3633712  13.4613416  89.6052849  73.5441282
  14.4341947  90.5556232  72.8790787   7.4750698  79.1854209  69.2214204
   7.8146771  79.7140130  68.4992813   7.9222819  79.5234615  69.9972771
  17.2122576  91.3564700  74.4498585  18.1369123  91.1507561  74.3123036
  17.0437879  91.1081101  75.3587926  10.1694139  77.5691259  78.6717272
   9.8290959  76.7699072  79.0737952   9.4633145  77.8692970  78.0994105
  10.8210611  74.6540572  77.1244595  11.6436680  74.1801050  77.0023486
  11.0648674  75.4331055  77.6243282   9.4618845  77.6828830  67.4207497
  10.1827208  78.0610083  66.9171214   8.8384149  78.4017707  67.5242475
  13.6049968  78.3873979  68.3565829  13.8213583  79.2698617  68.0554658
  13.1244035  77.9960192  67.6271471   8.3449190  81.3459692  74.9336574
   8.1993770  81.6599995  75.8260855   7.8674393  81.9644593  74.3807473
  10.2045572  78.3362240  74.9817463  10.1907141  77.4403334  74.6449761
  10.9218001  78.3432904  75.6155750  12.0571703  78.7699580  77.0270591
  11.7989481  79.6916651  77.0254921  11.5256744  78.3730015  77.7171055
  17.0017892  91.8750368  69.8060676  17.1754769  91.3096790  69.0534529
  17.4946783  92.6751262  69.6240166   2.8194852  83.8865037  77.8724235
   2.2748320  84.6624845  78.0044509   3.6974202  84.2335841  77.7143357
   9.6082468  77.2176621  70.2505034   9.7298380  76.2893267  70.4495921
   9.3184511  77.2315307  69.3383349  12.4773659  74.9031531  73.3871753
  12.4995356  74.9670864  72.4323733  12.8941718  74.0636040  73.5812260
  22.8557283  84.6386791  71.4250976  23.2988429  83.8894116  71.0270099
  21.9783793  84.6296927  71.0424708  17.9893064  91.1917132  66.9057575
  18.6843969  91.8123825  67.1244889  18.3316215  90.3412483  67.1809952
   3.6060874  83.0134933  80.7654392   2.8642610  83.1617568  81.3519022
   3.2853618  83.2743199  79.9021141  19.8884488  88.6416838  68.4344905
  20.4135812  88.9804110  67.7094225  19.8006840  87.7063853  68.2508040
  11.5504536  92.5550911  80.5634782  11.8591663  92.3100058  81.4357482
  12.3480018  92.7597550  80.0753652  11.5725148  94.7088821  72.7940159
  11.1330139  94.2165200  73.4873015  12.3233265  94.1661788  72.5532234
   4.0517487  90.9000362  72.7964787   4.8775507  90.6004134  72.4163430
   3.7011539  90.1307984  73.2454575   9.0199020  90.2526830  74.8662460
   8.3979030  89.5897535  74.5664688   9.6903887  90.2787962  74.1836108
   2.2526092  88.8186688  73.7553720   1.4158001  88.3908862  73.5737721
   2.2249738  89.0119131  74.6924511   9.0923548  78.7308618  84.4594966
   9.1411703  79.6070741  84.0772736   9.6346062  78.1886011  83.8866609
  19.5778394  89.2749741  83.7396103  18.7873937  89.2573880  83.2000603
  19.3411748  89.8138035  84.4945140  19.6976269  86.1242208  81.0528832
  19.7474274  85.9592215  81.9944355  19.5890192  85.2569467  80.6626713
   8.5812527  88.8030753  68.3420921   8.7300648  89.4866218  67.6887593
   9.3878971  88.7835843  68.8570376  16.9880031  82.1073136  82.3688139
  17.8889894  81.9679600  82.0772136  17.0628006  82.2727590  83.3086316
  11.3222836  79.4839990  81.2141325  10.4526146  79.7773556  80.9423913
  11.5582317  80.0680435  81.9348589  21.1994465  88.5439149  81.2970853
  20.9079274  88.9069130  82.1334314  20.5866597  87.8306157  81.1184185
  22.3990148  86.1092029  73.8173424  23.2337039  86.5481833  73.9810984
  22.5349277  85.6330682  72.9981669  19.4481654  83.6671764  79.7650911
  19.9235775  83.8599410  78.9569763  18.5247219  83.7230950  79.5194295
   6.3365160  84.8295931  69.3481990   6.0911202  83.9258261  69.5462200
   6.5061075  84.8313081  68.4061468  14.0261870  75.7019607  78.7306745
  14.5443814  76.4380634  78.4053234  13.6717003  76.0083601  79.5653504
   5.6060808  80.5624288  66.8468151   4.9130053  80.6368643  66.1908187
   5.3612560  79.7984632  67.3689668  14.2774464  72.1219890  74.2507642
  14.5576218  71.4543079  74.8768068  15.0625071  72.3148985  73.7382306
  12.0807933  91.2978884  65.8132668  11.5081900  91.9169071  65.3603140
  12.6540727  91.8478245  66.3472590  18.1483323  80.5437524  77.9979217
  19.1000746  80.6435621  78.0191441  17.9786773  79.7515792  78.5077301
  16.1697702  77.6293107  78.1838618  15.5747634  77.9098120  77.4885107
  15.8847399  78.1187008  78.9555359  15.3005193  91.5816034  66.9441250
  16.2335866  91.5161596  67.1474126  15.2128405  92.4172301  66.4855783
  17.9293209  90.8981904  63.9045198  17.8506841  90.5641768  64.7980956
  18.7502876  91.3903672  63.9036670  20.6271401  83.7643643  77.1121517
  20.5947721  82.8259644  77.2981200  21.2372024  83.8427680  76.3787342
  12.4654731  82.6339696  63.1548721  13.4113836  82.5045905  63.2237139
  12.0868976  81.8954358  63.6318149  20.7765889  80.5554687  77.1579800
  20.2604938  79.7713144  76.9709729  21.6605838  80.2273404  77.3226319
  18.4376616  74.2995702  73.1175612  18.2401437  73.9910791  74.0018944
  19.0476322  75.0257341  73.2473542  26.4447950  84.8259650  76.2527553
  27.1751339  84.5644938  76.8135257  25.8354896  84.0888372  76.2929621
  24.5263247  82.9667513  76.8502005  23.7996411  82.8323478  76.2418496
  24.1110534  83.2744342  77.6558723  12.3493424  86.6857443  84.6149378
  13.2696433  86.8636042  84.8089424  12.3143007  85.7413488  84.4629077
  10.6497649  80.5589673  63.0903606   9.7429104  80.2622786  63.1666320
  10.9273630  80.2619491  62.2237892   1.5675589  81.8796036  73.5402652
   1.2478373  81.0261344  73.2477026   1.0209017  82.0944614  74.2960620
   5.3455496  84.5958477  77.2572159   5.5641506  85.5275585  77.2760193
   5.7581270  84.2366452  78.0426963  12.2659714  75.1026563  69.2447847
  11.4560443  74.7573648  69.6203093  12.9544131  74.7934106  69.8335459
  14.1950263  74.1804609  70.8672144  14.7481301  74.6000063  71.5262167
  14.4320349  73.2540357  70.9095100  10.2183362  80.1691683  86.6474908
  10.1180089  81.1186040  86.5786999  10.0004904  79.8409922  85.7750978
   9.4196433  77.4176608  63.2315585  10.2815597  77.7431506  63.4911402
   9.6046777  76.6308104  62.7188651   1.4363849  85.4998948  75.5095774
   0.7427320  85.0852901  74.9965728   2.1836840  85.5419484  74.9129193
  17.5729070  76.2905135  70.3750808  16.9927739  76.9489939  69.9928861
  17.3065002  75.4682479  69.9638226  16.0232636  75.6910192  72.5772128
  16.5232414  75.8026727  71.7686447  16.6668244  75.3871245  73.2172937
  10.0814632  83.5988822  85.4639969   9.5981714  84.3989182  85.6703858
  10.1675571  83.6096767  84.5107413   3.3500591  85.4317202  73.3861789
   3.3271280  85.5304889  72.4343672   3.6601228  86.2782352  73.7078955
   6.0087969  87.4893357  77.5008403   6.9631223  87.4577299  77.4338335
   5.8100493  87.0283980  78.3158629   6.5987351  86.0594473  80.0679201
   7.4180240  86.5538551  80.0914038   6.8724159  85.1426441  80.0396768
  16.3553948  78.4505225  69.4307156  15.4679803  78.7354876  69.2127351
  16.7707937  78.2898988  68.5834433  19.7068484  78.4751746  73.1461496
  20.4828874  78.9648198  73.4186112  18.9816618  78.9009800  73.6033365
  22.1441042  79.1879365  74.2035436  22.7385533  78.9475101  73.4928744
  22.2167626  78.4686496  74.8308973   4.3638198  93.0312976  74.5178601
   4.2292666  92.2713377  73.9516599   3.9470260  93.7553876  74.0507390
  15.4997161  88.2149900  63.5255176  16.2033011  88.4199902  64.1412832
  14.7759810  88.7826661  63.7904260  16.3294971  83.9659761  69.6457447
  16.2730173  84.4228312  68.8065079  16.8823314  83.2050445  69.4680289
  20.1399777  79.7549493  70.4707566  19.8836712  79.3546128  71.3015774
  19.5152645  80.4693287  70.3457705  24.4512115  82.4945566  72.9778857
  23.8911673  82.5638755  73.7510419  23.8455619  82.3186551  72.2578354
   7.5207324  93.9282293  74.7297044   7.4039708  94.8727726  74.6275734
   6.6999770  93.6255855  75.1182843  17.4083859  88.6532429  65.5753636
  18.2429462  88.2213627  65.3931111  17.2468201  88.4814442  66.5030531
  17.0629751  85.1564542  66.9409976  17.0078555  84.9908814  65.9998420
  16.4375806  85.8640575  67.0972165   1.8522266  80.3932606  80.7671398
   2.4981129  79.8831560  81.2558623   1.6439417  81.1301288  81.3414823
  14.3775658  87.4613454  86.2663538  15.2466818  87.6354106  85.9050173
  13.8982409  88.2807871  86.1439268  10.3725876  74.6572651  66.5195294
  10.3604546  75.6014491  66.6763565  11.2649298  74.4742796  66.2254755
   8.5461838  94.5810555  77.9452972   9.4489085  94.6134165  78.2619467
   8.3199208  93.6511006  77.9599308  10.3015440  93.3341541  74.6063051
   9.3511071  93.3343403  74.4927423  10.6047926  92.5874276  74.0899085
  14.1877996  71.2515428  70.7741231  13.4210391  70.6973914  70.9197913
  14.5988701  71.3237296  71.6355383   6.1919757  77.5400224  84.8646412
   7.0551218  77.1837028  85.0749737   5.6185167  77.2014118  85.5521816
  26.0368134  99.1702080  75.6708813  26.6746544  99.0508827  74.9672153
  25.9188977 100.1182924  75.7296765  22.8457840  99.1229508  75.6070338
  22.5076351  99.0070573  74.7190873  23.7147608  98.7220673  75.5871344
  18.7044656 100.9764984  71.5967229  18.1409521 100.8854921  70.8283517
  18.5897051 100.1564889  72.0769721  23.3277623 100.2764360  81.5656543
  23.3166264  99.8817158  80.6937047  23.4898262  99.5430432  82.1590315
  16.2509088 102.4716176  74.4351449  17.0430379 102.1307001  74.0197749
  16.4905738 102.5811151  75.3553603  24.2844214 104.6435952  66.9081694
  23.6332194 105.2290033  66.5215707  25.0788577 105.1742147  66.9676731
  18.2099841 101.7325089  67.3068828  18.9830717 101.1854076  67.1681704
  18.5625240 102.5969339  67.5183289  20.0484884 103.0601472  80.5135727
  19.7574750 103.9647102  80.3982394  20.6841868 103.1017999  81.2279797
  20.9741091 100.4378320  77.1037087  21.5704663 100.2134342  76.3894050
  21.0316062  99.6963066  77.7062535  20.5466119  97.8917755  64.9387278
  20.7991640  97.3699277  64.1770741  19.6090678  97.7283901  65.0413962
  25.5909402  96.8953534  72.7462021  26.3772491  96.4772957  72.3952438
  25.8548106  97.7999626  72.9143670  25.7619479 102.3326384  67.4450678
  25.1265312 102.4061011  68.1571583  25.4316886 102.9219983  66.7669757
  30.9917829  96.8328767  73.6495000  31.7243001  96.2627984  73.8832829
  30.2357185  96.4450367  74.0901505  20.2662408  99.7945861  67.1411653
  20.1498666  99.1190765  67.8092737  20.3764668  99.3078235  66.3243806
  22.6093949  99.2556008  70.8458342  22.2452156  98.7286629  71.5571264
  23.4661065  98.8654477  70.6724828  28.5143250  90.5450341  78.1089608
  28.1826574  91.4145752  77.8850823  27.9188863  90.2286625  78.7883639
  22.2499436  94.2845908  65.8419691  22.4173838  95.1526145  66.2090162
  22.0596605  94.4473190  64.9180980  25.0074769 102.7462887  77.5085521
  24.7075492 103.6487926  77.4001328  24.6625829 102.4795070  78.3606674
  18.4587251  99.1976684  73.5422225  17.5337747  99.0652898  73.7499917
  18.7071664  99.9770903  74.0392168  28.4071913  95.2645427  75.1882958
  27.4988790  95.1960836  74.8941719  28.3559509  95.7417372  76.0164784
  22.2288657  96.7403566  66.8266357  22.1088282  97.1860616  67.6651838
  21.5341245  97.0888883  66.2679896  15.8196062  98.8409957  74.3766015
  15.9488443  99.0944436  75.2905426  15.1393513  99.4337665  74.0570670
  19.9895549 109.5107207  70.4756489  19.9119579 110.4615032  70.5544969
  19.3857193 109.1653080  71.1331415  22.4812779  96.6835073  83.1317856
  21.7046113  97.2428993  83.1220720  23.1203342  97.1691856  83.6532726
  30.2733559  93.4661866  76.9660832  29.6307940  93.7594399  76.3200627
  29.7688488  93.3514786  77.7714029  27.9273723  97.2125039  67.6546692
  28.8391579  97.4452426  67.4794389  27.4183370  97.7962083  67.0921770
  20.7359151  99.4920526  82.6935823  21.4773835 100.0305570  82.4170646
  20.0296136 100.1186815  82.8507374  26.2114491 101.6349667  81.2907984
  26.6197847 101.1932077  80.5462616  25.4891752 101.0602294  81.5442177
  22.5645561  96.5722273  78.6641541  23.4106756  96.9961687  78.8076190
  22.5044198  95.9155898  79.3580104  26.5343305 102.1950857  75.0460273
  25.9052168 102.3596571  74.3436341  26.1468967 102.6092467  75.8171237
  30.4132537 103.1305295  72.4004637  29.7283575 103.5104196  71.8501670
  30.4976386 103.7400622  73.1336585  25.7145006  94.2326642  80.3222715
  25.4705938  94.9868702  79.7856990  25.9904937  94.6111989  81.1569962
  27.6683469 100.7765254  78.9999980  27.8800364 101.4197014  78.3234361
  27.6213217  99.9427571  78.5321910  25.2709698  93.3883075  75.9036552
  24.4094177  93.6864328  76.1953290  25.2972132  93.6053474  74.9717585
  22.0871267 101.9325265  72.3110358  22.5509613 102.2112968  71.5214981
  21.8228065 101.0308710  72.1283449  18.9795348 101.4796747  75.2490121
  19.5496705 101.9084015  74.6107606  19.5703460 101.1979332  75.9474307
  21.0240153  98.0548418  69.1199923  21.7264197  98.5069461  69.5873850
  20.6920782  97.4132237  69.7479816  19.4720515  96.6460174  83.4951133
  18.8419175  97.3276455  83.7286529  19.3656603  96.5343256  82.5504271
  14.7665487  96.3131970  74.4217057  13.9764541  96.5689499  73.9457167
  15.2576735  97.1280308  74.5269097  28.7829297 103.6537210  77.1722338
  29.6046740 103.2517397  76.8905019  28.7791700 103.5505444  78.1238453
  16.7180233  96.6776550  71.3800534  15.9211396  96.7895244  71.8984029
  16.4905825  97.0163202  70.5141424  22.5485900 103.2021253  79.3283048
  22.6130333 103.6641660  80.1641220  21.8396824 102.5718618  79.4565358
  13.0503190  96.5662461  76.8532048  13.3011229  97.4509471  77.1189624
  13.5862739  96.3867062  76.0807139  36.8735290  99.9975958  73.5207309
  36.1198998  99.4283356  73.3651314  37.0082831  99.9638623  74.4677944
  22.2633918 104.8689360  69.1962028  22.1279593 105.7140896  69.6246876
  22.8043730 105.0708638  68.4327962  18.7501257  90.9480940  85.8576384
  18.3568203  90.3947139  86.5324028  19.5667398  91.2591519  86.2482901
  15.7163315 102.3864798  69.7689954  16.2287836 103.1808049  69.9195518
  16.3686028 101.6891089  69.7023555  17.5258200 105.5030555  71.8512707
  17.7024828 106.4248519  71.6633691  18.3215033 105.1888974  72.2807087
  21.6669218  92.3638819  83.4496640  22.4078932  92.9645972  83.3701103
  21.8987141  91.6216457  82.8914683  16.8110556  97.5495187  81.7274870
  16.6964072  96.6480444  82.0281969  15.9555074  97.7958883  81.3759686
  23.8902394 105.4912927  83.3262371  23.4466248 104.7049305  83.0083275
  24.5519608 105.6792077  82.6606261  18.6489515 107.0208728  77.8523049
  19.1996941 106.8925792  77.0800043  17.8100991 107.3203617  77.5017942
  25.9883632 105.7715727  81.3543772  25.9702108 106.5924608  80.8624041
  26.9103552 105.6469802  81.5793913  22.4456686 103.2859856  82.1967280
  22.9785023 102.5248144  81.9666588  21.9170768 102.9933508  82.9391435
  25.6126381  88.3919922  77.7260922  25.2690651  89.2821564  77.6500033
  25.9805344  88.2021580  76.8630507  13.6812232 100.7153453  70.5449524
  14.5187454 101.1250461  70.3283232  13.8590500  99.7752895  70.5149718
  25.5776664  98.3828533  66.2333357  25.0623288  99.1533138  66.4721744
  25.3053973  97.7093669  66.8566418  23.1623775  93.2278234  71.2918595
  22.3065371  92.8385084  71.1124234  23.5750727  93.3070195  70.4318381
  24.6922922  90.7624577  75.6910155  24.1887717  90.7254713  74.8777960
  24.9853529  91.6717320  75.7506812  20.9365808  90.8463307  74.6976337
  21.8018804  90.6506116  74.3382226  21.0043317  90.6173659  75.6245694
  30.5510938 101.1360888  68.1686531  29.7740381 100.7972047  67.7241693
  31.2302419 101.1413511  67.4941496  25.3662967  96.2555625  68.0593138
  25.0613103  96.5701775  68.9103281  26.3193409  96.3337045  68.1020471
  23.8109399 102.4145849  69.7086092  23.2830761 101.6798608  69.3959330
  23.3096902 103.1920525  69.4626061  28.7902245 100.6094869  74.8253139
  28.1325920 101.2994131  74.9133267  29.5942644 100.9991301  75.1687125
  18.5428127  93.0765515  72.0692704  19.1171879  92.8540697  71.3365897
  19.1299109  93.1454210  72.8221305  27.6007704  98.9639242  72.8757080
  28.1139586  99.5969234  73.3778790  28.2508928  98.3640437  72.5100440
  18.8697714  95.1069976  66.0888589  18.0335026  95.4444663  66.4097864
  18.7302484  94.9718956  65.1515726  20.8450794  89.9506764  70.7967773
  20.1915207  89.6355781  70.1724388  20.8031269  89.3282504  71.5227596
  21.9561999 100.2326059  62.7121065  21.0489061 100.0015312  62.9112214
  22.4533031  99.4363678  62.8995047  24.8630078 108.9423566  65.6317751
  24.1891777 109.2455263  66.2402709  25.2495900 109.7452647  65.2823208
  24.0788535  96.4388697  75.1215421  23.1611096  96.6603644  74.9637109
  24.4948678  96.5135008  74.2627128  24.8623583  97.8380113  70.2518101
  25.6095402  98.3501510  69.9425223  25.1315172  97.5164166  71.1122495
  23.1350233 100.3338654  67.2345055  22.2261452 100.0497687  67.3317525
  23.1645317 100.7537732  66.3748362  28.3669500 103.9445243  71.0036223
  27.9131827 103.1036153  71.0601413  27.7363467 104.5806642  71.3411003
  27.3102420  94.8737229  72.2336890  26.5725177  94.3614616  72.5647133
  27.5629193  94.4337611  71.4220167  26.8102439 105.7821740  71.9386041
  27.1025414 106.3426797  71.2198407  27.3201060 106.0750301  72.6939200
  27.4114047  87.6513481  72.8278660  27.7172924  86.7910845  72.5404575
  28.1366652  88.2431102  72.6277654  13.7038403  98.0544168  71.2160258
  13.5062803  97.4613529  70.4911324  13.1485067  97.7496378  71.9336196
  21.6835127  97.9467274  73.3354851  21.7383737  96.9941111  73.2597327
  20.8726329  98.1026714  73.8196149  22.8326321 101.8747398  64.5733134
  22.3945750 101.1583256  64.1138771  23.5736761 102.1023512  64.0118225
  19.6227487  96.5644334  71.0945230  18.8095352  96.8638505  71.5010422
  20.1186481  96.1700023  71.8119712  21.7736065 106.5602091  73.0279494
  21.7312243 106.7862937  72.0988026  22.6898763 106.3265466  73.1765295
  25.2201698  97.0286159  79.9260123  25.5751086  97.2557632  80.7854589
  25.8673830  97.3604535  79.3037379  30.9499435 100.1504595  70.6309452
  30.8117334 100.3406191  69.7030642  30.5935654 100.9123977  71.0877504
  19.1141561  94.1362690  76.7106464  19.7540941  93.9951449  76.0129428
  18.2819092  93.8497203  76.3345066  30.9768815 102.2181122  75.6420724
  31.4105322 102.1256411  76.4903778  31.6900396 102.1938622  75.0040740
  19.8901865 103.4365120  72.8241457  20.6842464 102.9415440  72.6224032
  19.1793558 102.9082983  72.4609163  24.7096710 105.8183216  77.1753825
  24.7633732 106.3874152  77.9431540  23.8411491 105.9885101  76.8107862
  16.1984629  97.5808202  68.9001210  15.2682217  97.5192657  69.1171172
  16.2942101  97.0584155  68.1037851  16.1170178  94.1063015  71.4879451
  16.3776995  95.0208348  71.3788612  16.9387350  93.6387457  71.6376064
  17.5895103  95.5200772  78.6578276  18.2618157  95.3118134  78.0090925
  16.7624890  95.3222858  78.2183508  31.8384365 102.2604822  78.1753609
  32.0320255 103.1650633  78.4212884  31.7384983 101.8012241  79.0092194
  23.4920675  92.1462713  80.6743937  22.8448590  92.8452662  80.5808413
  24.2621691  92.5798857  81.0420185  26.8999473 102.4111565  83.7494490
  26.7484980 102.1822117  82.8324574  26.8904153 103.3682166  83.7625835
  23.6684810  99.9843478  78.7340756  24.5976870 100.1354637  78.5609724
  23.2475840 100.0727499  77.8789403  22.4673141 104.0094142  76.5039294
  22.3284227 103.6412927  77.3765232  21.6787738 104.5241782  76.3323252
  23.0621293 109.1103239  67.8464831  23.2373049 108.6391282  68.6610453
  22.3754081 109.7369005  68.0746091  24.0178357 103.3875745  73.8928132
  23.6828189 103.3476515  74.7885782  23.5182302 102.7220461  73.4198542
  17.9922600  98.7943375  79.4180713  17.8542398  98.0623614  80.0192252
  18.9027524  98.7052275  79.1364901  26.9537548 100.7331779  64.1665191
  26.3366719 100.0078607  64.0698244  26.4854037 101.4941139  63.8232266
  20.6204901  98.5063334  78.9064393  21.3304520  97.8656526  78.8651011
  20.5774209  98.7576229  79.8290573  28.6091680 105.4430688  81.8270972
  28.5504226 104.7589908  81.1601555  29.0111198 106.1849678  81.3751598
  19.3333835  95.4928552  80.7260032  18.7971192  95.0419291  81.3781628
  18.7450544  95.6274461  79.9830496  18.7436094  94.9517203  63.2886496
  17.8665560  94.8306004  62.9248742  19.2193847  94.1603282  63.0365384
  28.6109087 103.4070271  80.0584952  27.7235866 103.0696193  80.1811350
  29.1807638 102.6753303  80.2953717  10.2638234  99.7394363  73.3828003
  10.9509274  99.4256093  72.7949018  10.1086363 100.6435728  73.1095254
  15.0672956  94.6284560  77.8113027  14.9831145  94.0210229  77.0763437
  14.2455663  95.1193578  77.8122523  22.1410241 108.0671724  77.0246195
  22.0680412 108.8726695  77.5365499  21.6987634 108.2663690  76.1994216
  21.9300020 107.3043494  70.5349016  21.1467542 107.8465174  70.6287241
  22.6292765 107.8217473  70.9343257  25.2396670  93.1138123  73.1783222
  25.7365370  92.3608086  72.8584292  24.4683652  93.1502440  72.6126431
  33.0926428  98.8178489  74.8201513  33.0816304  99.7003204  74.4495446
  32.2243807  98.4650040  74.6256050  24.6008924 107.9658558  79.1804353
  25.3136896 108.6006023  79.1080255  24.1098953 108.0622424  78.3644355
  26.3226451 101.8709811  70.7521645  25.3882730 101.9911273  70.5826349
  26.5003119 100.9682277  70.4881655  21.8231639  95.2555506  72.9054906
  21.4529427  94.7026547  73.5935812  22.3190731  94.6513640  72.3529906
  29.7099002  97.7127130  71.2871679  30.1759454  98.5455121  71.2131982
  30.1606503  97.2472111  71.9916938  19.6520838 105.7153001  80.0009924
  20.3530297 106.3489484  80.1539318  19.1815953 106.0567733  79.2405563
  27.7775233 104.0570951  68.2857831  28.0535077 103.9427546  69.1951705
  26.9079732 103.6588436  68.2470004  27.6815665  90.0807717  75.3262581
  26.7678745  90.3111944  75.4944787  28.1108766  90.1646161  76.1776613
  27.4522124  98.2697609  77.8262475  26.7993574  98.5173516  77.1714927
  27.8302503  97.4561747  77.4924952  24.4129297 108.3057302  71.9290645
  24.5951692 107.4878958  72.3918397  25.2362283 108.5224994  71.4915535
  24.7471463 107.2325487  69.1905693  25.2759229 106.7217942  68.5775855
  25.0099682 106.9168017  70.0551226  23.5009697  99.0117420  84.3128512
  22.8250334  98.9111549  84.9830887  24.3237330  98.8556634  84.7764509
  15.2488556 105.2489356  76.9341027  15.8341992 104.5033044  77.0668931
  15.0513394 105.5593313  77.8177691  18.1027211 108.2840604  71.9503469
  17.4337586 108.7686731  71.4667509  17.9640081 108.5309824  72.8646848
   9.8406210  97.8194957  75.6545470   9.8790310  97.2858547  76.4482588
   9.3346503  97.2930162  75.0356447  22.2432479 110.3184347  78.5486128
  22.7950787 110.4815969  79.3135213  22.5838673 110.9088785  77.8766152
  17.2196973  92.6659497  79.1508012  17.2838299  93.5274328  78.7385410
  17.1564093  92.0533499  78.4180371  16.6949245  94.7382630  82.7981047
  17.3221284  94.3559707  83.4118571  15.8377164  94.5196832  83.1636739
  27.0943354 105.1445605  84.4034782  27.6383258 105.7575563  83.9089737
  26.5130199 105.7025183  84.9201795  13.4714788  96.5459059  68.7299401
  13.7668229  95.6369737  68.6766455  12.5702824  96.5246798  68.4080404
  25.3800867 108.2666323  75.5349810  25.2552006 107.4656063  75.0260755
  26.0379958 108.7612516  75.0463780  17.0009035  94.6215055  74.7126950
  16.2795621  95.2351023  74.5734423  17.7902291  95.1572820  74.6343596
  27.4435775 106.0675343  77.1629360  26.4966111 105.9480694  77.0907687
  27.7918548 105.1797841  77.2455621  19.8035348  91.9569482  80.9867602
  20.3269750  92.2031778  81.7493911  19.5847682  92.7889517  80.5670739
  15.2002630  94.2273156  68.8538727  14.8715336  93.3470535  68.6713832
  15.5542000  94.1720825  69.7415116  24.4482208 105.8628059  73.3633712
  24.3007171 104.9344767  73.5441282  25.2735702 105.8848150  72.8790787
  18.3144453  94.5146126  69.2214204  18.6540525  95.0432047  68.4992813
  18.7616573  94.8526532  69.9972771  28.0516330 106.6856618  74.4498585
  28.9762878 106.4799479  74.3123036  27.8831634 106.4373019  75.3587926
  21.0087893  92.8983177  78.6717272  20.6684714  92.0990990  79.0737952
  20.3026900  93.1984888  78.0994105  21.6604365  89.9832489  77.1244595
  22.4830435  89.5092968  77.0023486  21.9042429  90.7622973  77.6243282
  20.3012600  93.0120748  67.4207497  21.0220962  93.3902001  66.9171214
  19.6777904  93.7309625  67.5242475  24.4443723  93.7165897  68.3565829
  24.6607337  94.5990535  68.0554658  23.9637790  93.3252110  67.6271471
  19.1842944  96.6751610  74.9336574  19.0387525  96.9891913  75.8260855
  18.7068148  97.2936510  74.3807473  21.0439327  93.6654158  74.9817463
  21.0300896  92.7695251  74.6449761  21.7611755  93.6724822  75.6155750
  22.8965458  94.0991498  77.0270591  22.6383235  95.0208569  77.0254921
  22.3650498  93.7021933  77.7171055  27.8411646 107.2042285  69.8060676
  28.0148524 106.6388708  69.0534529  28.3340538 108.0043180  69.6240166
  13.6588606  99.2156954  77.8724235  13.1142074  99.9916762  78.0044509
  14.5367956  99.5627759  77.7143357  20.4476223  92.5468538  70.2505034
  20.5692134  91.6185184  70.4495921  20.1578265  92.5607224  69.3383349
  23.3167413  90.2323449  73.3871753  23.3389110  90.2962782  72.4323733
  23.7335472  89.3927957  73.5812260  33.6951038  99.9678708  71.4250976
  34.1382184  99.2186033  71.0270099  32.8177548  99.9588845  71.0424708
  28.8286819 106.5209050  66.9057575  29.5237724 107.1415742  67.1244889
  29.1709969 105.6704401  67.1809952  14.4454628  98.3426851  80.7654392
  13.7036364  98.4909486  81.3519022  14.1247372  98.6035116  79.9021141
  30.7278242 103.9708755  68.4344905  31.2529566 104.3096028  67.7094225
  30.6400595 103.0355771  68.2508040  22.3898291 107.8842829  80.5634782
  22.6985417 107.6391976  81.4357482  23.1873773 108.0889467  80.0753652
  22.4118903 110.0380738  72.7940159  21.9723893 109.5457117  73.4873015
  23.1627020 109.4953706  72.5532234  14.8911242 106.2292279  72.7964787
  15.7169262 105.9296051  72.4163430  14.5405294 105.4599902  73.2454575
  19.8592775 105.5818748  74.8662460  19.2372784 104.9189453  74.5664688
  20.5297642 105.6079879  74.1836108  13.0919847 104.1478606  73.7553720
  12.2551755 103.7200780  73.5737721  13.0643492 104.3411049  74.6924511
  19.9317302  94.0600536  84.4594966  19.9805458  94.9362658  84.0772736
  20.4739817  93.5177929  83.8866609  30.4172148 104.6041659  83.7396103
  29.6267692 104.5865798  83.2000603  30.1805503 105.1429953  84.4945140
  30.5370023 101.4534125  81.0528832  30.5868028 101.2884133  81.9944355
  30.4283947 100.5861384  80.6626713  19.4206282 104.1322671  68.3420921
  19.5694402 104.8158135  67.6887593  20.2272725 104.1127761  68.8570376
  27.8273786  97.4365053  82.3688139  28.7283648  97.2971518  82.0772136
  27.9021760  97.6019508  83.3086316  22.1616591  94.8131908  81.2141325
  21.2919900  95.1065474  80.9423913  22.3976071  95.3972353  81.9348589
  32.0388220 103.8731067  81.2970853  31.7473028 104.2361047  82.1334314
  31.4260351 103.1598075  81.1184185  33.2383902 101.4383947  73.8173424
  34.0730794 101.8773751  73.9810984  33.3743031 100.9622600  72.9981669
  30.2875408  98.9963681  79.7650911  30.7629530  99.1891328  78.9569763
  29.3640974  99.0522867  79.5194295  17.1758915 100.1587849  69.3481990
  16.9304957  99.2550179  69.5462200  17.3454829 100.1604999  68.4061468
  24.8655625  91.0311525  78.7306745  25.3837569  91.7672552  78.4053234
  24.5110757  91.3375518  79.5653504  16.4454562  95.8916206  66.8468151
  15.7523807  95.9660561  66.1908187  16.2006314  95.1276550  67.3689668
  25.1168219  87.4511807  74.2507642  25.3969973  86.7834997  74.8768068
  25.9018826  87.6440903  73.7382306  22.9201687 106.6270801  65.8132668
  22.3475654 107.2460989  65.3603140  23.4934481 107.1770163  66.3472590
  28.9877077  95.8729441  77.9979217  29.9394500  95.9727539  78.0191441
  28.8180528  95.0807710  78.5077301  27.0091457  92.9585025  78.1838618
  26.4141389  93.2390037  77.4885107  26.7241153  93.4478926  78.9555359
  26.1398947 106.9107952  66.9441250  27.0729620 106.8453513  67.1474126
  26.0522160 107.7464218  66.4855783  28.7686964 106.2273822  63.9045198
  28.6900595 105.8933685  64.7980956  29.5896631 106.7195590  63.9036670
  31.4665155  99.0935561  77.1121517  31.4341475  98.1551562  77.2981200
  32.0765779  99.1719598  76.3787342  23.3048486  97.9631614  63.1548721
  24.2507591  97.8337822  63.2237139  22.9262731  97.2246276  63.6318149
  31.6159643  95.8846605  77.1579800  31.0998692  95.1005061  76.9709729
  32.4999592  95.5565321  77.3226319  29.2770370  89.6287620  73.1175612
  29.0795192  89.3202708  74.0018944  29.8870076  90.3549259  73.2473542
  37.2841705 100.1551568  76.2527553  38.0145093  99.8936856  76.8135257
  36.6748650  99.4180290  76.2929621  35.3657002  98.2959431  76.8502005
  34.6390166  98.1615396  76.2418496  34.9504289  98.6036259  77.6558723
  23.1887178 102.0149360  84.6149378  24.1090188 102.1927959  84.8089424
  23.1536761 101.0705406  84.4629077  21.4891403  95.8881591  63.0903606
  20.5822858  95.5914703  63.1666320  21.7667384  95.5911409  62.2237892
  12.4069343  97.2087954  73.5402652  12.0872128  96.3553262  73.2477026
  11.8602772  97.4236532  74.2960620  16.1849251  99.9250395  77.2572159
  16.4035261 100.8567503  77.2760193  16.5975025  99.5658369  78.0426963
  23.1053469  90.4318480  69.2447847  22.2954197  90.0865565  69.6203093
  23.7937886  90.1226024  69.8335459  25.0344017  89.5096527  70.8672144
  25.5875056  89.9291980  71.5262167  25.2714103  88.5832275  70.9095100
  21.0577116  95.4983601  86.6474908  20.9573843  96.4477958  86.5786999
  20.8398658  95.1701840  85.7750978  20.2590188  92.7468526  63.2315585
  21.1209352  93.0723424  63.4911402  20.4440532  91.9600022  62.7188651
  12.2757603 100.8290865  75.5095774  11.5821075 100.4144818  74.9965728
  13.0230594 100.8711402  74.9129193  28.4122824  91.6197052  70.3750808
  27.8321493  92.2781856  69.9928861  28.1458757  90.7974397  69.9638226
  26.8626390  91.0202110  72.5772128  27.3626169  91.1318644  71.7686447
  27.5061998  90.7163163  73.2172937  20.9208386  98.9280740  85.4639969
  20.4375468  99.7281100  85.6703858  21.0069325  98.9388684  84.5107413
  14.1894346 100.7609119  73.3861789  14.1665034 100.8596806  72.4343672
  14.4994982 101.6074270  73.7078955  16.8481724 102.8185274  77.5008403
  17.8024977 102.7869217  77.4338335  16.6494247 102.3575898  78.3158629
  17.4381106 101.3886390  80.0679201  18.2573995 101.8830469  80.0914038
  17.7117914 100.4718358  80.0396768  27.1947702  93.7797143  69.4307156
  26.3073557  94.0646793  69.2127351  27.6101691  93.6190906  68.5834433
  30.5462238  93.8043664  73.1461496  31.3222628  94.2940116  73.4186112
  29.8210372  94.2301718  73.6033365  32.9834797  94.5171283  74.2035436
  33.5779288  94.2767019  73.4928744  33.0561381  93.7978413  74.8308973
  26.3390916 103.5441817  63.5255176  27.0426766 103.7491820  64.1412832
  25.6153564 104.1118579  63.7904260  27.1688726  99.2951679  69.6457447
  27.1123927  99.7520230  68.8065079  27.7217068  98.5342363  69.4680289
  30.9793532  95.0841410  70.4707566  30.7230466  94.6838046  71.3015774
  30.3546400  95.7985204  70.3457705  35.2905870  97.8237484  72.9778857
  34.7305428  97.8930673  73.7510419  34.6849373  97.6478468  72.2578354
  28.2477613 103.9824346  65.5753636  29.0823217 103.5505545  65.3931111
  28.0861956 103.8106360  66.5030531  27.9023505 100.4856460  66.9409976
  27.8472309 100.3200731  65.9998420  27.2769560 101.1932493  67.0972165
  12.6916020  95.7224524  80.7671398  13.3374884  95.2123478  81.2558623
  12.4833171  96.4593206  81.3414823  25.2169412 102.7905372  86.2663538
  26.0860572 102.9646024  85.9050173  24.7376164 103.6099788  86.1439268
  21.2119631  89.9864569  66.5195294  21.1998300  90.9306409  66.6763565
  22.1043053  89.8034714  66.2254755  19.3855593 109.9102473  77.9452972
  20.2882839 109.9426083  78.2619467  19.1592963 108.9802924  77.9599308
  21.1409195 108.6633459  74.6063051  20.1904826 108.6635321  74.4927423
  21.4441681 107.9166194  74.0899085  25.0271750  86.5807345  70.7741231
  24.2604146  86.0265832  70.9197913  25.4382455  86.6529214  71.6355383
  17.0313511  92.8692141  84.8646412  17.8944973  92.5128946  85.0749737
  16.4578922  92.5306036  85.5521816  36.8761888 114.4993998  75.6708813
  37.5140298 114.3800745  74.9672153  36.7582731 115.4474842  75.7296765
  33.6851594 114.4521426  75.6070338  33.3470106 114.3362490  74.7190873
  34.5541363 114.0512591  75.5871344  34.1671377 115.6056277  81.5656543
  34.1560018 115.2109076  80.6937047  34.3292017 114.8722350  82.1590315
  31.3859874 113.2209673  64.9387278  31.6385394 112.6991194  64.1770741
  30.4484433 113.0575818  65.0413962  36.4303157 112.2245451  72.7462021
  37.2166246 111.8064875  72.3952438  36.6941861 113.1291544  72.9143670
  41.8311584 112.1620685  73.6495000  42.5636756 111.5919901  73.8832829
  41.0750939 111.7742285  74.0901505  33.4487703 114.5847926  70.8458342
  33.0845911 114.0578547  71.5571264  34.3054819 114.1946395  70.6724828
  39.3537004 105.8742259  78.1089608  39.0220329 106.7437670  77.8850823
  38.7582617 105.5578543  78.7883639  33.0893190 109.6137826  65.8419691
  33.2567593 110.4818062  66.2090162  32.8990359 109.7765108  64.9180980
  39.2465667 110.5937345  75.1882958  38.3382545 110.5252753  74.8941719
  39.1953263 111.0709290  76.0164784  33.0682411 112.0695483  66.8266357
  32.9482037 112.5152534  67.6651838  32.3735000 112.4180801  66.2679896
  33.3206533 112.0126990  83.1317856  32.5439867 112.5720911  83.1220720
  33.9597096 112.4983773  83.6532726  41.1127314 108.7953783  76.9660832
  40.4701694 109.0886316  76.3200627  40.6082242 108.6806704  77.7714029
  38.7667477 112.5416956  67.6546692  39.6785334 112.7744343  67.4794389
  38.2577125 113.1254001  67.0921770  33.4039315 111.9014191  78.6641541
  34.2500510 112.3253605  78.8076190  33.3437953 111.2447815  79.3580104
  36.5538761 109.5618559  80.3222715  36.3099692 110.3160620  79.7856990
  36.8298691 109.9403907  81.1569962  38.5077223 116.1057172  78.9999980
  38.7194119 116.7488932  78.3234361  38.4606972 115.2719488  78.5321910
  36.1103452 108.7174992  75.9036552  35.2487931 109.0156246  76.1953290
  36.1365887 108.9345391  74.9717585  31.8633908 113.3840335  69.1199923
  32.5657951 113.8361379  69.5873850  31.5314536 112.7424154  69.7479816
  30.3114269 111.9752092  83.4951133  29.6812930 112.6568373  83.7286529
  30.2050357 111.8635174  82.5504271  25.6059242 111.6423888  74.4217057
  24.8158296 111.8981417  73.9457167  26.0970489 112.4572226  74.5269097
  27.5573987 112.0068467  71.3800534  26.7605150 112.1187162  71.8984029
  27.3299579 112.3455120  70.5141424  47.7129044 115.3267876  73.5207309
  46.9592753 114.7575274  73.3651314  47.8476585 115.2930540  74.4677944
  29.5895012 106.2772858  85.8576384  29.1961958 105.7239056  86.5324028
  30.4061152 106.5883436  86.2482901  32.5062973 107.6930737  83.4496640
  33.2472686 108.2937890  83.3701103  32.7380896 106.9508375  82.8914683
  36.4520136 103.7211840  77.7260922  36.1084405 104.6113482  77.6500033
  36.8199098 103.5313498  76.8630507  36.4170419 113.7120451  66.2333357
  35.9017042 114.4825056  66.4721744  36.1447727 113.0385587  66.8566418
  34.0017530 108.5570152  71.2918595  33.1459126 108.1677002  71.1124234
  34.4144481 108.6362113  70.4318381  35.5316676 106.0916495  75.6910155
  35.0281472 106.0546630  74.8777960  35.8247283 107.0009238  75.7506812
  31.7759562 106.1755225  74.6976337  32.6412559 105.9798033  74.3382226
  31.8437071 105.9465577  75.6245694  41.3904693 116.4652806  68.1686531
  40.6134136 116.1263965  67.7241693  42.0696174 116.4705429  67.4941496
  36.2056722 111.5847543  68.0593138  35.9006857 111.8993692  68.9103281
  37.1587164 111.6628963  68.1020471  39.6296000 115.9386787  74.8253139
  38.9719674 116.6286048  74.9133267  40.4336399 116.3283219  75.1687125
  29.3821881 108.4057433  72.0692704  29.9565633 108.1832614  71.3365897
  29.9692864 108.4746127  72.8221305  38.4401458 114.2931160  72.8757080
  38.9533340 114.9261151  73.3778790  39.0902682 113.6932355  72.5100440
  29.7091468 110.4361894  66.0888589  28.8728781 110.7736580  66.4097864
  29.5696238 110.3010874  65.1515726  31.6844549 105.2798682  70.7967773
  31.0308961 104.9647699  70.1724388  31.6425023 104.6574422  71.5227596
  34.9182289 111.7680615  75.1215421  34.0004851 111.9895562  74.9637109
  35.3342433 111.8426926  74.2627128  35.7017337 113.1672031  70.2518101
  36.4489156 113.6793428  69.9425223  35.9708927 112.8456084  71.1122495
  38.1496174 110.2029147  72.2336890  37.4118931 109.6906533  72.5647133
  38.4022948 109.7629529  71.4220167  38.2507802 102.9805399  72.8278660
  38.5566678 102.1202763  72.5404575  38.9760406 103.5723019  72.6277654
  32.5228881 113.2759192  73.3354851  32.5777491 112.3233029  73.2597327
  31.7120083 113.4318631  73.8196149  30.4621241 111.8936252  71.0945230
  29.6489107 112.1930422  71.5010422  30.9580235 111.4991941  71.8119712
  36.0595453 112.3578076  79.9260123  36.4144841 112.5849549  80.7854589
  36.7067584 112.6896453  79.3037379  41.7893190 115.4796512  70.6309452
  41.6511088 115.6698108  69.7030642  41.4329409 116.2415895  71.0877504
  29.9535316 109.4654607  76.7106464  30.5934695 109.3243367  76.0129428
  29.1212847 109.1789121  76.3345066  41.8162569 117.5473039  75.6420724
  42.2499076 117.4548328  76.4903778  42.5294150 117.5230540  75.0040740
  27.0378383 112.9100120  68.9001210  26.1075971 112.8484575  69.1171172
  27.1335855 112.3876072  68.1037851  26.9563932 109.4354932  71.4879451
  27.2170750 110.3500266  71.3788612  27.7781105 108.9679375  71.6376064
  28.4288858 110.8492690  78.6578276  29.1011911 110.6410052  78.0090925
  27.6018644 110.6514776  78.2183508  42.6778119 117.5896740  78.1753609
  42.8714009 118.4942550  78.4212884  42.5778737 117.1304159  79.0092194
  34.3314430 107.4754630  80.6743937  33.6842345 108.1744580  80.5808413
  35.1015445 107.9090774  81.0420185  34.5078564 115.3135395  78.7340756
  35.4370624 115.4646555  78.5609724  34.0869594 115.4019416  77.8789403
  37.7931303 116.0623697  64.1665191  37.1760473 115.3370525  64.0698244
  37.3247791 116.8233057  63.8232266  31.4598656 113.8355252  78.9064393
  32.1698274 113.1948444  78.8651011  31.4167964 114.0868147  79.8290573
  30.1727590 110.8220470  80.7260032  29.6364947 110.3711208  81.3781628
  29.5844298 110.9566379  79.9830496  29.5829849 110.2809121  63.2886496
  28.7059315 110.1597922  62.9248742  30.0587602 109.4895199  63.0365384
  25.9066711 109.9576477  77.8113027  25.8224900 109.3502147  77.0763437
  25.0849417 110.4485496  77.8122523  36.0790425 108.4430041  73.1783222
  36.5759124 107.6900003  72.8584292  35.3077406 108.4794358  72.6126431
  43.9320182 114.1470407  74.8201513  43.9210058 115.0295122  74.4495446
  43.0637562 113.7941957  74.6256050  32.6625393 110.5847424  72.9054906
  32.2923181 110.0318464  73.5935812  33.1584486 109.9805557  72.3529906
  40.5492757 113.0419047  71.2871679  41.0153209 113.8747039  71.2131982
  41.0000257 112.5764029  71.9916938  38.5209420 105.4099634  75.3262581
  37.6072499 105.6403861  75.4944787  38.9502521 105.4938079  76.1776613
  38.2915878 113.5989526  77.8262475  37.6387328 113.8465434  77.1714927
  38.6696258 112.7853665  77.4924952  34.3403451 114.3409337  84.3128512
  33.6644088 114.2403467  84.9830887  35.1631085 114.1848551  84.7764509
  28.0590727 107.9951415  79.1508012  28.1232054 108.8566246  78.7385410
  27.9957847 107.3825416  78.4180371  27.5343000 110.0674547  82.7981047
  28.1615038 109.6851625  83.4118571  26.6770919 109.8488749  83.1636739
  24.3108542 111.8750976  68.7299401  24.6061984 110.9661655  68.6766455
  23.4096578 111.8538716  68.4080404  27.8402789 109.9506973  74.7126950
  27.1189375 110.5642941  74.5734423  28.6296045 110.4864738  74.6343596
  30.6429103 107.2861399  80.9867602  31.1663505 107.5323696  81.7493911
  30.4241436 108.1181434  80.5670739  26.0396384 109.5565074  68.8538727
  25.7109090 108.6762453  68.6713832  26.3935755 109.5012743  69.7415116
  29.1538207 109.8438044  69.2214204  29.4934280 110.3723965  68.4992813
  29.6010328 110.1818450  69.9972771  31.8481648 108.2275095  78.6717272
  31.5078468 107.4282908  79.0737952  31.1420654 108.5276805  78.0994105
  32.4998120 105.3124407  77.1244595  33.3224189 104.8384885  77.0023486
  32.7436183 106.0914891  77.6243282  31.1406354 108.3412665  67.4207497
  31.8614717 108.7193918  66.9171214  30.5171658 109.0601542  67.5242475
  35.2837477 109.0457814  68.3565829  35.5001092 109.9282452  68.0554658
  34.8031544 108.6544028  67.6271471  30.0236699 112.0043528  74.9336574
  29.8781279 112.3183831  75.8260855  29.5461902 112.6228428  74.3807473
  31.8833081 108.9946076  74.9817463  31.8694650 108.0987169  74.6449761
  32.6005510 109.0016739  75.6155750  33.7359212 109.4283416  77.0270591
  33.4776990 110.3500486  77.0254921  33.2044253 109.0313850  77.7171055
  31.2869977 107.8760456  70.2505034  31.4085889 106.9477102  70.4495921
  30.9972020 107.8899142  69.3383349  34.1561168 105.5615366  73.3871753
  34.1782865 105.6254699  72.4323733  34.5729227 104.7219875  73.5812260
  44.5344792 115.2970626  71.4250976  44.9775938 114.5477951  71.0270099
  43.6571302 115.2880762  71.0424708  30.7711057 109.3892453  84.4594966
  30.8199212 110.2654576  84.0772736  31.3133571 108.8469846  83.8866609
  41.3763778 116.7826043  81.0528832  41.4261783 116.6176050  81.9944355
  41.2677701 115.9153302  80.6626713  38.6667540 112.7656971  82.3688139
  39.5677403 112.6263436  82.0772136  38.7415515 112.9311426  83.3086316
  33.0010345 110.1423826  81.2141325  32.1313655 110.4357392  80.9423913
  33.2369826 110.7264271  81.9348589  44.0777657 116.7675864  73.8173424
  44.9124548 117.2065668  73.9810984  44.2136786 116.2914517  72.9981669
  41.1269163 114.3255599  79.7650911  41.6023284 114.5183245  78.9569763
  40.2034728 114.3814785  79.5194295  35.7049379 106.3603443  78.7306745
  36.2231323 107.0964470  78.4053234  35.3504512 106.6667436  79.5653504
  27.2848317 111.2208124  66.8468151  26.5917562 111.2952479  66.1908187
  27.0400069 110.4568467  67.3689668  35.9561973 102.7803725  74.2507642
  36.2363727 102.1126914  74.8768068  36.7412580 102.9732821  73.7382306
  39.8270832 111.2021359  77.9979217  40.7788255 111.3019457  78.0191441
  39.6574282 110.4099628  78.5077301  37.8485211 108.2876942  78.1838618
  37.2535143 108.5681955  77.4885107  37.5634908 108.7770843  78.9555359
  42.3058910 114.4227479  77.1121517  42.2735230 113.4843480  77.2981200
  42.9159533 114.5011516  76.3787342  34.1442240 113.2923532  63.1548721
  35.0901345 113.1629740  63.2237139  33.7656485 112.5538194  63.6318149
  42.4553398 111.2138522  77.1579800  41.9392447 110.4296979  76.9709729
  43.3393347 110.8857239  77.3226319  40.1164125 104.9579538  73.1175612
  39.9188946 104.6494626  74.0018944  40.7263830 105.6841177  73.2473542
  48.1235459 115.4843486  76.2527553  48.8538848 115.2228774  76.8135257
  47.5142405 114.7472208  76.2929621  46.2050756 113.6251348  76.8502005
  45.4783920 113.4907313  76.2418496  45.7898043 113.9328177  77.6558723
  32.3285158 111.2173508  63.0903606  31.4216613 110.9206621  63.1666320
  32.6061139 110.9203326  62.2237892  33.9447223 105.7610398  69.2447847
  33.1347952 105.4157483  69.6203093  34.6331640 105.4517942  69.8335459
  35.8737772 104.8388445  70.8672144  36.4268810 105.2583898  71.5262167
  36.1107858 103.9124193  70.9095100  31.8970871 110.8275518  86.6474908
  31.7967598 111.7769875  86.5786999  31.6792413 110.4993757  85.7750978
  31.0983942 108.0760443  63.2315585  31.9603106 108.4015342  63.4911402
  31.2834286 107.2891939  62.7188651  39.2516579 106.9488970  70.3750808
  38.6715248 107.6073774  69.9928861  38.9852511 106.1266314  69.9638226
  37.7020145 106.3494028  72.5772128  38.2019923 106.4610562  71.7686447
  38.3455753 106.0455080  73.2172937  38.0341457 109.1089060  69.4307156
  37.1467312 109.3938711  69.2127351  38.4495446 108.9482824  68.5834433
  41.3855993 109.1335581  73.1461496  42.1616383 109.6232034  73.4186112
  40.6604127 109.5593635  73.6033365  43.8228551 109.8463200  74.2035436
  44.4173042 109.6058936  73.4928744  43.8955135 109.1270331  74.8308973
  38.0082480 114.6243596  69.6457447  37.9517682 115.0812148  68.8065079
  38.5610823 113.8634281  69.4680289  41.8187286 110.4133328  70.4707566
  41.5624221 110.0129964  71.3015774  41.1940154 111.1277122  70.3457705
  46.1299624 113.1529401  72.9778857  45.5699182 113.2222591  73.7510419
  45.5243128 112.9770386  72.2578354  38.7417260 115.8148377  66.9409976
  38.6866063 115.6492649  65.9998420  38.1163315 116.5224410  67.0972165
  23.5309775 111.0516442  80.7671398  24.1768638 110.5415396  81.2558623
  23.3226926 111.7885123  81.3414823  32.0513385 105.3156486  66.5195294
  32.0392055 106.2598326  66.6763565  32.9436807 105.1326632  66.2254755
  35.8665505 101.9099263  70.7741231  35.0997900 101.3557750  70.9197913
  36.2776210 101.9821132  71.6355383  27.8707266 108.1984059  84.8646412
  28.7338727 107.8420864  85.0749737  27.2972676 107.8597954  85.5521816
  47.2913890 119.0503758  77.7260922  46.9478160 119.9405399  77.6500033
  47.6592853 118.8605415  76.8630507  49.0901556 118.3097317  72.8278660
  49.3960433 117.4494680  72.5404575  49.8154161 118.9014937  72.6277654
  46.7955728 118.1095643  74.2507642  47.0757482 117.4418832  74.8768068
  47.5806335 118.3024738  73.7382306  50.9557879 120.2871456  73.1175612
  50.7582701 119.9786544  74.0018944  51.5657585 121.0133094  73.2473542
  46.7059259 117.2391181  70.7741231  45.9391655 116.6849667  70.9197913
  47.1169964 117.3113050  71.6355383   4.3554028  31.0162328  60.2452616
   3.6017736  30.4469726  60.0896620   4.4901569  30.9824992  61.1923250
   0.7202640  32.4570316  60.5418730   1.5549531  32.8960120  60.7056291
   0.8561769  31.9808969  59.7226976   4.7660443  31.1737938  62.9772860
   5.4963831  30.9123226  63.5380563   4.1567388  30.4366660  63.0174928
   2.8475740  29.3145800  63.5747311   2.1208903  29.1801765  62.9663803
   2.4323027  29.6222629  64.3804029   0.4653535  25.5357652  60.9280743
   1.0598025  25.2953388  60.2174051   0.5380118  24.8164783  61.5554279
   2.7724607  28.8423853  59.7024164   2.2124165  28.9117043  60.4755726
   2.1668111  28.6664838  58.9823660   4.3580626  45.5180367  62.3954120
   4.9959036  45.3987114  61.6917460   4.2401469  46.4661211  62.4542072
   1.1670332  45.4707795  62.3315644   0.8288844  45.3548860  61.4436179
   2.0360100  45.0698960  62.3116651   1.6490115  46.6242647  68.2901850
   1.6378756  46.2295445  67.4182354   1.8110755  45.8908720  68.8835621
   2.6056707  50.9914239  53.6327000   1.9544686  51.5768320  53.2461014
   3.4001069  51.5220434  53.6922038   3.9121894  43.2431821  59.4707328
   4.6984984  42.8251244  59.1197745   4.1760599  44.1477913  59.6388976
   4.0831972  48.6804671  54.1695985   3.4477805  48.7539298  54.8816889
   3.7529378  49.2698270  53.4915064   9.3130322  43.1807054  60.3740306
  10.0455493  42.6106271  60.6078136   8.5569677  42.7928655  60.8146812
   0.9306441  45.6034296  57.5703649   0.5664648  45.0764917  58.2816570
   1.7873557  45.2132765  57.3970134   6.8355742  36.8928628  64.8334915
   6.5039067  37.7624039  64.6096130   6.2401355  36.5764912  65.5128945
   3.3287261  49.0941174  64.2330828   3.0287984  49.9966213  64.1246635
   2.9838321  48.8273357  65.0851981   6.7284405  41.6123714  61.9128265
   5.8201283  41.5439123  61.6187026   6.6772001  42.0895659  62.7410090
   8.5946052  39.8140153  63.6906139   7.9520432  40.1072686  63.0445934
   8.0900980  39.6993073  64.4959336   6.2486215  43.5603326  54.3791998
   7.1604071  43.7930713  54.2039696   5.7395862  44.1440370  53.8167077
   4.5326983  47.9827954  68.0153291   4.9410339  47.5410364  67.2707923
   3.8104244  47.4080581  68.2687484   0.8858053  42.9200561  65.3886848
   1.7319248  43.3439974  65.5321497   0.8256691  42.2634185  66.0825411
   4.8555798  48.5429144  61.7705580   4.2264660  48.7074859  61.0681647
   4.4681460  48.9570754  62.5416544   8.7345029  49.4783582  59.1249943
   8.0496068  49.8582484  58.5746977   8.8188879  50.0878909  59.8581891
   4.0357498  40.5804929  67.0468021   3.7918430  41.3346990  66.5102297
   4.3117429  40.9590277  67.8815268   5.9895961  47.1243541  65.7245287
   6.2012856  47.7675301  65.0479668   5.9425709  46.2905858  65.2567217
   3.5922190  39.7361362  62.6281859   2.7306669  40.0342616  62.9198597
   3.6184625  39.9531761  61.6962892   7.1041789  50.0015497  63.8967644
   7.9259233  49.5995684  63.6150326   7.1004192  49.8983731  64.8483760
  15.1947782  46.3454245  60.2452616  14.4411490  45.7761643  60.0896620
  15.3295323  46.3116910  61.1923250   0.5846410  51.2167648  55.9207335
   0.4492085  52.0619183  56.3492183   1.1256223  51.4186925  55.1573269
   2.2114886  51.8391214  70.0507677   1.7678741  51.0527593  69.7328582
   2.8732100  52.0270365  69.3851568   4.3096125  52.1194014  68.0789078
   4.2914600  52.9402895  67.5869348   5.2316045  51.9948089  68.3039220
   3.9338874  34.7398209  64.4506229   3.5903143  35.6299851  64.3745339
   4.3017836  34.5499867  63.5875814   3.8989156  44.7306821  52.9578664
   3.3835780  45.5011425  53.1967051   3.6266465  44.0571957  53.5811725
   1.4836267  39.5756521  58.0163902   0.6277864  39.1863372  57.8369541
   1.8963219  39.6548482  57.1563688   3.0135414  37.1102865  62.4155462
   2.5100210  37.0733000  61.6023267   3.3066021  38.0195607  62.4752118
   8.8723431  47.4839175  54.8931837   8.0952873  47.1450335  54.4486999
   9.5514912  47.4891798  54.2186802   3.6875460  42.6033913  54.7838445
   3.3825595  42.9180062  55.6348588   4.6405902  42.6815333  54.8265778
   2.1321891  48.7624136  56.4331399   1.6043253  48.0276896  56.1204636
   1.6309394  49.5398812  56.1871367   7.1114737  46.9573156  61.5498445
   6.4538412  47.6472418  61.6378574   7.9155137  47.3469588  61.8932431
   5.9220196  45.3117529  59.6002387   6.4352078  45.9447521  60.1024097
   6.5721420  44.7118725  59.2345747   3.1842570  55.2901853  52.3563058
   2.5104269  55.5933550  52.9648016   3.5708392  56.0930934  52.0068515
   2.4001027  42.7866985  61.8460727   1.4823588  43.0081932  61.6882415
   2.8161171  42.8613295  60.9872435   3.1836075  44.1858400  56.9763408
   3.9307894  44.6979798  56.6670530   3.4527664  43.8642453  57.8367801
   1.4562725  46.6816941  53.9590362   0.5473944  46.3975974  54.0562832
   1.4857809  47.1016020  53.0993669   6.6881992  50.2923531  57.7281530
   6.2344320  49.4514440  57.7846720   6.0575959  50.9284929  58.0656310
   5.6314912  41.2215517  58.9582197   4.8937669  40.7092903  59.2892440
   5.8841686  40.7815898  58.1465474   5.1314932  52.1300027  58.6631348
   5.4237906  52.6905084  57.9443713   5.6413552  52.4228588  59.4184507
   5.7326539  33.9991769  59.5523966   6.0385416  33.1389132  59.2649881
   6.4579144  34.5909389  59.3522960   1.1538813  48.2225685  51.2978441
   0.7158243  47.5061544  50.8384078   1.8949254  48.4501800  50.7363532
   3.5414191  43.3764446  66.6505430   3.8963578  43.6035919  67.5099896
   4.1886322  43.7082823  66.0282685   9.2711928  46.4982882  57.3554759
   9.1329826  46.6884478  56.4275948   8.9148146  47.2602265  57.8122810
   9.2981307  48.5659409  62.3666031   9.7317814  48.4734698  63.2149085
  10.0112888  48.5416909  61.7286047   3.0309202  52.1661503  63.8999131
   3.0846224  52.7352439  64.6676847   2.1623983  52.3363388  63.5353168
  10.1596857  48.6083109  64.8998916  10.3532747  49.5128920  65.1458191
  10.0597475  48.1490529  65.7337501   1.8133168  38.4941000  67.3989243
   1.1661083  39.1930950  67.3053720   2.5834183  38.9277144  67.7665492
   5.2211965  48.7589852  70.4739797   5.0697472  48.5300404  69.5569880
   5.2116645  49.7160454  70.4871142   1.9897302  46.3321765  65.4586063
   2.9189362  46.4832925  65.2855030   1.5688332  46.4205786  64.6034710
   1.3833786  55.4581526  54.5710137   1.5585541  54.9869569  55.3855760
   0.6966574  56.0847292  54.7991398   2.3390849  49.7354032  60.6173438
   2.0040681  49.6954802  61.5131088   1.8394794  49.0698748  60.1443849
   5.2750040  47.0810066  50.8910498   4.6579211  46.3556895  50.7943551
   4.8066529  47.8419427  50.5477572   6.9304172  51.7908975  68.5516278
   6.8716718  51.1068195  67.8846862   7.3323690  52.5327965  68.0996904
   6.9321579  49.7548559  66.7830258   6.0448358  49.4174481  66.9056657
   7.5020130  49.0231590  67.0199024   3.5609163  39.4616411  59.9028528
   4.0577862  38.7086373  59.5829599   2.7896144  39.4980727  59.3371738
  11.4138920  45.1656776  61.5446820  11.4028796  46.0481492  61.1740753
  10.5456299  44.8128327  61.3501357   2.9221416  54.3136845  65.9049660
   3.6349388  54.9484310  65.8325561   2.4311445  54.4100711  65.0889662
   4.6438943  48.2188098  57.4766952   3.7095222  48.3389560  57.3071656
   4.8215612  47.3160565  57.2126962   8.0311495  44.0605417  58.0116986
   8.4971947  44.8933409  57.9377288   8.4818995  43.5950399  58.7162244
   6.0987726  50.4049238  55.0103138   6.3747570  50.2905833  55.9197012
   5.2292224  50.0066723  54.9715311   6.0028157  36.4286004  62.0507887
   5.0891237  36.6590231  62.2190094   6.4321259  36.5124448  62.9021920
   5.7734616  44.6175896  64.5507781   5.1206066  44.8651803  63.8960234
   6.1514996  43.8040034  64.2170258   2.7341790  54.6535589  58.6535951
   2.9164184  53.8357245  59.1163704   3.5574776  54.8703281  58.2160841
   3.0683955  53.5803774  55.9151000   3.5971722  53.0696229  55.3021162
   3.3312175  53.2646305  56.7796533   1.8222189  45.3595707  71.0373818
   1.1462826  45.2589836  71.7076193   2.6449823  45.2034921  71.5009815
   0.5644972  56.6662635  65.2731434   1.1163280  56.8294256  66.0380519
   0.9051165  57.2567072  64.6011459   5.4155846  51.4923892  71.1280089
   5.9595750  52.1053850  70.6335043   4.8342691  52.0503470  71.6447102
   3.7013359  54.6144610  62.2595116   3.5764498  53.8134350  61.7506062
   4.3592450  55.1090803  61.7709086   5.7648267  52.4153630  63.8874667
   4.8178603  52.2958981  63.8152993   6.1131040  51.5276128  63.9700928
   2.7694701  52.2106346  60.0879019   2.6219663  51.2823054  60.2686589
   3.5948194  52.2326437  59.6036094   6.3728822  53.0334905  61.1743892
   7.2975370  52.8277766  61.0368343   6.2044126  52.7851306  62.0833233
   2.7656215  40.0644184  55.0811136   2.9819829  40.9468822  54.7799964
   2.2850282  39.6730397  54.3516778   1.2177950  40.4469785  63.7515898
   0.9595728  41.3686856  63.7500228   0.6862990  40.0500220  64.4416362
   6.1624139  53.5520573  56.5305983   6.3361016  52.9866995  55.7779835
   6.6553030  54.3521467  56.3485473   1.6379906  36.5801736  60.1117060
   1.6601602  36.6441069  59.1569040   2.0547965  35.7406245  60.3057566
  12.0163530  46.3156995  58.1496283  12.4594676  45.5664321  57.7515406
  11.1390040  46.3067132  57.7670015   7.1499311  52.8687337  53.6302881
   7.8450216  53.4894030  53.8490196   7.4922461  52.0182688  53.9055259
   9.0490734  50.3187042  55.1590212   9.5742058  50.6574315  54.4339532
   8.9613087  49.3834058  54.9753347   0.7110783  54.2321116  67.2880089
   1.0197909  53.9870263  68.1602788   1.5086265  54.4367755  66.7998959
   8.7384640  50.9519946  70.4641410   7.9480184  50.9344085  69.9245909
   8.5017995  51.4908240  71.2190447   8.8582515  47.8012412  67.7774139
   8.9080520  47.6362420  68.7189661   8.7496439  46.9339671  67.3872019
   6.1486278  43.7843340  69.0933445   7.0496141  43.6449805  68.8017443
   6.2234252  43.9497795  70.0331623  10.3600712  50.2209354  68.0216160
  10.0685521  50.5839335  68.8579621   9.7472844  49.5076362  67.8429492
  11.5596395  47.7862234  60.5418730  12.3943286  48.2252038  60.7056291
  11.6955523  47.3100887  59.7226976   8.6087901  45.3441969  66.4896218
   9.0842022  45.5369615  65.6815069   7.6853466  45.4001154  66.2439602
   3.1868117  37.3789812  65.4552052   3.7050061  38.1150839  65.1298540
   2.8323250  37.6853805  66.2898811   3.4380711  33.7990095  60.9752949
   3.7182465  33.1313284  61.6013375   4.2231318  33.9919190  60.4627612
   1.2414180  52.9749089  52.5377975   0.6688147  53.5939276  52.0848447
   1.8146973  53.5248450  53.0717897   7.3089570  42.2207729  64.7224524
   8.2606992  42.3205826  64.7436748   7.1393020  41.4285997  65.2322608
   5.3303949  39.3063312  64.9083925   4.7353881  39.5868325  64.2130413
   5.0453646  39.7957213  65.6800666   4.4611439  53.2586239  53.6686557
   5.3942113  53.1931800  53.8719433   4.3734652  54.0942506  53.2101090
   7.0899456  52.5752109  50.6290505   7.0113088  52.2411973  51.5226263
   7.9109123  53.0673877  50.6281977   9.7877647  45.4413848  63.8366823
   9.7553967  44.5029849  64.0226507  10.3978271  45.5197885  63.1032648
   1.6260978  44.3109901  49.8794027   2.5720083  44.1816109  49.9482445
   1.2475223  43.5724563  50.3563455   9.9372136  42.2324892  63.8825106
   9.4211184  41.4483348  63.6955035  10.8212084  41.9043608  64.0471626
   7.5982863  35.9765907  59.8420919   7.4007684  35.6680996  60.7264251
   8.2082568  36.7027546  59.9718849  15.6054197  46.5029855  62.9772860
  16.3357586  46.2415143  63.5380563  14.9961143  45.7658577  63.0174928
  13.6869494  44.6437718  63.5747311  12.9602658  44.5093683  62.9663803
  13.2716781  44.9514546  64.3804029   1.5099671  48.3627647  71.3394684
   2.4302680  48.5406247  71.5334731   1.4749254  47.4183693  71.1874384
   1.4265961  36.7796767  55.9693154   0.6166689  36.4343852  56.3448400
   2.1150378  36.4704311  56.5580765   3.3556509  35.8574814  57.5917450
   3.9087548  36.2770268  58.2507474   3.5926596  34.9310562  57.6340406
   6.7335316  37.9675339  57.0996115   6.1533985  38.6260143  56.7174167
   6.4671249  37.1452684  56.6883532   5.1838883  37.3680397  59.3017435
   5.6838661  37.4796932  58.4931754   5.8274491  37.0641450  59.9418244
   5.5160194  40.1275430  56.1552463   4.6286049  40.4125080  55.9372658
   5.9314183  39.9669193  55.3079740   8.8674731  40.1521951  59.8706802
   9.6435121  40.6418403  60.1431419   8.1422865  40.5780005  60.3278672
  11.3047289  40.8649570  60.9280743  11.8991780  40.6245306  60.2174051
  11.3773873  40.1456701  61.5554279   4.6603408  49.8920104  50.2500483
   5.3639258  50.0970107  50.8658139   3.9366057  50.4596866  50.5149567
   5.4901218  45.6429966  56.3702753   5.4336420  46.0998517  55.5310386
   6.0429561  44.8820650  56.1925596   9.3006024  41.4319698  57.1952873
   9.0442958  41.0316333  58.0261080   8.6758892  42.1463492  57.0703012
  13.6118362  44.1715771  59.7024164  13.0517920  44.2408960  60.4755726
  13.0061865  43.9956755  58.9823660   6.5690105  50.3302634  52.2998943
   7.4035709  49.8983832  52.1176418   6.4074448  50.1584647  53.2275838
   6.2235997  46.8334747  53.6655282   6.1684801  46.6679018  52.7243726
   5.5982053  47.5410780  53.8217472   3.5381905  49.1383659  72.9908845
   4.4073064  49.3124311  72.6295480   3.0588656  49.9578076  72.8684574
   3.3484242  32.9285633  57.4986538   2.5816638  32.3744119  57.6443220
   3.7594947  33.0007501  58.3600689  15.1974380  60.8472285  62.3954120
  15.8352790  60.7279032  61.6917460  15.0795223  61.7953129  62.4542072
  12.0064087  60.7999713  62.3315644  11.6682598  60.6840778  61.4436179
  12.8753855  60.3990878  62.3116651   7.8650902  62.6535189  58.3212535
   7.3015767  62.5625126  57.5528823   7.7503297  61.8335094  58.8015028
  12.4883870  61.9534565  68.2901850  12.4772510  61.5587363  67.4182354
  12.6504509  61.2200637  68.8835621   5.4115334  64.1486381  61.1596756
   6.2036626  63.8077206  60.7443055   5.6511984  64.2581356  62.0798909
  13.4450461  66.3206157  53.6327000  12.7938441  66.9060237  53.2461014
  14.2394824  66.8512352  53.6922038   7.3706088  63.4095294  54.0314135
   8.1436964  62.8624281  53.8927010   7.7231487  64.2739543  54.2428596
   9.2091131  64.7371676  67.2381034   8.9180997  65.6417307  67.1227700
   9.8448115  64.7788204  67.9525104  10.1347338  62.1148525  63.8282394
  10.7310910  61.8904547  63.1139357  10.1922309  61.3733270  64.4307841
   9.7072366  59.5687960  51.6632585   9.9597887  59.0469482  50.9016048
   8.7696925  59.4054106  51.7659268  14.7515649  58.5723739  59.4707328
  15.5378738  58.1543162  59.1197745  15.0154353  59.4769831  59.6388976
  14.9225726  64.0096589  54.1695985  14.2871559  64.0831215  54.8816889
  14.5923133  64.5990188  53.4915064  20.1524076  58.5098972  60.3740306
  20.8849248  57.9398189  60.6078136  19.3963432  58.1220572  60.8146812
   9.4268655  61.4716066  53.8656960   9.3104913  60.7960970  54.5338044
   9.5370915  60.9848440  53.0489113  11.7700196  60.9326213  57.5703649
  11.4058403  60.4056834  58.2816570  12.6267312  60.5424682  57.3970134
  17.6749496  52.2220546  64.8334915  17.3432821  53.0915957  64.6096130
  17.0795110  51.9056830  65.5128945  11.4105683  55.9616113  52.5664997
  11.5780085  56.8296349  52.9335468  11.2202852  56.1243395  51.6426287
  14.1681016  64.4233092  64.2330828  13.8681739  65.3258131  64.1246635
  13.8232075  64.1565275  65.0851981   7.6193497  60.8746889  60.2667532
   6.6943994  60.7423103  60.4745224   7.8677911  61.6541108  60.7637475
  17.5678160  56.9415632  61.9128265  16.6595037  56.8731041  61.6187026
  17.5165755  57.4187577  62.7410090  11.3894904  58.4173771  53.5511664
  11.2694529  58.8630821  54.3897144  10.6947492  58.7659088  52.9925202
   4.9802308  60.5180162  61.1011321   5.1094690  60.7714641  62.0150733
   4.2999760  61.1107870  60.7815976   9.1501796  71.1877412  57.2001795
   9.0725825  72.1385237  57.2790276   8.5463439  70.8423285  57.8576722
  11.6419025  58.3605278  69.8563162  10.8652360  58.9199198  69.8466027
  12.2809589  58.8462061  70.3778032  19.4339806  55.1432071  63.6906139
  18.7914186  55.4364604  63.0445934  18.9294735  55.0284991  64.4959336
  17.0879970  58.8895244  54.3791998  17.9997826  59.1222630  54.2039696
  16.5789617  59.4732288  53.8167077   9.8965398  61.1690731  69.4181129
  10.6380082  61.7075775  69.1415953   9.1902383  61.7957020  69.5752681
  15.3720737  63.3119872  68.0153291  15.7804093  62.8702282  67.2707923
  14.6497999  62.7372499  68.2687484  11.7251807  58.2492478  65.3886848
  12.5713003  58.6731892  65.5321497  11.6650445  57.5926103  66.0825411
  15.6949552  63.8721062  61.7705580  15.0658414  64.0366776  61.0681647
  15.3075214  64.2862672  62.5416544  19.5738784  64.8075500  59.1249943
  18.8889822  65.1874401  58.5746977  19.6582633  65.4170827  59.8581891
  14.8751253  55.9096847  67.0468021  14.6312185  56.6638907  66.5102297
  15.1511183  56.2882194  67.8815268  16.8289716  62.4535459  65.7245287
  17.0406611  63.0967219  65.0479668  16.7819464  61.6197776  65.2567217
  14.4315945  55.0653280  62.6281859  13.5700424  55.3634533  62.9198597
  14.4578379  55.2823679  61.6962892  11.2477514  63.6095470  59.0355665
  11.7115859  63.8883173  58.2460287  10.9834312  62.7078915  58.8528755
   8.1401595  63.1566952  61.9735428   8.7102952  63.5854220  61.3352912
   8.7309707  62.8749537  62.6719614  10.1846400  59.7318623  55.8445230
  10.8870443  60.1839666  56.3119156   9.8527028  59.0902441  56.4725123
   8.6326762  58.3230379  70.2196439   8.0025422  59.0046660  70.4531836
   8.5262849  58.2113461  69.2749578   3.9271734  57.9902175  61.1462363
   3.1370788  58.2459704  60.6702474   4.4182981  58.8050513  61.2514404
  17.9435543  65.3307414  63.8967644  18.7652987  64.9287602  63.6150326
  17.9397946  65.2275649  64.8483760   5.8786479  58.3546755  58.1045840
   5.0817643  58.4665449  58.6229336   5.6512072  58.6933407  57.2386731
  11.7092147  64.8791458  66.0528355  11.7736579  65.3411865  66.8886527
  11.0003071  64.2488823  66.1810665   2.2109437  58.2432666  63.5777354
   2.4617475  59.1279676  63.8434930   2.7468985  58.0637267  62.8052446
  26.0341537  61.6746163  60.2452616  25.2805245  61.1053561  60.0896620
  26.1689078  61.6408827  61.1923250  11.4240165  66.5459565  55.9207335
  11.2885839  67.3911101  56.3492183  11.9649977  66.7478843  55.1573269
   7.9107504  52.6251145  72.5821690   7.5174450  52.0717344  73.2569335
   8.7273645  52.9361724  72.9728208   4.8769562  64.0635003  56.4935260
   5.3894083  64.8578254  56.6440825   5.5292275  63.3661294  56.4268862
   6.6864447  67.1800760  58.5758013   6.8631075  68.1018724  58.3878997
   7.4821280  66.8659179  59.0052393  10.8275465  54.0409024  70.1741947
  11.5685179  54.6416177  70.0946409  11.0593388  53.2986662  69.6159989
   5.9716803  59.2265391  68.4520177   5.8570318  58.3250649  68.7527275
   5.1161321  59.4729088  68.1004993  13.0508641  67.1683132  70.0507677
  12.6072495  66.3819510  69.7328582  13.7125855  67.3562282  69.3851568
   7.8095762  68.6978933  64.5768356   8.3603187  68.5695997  63.8045350
   6.9707238  68.9973822  64.2263248  15.1489879  67.4485932  68.0789078
  15.1308354  68.2694813  67.5869348  16.0709799  67.3240007  68.3039220
  11.6062933  64.9630061  68.9212587  12.1391270  64.2018349  68.6911895
  11.0777014  64.6703713  69.6636741  14.7732628  50.0690127  64.4506229
  14.4296898  50.9591769  64.3745339  15.1411591  49.8791785  63.5875814
   2.8418479  62.3923658  57.2694831   3.6793701  62.8020666  57.0528538
   3.0196746  61.4523100  57.2395025  14.7382911  60.0598738  52.9578664
  14.2229534  60.8303343  53.1967051  14.4660219  59.3863874  53.5811725
  12.3230022  54.9048439  58.0163902  11.4671618  54.5155289  57.8369541
  12.7356974  54.9840400  57.1563688  13.8529169  52.4394782  62.4155462
  13.3493964  52.4024917  61.6023267  14.1459775  53.3487525  62.4752118
  10.0972054  52.5233512  61.4221644  10.9625051  52.3276321  61.0627533
  10.1649563  52.2943864  62.3491000  19.7117185  62.8131093  54.8931837
  18.9346628  62.4742252  54.4486999  20.3908666  62.8183716  54.2186802
  14.5269214  57.9325830  54.7838445  14.2219350  58.2471980  55.6348588
  15.4799656  58.0107250  54.8265778  12.9715646  64.0916054  56.4331399
  12.4437007  63.3568813  56.1204636  12.4703149  64.8690730  56.1871367
  17.9508492  62.2865074  61.5498445  17.2932166  62.9764336  61.6378574
  18.7548891  62.6761506  61.8932431   7.7034374  54.7535720  58.7938010
   8.2778125  54.5310901  58.0611203   8.2905356  54.8224414  59.5466612
  16.7613951  60.6409447  59.6002387  17.2745832  61.2739439  60.1024097
  17.4115175  60.0410642  59.2345747   8.0303961  56.7840181  52.8133896
   7.1941273  57.1214868  53.1343170   7.8908730  56.6489161  51.8761033
  10.0057041  51.6276969  57.5213080   9.3521454  51.3125986  56.8969695
   9.9637515  51.0052709  58.2472903  11.1168246  61.9096264  49.4366372
  10.2095308  61.6785517  49.6357521  11.6139278  61.1133883  49.6240353
  14.0236325  70.6193771  52.3563058  13.3498024  70.9225468  52.9648016
  14.4102147  71.4222851  52.0068515  13.2394782  58.1158902  61.8460727
  12.3217343  58.3373849  61.6882415  13.6554925  58.1905213  60.9872435
  14.0229829  59.5150318  56.9763408  14.7701648  60.0271715  56.6670530
  14.2921419  59.1934371  57.8367801  12.2956480  62.0108859  53.9590362
  11.3867699  61.7267892  54.0562832  12.3251563  62.4307937  53.0993669
  17.5275747  65.6215448  57.7281530  17.0738074  64.7806358  57.7846720
  16.8969714  66.2576847  58.0656310  16.4708667  56.5507434  58.9582197
  15.7331423  56.0384821  59.2892440  16.7235440  56.1107816  58.1465474
  15.9708686  67.4591945  58.6631348  16.2631661  68.0197002  57.9443713
  16.4807307  67.7520506  59.4184507  16.5720294  49.3283686  59.5523966
  16.8779171  48.4681050  59.2649881  17.2972899  49.9201307  59.3522960
   2.8644650  59.7314373  57.9405564   2.6669050  59.1383734  57.2156631
   2.3091314  59.4266583  58.6581503  10.8441374  59.6237479  60.0600157
  10.8989983  58.6711316  59.9842634  10.0332576  59.7796918  60.5441456
  11.9932567  63.5517602  51.2978441  11.5551997  62.8353461  50.8384078
  12.7343008  63.7793717  50.7363532   8.7833733  58.2414539  57.8190536
   7.9701599  58.5408710  58.2255728   9.2792728  57.8470228  58.5365018
  10.9342311  68.2372296  59.7524801  10.8918490  68.4633142  58.8233333
  11.8505010  68.0035671  59.9010602  14.3807945  58.7056364  66.6505430
  14.7357333  58.9327837  67.5099896  15.0280076  59.0374740  66.0282685
  20.1105682  61.8274799  57.3554759  19.9723581  62.0176395  56.4275948
  19.7541901  62.5894182  57.8122810   8.2747808  55.8132895  63.4351771
   8.9147188  55.6721654  62.7374734   7.4425339  55.5267408  63.0590373
  20.1375062  63.8951326  62.3666031  20.5711568  63.8026616  63.2149085
  20.8506642  63.8708827  61.7286047   9.0508112  65.1135325  59.5486764
   9.8448711  64.6185645  59.3469339   8.3399805  64.5853188  59.1854469
  13.8702957  67.4953421  63.8999131  13.9239979  68.0644357  64.6676847
  13.0017738  67.6655306  63.5353168   5.3590876  59.2578407  55.6246516
   4.4288464  59.1962862  55.8416478   5.4548348  58.7354360  54.8283158
   5.2776425  55.7833220  58.2124758   5.5383242  56.6978553  58.1033918
   6.0993597  55.3157662  58.3621371   6.7501350  57.1970977  65.3823582
   7.4224403  56.9888339  64.7336231   5.9231137  56.9993063  64.9428815
  20.9990611  63.9375027  64.8998916  21.1926501  64.8420838  65.1458191
  20.8991229  63.4782446  65.7337501  12.6526922  53.8232918  67.3989243
  12.0054837  54.5222867  67.3053720  13.4227937  54.2569062  67.7665492
  16.0605720  64.0881770  70.4739797  15.9091226  63.8592322  69.5569880
  16.0510399  65.0452371  70.4871142  12.8291056  61.6613683  65.4586063
  13.7583116  61.8124842  65.2855030  12.4082086  61.7497703  64.6034710
  11.6279388  65.6864347  63.2284601  11.4890474  65.3183131  64.1010539
  10.8393984  66.2011986  63.0568558  12.2227540  70.7873444  54.5710137
  12.3979296  70.3161487  55.3855760  11.5360328  71.4139210  54.7991398
  13.1784603  65.0645950  60.6173438  12.8434436  65.0246720  61.5131088
  12.6788549  64.3990666  60.1443849   7.1528847  60.4713580  66.1426020
   7.0148645  59.7393819  66.7437559   8.0633771  60.3822480  65.8610207
  16.1143795  62.4101984  50.8910498  15.4972966  61.6848812  50.7943551
  15.6460283  63.1711344  50.5477572   9.7811148  60.1833539  65.6309699
  10.4910766  59.5426731  65.5896318   9.7380456  60.4346434  66.5535880
  17.7697927  67.1200892  68.5516278  17.7110473  66.4360113  67.8846862
  18.1717445  67.8619882  68.0996904   8.4940082  57.1698757  67.4505339
   7.9577439  56.7189495  68.1026935   7.9056790  57.3044666  66.7075803
   6.7888625  73.9362806  61.3449997   7.0285224  74.5681330  62.0229016
   5.9457822  73.5850846  61.6315357   7.9042341  56.6287408  50.0131802
   7.0271807  56.5076209  49.6494049   8.3800094  55.8373487  49.7610691
  17.7715334  65.0840476  66.7830258  16.8842113  64.7466398  66.9056657
  18.3413885  64.3523508  67.0199024   4.2279203  56.3054765  64.5358333
   4.1437392  55.6980434  63.8008743   3.4061910  56.7963783  64.5367830
  11.3016487  69.7441929  63.7491501  11.2286659  70.5496900  64.2610806
  10.8593880  69.9433895  62.9239523  11.0906267  68.9813699  57.2594323
  10.3073789  69.5235379  57.3532547  11.7899012  69.4987678  57.6588564
  14.4002917  54.7908328  59.9028528  14.8971617  54.0378291  59.5829599
  13.6289899  54.8272645  59.3371738  22.2532674  60.4948694  61.5446820
  22.2422551  61.3773409  61.1740753  21.3850054  60.1420245  61.3501357
  13.7615171  69.6428763  65.9049660  14.4743143  70.2776228  65.8325561
  13.2705199  69.7392629  65.0889662  15.4832698  63.5480015  57.4766952
  14.5488976  63.6681478  57.3071656  15.6609366  62.6452482  57.2126962
  10.9837886  56.9325711  59.6300213  10.6135673  56.3796752  60.3181118
  11.4796978  56.3283845  59.0775213  18.8705249  59.3897335  58.0116986
  19.3365701  60.2225326  57.9377288  19.3212750  58.9242316  58.7162244
   8.8127084  67.3923206  66.7255231   9.5136544  68.0259689  66.8784625
   8.3422199  67.7337938  65.9650870  16.9381480  65.7341156  55.0103138
  17.2141324  65.6197751  55.9197012  16.0685979  65.3358641  54.9715311
  16.8421912  51.7577922  62.0507887  15.9284992  51.9882149  62.2190094
  17.2715013  51.8416366  62.9021920  16.6128370  59.9467814  64.5507781
  15.9599821  60.1943721  63.8960234  16.9908750  59.1331952  64.2170258
  13.5735544  69.9827507  58.6535951  13.7557939  69.1649163  59.1163704
  14.3968530  70.1995199  58.2160841  13.9077710  68.9095692  55.9151000
  14.4365476  68.3988147  55.3021162  14.1705929  68.5938222  56.7796533
  12.6615943  60.6887625  71.0373818  11.9856580  60.5881754  71.7076193
  13.4843577  60.5326838  71.5009815   4.4094802  66.9259561  63.6586334
   4.9948239  66.1803249  63.7914238   4.2119641  67.2363518  64.5422997
   7.2633458  69.9610809  58.6748776   6.5943833  70.4456936  58.1912816
   7.1246327  70.2080029  59.5892154  11.4038726  71.9954552  65.2731434
  11.9557034  72.1586174  66.0380519  11.7444920  72.5858990  64.6011459
   6.3803219  54.3429702  65.8753319   6.4444546  55.2044533  65.4630717
   6.3170340  53.7303704  65.1425677   5.8555492  56.4152835  69.5226353
   6.4827531  56.0329912  70.1363878   4.9983411  56.1967036  69.8882046
  16.2549601  66.8215810  71.1280089  16.7989504  67.4345768  70.6335043
  15.6736445  67.3795388  71.6447102   2.6321035  58.2229264  55.4544708
   2.9274476  57.3139942  55.4011762   1.7309070  58.2017003  55.1325710
  14.5407113  69.9436528  62.2595116  14.4158253  69.1426268  61.7506062
  15.1986205  70.4382721  61.7709086   6.1615282  56.2985260  61.4372257
   5.4401867  56.9121228  61.2979730   6.9508537  56.8343025  61.3588903
  16.6042022  67.7445548  63.8874667  15.6572357  67.6250899  63.8152993
  16.9524795  66.8568046  63.9700928   8.9641595  53.6339687  67.7112908
   9.4875997  53.8801983  68.4739218   8.7453928  54.4659722  67.2916046
   4.3608876  55.9043361  55.5784033   4.0321582  55.0240740  55.3959139
   4.7148247  55.8491030  56.4660422  13.6088455  67.5398264  60.0879019
  13.4613418  66.6114971  60.2686589  14.4341949  67.5618355  59.6036094
   7.4750699  56.1916331  55.9459511   7.8146772  56.7202252  55.2238119
   7.9222820  56.5296737  56.7218077  17.2122577  68.3626823  61.1743892
  18.1369124  68.1569684  61.0368343  17.0437880  68.1143224  62.0833233
  10.1694140  54.5753382  65.3962579   9.8290961  53.7761195  65.7983259
   9.4633147  54.8755093  64.8239412  10.8210612  51.6602694  63.8489902
  11.6436681  51.1863172  63.7268792  11.0648676  52.4393178  64.3488588
   9.4618847  54.6890953  54.1452804  10.1827209  55.0672205  53.6416521
   8.8384151  55.4079830  54.2487782  13.6049969  55.3936102  55.0811136
  13.8213584  56.2760740  54.7799964  13.1244037  55.0022315  54.3516778
   8.3449191  58.3521815  61.6581881   8.1993772  58.6662118  62.5506162
   7.8674394  58.9706715  61.1052779  10.2045574  55.3424363  61.7062770
  10.1907142  54.4465456  61.3695068  10.9218002  55.3495027  62.3401056
  12.0571704  55.7761703  63.7515898  11.7989482  56.6978774  63.7500228
  11.5256745  55.3792138  64.4416362  17.0017893  68.8812490  56.5305983
  17.1754771  68.3158913  55.7779835  17.4946784  69.6813385  56.3485473
   2.8194853  60.8927159  64.5969542   2.2748321  61.6686967  64.7289816
   3.6974203  61.2397964  64.4388663   9.6082470  54.2238743  56.9750340
   9.7298381  53.2955389  57.1741228   9.3184512  54.2377429  56.0628656
  12.4773660  51.9093654  60.1117060  12.4995357  51.9732987  59.1569040
  12.8941719  51.0698162  60.3057566  22.8557284  61.6448913  58.1496283
  23.2988430  60.8956238  57.7515406  21.9783795  61.6359050  57.7670015
  17.9893066  68.1979255  53.6302881  18.6843970  68.8185947  53.8490196
  18.3316216  67.3474606  53.9055259   3.6060875  60.0197056  67.4899699
   2.8642611  60.1679691  68.0764329   3.2853619  60.2805321  66.6266448
  19.8884489  65.6478960  55.1590212  20.4135813  65.9866233  54.4339532
  19.8006841  64.7125975  54.9753347  11.5504538  69.5613034  67.2880089
  11.8591664  69.3162181  68.1602788  12.3480020  69.7659672  66.7998959
  11.5725150  71.7150943  59.5185465  11.1330140  71.2227322  60.2118322
  12.3233267  71.1723911  59.2777540   4.0517489  67.9062484  59.5210093
   4.8775508  67.6066256  59.1408737   3.7011541  67.1370107  59.9699882
   9.0199022  67.2588953  61.5907767   8.3979031  66.5959658  61.2909995
   9.6903889  67.2850084  60.9081415   2.2526094  65.8248811  60.4799027
   1.4158002  65.3970985  60.2983028   2.2249739  66.0181254  61.4169818
   9.0923549  55.7370741  71.1840273   9.1411705  56.6132863  70.8018042
   9.6346063  55.1948134  70.6111916  19.5778395  66.2811864  70.4641410
  18.7873939  66.2636003  69.9245909  19.3411749  66.8200157  71.2190447
  19.6976270  63.1304330  67.7774139  19.7474275  62.9654338  68.7189661
  19.5890193  62.2631589  67.3872019   8.5812529  65.8092876  55.0666227
   8.7300649  66.4928340  54.4132900   9.3878972  65.7897966  55.5815683
  16.9880032  59.1135258  69.0933445  17.8889895  58.9741723  68.8017443
  17.0628007  59.2789713  70.0331623  11.3222838  56.4902113  67.9386632
  10.4526147  56.7835679  67.6669220  11.5582318  57.0742558  68.6593895
  21.1994467  65.5501272  68.0216160  20.9079275  65.9131252  68.8579621
  20.5866598  64.8368280  67.8429492  22.3990149  63.1154151  60.5418730
  23.2337040  63.5543956  60.7056291  22.5349278  62.6392805  59.7226976
  19.4481655  60.6733886  66.4896218  19.9235777  60.8661533  65.6815069
  18.5247220  60.7293072  66.2439602   6.3365162  61.8358053  56.0727296
   6.0911204  60.9320383  56.2707506   6.5061076  61.8375204  55.1306774
  14.0261871  52.7081730  65.4552052  14.5443815  53.4442757  65.1298540
  13.6717004  53.0145723  66.2898811   5.6060809  57.5686411  53.5713458
   4.9130054  57.6430766  52.9153494   5.3612561  56.8046755  54.0934975
  14.2774466  49.1282012  60.9752949  14.5576219  48.4605201  61.6013375
  15.0625073  49.3211108  60.4627612  12.0807934  68.3041006  52.5377975
  11.5081901  68.9231193  52.0848447  12.6540728  68.8540368  53.0717897
  18.1483324  57.5499646  64.7224524  19.1000747  57.6497744  64.7436748
  17.9786774  56.7577915  65.2322608  16.1697703  54.6355230  64.9083925
  15.5747636  54.9160242  64.2130413  15.8847400  55.1249131  65.6800666
  15.3005194  68.5878156  53.6686557  16.2335867  68.5223718  53.8719433
  15.2128407  69.4234423  53.2101090  17.9293211  67.9044027  50.6290505
  17.8506842  67.5703890  51.5226263  18.7502877  68.3965795  50.6281977
  20.6271402  60.7705766  63.8366823  20.5947722  59.8321767  64.0226507
  21.2372025  60.8489803  63.1032648  12.4654733  59.6401819  49.8794027
  13.4113837  59.5108027  49.9482445  12.0868978  58.9016481  50.3563455
  20.7765890  57.5616809  63.8825106  20.2604939  56.7775266  63.6955035
  21.6605839  57.2335526  64.0471626  18.4376617  51.3057825  59.8420919
  18.2401438  50.9972913  60.7264251  19.0476323  52.0319464  59.9718849
  26.4447952  61.8321773  62.9772860  27.1751340  61.5707061  63.5380563
  25.8354897  61.0950495  63.0174928  24.5263249  59.9729635  63.5747311
  23.7996412  59.8385600  62.9663803  24.1110536  60.2806464  64.3804029
  12.3493425  63.6919565  71.3394684  13.2696435  63.8698164  71.5334731
  12.3143008  62.7475611  71.1874384  10.6497650  57.5651795  49.8148913
   9.7429105  57.2684908  49.8911626  10.9273631  57.2681614  48.9483199
   1.5675590  58.8858159  60.2647959   1.2478375  58.0323467  59.9722333
   1.0209018  59.1006737  61.0205926   5.3455498  61.6020600  63.9817465
   5.5641508  62.5337708  64.0005499   5.7581272  61.2428574  64.7672269
  12.2659716  52.1088685  55.9693154  11.4560444  51.7635770  56.3448400
  12.9544132  51.7996229  56.5580765  14.1950264  51.1866732  57.5917450
  14.7481302  51.6062185  58.2507474  14.4320350  50.2602480  57.6340406
  10.2183363  57.1753806  73.3720214  10.1180090  58.1248163  73.3032305
  10.0004905  56.8472044  72.4996284   9.4196434  54.4238731  49.9560892
  10.2815598  54.7493629  50.2156709   9.6046779  53.6370227  49.4433958
   1.4363850  62.5061070  62.2341081   0.7427322  62.0915023  61.7211035
   2.1836841  62.5481607  61.6374499  17.5729071  53.2967257  57.0996115
  16.9927740  53.9552061  56.7174167  17.3065004  52.4744602  56.6883532
  16.0232637  52.6972315  59.3017435  16.5232416  52.8088849  58.4931754
  16.6668245  52.3933368  59.9418244  10.0814633  60.6050944  72.1885276
   9.5981715  61.4051305  72.3949165  10.1675572  60.6158889  71.2352720
   3.3500593  62.4379324  60.1107095   3.3271281  62.5367011  59.1588979
   3.6601229  63.2844475  60.4324262   6.0087971  64.4955479  64.2253710
   6.9631224  64.4639421  64.1583641   5.8100494  64.0346103  65.0403936
   6.5987353  63.0656595  66.7924507   7.4180242  63.5600674  66.8159345
   6.8724160  62.1488563  66.7642075  16.3553949  55.4567347  56.1552463
  15.4679804  55.7416998  55.9372658  16.7707938  55.2961111  55.3079740
  19.7068485  55.4813868  59.8706802  20.4828875  55.9710321  60.1431419
  18.9816619  55.9071923  60.3278672  22.1441044  56.1941488  60.9280743
  22.7385534  55.9537224  60.2174051  22.2167627  55.4748618  61.5554279
   4.3638199  70.0375099  61.2423908   4.2292667  69.2775500  60.6761906
   3.9470262  70.7615998  60.7752697  15.4997162  65.2212022  50.2500483
  16.2033013  65.4262025  50.8658139  14.7759811  65.7888784  50.5149567
  16.3294973  60.9721883  56.3702753  16.2730174  61.4290435  55.5310386
  16.8823315  60.2112568  56.1925596  20.1399779  56.7611615  57.1952873
  19.8836713  56.3608251  58.0261080  19.5152647  57.4755409  57.0703012
  24.4512116  59.5007689  59.7024164  23.8911674  59.5700878  60.4755726
  23.8455620  59.3248673  58.9823660   7.5207325  70.9344416  61.4542350
   7.4039709  71.8789848  61.3521041   6.6999772  70.6317977  61.8428150
  17.4083860  65.6594551  52.2998943  18.2429464  65.2275750  52.1176418
  17.2468203  65.4876565  53.2275838  17.0629752  62.1626665  53.6655282
  17.0078556  61.9970936  52.7243726  16.4375807  62.8702698  53.8217472
   1.8522267  57.3994729  67.4916705   2.4981131  56.8893683  67.9803930
   1.6439418  58.1363411  68.0660130  14.3775659  64.4675577  72.9908845
  15.2466819  64.6416229  72.6295480  13.8982411  65.2869993  72.8684574
  10.3725877  51.6634774  53.2440601  10.3604547  52.6076614  53.4008872
  11.2649299  51.4804919  52.9500062   8.5461839  71.5872678  64.6698279
   9.4489086  71.6196288  64.9864774   8.3199209  70.6573128  64.6844615
  10.3015441  70.3403664  61.3308357   9.3511072  70.3405526  61.2172730
  10.6047928  69.5936399  60.8144392  14.1877997  48.2577550  57.4986538
  13.4210393  47.7036037  57.6443220  14.5988702  48.3299419  58.3600689
   6.1919758  54.5462346  71.5891719   7.0551220  54.1899151  71.7995043
   5.6185169  54.2076241  72.2767123  18.7044657  77.9827107  58.3212535
  18.1409522  77.8917044  57.5528823  18.5897052  77.1627011  58.8015028
  16.2509089  79.4778299  61.1596756  17.0430381  79.1369123  60.7443055
  16.4905739  79.5873274  62.0798909  24.2844216  81.6498075  53.6327000
  23.6332195  82.2352155  53.2461014  25.0788578  82.1804270  53.6922038
  18.2099843  78.7387212  54.0314135  18.9830719  78.1916199  53.8927010
  18.5625242  79.6031461  54.2428596  20.0484885  80.0663594  67.2381034
  19.7574751  80.9709225  67.1227700  20.6841870  80.1080122  67.9525104
  20.9741092  77.4440443  63.8282394  21.5704664  77.2196465  63.1139357
  21.0316064  76.7025188  64.4307841  20.5466121  74.8979878  51.6632585
  20.7991641  74.3761399  50.9016048  19.6090680  74.7346023  51.7659268
  25.7619481  79.3388507  54.1695985  25.1265314  79.4123133  54.8816889
  25.4316887  79.9282105  53.4915064  20.2662409  76.8007984  53.8656960
  20.1498667  76.1252887  54.5338044  20.3764669  76.3140358  53.0489113
  22.6093950  76.2618131  57.5703649  22.2452157  75.7348752  58.2816570
  23.4661066  75.8716600  57.3970134  22.2499437  71.2908031  52.5664997
  22.4173840  72.1588267  52.9335468  22.0596606  71.4535312  51.6426287
  25.0074770  79.7525010  64.2330828  24.7075493  80.6550048  64.1246635
  24.6625830  79.4857193  65.0851981  18.4587252  76.2038806  60.2667532
  17.5337748  76.0715021  60.4745224  18.7071665  76.9833026  60.7637475
  22.2288658  73.7465688  53.5511664  22.1088283  74.1922739  54.3897144
  21.5341246  74.0951006  52.9925202  15.8196063  75.8472080  61.1011321
  15.9488444  76.1006559  62.0150733  15.1393514  76.4399788  60.7815976
  19.9895550  86.5169330  57.2001795  19.9119580  87.4677155  57.2790276
  19.3857194  86.1715202  57.8576722  27.9273724  74.2187161  54.3791998
  28.8391580  74.4514548  54.2039696  27.4183371  74.8024206  53.8167077
  20.7359152  76.4982649  69.4181129  21.4773837  77.0367693  69.1415953
  20.0296138  77.1248938  69.5752681  26.5343307  79.2012980  61.7705580
  25.9052169  79.3658694  61.0681647  26.1468969  79.6154589  62.5416544
  30.4132538  80.1367418  59.1249943  29.7283577  80.5166319  58.5746977
  30.4976388  80.7462744  59.8581891  22.0871268  78.9387388  59.0355665
  22.5509614  79.2175091  58.2460287  21.8228067  78.0370833  58.8528755
  18.9795349  78.4858869  61.9735428  19.5496707  78.9146138  61.3352912
  19.5703461  78.2041454  62.6719614  21.0240154  75.0610540  55.8445230
  21.7264198  75.5131584  56.3119156  20.6920783  74.4194359  56.4725123
  19.4720516  73.6522297  70.2196439  18.8419177  74.3338578  70.4531836
  19.3656604  73.5405379  69.2749578  14.7665488  73.3194093  61.1462363
  13.9764542  73.5751622  60.6702474  15.2576736  74.1342431  61.2514404
  28.7829298  80.6599332  63.8967644  29.6046742  80.2579519  63.6150326
  28.7791701  80.5567566  64.8483760  16.7180234  73.6838672  58.1045840
  15.9211397  73.7957366  58.6229336  16.4905826  74.0225324  57.2386731
  22.5485901  80.2083375  66.0528355  22.6130334  80.6703783  66.8886527
  21.8396825  79.5780740  66.1810665  13.0503191  73.5724583  63.5777354
  13.3011230  74.4571593  63.8434930  13.5862740  73.3929185  62.8052446
  22.2633919  81.8751483  55.9207335  22.1279594  82.7203019  56.3492183
  22.8043732  82.0770761  55.1573269  18.7501259  67.9543063  72.5821690
  18.3568204  67.4009261  73.2569335  19.5667399  68.2653641  72.9728208
  15.7163316  79.3926921  56.4935260  16.2287837  80.1870171  56.6440825
  16.3686029  78.6953211  56.4268862  17.5258201  82.5092677  58.5758013
  17.7024830  83.4310642  58.3878997  18.3215035  82.1951096  59.0052393
  21.6669220  69.3700942  70.1741947  22.4078933  69.9708095  70.0946409
  21.8987143  68.6278580  69.6159989  16.8110558  74.5557309  68.4520177
  16.6964073  73.6542566  68.7527275  15.9555075  74.8021006  68.1004993
  23.8902395  82.4975049  70.0507677  23.4466250  81.7111428  69.7328582
  24.5519609  82.6854200  69.3851568  18.6489517  84.0270851  64.5768356
  19.1996942  83.8987914  63.8045350  17.8100993  84.3265740  64.2263248
  25.9883634  82.7777849  68.0789078  25.9702109  83.5986730  67.5869348
  26.9103554  82.6531925  68.3039220  22.4456688  80.2921979  68.9212587
  22.9785024  79.5310267  68.6911895  21.9170769  79.9995631  69.6636741
  13.6812233  77.7215575  57.2694831  14.5187455  78.1312584  57.0528538
  13.8590501  76.7815017  57.2395025  25.5776665  75.3890656  52.9578664
  25.0623289  76.1595261  53.1967051  25.3053974  74.7155792  53.5811725
  23.1623776  70.2340357  58.0163902  22.3065373  69.8447207  57.8369541
  23.5750728  70.3132317  57.1563688  20.9365809  67.8525430  61.4221644
  21.8018806  67.6568238  61.0627533  21.0043318  67.6235781  62.3491000
  30.5510940  78.1423011  54.8931837  29.7740382  77.8034170  54.4486999
  31.2302420  78.1475634  54.2186802  25.3662969  73.2617748  54.7838445
  25.0613104  73.5763897  55.6348588  26.3193411  73.3399168  54.8265778
  23.8109400  79.4207971  56.4331399  23.2830762  78.6860731  56.1204636
  23.3096903  80.1982648  56.1871367  18.5428128  70.0827638  58.7938010
  19.1171880  69.8602819  58.0611203  19.1299110  70.1516332  59.5466612
  18.8697715  72.1132099  52.8133896  18.0335027  72.4506785  53.1343170
  18.7302485  71.9781078  51.8761033  20.8450796  66.9568887  57.5213080
  20.1915208  66.6417904  56.8969695  20.8031270  66.3344627  58.2472903
  21.9562001  77.2388182  49.4366372  21.0489062  77.0077435  49.6357521
  22.4533033  76.4425801  49.6240353  24.8630079  85.9485689  52.3563058
  24.1891778  86.2517386  52.9648016  25.2495901  86.7514769  52.0068515
  23.1350234  77.3400776  53.9590362  22.2261453  77.0559809  54.0562832
  23.1645318  77.7599855  53.0993669  28.3669501  80.9507366  57.7281530
  27.9131829  80.1098276  57.7846720  27.7363468  81.5868764  58.0656310
  26.8102441  82.7883863  58.6631348  27.1025415  83.3488920  57.9443713
  27.3201061  83.0812424  59.4184507  27.4114048  64.6575604  59.5523966
  27.7172925  63.7972967  59.2649881  28.1366653  65.2493224  59.3522960
  13.7038404  75.0606291  57.9405564  13.5062804  74.4675651  57.2156631
  13.1485068  74.7558501  58.6581503  22.8326322  78.8809520  51.2978441
  22.3945752  78.1645379  50.8384078  23.5736763  79.1085635  50.7363532
  19.6227488  73.5706457  57.8190536  18.8095354  73.8700627  58.2255728
  20.1186482  73.1762146  58.5365018  21.7736066  83.5664214  59.7524801
  21.7312245  83.7925060  58.8233333  22.6898765  83.3327588  59.9010602
  30.9499437  77.1566717  57.3554759  30.8117335  77.3468313  56.4275948
  30.5935655  77.9186100  57.8122810  19.1141563  71.1424812  63.4351771
  19.7540942  71.0013571  62.7374734  18.2819093  70.8559326  63.0590373
  19.8901867  80.4427243  59.5486764  20.6842465  79.9477563  59.3469339
  19.1793559  79.9145106  59.1854469  24.7096711  82.8245338  63.8999131
  24.7633733  83.3936275  64.6676847  23.8411492  82.9947223  63.5353168
  16.1984630  74.5870324  55.6246516  15.2682218  74.5254780  55.8416478
  16.2942102  74.0646277  54.8283158  16.1170179  71.1125137  58.2124758
  16.3776996  72.0270471  58.1033918  16.9387351  70.6449580  58.3621371
  17.5895104  72.5262894  65.3823582  18.2618158  72.3180257  64.7336231
  16.7624891  72.3284980  64.9428815  22.4673143  81.0156265  63.2284601
  22.3284228  80.6475049  64.1010539  21.6787739  81.5303904  63.0568558
  23.0621295  86.1165361  54.5710137  23.2373050  85.6453404  55.3855760
  22.3754083  86.7431127  54.7991398  24.0178358  80.3937867  60.6173438
  23.6828190  80.3538637  61.5131088  23.5182303  79.7282583  60.1443849
  17.9922602  75.8005497  66.1426020  17.8542400  75.0685736  66.7437559
  18.9027525  75.7114398  65.8610207  26.9537549  77.7393902  50.8910498
  26.3366720  77.0140730  50.7943551  26.4854038  78.5003262  50.5477572
  28.6091681  82.4492810  68.5516278  28.5504227  81.7652030  67.8846862
  29.0111199  83.1911800  68.0996904  17.6282380  89.2654724  61.3449997
  17.8678978  89.8973248  62.0229016  16.7851576  88.9142764  61.6315357
  18.7436095  71.9579326  50.0131802  17.8665562  71.8368127  49.6494049
  19.2193848  71.1665404  49.7610691  28.6109088  80.4132394  66.7830258
  27.7235867  80.0758316  66.9056657  29.1807639  79.6815425  67.0199024
  10.2638235  76.7456486  60.1073310  10.9509275  76.4318216  59.5194325
  10.1086364  77.6497850  59.8340561  15.0672958  71.6346682  64.5358333
  14.9831146  71.0272352  63.8008743  14.2455664  72.1255701  64.5367830
  22.1410242  85.0733846  63.7491501  22.0680413  85.8788818  64.2610806
  21.6987635  85.2725812  62.9239523  21.9300021  84.3105616  57.2594323
  21.1467543  84.8527297  57.3532547  22.6292767  84.8279596  57.6588564
  24.6008925  84.9720680  65.9049660  25.3136897  85.6068145  65.8325561
  24.1098954  85.0684546  65.0889662  26.3226452  78.8771933  57.4766952
  25.3882731  78.9973396  57.3071656  26.5003121  77.9744400  57.2126962
  19.6520839  82.7215124  66.7255231  20.3530298  83.3551607  66.8784625
  19.1815954  83.0629855  65.9650870  27.7775235  81.0633074  55.0103138
  28.0535079  80.9489668  55.9197012  26.9079733  80.6650559  54.9715311
  24.4129299  85.3119425  58.6535951  24.5951693  84.4941080  59.1163704
  25.2362285  85.5287117  58.2160841  24.7471464  84.2387610  55.9151000
  25.2759231  83.7280064  55.3021162  25.0099684  83.9230140  56.7796533
  15.2488557  82.2551479  63.6586334  15.8341994  81.5095167  63.7914238
  15.0513395  82.5655436  64.5422997  18.1027212  85.2902726  58.6748776
  17.4337587  85.7748854  58.1912816  17.9640082  85.5371947  59.5892154
   9.8406212  74.8257079  62.3790777   9.8790311  74.2920670  63.1727895
   9.3346504  74.2992285  61.7601754  22.2432481  87.3246470  65.2731434
  22.7950789  87.4878091  66.0380519  22.5838674  87.9150908  64.6011459
  17.2196974  69.6721620  65.8753319  17.2838300  70.5336451  65.4630717
  17.1564094  69.0595621  65.1425677  16.6949246  71.7444752  69.5226353
  17.3221285  71.3621830  70.1363878  15.8377165  71.5258954  69.8882046
  27.0943355  82.1507727  71.1280089  27.6383259  82.7637686  70.6335043
  26.5130200  82.7087306  71.6447102  13.4714789  73.5521181  55.4544708
  13.7668230  72.6431860  55.4011762  12.5702825  73.5308921  55.1325710
  25.3800868  85.2728445  62.2595116  25.2552007  84.4718185  61.7506062
  26.0379959  85.7674639  61.7709086  17.0009036  71.6277178  61.4372257
  16.2795622  72.2413146  61.2979730  17.7902292  72.1634943  61.3588903
  27.4435776  83.0737465  63.8874667  26.4966112  82.9542817  63.8152993
  27.7918549  82.1859964  63.9700928  19.8035350  68.9631604  67.7112908
  20.3269752  69.2093901  68.4739218  19.5847683  69.7951639  67.2916046
  15.2002631  71.2335279  55.5784033  14.8715337  70.3532658  55.3959139
  15.5542001  71.1782948  56.4660422  24.4482210  82.8690182  60.0879019
  24.3007172  81.9406889  60.2686589  25.2735703  82.8910272  59.6036094
  18.3144454  71.5208249  55.9459511  18.6540526  72.0494170  55.2238119
  18.7616574  71.8588655  56.7218077  28.0516331  83.6918740  61.1743892
  28.9762879  83.4861602  61.0368343  27.8831635  83.4435142  62.0833233
  21.6604367  66.9894612  63.8489902  22.4830436  66.5155090  63.7268792
  21.9042430  67.7685096  64.3488588  20.3012601  70.0182870  54.1452804
  21.0220964  70.3964123  53.6416521  19.6777905  70.7371747  54.2487782
  24.4443724  70.7228019  55.0811136  24.6607338  71.6052657  54.7799964
  23.9637791  70.3314233  54.3516778  19.1842945  73.6813733  61.6581881
  19.0387526  73.9954036  62.5506162  18.7068149  74.2998633  61.1052779
  21.0439328  70.6716281  61.7062770  21.0300897  69.7757374  61.3695068
  21.7611756  70.6786944  62.3401056  27.8411648  84.2104408  56.5305983
  28.0148525  83.6450830  55.7779835  28.3340539  85.0105303  56.3485473
  13.6588607  76.2219077  64.5969542  13.1142076  76.9978885  64.7289816
  14.5367957  76.5689881  64.4388663  20.4476224  69.5530661  56.9750340
  20.5692135  68.6247307  57.1741228  20.1578267  69.5669347  56.0628656
  23.3167415  67.2385571  60.1117060  23.3389111  67.3024904  59.1569040
  23.7335474  66.3990080  60.3057566  33.6951039  76.9740831  58.1496283
  34.1382185  76.2248156  57.7515406  32.8177549  76.9650967  57.7670015
  28.8286820  83.5271172  53.6302881  29.5237725  84.1477865  53.8490196
  29.1709970  82.6766524  53.9055259  14.4454629  75.3488973  67.4899699
  13.7036365  75.4971609  68.0764329  14.1247374  75.6097239  66.6266448
  30.7278243  80.9770878  55.1590212  31.2529567  81.3158151  54.4339532
  30.6400596  80.0417893  54.9753347  22.3898292  84.8904951  67.2880089
  22.6985418  84.6454098  68.1602788  23.1873774  85.0951590  66.7998959
  22.4118904  87.0442861  59.5185465  21.9723894  86.5519240  60.2118322
  23.1627021  86.5015829  59.2777540  14.8911243  83.2354402  59.5210093
  15.7169263  82.9358174  59.1408737  14.5405295  82.4662024  59.9699882
  19.8592776  82.5880870  61.5907767  19.2372785  81.9251575  61.2909995
  20.5297643  82.6142002  60.9081415  13.0919848  81.1540728  60.4799027
  12.2551756  80.7262903  60.2983028  13.0643494  81.3473172  61.4169818
  19.9317304  71.0662658  71.1840273  19.9805459  71.9424781  70.8018042
  20.4739818  70.5240051  70.6111916  30.4172149  81.6103781  70.4641410
  29.6267693  81.5927920  69.9245909  30.1805504  82.1492075  71.2190447
  19.4206283  81.1384794  55.0666227  19.5694403  81.8220258  54.4132900
  20.2272727  81.1189884  55.5815683  32.0388221  80.8793189  68.0216160
  31.7473030  81.2423170  68.8579621  31.4260353  80.1660198  67.8429492
  33.2383904  78.4446069  60.5418730  34.0730795  78.8835873  60.7056291
  33.3743032  77.9684722  59.7226976  17.1758916  77.1649971  56.0727296
  16.9304958  76.2612301  56.2707506  17.3454831  77.1667122  55.1306774
  16.4454564  72.8978329  53.5713458  15.7523809  72.9722684  52.9153494
  16.2006316  72.1338672  54.0934975  25.1168220  64.4573930  60.9752949
  25.3969974  63.7897119  61.6013375  25.9018827  64.6503026  60.4627612
  22.9201689  83.6332924  52.5377975  22.3475656  84.2523111  52.0848447
  23.4934482  84.1832286  53.0717897  26.1398948  83.9170074  53.6686557
  27.0729622  83.8515636  53.8719433  26.0522161  84.7526341  53.2101090
  28.7686965  83.2335944  50.6290505  28.6900597  82.8995808  51.5226263
  29.5896632  83.7257712  50.6281977  23.3048487  74.9693737  49.8794027
  24.2507592  74.8399945  49.9482445  22.9262732  74.2308399  50.3563455
  29.2770372  66.6349743  59.8420919  29.0795193  66.3264831  60.7264251
  29.8870077  67.3611382  59.9718849  23.1887180  79.0211483  71.3394684
  24.1090189  79.1990082  71.5334731  23.1536763  78.0767528  71.1874384
  21.4891404  72.8943713  49.8148913  20.5822860  72.5976826  49.8911626
  21.7667385  72.5973531  48.9483199  12.4069345  74.2150077  60.2647959
  12.0872129  73.3615385  59.9722333  11.8602773  74.4298655  61.0205926
  16.1849252  76.9312518  63.9817465  16.4035262  77.8629625  64.0005499
  16.5975026  76.5720492  64.7672269  23.1053470  67.4380603  55.9693154
  22.2954198  67.0927688  56.3448400  23.7937887  67.1288147  56.5580765
  25.0344018  66.5158650  57.5917450  25.5875057  66.9354103  58.2507474
  25.2714105  65.5894398  57.6340406  21.0577118  72.5045723  73.3720214
  20.9573844  73.4540080  73.3032305  20.8398660  72.1763962  72.4996284
  20.2590189  69.7530648  49.9560892  21.1209353  70.0785547  50.2156709
  20.4440533  68.9662144  49.4433958  12.2757605  77.8352988  62.2341081
  11.5821076  77.4206941  61.7211035  13.0230596  77.8773525  61.6374499
  28.4122825  68.6259175  57.0996115  27.8321494  69.2843979  56.7174167
  28.1458758  67.8036519  56.6883532  26.8626392  68.0264232  59.3017435
  27.3626170  68.1380767  58.4931754  27.5062000  67.7225285  59.9418244
  20.9208388  75.9342862  72.1885276  20.4375469  76.7343222  72.3949165
  21.0069327  75.9450807  71.2352720  14.1894347  77.7671242  60.1107095
  14.1665035  77.8658929  59.1588979  14.4994984  78.6136393  60.4324262
  16.8481725  79.8247397  64.2253710  17.8024979  79.7931339  64.1583641
  16.6494249  79.3638021  65.0403936  17.4381107  78.3948513  66.7924507
  18.2573996  78.8892592  66.8159345  17.7117915  77.4780481  66.7642075
  27.1947703  70.7859265  56.1552463  26.3073558  71.0708916  55.9372658
  27.6101692  70.6253029  55.3079740  15.2031954  85.3667016  61.2423908
  15.0686422  84.6067417  60.6761906  14.7864016  86.0907916  60.7752697
  26.3390917  80.5503940  50.2500483  27.0426767  80.7553942  50.8658139
  25.6153566  81.1180702  50.5149567  27.1688727  76.3013801  56.3702753
  27.1123929  76.7582353  55.5310386  27.7217070  75.5404486  56.1925596
  35.2905871  74.8299606  59.7024164  34.7305429  74.8992796  60.4755726
  34.6849374  74.6540591  58.9823660  18.3601080  86.2636333  61.4542350
  18.2433464  87.2081766  61.3521041  17.5393526  85.9609895  61.8428150
  28.2477614  80.9886469  52.2998943  29.0823218  80.5567668  52.1176418
  28.0861957  80.8168483  53.2275838  27.9023506  77.4918582  53.6655282
  27.8472310  77.3262854  52.7243726  27.2769562  78.1994615  53.8217472
  12.6916021  72.7286647  67.4916705  13.3374885  72.2185601  67.9803930
  12.4833173  73.4655328  68.0660130  25.2169414  79.7967494  72.9908845
  26.0860573  79.9708147  72.6295480  24.7376165  80.6161911  72.8684574
  21.2119632  66.9926691  53.2440601  21.1998302  67.9368531  53.4008872
  22.1043054  66.8096837  52.9500062  19.3855594  86.9164595  64.6698279
  20.2882841  86.9488205  64.9864774  19.1592964  85.9865046  64.6844615
  21.1409196  85.6695582  61.3308357  20.1904827  85.6697443  61.2172730
  21.4441682  84.9228316  60.8144392  25.0271751  63.5869468  57.4986538
  24.2604147  63.0327955  57.6443220  25.4382456  63.6591337  58.3600689
  17.0313512  69.8754264  71.5891719  17.8944974  69.5191069  71.7995043
  16.4578923  69.5368159  72.2767123  36.8761889  91.5056120  62.3954120
  37.5140299  91.3862868  61.6917460  36.7582732  92.4536964  62.4542072
  33.6851596  91.4583548  62.3315644  33.3470107  91.3424613  61.4436179
  34.5541364  91.0574713  62.3116651  29.5438411  93.3119025  58.3212535
  28.9803276  93.2208962  57.5528823  29.4290806  92.4918929  58.8015028
  34.1671379  92.6118400  68.2901850  34.1560019  92.2171198  67.4182354
  34.3292018  91.8784473  68.8835621  27.0902843  94.8070216  61.1596756
  27.8824135  94.4661041  60.7443055  27.3299493  94.9165191  62.0798909
  35.1237970  96.9789992  53.6327000  34.4725950  97.5644073  53.2461014
  35.9182333  97.5096187  53.6922038  29.0493597  94.0679130  54.0314135
  29.8224473  93.5208117  53.8927010  29.4018996  94.9323379  54.2428596
  30.8878640  95.3955512  67.2381034  30.5968506  96.3001143  67.1227700
  31.5235624  95.4372039  67.9525104  31.8134847  92.7732360  63.8282394
  32.4098419  92.5488383  63.1139357  31.8709818  92.0317106  64.4307841
  31.3859875  90.2271796  51.6632585  31.6385396  89.7053317  50.9016048
  30.4484434  90.0637941  51.7659268  36.4303158  89.2307574  59.4707328
  37.2166247  88.8126997  59.1197745  36.6941862  90.1353666  59.6388976
  36.6013235  94.6680424  54.1695985  35.9659068  94.7415051  54.8816889
  36.2710642  95.2574023  53.4915064  41.8311585  89.1682807  60.3740306
  42.5636757  88.5982024  60.6078136  41.0750941  88.7804408  60.8146812
  31.1056164  92.1299902  53.8656960  30.9892422  91.4544805  54.5338044
  31.2158424  91.6432276  53.0489113  33.4487705  91.5910049  57.5703649
  33.0845912  91.0640670  58.2816570  34.3054821  91.2008518  57.3970134
  33.0893192  86.6199948  52.5664997  33.2567594  87.4880185  52.9335468
  32.8990361  86.7827230  51.6426287  35.8468525  95.0816927  64.2330828
  35.5469248  95.9841966  64.1246635  35.5019584  94.8149111  65.0851981
  29.2981006  91.5330724  60.2667532  28.3731503  91.4006938  60.4745224
  29.5465420  92.3124943  60.7637475  39.2465669  87.5999467  61.9128265
  38.3382546  87.5314876  61.6187026  39.1953264  88.0771412  62.7410090
  33.0682413  89.0757606  53.5511664  32.9482038  89.5214657  54.3897144
  32.3735001  89.4242924  52.9925202  26.6589817  91.1763998  61.1011321
  26.7882199  91.4298477  62.0150733  25.9787269  91.7691706  60.7815976
  30.8289305 101.8461248  57.2001795  30.7513334 102.7969073  57.2790276
  30.2250948 101.5007120  57.8576722  33.3206534  89.0189113  69.8563162
  32.5439868  89.5783033  69.8466027  33.9597097  89.5045896  70.3778032
  41.1127315  85.8015906  63.6906139  40.4701695  86.0948439  63.0445934
  40.6082244  85.6868826  64.4959336  38.7667479  89.5479079  54.3791998
  39.6785335  89.7806466  54.2039696  38.2577126  90.1316123  53.8167077
  31.5752907  91.8274566  69.4181129  32.3167591  92.3659610  69.1415953
  30.8689892  92.4540855  69.5752681  37.0508246  93.9703707  68.0153291
  37.4591602  93.5286117  67.2707923  36.3285508  93.3956334  68.2687484
  33.4039316  88.9076314  65.3886848  34.2500512  89.3315727  65.5321497
  33.3437954  88.2509938  66.0825411  37.3737061  94.5304898  61.7705580
  36.7445923  94.6950612  61.0681647  36.9862723  94.9446507  62.5416544
  41.2526293  95.4659335  59.1249943  40.5677331  95.8458237  58.5746977
  41.3370142  96.0754662  59.8581891  36.5538762  86.5680682  67.0468021
  36.3099694  87.3222743  66.5102297  36.8298692  86.9466030  67.8815268
  38.5077225  93.1119294  65.7245287  38.7194120  93.7551054  65.0479668
  38.4606973  92.2781611  65.2567217  36.1103453  85.7237115  62.6281859
  35.2487933  86.0218369  62.9198597  36.1365888  85.9407514  61.6962892
  32.9265023  94.2679306  59.0355665  33.3903368  94.5467009  58.2460287
  32.6621821  93.3662750  58.8528755  29.8189104  93.8150787  61.9735428
  30.3890461  94.2438056  61.3352912  30.4097216  93.5333372  62.6719614
  31.8633909  90.3902458  55.8445230  32.5657952  90.8423502  56.3119156
  31.5314537  89.7486277  56.4725123  30.3114270  88.9814215  70.2196439
  29.6812931  89.6630495  70.4531836  30.2050358  88.8697296  69.2749578
  25.6059243  88.6486011  61.1462363  24.8158297  88.9043539  60.6702474
  26.0970490  89.4634349  61.2514404  39.6223052  95.9891250  63.8967644
  40.4440496  95.5871437  63.6150326  39.6185455  95.8859484  64.8483760
  27.5573988  89.0130590  58.1045840  26.7605152  89.1249284  58.6229336
  27.3299580  89.3517242  57.2386731  33.3879656  95.5375293  66.0528355
  33.4524088  95.9995700  66.8886527  32.6790580  94.9072658  66.1810665
  23.8896946  88.9016501  63.5777354  24.1404984  89.7863511  63.8434930
  24.4256494  88.7221103  62.8052446  47.7129046  92.3329998  60.2452616
  46.9592754  91.7637396  60.0896620  47.8476587  92.2992663  61.1923250
  33.1027674  97.2043401  55.9207335  32.9673348  98.0494936  56.3492183
  33.6437486  97.4062678  55.1573269  29.5895013  83.2834980  72.5821690
  29.1961959  82.7301179  73.2569335  30.4061154  83.5945559  72.9728208
  26.5557071  94.7218839  56.4935260  27.0681592  95.5162089  56.6440825
  27.2079784  94.0245129  56.4268862  28.3651956  97.8384595  58.5758013
  28.5418584  98.7602560  58.3878997  29.1608789  97.5243014  59.0052393
  32.5062974  84.6992860  70.1741947  33.2472688  85.3000013  70.0946409
  32.7380897  83.9570497  69.6159989  27.6504312  89.8849227  68.4520177
  27.5357827  88.9834484  68.7527275  26.7948830  90.1312924  68.1004993
  34.7296150  97.8266967  70.0507677  34.2860004  97.0403346  69.7328582
  35.3913364  98.0146118  69.3851568  29.4883271  99.3562769  64.5768356
  30.0390696  99.2279832  63.8045350  28.6494747  99.6557658  64.2263248
  36.8277388  98.1069767  68.0789078  36.8095863  98.9278648  67.5869348
  37.7497308  97.9823842  68.3039220  33.2850442  95.6213897  68.9212587
  33.8178779  94.8602185  68.6911895  32.7564523  95.3287548  69.6636741
  24.5205988  93.0507493  57.2694831  25.3581210  93.4604501  57.0528538
  24.6984255  92.1106935  57.2395025  36.4170420  90.7182574  52.9578664
  35.9017043  91.4887178  53.1967051  36.1447728  90.0447710  53.5811725
  34.0017531  85.5632274  58.0163902  33.1459127  85.1739125  57.8369541
  34.4144483  85.6424235  57.1563688  35.5316678  83.0978618  62.4155462
  35.0281473  83.0608753  61.6023267  35.8247284  84.0071360  62.4752118
  31.7759563  83.1817347  61.4221644  32.6412560  82.9860156  61.0627533
  31.8437072  82.9527699  62.3491000  41.3904694  93.4714928  54.8931837
  40.6134137  93.1326088  54.4486999  42.0696175  93.4767551  54.2186802
  36.2056723  88.5909666  54.7838445  35.9006859  88.9055815  55.6348588
  37.1587165  88.6691086  54.8265778  34.6503155  94.7499889  56.4331399
  34.1224516  94.0152649  56.1204636  34.1490658  95.5274565  56.1871367
  39.6296001  92.9448909  61.5498445  38.9719675  93.6348171  61.6378574
  40.4336400  93.3345341  61.8932431  29.3821882  85.4119555  58.7938010
  29.9565634  85.1894737  58.0611203  29.9692865  85.4808250  59.5466612
  38.4401460  91.2993282  59.6002387  38.9533341  91.9323274  60.1024097
  39.0902684  90.6994478  59.2345747  29.7091470  87.4424016  52.8133896
  28.8728782  87.7798703  53.1343170  29.5696239  87.3072996  51.8761033
  31.6844550  82.2860804  57.5213080  31.0308963  81.9709821  56.8969695
  31.6425024  81.6636545  58.2472903  32.7955755  92.5680099  49.4366372
  31.8882817  92.3369353  49.6357521  33.2926787  91.7717719  49.6240353
  35.7023834 101.2777606  52.3563058  35.0285533 101.5809303  52.9648016
  36.0889656 102.0806687  52.0068515  34.9182291  88.7742738  61.8460727
  34.0004852  88.9957685  61.6882415  35.3342434  88.8489048  60.9872435
  35.7017338  90.1734153  56.9763408  36.4489157  90.6855551  56.6670530
  35.9708928  89.8518206  57.8367801  33.9743989  92.6692694  53.9590362
  33.0655208  92.3851727  54.0562832  34.0039072  93.0891773  53.0993669
  39.2063256  96.2799284  57.7281530  38.7525583  95.4390194  57.7846720
  38.5757223  96.9160682  58.0656310  38.1496175  87.2091270  58.9582197
  37.4118932  86.6968656  59.2892440  38.4022949  86.7691651  58.1465474
  37.6496195  98.1175780  58.6631348  37.9419170  98.6780837  57.9443713
  38.1594816  98.4104341  59.4184507  38.2507803  79.9867522  59.5523966
  38.5566680  79.1264885  59.2649881  38.9760408  80.5785142  59.3522960
  24.5432159  90.3898208  57.9405564  24.3456559  89.7967569  57.2156631
  23.9878823  90.0850418  58.6581503  32.5228883  90.2821315  60.0600157
  32.5777492  89.3295151  59.9842634  31.7120085  90.4380754  60.5441456
  33.6720076  94.2101438  51.2978441  33.2339506  93.4937297  50.8384078
  34.4130517  94.4377553  50.7363532  30.4621242  88.8998374  57.8190536
  29.6489108  89.1992545  58.2255728  30.9580237  88.5054063  58.5365018
  32.6129820  98.8956131  59.7524801  32.5705999  99.1216978  58.8233333
  33.5292519  98.6619506  59.9010602  36.0595454  89.3640199  66.6505430
  36.4144842  89.5911672  67.5099896  36.7067585  89.6958576  66.0282685
  41.7893191  92.4858635  57.3554759  41.6511090  92.6760231  56.4275948
  41.4329410  93.2478018  57.8122810  29.9535317  86.4716730  63.4351771
  30.5934697  86.3305489  62.7374734  29.1212848  86.1851243  63.0590373
  41.8162571  94.5535162  62.3666031  42.2499077  94.4610451  63.2149085
  42.5294151  94.5292662  61.7286047  30.7295621  95.7719160  59.5486764
  31.5236220  95.2769481  59.3469339  30.0187314  95.2437024  59.1854469
  35.5490466  98.1537256  63.8999131  35.6027488  98.7228192  64.6676847
  34.6805247  98.3239141  63.5353168  27.0378385  89.9162242  55.6246516
  26.1075973  89.8546698  55.8416478  27.1335857  89.3938195  54.8283158
  26.9563934  86.4417055  58.2124758  27.2170751  87.3562388  58.1033918
  27.7781106  85.9741498  58.3621371  28.4288859  87.8554812  65.3823582
  29.1011912  87.6472174  64.7336231  27.6018646  87.6576898  64.9428815
  42.6778120  94.5958863  64.8998916  42.8714010  95.5004673  65.1458191
  42.5778738  94.1366282  65.7337501  34.3314431  84.4816753  67.3989243
  33.6842346  85.1806703  67.3053720  35.1015446  84.9152897  67.7665492
  37.7393229  94.7465605  70.4739797  37.5878735  94.5176157  69.5569880
  37.7297908  95.7036207  70.4871142  34.5078565  92.3197518  65.4586063
  35.4370625  92.4708678  65.2855030  34.0869595  92.4081539  64.6034710
  33.3066897  96.3448182  63.2284601  33.1677983  95.9766967  64.1010539
  32.5181493  96.8595822  63.0568558  33.9015049 101.4457279  54.5710137
  34.0766805 100.9745322  55.3855760  33.2147837 102.0723045  54.7991398
  34.8572112  95.7229785  60.6173438  34.5221945  95.6830555  61.5131088
  34.3576058  95.0574501  60.1443849  28.8316356  91.1297415  66.1426020
  28.6936154  90.3977654  66.7437559  29.7421280  91.0406315  65.8610207
  37.7931304  93.0685819  50.8910498  37.1760475  92.3432648  50.7943551
  37.3247792  93.8295180  50.5477572  31.4598657  90.8417374  65.6309699
  32.1698275  90.2010567  65.5896318  31.4167965  91.0930269  66.5535880
  39.4485436  97.7784728  68.5516278  39.3897982  97.0943948  67.8846862
  39.8504954  98.5203718  68.0996904  30.1727591  87.8282592  67.4505339
  29.6364948  87.3773331  68.1026935  29.5844299  87.9628501  66.7075803
  28.4676134 104.5946642  61.3449997  28.7072733 105.2265166  62.0229016
  27.6245331 104.2434682  61.6315357  29.5829850  87.2871244  50.0131802
  28.7059316  87.1660045  49.6494049  30.0587603  86.4957322  49.7610691
  39.4502843  95.7424312  66.7830258  38.5629622  95.4050234  66.9056657
  40.0201394  95.0107343  67.0199024  21.1031990  92.0748403  60.1073310
  21.7903030  91.7610134  59.5194325  20.9480119  92.9789768  59.8340561
  25.9066712  86.9638600  64.5358333  25.8224901  86.3564270  63.8008743
  25.0849419  87.4547618  64.5367830  32.9803996 100.4025764  63.7491501
  32.9074168 101.2080736  64.2610806  32.5381389 100.6017730  62.9239523
  32.7693776  99.6397534  57.2594323  31.9861298 100.1819214  57.3532547
  33.4686521 100.1571514  57.6588564  36.0790426  85.4492164  59.9028528
  36.5759126  84.6962126  59.5829599  35.3077407  85.4856480  59.3371738
  43.9320183  91.1532529  61.5446820  43.9210060  92.0357245  61.1740753
  43.0637563  90.8004080  61.3501357  35.4402680 100.3012598  65.9049660
  36.1530652 100.9360063  65.8325561  34.9492708 100.3976464  65.0889662
  37.1620207  94.2063851  57.4766952  36.2276485  94.3265313  57.3071656
  37.3396875  93.3036318  57.2126962  32.6625395  87.5909547  59.6300213
  32.2923182  87.0380587  60.3181118  33.1584487  86.9867680  59.0775213
  40.5492758  90.0481170  58.0116986  41.0153210  90.8809162  57.9377288
  41.0000259  89.5826152  58.7162244  30.4914593  98.0507042  66.7255231
  31.1924053  98.6843525  66.8784625  30.0209708  98.3921773  65.9650870
  38.6168989  96.3924991  55.0103138  38.8928833  96.2781586  55.9197012
  37.7473488  95.9942476  54.9715311  38.2915879  90.6051649  64.5507781
  37.6387330  90.8527556  63.8960234  38.6696259  89.7915787  64.2170258
  35.2523053 100.6411342  58.6535951  35.4345448  99.8232998  59.1163704
  36.0756039 100.8579034  58.2160841  35.5865219  99.5679527  55.9151000
  36.1152985  99.0571982  55.3021162  35.8493438  99.2522058  56.7796533
  34.3403452  91.3471460  71.0373818  33.6644089  91.2465589  71.7076193
  35.1631086  91.1910674  71.5009815  26.0882311  97.5843397  63.6586334
  26.6735748  96.8387085  63.7914238  25.8907150  97.8947353  64.5422997
  28.9420967 100.6194644  58.6748776  28.2731342 101.1040772  58.1912816
  28.8033836 100.8663864  59.5892154  20.6799966  90.1548997  62.3790777
  20.7184066  89.6212588  63.1727895  20.1740259  89.6284202  61.7601754
  33.0826235 102.6538388  65.2731434  33.6344543 102.8170009  66.0380519
  33.4232429 103.2442825  64.6011459  28.0590728  85.0013537  65.8753319
  28.1232055  85.8628368  65.4630717  27.9957849  84.3887539  65.1425677
  27.5343001  87.0736670  69.5226353  28.1615040  86.6913747  70.1363878
  26.6770920  86.8550872  69.8882046  37.9337109  97.4799645  71.1280089
  38.4777013  98.0929603  70.6335043  37.3523954  98.0379223  71.6447102
  24.3108544  88.8813099  55.4544708  24.6061985  87.9723777  55.4011762
  23.4096579  88.8600838  55.1325710  36.2194622 100.6020363  62.2595116
  36.0945762  99.8010103  61.7506062  36.8773714 101.0966556  61.7709086
  27.8402791  86.9569096  61.4372257  27.1189376  87.5705063  61.2979730
  28.6296046  87.4926860  61.3588903  38.2829531  98.4029383  63.8874667
  37.3359866  98.2834734  63.8152993  38.6312304  97.5151881  63.9700928
  30.6429104  84.2923522  67.7112908  31.1663506  84.5385819  68.4739218
  30.4241437  85.1243557  67.2916046  26.0396385  86.5627197  55.5784033
  25.7109091  85.6824576  55.3959139  26.3935756  86.5074865  56.4660422
  35.2875964  98.1982099  60.0879019  35.1400927  97.2698807  60.2686589
  36.1129458  98.2202190  59.6036094  29.1538208  86.8500166  55.9459511
  29.4934281  87.3786088  55.2238119  29.6010329  87.1880573  56.7218077
  38.8910086  99.0210658  61.1743892  39.8156633  98.8153519  61.0368343
  38.7225389  98.7727059  62.0833233  31.8481649  85.2337217  65.3962579
  31.5078470  84.4345030  65.7983259  31.1420656  85.5338928  64.8239412
  32.4998121  82.3186530  63.8489902  33.3224190  81.8447008  63.7268792
  32.7436185  83.0977013  64.3488588  31.1406356  85.3474788  54.1452804
  31.8614718  85.7256041  53.6416521  30.5171660  86.0663665  54.2487782
  35.2837478  86.0519937  55.0811136  35.5001093  86.9344575  54.7799964
  34.8031546  85.6606150  54.3516778  30.0236700  89.0105650  61.6581881
  29.8781281  89.3245953  62.5506162  29.5461903  89.6290551  61.1052779
  31.8833083  86.0008198  61.7062770  31.8694651  85.1049292  61.3695068
  32.6005511  86.0078862  62.3401056  33.7359213  86.4345538  63.7515898
  33.4776991  87.3562609  63.7500228  33.2044254  86.0375973  64.4416362
  38.6805402  99.5396326  56.5305983  38.8542280  98.9742748  55.7779835
  39.1734293 100.3397220  56.3485473  24.4982362  91.5510995  64.5969542
  23.9535830  92.3270803  64.7289816  25.3761712  91.8981799  64.4388663
  31.2869979  84.8822579  56.9750340  31.4085890  83.9539225  57.1741228
  30.9972021  84.8961264  56.0628656  34.1561169  82.5677489  60.1117060
  34.1782866  82.6316822  59.1569040  34.5729228  81.7281998  60.3057566
  44.5344793  92.3032748  58.1496283  44.9775939  91.5540074  57.7515406
  43.6571304  92.2942885  57.7670015  39.6680575  98.8563090  53.6302881
  40.3631479  99.4769783  53.8490196  40.0103725  98.0058441  53.9055259
  25.2848384  90.6780891  67.4899699  24.5430120  90.8263526  68.0764329
  24.9641128  90.9389157  66.6266448  41.5671998  96.3062795  55.1590212
  42.0923322  96.6450068  54.4339532  41.4794350  95.3709811  54.9753347
  33.2292046 100.2196869  67.2880089  33.5379173  99.9746016  68.1602788
  34.0267529 100.4243508  66.7998959  33.2512659 102.3734779  59.5185465
  32.8117649 101.8811157  60.2118322  34.0020775 101.8307746  59.2777540
  25.7304998  98.5646320  59.5210093  26.5563017  98.2650091  59.1408737
  25.3799050  97.7953942  59.9699882  30.6986531  97.9172788  61.5907767
  30.0766540  97.2543493  61.2909995  31.3691398  97.9433920  60.9081415
  23.9313603  96.4832646  60.4799027  23.0945511  96.0554820  60.2983028
  23.9037248  96.6765089  61.4169818  30.7711058  86.3954576  71.1840273
  30.8199214  87.2716699  70.8018042  31.3133572  85.8531969  70.6111916
  41.2565904  96.9395699  70.4641410  40.4661448  96.9219838  69.9245909
  41.0199258  97.4783993  71.2190447  41.3763779  93.7888166  67.7774139
  41.4261784  93.6238173  68.7189661  41.2677702  92.9215425  67.3872019
  30.2600038  96.4676711  55.0666227  30.4088158  97.1512176  54.4132900
  31.0666481  96.4481801  55.5815683  38.6667541  89.7719094  69.0933445
  39.5677404  89.6325558  68.8017443  38.7415516  89.9373548  70.0331623
  33.0010347  87.1485948  67.9386632  32.1313656  87.4419514  67.6669220
  33.2369827  87.7326393  68.6593895  42.8781976  96.2085107  68.0216160
  42.5866784  96.5715088  68.8579621  42.2654107  95.4952115  67.8429492
  44.0777658  93.7737987  60.5418730  44.9124549  94.2127791  60.7056291
  44.2136787  93.2976640  59.7226976  41.1269164  91.3317722  66.4896218
  41.6023286  91.5245368  65.6815069  40.2034729  91.3876907  66.2439602
  28.0152671  92.4941889  56.0727296  27.7698713  91.5904219  56.2707506
  28.1848585  92.4959039  55.1306774  27.2848318  88.2270246  53.5713458
  26.5917563  88.3014601  52.9153494  27.0400070  87.4630590  54.0934975
  33.7595443  98.9624842  52.5377975  33.1869410  99.5815029  52.0848447
  34.3328237  99.5124203  53.0717897  39.8270833  88.2083482  64.7224524
  40.7788256  88.3081579  64.7436748  39.6574283  87.4161750  65.2322608
  37.8485212  85.2939065  64.9083925  37.2535145  85.5744078  64.2130413
  37.5634909  85.7832966  65.6800666  36.9792703  99.2461992  53.6686557
  37.9123376  99.1807553  53.8719433  36.8915916 100.0818259  53.2101090
  39.6080720  98.5627862  50.6290505  39.5294351  98.2287726  51.5226263
  40.4290386  99.0549630  50.6281977  42.3058911  91.4289601  63.8366823
  42.2735231  90.4905602  64.0226507  42.9159534  91.5073638  63.1032648
  34.1442242  90.2985654  49.8794027  35.0901346  90.1691863  49.9482445
  33.7656487  89.5600316  50.3563455  42.4553399  88.2200645  63.8825106
  41.9392448  87.4359101  63.6955035  43.3393348  87.8919361  64.0471626
  40.1164126  81.9641660  59.8420919  39.9188947  81.6556749  60.7264251
  40.7263832  82.6903299  59.9718849  48.1235461  92.4905608  62.9772860
  48.8538849  92.2290896  63.5380563  47.5142406  91.7534330  63.0174928
  46.2050758  90.6313471  63.5747311  45.4783921  90.4969436  62.9663803
  45.7898045  90.9390299  64.3804029  34.0280934  94.3503401  71.3394684
  34.9483944  94.5282000  71.5334731  33.9930517  93.4059446  71.1874384
  32.3285159  88.2235631  49.8148913  31.4216614  87.9268743  49.8911626
  32.6061140  87.9265449  48.9483199  23.2463099  89.5441994  60.2647959
  22.9265883  88.6907302  59.9722333  22.6996527  89.7590572  61.0205926
  27.0243007  92.2604435  63.9817465  27.2429016  93.1921543  64.0005499
  27.4368781  91.9012410  64.7672269  33.9447224  82.7672520  55.9693154
  33.1347953  82.4219605  56.3448400  34.6331641  82.4580064  56.5580765
  35.8737773  81.8450567  57.5917450  36.4268811  82.2646021  58.2507474
  36.1107859  80.9186315  57.6340406  31.8970872  87.8337641  73.3720214
  31.7967599  88.7831998  73.3032305  31.6792414  87.5055880  72.4996284
  31.0983943  85.0822566  49.9560892  31.9603107  85.4077464  50.2156709
  31.2834288  84.2954062  49.4433958  23.1151359  93.1644906  62.2341081
  22.4214831  92.7498858  61.7211035  23.8624350  93.2065442  61.6374499
  39.2516580  83.9551092  57.0996115  38.6715249  84.6135896  56.7174167
  38.9852513  83.1328437  56.6883532  37.7020146  83.3556150  59.3017435
  38.2019925  83.4672685  58.4931754  38.3455754  83.0517203  59.9418244
  31.7602142  91.2634780  72.1885276  31.2769224  92.0635140  72.3949165
  31.8463081  91.2742725  71.2352720  25.0288102  93.0963159  60.1107095
  25.0058790  93.1950847  59.1588979  25.3388738  93.9428310  60.4324262
  27.6875480  95.1539314  64.2253710  28.6418733  95.1223257  64.1583641
  27.4888003  94.6929938  65.0403936  28.2774862  93.7240431  66.7924507
  29.0967751  94.2184509  66.8159345  28.5511669  92.8072399  66.7642075
  38.0341458  86.1151183  56.1552463  37.1467313  86.4000833  55.9372658
  38.4495447  85.9544946  55.3079740  41.3855994  86.1397704  59.8706802
  42.1616384  86.6294156  60.1431419  40.6604128  86.5655758  60.3278672
  43.8228553  86.8525323  60.9280743  44.4173043  86.6121059  60.2174051
  43.8955136  86.1332454  61.5554279  26.0425708 100.6958934  61.2423908
  25.9080176  99.9359335  60.6761906  25.6257771 101.4199834  60.7752697
  37.1784671  95.8795858  50.2500483  37.8820521  96.0845860  50.8658139
  36.4547320  96.4472619  50.5149567  38.0082482  91.6305719  56.3702753
  37.9517683  92.0874270  55.5310386  38.5610824  90.8696403  56.1925596
  41.8187288  87.4195451  57.1952873  41.5624222  87.0192086  58.0261080
  41.1940156  88.1339245  57.0703012  46.1299625  90.1591524  59.7024164
  45.5699183  90.2284713  60.4755726  45.5243129  89.9832509  58.9823660
  29.1994834 101.5928251  61.4542350  29.0827218 102.5373683  61.3521041
  28.3787280 101.2901813  61.8428150  39.0871369  96.3178387  52.2998943
  39.9216973  95.8859585  52.1176418  38.9255712  96.1460400  53.2275838
  38.7417261  92.8210500  53.6655282  38.6866065  92.6554771  52.7243726
  38.1163316  93.5286533  53.8217472  23.5309776  88.0578564  67.4916705
  24.1768640  87.5477518  67.9803930  23.3226927  88.7947246  68.0660130
  36.0563168  95.1259412  72.9908845  36.9254328  95.3000064  72.6295480
  35.5769920  95.9453829  72.8684574  32.0513386  82.3218609  53.2440601
  32.0392056  83.2660449  53.4008872  32.9436808  82.1388754  52.9500062
  30.2249348 102.2456513  64.6698279  31.1276595 102.2780123  64.9864774
  29.9986718 101.3156964  64.6844615  31.9802950 100.9987499  61.3308357
  31.0298581 100.9989361  61.2172730  32.2835437 100.2520234  60.8144392
  35.8665506  78.9161386  57.4986538  35.0997902  78.3619872  57.6443220
  36.2776211  78.9883254  58.3600689  27.8707267  85.2046181  71.5891719
  28.7338728  84.8482986  71.7995043  27.2972678  84.8660076  72.2767123
  47.7155644 106.8348038  62.3954120  48.3534054 106.7154785  61.6917460
  47.5976487 107.7828882  62.4542072  44.5245350 106.7875466  62.3315644
  44.1863862 106.6716531  61.4436179  45.3935118 106.3866631  62.3116651
  40.3832166 108.6410942  58.3212535  39.8197031 108.5500879  57.5528823
  40.2684561 107.8210847  58.8015028  45.0065133 107.9410318  68.2901850
  44.9953774 107.5463116  67.4182354  45.1685773 107.2076390  68.8835621
  37.9296598 110.1362134  61.1596756  38.7217890 109.7952959  60.7443055
  38.1693248 110.2457109  62.0798909  45.9631725 112.3081910  53.6327000
  45.3119704 112.8935990  53.2461014  46.7576087 112.8388105  53.6922038
  39.8887352 109.3971047  54.0314135  40.6618228 108.8500034  53.8927010
  40.2412751 110.2615297  54.2428596  41.7272394 110.7247429  67.2381034
  41.4362260 111.6293060  67.1227700  42.3629379 110.7663957  67.9525104
  42.6528601 108.1024278  63.8282394  43.2492173 107.8780300  63.1139357
  42.7103573 107.3609023  64.4307841  42.2253630 105.5563713  51.6632585
  42.4779150 105.0345235  50.9016048  41.2878189 105.3929859  51.7659268
  47.2696912 104.5599492  59.4707328  48.0560002 104.1418915  59.1197745
  47.5335617 105.4645584  59.6388976  47.4406990 109.9972342  54.1695985
  46.8052823 110.0706969  54.8816889  47.1104396 110.5865941  53.4915064
  52.6705339 104.4974725  60.3740306  53.4030511 103.9273942  60.6078136
  51.9144695 104.1096325  60.8146812  41.9449918 107.4591819  53.8656960
  41.8286176 106.7836723  54.5338044  42.0552178 106.9724193  53.0489113
  44.2881459 106.9201966  57.5703649  43.9239666 106.3932587  58.2816570
  45.1448575 106.5300435  57.3970134  50.1930760  98.2096299  64.8334915
  49.8614085  99.0791710  64.6096130  49.5976373  97.8932583  65.5128945
  43.9286946 101.9491866  52.5664997  44.0961349 102.8172102  52.9335468
  43.7384115 102.1119148  51.6426287  46.6862279 110.4108845  64.2330828
  46.3863002 111.3133884  64.1246635  46.3413339 110.1441028  65.0851981
  40.1374761 106.8622642  60.2667532  39.2125257 106.7298856  60.4745224
  40.3859174 107.6416861  60.7637475  50.0859423 102.9291385  61.9128265
  49.1776300 102.8606794  61.6187026  50.0347019 103.4063330  62.7410090
  43.9076167 104.4049524  53.5511664  43.7875792 104.8506574  54.3897144
  43.2128755 104.7534841  52.9925202  37.4983572 106.5055915  61.1011321
  37.6275953 106.7590394  62.0150733  36.8181023 107.0983623  60.7815976
  41.6683059 117.1753165  57.2001795  41.5907089 118.1260990  57.2790276
  41.0644703 116.8299038  57.8576722  44.1600289 104.3481031  69.8563162
  43.3833623 104.9074951  69.8466027  44.7990852 104.8337814  70.3778032
  51.9521070 101.1307824  63.6906139  51.3095450 101.4240357  63.0445934
  51.4475998 101.0160744  64.4959336  49.6061233 104.8770997  54.3791998
  50.5179089 105.1098384  54.2039696  49.0970880 105.4608041  53.8167077
  42.4146661 107.1566484  69.4181129  43.1561346 107.6951528  69.1415953
  41.7083647 107.7832773  69.5752681  47.8902001 109.2995625  68.0153291
  48.2985357 108.8578035  67.2707923  47.1679262 108.7248252  68.2687484
  44.2433071 104.2368231  65.3886848  45.0894266 104.6607645  65.5321497
  44.1831709 103.5801856  66.0825411  48.2130816 109.8596815  61.7705580
  47.5839678 110.0242529  61.0681647  47.8256478 110.2738425  62.5416544
  52.0920047 110.7951253  59.1249943  51.4071086 111.1750154  58.5746977
  52.1763897 111.4046580  59.8581891  47.3932516 101.8972600  67.0468021
  47.1493448 102.6514660  66.5102297  47.6692447 102.2757947  67.8815268
  49.3470979 108.4411212  65.7245287  49.5587874 109.0842972  65.0479668
  49.3000727 107.6073529  65.2567217  46.9497208 101.0529033  62.6281859
  46.0881687 101.3510286  62.9198597  46.9759643 101.2699432  61.6962892
  43.7658777 109.5971223  59.0355665  44.2297123 109.8758926  58.2460287
  43.5015575 108.6954668  58.8528755  40.6582858 109.1442705  61.9735428
  41.2284216 109.5729973  61.3352912  41.2490970 108.8625290  62.6719614
  42.7027663 105.7194376  55.8445230  43.4051707 106.1715419  56.3119156
  42.3708292 105.0778195  56.4725123  41.1508025 104.3106132  70.2196439
  40.5206686 104.9922413  70.4531836  41.0444113 104.1989214  69.2749578
  36.4452997 103.9777928  61.1462363  35.6552051 104.2335457  60.6702474
  36.9364245 104.7926266  61.2514404  50.4616807 111.3183168  63.8967644
  51.2834251 110.9163355  63.6150326  50.4579210 111.2151402  64.8483760
  38.3967743 104.3422508  58.1045840  37.5998906 104.4541202  58.6229336
  38.1693335 104.6809160  57.2386731  44.2273410 110.8667211  66.0528355
  44.2917843 111.3287618  66.8886527  43.5184334 110.2364576  66.1810665
  34.7290700 104.2308419  63.5777354  34.9798739 105.1155429  63.8434930
  35.2650249 104.0513020  62.8052446  58.5522800 107.6621916  60.2452616
  57.7986508 107.0929314  60.0896620  58.6870341 107.6284580  61.1923250
  43.9421428 112.5335318  55.9207335  43.8067103 113.3786854  56.3492183
  44.4831241 112.7354596  55.1573269  40.4288768  98.6126898  72.5821690
  40.0355713  98.0593097  73.2569335  41.2454908  98.9237477  72.9728208
  37.3950825 110.0510756  56.4935260  37.9075346 110.8454007  56.6440825
  38.0473538 109.3537047  56.4268862  39.2045710 113.1676513  58.5758013
  39.3812338 114.0894477  58.3878997  40.0002544 112.8534932  59.0052393
  43.3456729 100.0284777  70.1741947  44.0866442 100.6291930  70.0946409
  43.5774652  99.2862415  69.6159989  38.4898067 105.2141144  68.4520177
  38.3751582 104.3126402  68.7527275  37.6342584 105.4604841  68.1004993
  45.5689904 113.1558885  70.0507677  45.1253759 112.3695263  69.7328582
  46.2307118 113.3438035  69.3851568  40.3277026 114.6854686  64.5768356
  40.8784451 114.5571750  63.8045350  39.4888502 114.9849575  64.2263248
  47.6671143 113.4361685  68.0789078  47.6489618 114.2570566  67.5869348
  48.5891063 113.3115760  68.3039220  44.1244197 110.9505814  68.9212587
  44.6572533 110.1894102  68.6911895  43.5958278 110.6579466  69.6636741
  47.2913892  96.0565880  64.4506229  46.9478161  96.9467522  64.3745339
  47.6592854  95.8667538  63.5875814  35.3599742 108.3799411  57.2694831
  36.1974964 108.7896419  57.0528538  35.5378010 107.4398853  57.2395025
  47.2564174 106.0474491  52.9578664  46.7410798 106.8179096  53.1967051
  46.9841483 105.3739627  53.5811725  44.8411285 100.8924192  58.0163902
  43.9852882 100.5031042  57.8369541  45.2538237 100.9716153  57.1563688
  46.3710432  98.4270535  62.4155462  45.8675228  98.3900670  61.6023267
  46.6641039  99.3363278  62.4752118  42.6153318  98.5109265  61.4221644
  43.4806315  98.3152074  61.0627533  42.6830827  98.2819617  62.3491000
  52.2298448 108.8006846  54.8931837  51.4527891 108.4618005  54.4486999
  52.9089929 108.8059469  54.2186802  47.0450478 103.9201583  54.7838445
  46.7400613 104.2347733  55.6348588  47.9980920 103.9983003  54.8265778
  45.4896909 110.0791807  56.4331399  44.9618271 109.3444566  56.1204636
  44.9884412 110.8566483  56.1871367  50.4689755 108.2740827  61.5498445
  49.8113430 108.9640089  61.6378574  51.2730155 108.6637259  61.8932431
  40.2215637 100.7411473  58.7938010  40.7959389 100.5186654  58.0611203
  40.8086619 100.8100167  59.5466612  49.2795214 106.6285200  59.6002387
  49.7927096 107.2615192  60.1024097  49.9296438 106.0286395  59.2345747
  40.5485224 102.7715934  52.8133896  39.7122536 103.1090621  53.1343170
  40.4089994 102.6364914  51.8761033  42.5238305  97.6152722  57.5213080
  41.8702717  97.3001739  56.8969695  42.4818779  96.9928462  58.2472903
  43.6349510 107.8972017  49.4366372  42.7276571 107.6661270  49.6357521
  44.1320542 107.1009636  49.6240353  46.5417588 116.6069524  52.3563058
  45.8679287 116.9101221  52.9648016  46.9283410 117.4098604  52.0068515
  45.7576045 104.1034655  61.8460727  44.8398606 104.3249602  61.6882415
  46.1736189 104.1780966  60.9872435  46.5411093 105.5026071  56.9763408
  47.2882912 106.0147468  56.6670530  46.8102682 105.1810124  57.8367801
  44.8137743 107.9984612  53.9590362  43.9048962 107.7143645  54.0562832
  44.8432827 108.4183690  53.0993669  50.0457010 111.6091201  57.7281530
  49.5919338 110.7682111  57.7846720  49.4150977 112.2452600  58.0656310
  48.9889930 102.5383187  58.9582197  48.2512687 102.0260574  59.2892440
  49.2416704 102.0983569  58.1465474  48.4889950 113.4467698  58.6631348
  48.7812924 114.0072755  57.9443713  48.9988570 113.7396259  59.4184507
  49.0901557  95.3159439  59.5523966  49.3960434  94.4556803  59.2649881
  49.8154162  95.9077060  59.3522960  35.3825913 105.7190126  57.9405564
  35.1850313 105.1259487  57.2156631  34.8272577 105.4142336  58.6581503
  43.3622637 105.6113232  60.0600157  43.4171247 104.6587069  59.9842634
  42.5513839 105.7672672  60.5441456  44.5113831 109.5393355  51.2978441
  44.0733261 108.8229214  50.8384078  45.2524272 109.7669470  50.7363532
  41.3014997 104.2290292  57.8190536  40.4882862 104.5284463  58.2255728
  41.7973991 103.8345981  58.5365018  43.4523575 114.2248049  59.7524801
  43.4099754 114.4508895  58.8233333  44.3686274 113.9911424  59.9010602
  46.8989209 104.6932117  66.6505430  47.2538596 104.9203590  67.5099896
  47.5461340 105.0250493  66.0282685  52.6286946 107.8150553  57.3554759
  52.4904844 108.0052148  56.4275948  52.2723164 108.5769935  57.8122810
  40.7929072 101.8008648  63.4351771  41.4328451 101.6597407  62.7374734
  39.9606602 101.5143161  63.0590373  52.6556325 109.8827080  62.3666031
  53.0892832 109.7902369  63.2149085  53.3687906 109.8584580  61.7286047
  41.5689376 111.1011078  59.5486764  42.3629974 110.6061398  59.3469339
  40.8581068 110.5728941  59.1854469  46.3884220 113.4829174  63.8999131
  46.4421242 114.0520110  64.6676847  45.5199001 113.6531059  63.5353168
  37.8772139 105.2454160  55.6246516  36.9469727 105.1838615  55.8416478
  37.9729611 104.7230113  54.8283158  37.7957688 101.7708973  58.2124758
  38.0564505 102.6854306  58.1033918  38.6174860 101.3033415  58.3621371
  39.2682613 103.1846730  65.3823582  39.9405667 102.9764092  64.7336231
  38.4412400 102.9868816  64.9428815  53.5171875 109.9250780  64.8998916
  53.7107765 110.8296591  65.1458191  53.4172493 109.4658199  65.7337501
  45.1708185  99.8108671  67.3989243  44.5236101 100.5098620  67.3053720
  45.9409201 100.2444815  67.7665492  48.5786983 110.0757523  70.4739797
  48.4272490 109.8468075  69.5569880  48.5691663 111.0328124  70.4871142
  45.3472320 107.6489436  65.4586063  46.2764380 107.8000595  65.2855030
  44.9263350 107.7373456  64.6034710  44.1460652 111.6740100  63.2284601
  44.0071737 111.3058884  64.1010539  43.3575248 112.1887740  63.0568558
  44.7408804 116.7749197  54.5710137  44.9160559 116.3037240  55.3855760
  44.0541592 117.4014963  54.7991398  45.6965867 111.0521703  60.6173438
  45.3615699 111.0122473  61.5131088  45.1969812 110.3866419  60.1443849
  39.6710111 106.4589333  66.1426020  39.5329909 105.7269572  66.7437559
  40.5815034 106.3698233  65.8610207  48.6325058 108.3977737  50.8910498
  48.0154229 107.6724565  50.7943551  48.1641547 109.1587097  50.5477572
  42.2992411 106.1709292  65.6309699  43.0092030 105.5302484  65.5896318
  42.2561720 106.4222187  66.5535880  50.2879190 113.1076645  68.5516278
  50.2291736 112.4235866  67.8846862  50.6898708 113.8495635  68.0996904
  41.0121345 103.1574510  67.4505339  40.4758702 102.7065248  68.1026935
  40.4238054 103.2920419  66.7075803  40.4223604 102.6163161  50.0131802
  39.5453071 102.4951962  49.6494049  40.8981357 101.8249240  49.7610691
  50.2896597 111.0716229  66.7830258  49.4023376 110.7342151  66.9056657
  50.8595148 110.3399261  67.0199024  31.9425744 107.4040321  60.1073310
  32.6296784 107.0902051  59.5194325  31.7873873 108.3081686  59.8340561
  36.7460467 102.2930518  64.5358333  36.6618655 101.6856187  63.8008743
  35.9243173 102.7839536  64.5367830  43.8197751 115.7317682  63.7491501
  43.7467922 116.5372653  64.2610806  43.3775144 115.9309648  62.9239523
  43.6087530 114.9689452  57.2594323  42.8255052 115.5111132  57.3532547
  44.3080276 115.4863431  57.6588564  46.9184180 100.7784081  59.9028528
  47.4152880 100.0254044  59.5829599  46.1471162 100.8148398  59.3371738
  54.7713938 106.4824447  61.5446820  54.7603814 107.3649162  61.1740753
  53.9031317 106.1295998  61.3501357  46.2796434 115.6304516  65.9049660
  46.9924406 116.2651981  65.8325561  45.7886463 115.7268382  65.0889662
  48.0013961 109.5355768  57.4766952  47.0670240 109.6557231  57.3071656
  48.1790630 108.6328235  57.2126962  43.5019149 102.9201464  59.6300213
  43.1316937 102.3672505  60.3181118  43.9978242 102.3159598  59.0775213
  51.3886513 105.3773088  58.0116986  51.8546965 106.2101079  57.9377288
  51.8394013 104.9118069  58.7162244  41.3308348 113.3798959  66.7255231
  42.0317807 114.0135442  66.8784625  40.8603463 113.7213691  65.9650870
  49.4562744 111.7216909  55.0103138  49.7322588 111.6073504  55.9197012
  48.5867242 111.3234394  54.9715311  49.3603175  97.7453675  62.0507887
  48.4466255  97.9757902  62.2190094  49.7896277  97.8292119  62.9021920
  49.1309634 105.9343567  64.5507781  48.4781084 106.1819474  63.8960234
  49.5090014 105.1207705  64.2170258  46.0916808 115.9703260  58.6535951
  46.2739202 115.1524916  59.1163704  46.9149794 116.1870952  58.2160841
  46.4258973 114.8971445  55.9151000  46.9546740 114.3863900  55.3021162
  46.6887193 114.5813975  56.7796533  45.1797207 106.6763378  71.0373818
  44.5037844 106.5757507  71.7076193  46.0024841 106.5202592  71.5009815
  36.9276066 112.9135314  63.6586334  37.5129503 112.1679002  63.7914238
  36.7300904 113.2239271  64.5422997  39.7814721 115.9486562  58.6748776
  39.1125096 116.4332689  58.1912816  39.6427591 116.1955782  59.5892154
  31.5193721 105.4840915  62.3790777  31.5577820 104.9504505  63.1727895
  31.0134013 104.9576120  61.7601754  43.9219990 117.9830305  65.2731434
  44.4738298 118.1461927  66.0380519  44.2626183 118.5734743  64.6011459
  38.8984483 100.3305455  65.8753319  38.9625809 101.1920286  65.4630717
  38.8351603  99.7179457  65.1425677  38.3736755 102.4028588  69.5226353
  39.0008794 102.0205665  70.1363878  37.5164674 102.1842790  69.8882046
  48.7730864 112.8091563  71.1280089  49.3170768 113.4221521  70.6335043
  48.1917709 113.3671141  71.6447102  35.1502298 104.2105017  55.4544708
  35.4455739 103.3015695  55.4011762  34.2490334 104.1892756  55.1325710
  47.0588377 115.9312281  62.2595116  46.9339516 115.1302021  61.7506062
  47.7167468 116.4258474  61.7709086  38.6796545 102.2861013  61.4372257
  37.9583131 102.8996981  61.2979730  39.4689801 102.8218778  61.3588903
  49.1223285 113.7321301  63.8874667  48.1753621 113.6126652  63.8152993
  49.4706058 112.8443799  63.9700928  41.4822859  99.6215440  67.7112908
  42.0057260  99.8677736  68.4739218  41.2635192 100.4535475  67.2916046
  36.8790140 101.8919114  55.5784033  36.5502846 101.0116493  55.3959139
  37.2329510 101.8366783  56.4660422  46.1269719 113.5274017  60.0879019
  45.9794681 112.5990724  60.2686589  46.9523212 113.5494108  59.6036094
  39.9931963 102.1792084  55.9459511  40.3328035 102.7078005  55.2238119
  40.4404083 102.5172490  56.7218077  49.7303840 114.3502576  61.1743892
  50.6550388 114.1445437  61.0368343  49.5619144 114.1018977  62.0833233
  42.6875404 100.5629135  65.3962579  42.3472224  99.7636948  65.7983259
  41.9814410 100.8630846  64.8239412  43.3391876  97.6478447  63.8489902
  44.1617945  97.1738925  63.7268792  43.5829939  98.4268931  64.3488588
  41.9800110 100.6766706  54.1452804  42.7008473 101.0547959  53.6416521
  41.3565414 101.3955583  54.2487782  46.1231233 101.3811855  55.0811136
  46.3394847 102.2636493  54.7799964  45.6425300 100.9898068  54.3516778
  40.8630454 104.3397568  61.6581881  40.7175035 104.6537871  62.5506162
  40.3855658 104.9582468  61.1052779  42.7226837 101.3300116  61.7062770
  42.7088406 100.4341209  61.3695068  43.4399265 101.3370780  62.3401056
  44.5752968 101.7637456  63.7515898  44.3170746 102.6854527  63.7500228
  44.0438008 101.3667891  64.4416362  49.5199157 114.8688243  56.5305983
  49.6936034 114.3034666  55.7779835  50.0128048 115.6689138  56.3485473
  35.3376116 106.8802912  64.5969542  34.7929585 107.6562720  64.7289816
  36.2155466 107.2273717  64.4388663  42.1263733 100.2114496  56.9750340
  42.2479644  99.2831142  57.1741228  41.8365775 100.2253182  56.0628656
  44.9954924  97.8969407  60.1117060  45.0176620  97.9608740  59.1569040
  45.4122983  97.0573915  60.3057566  55.3738548 107.6324666  58.1496283
  55.8169694 106.8831991  57.7515406  54.4965058 107.6234803  57.7670015
  50.5074329 114.1855008  53.6302881  51.2025234 114.8061700  53.8490196
  50.8497479 113.3350359  53.9055259  36.1242138 106.0072809  67.4899699
  35.3823874 106.1555444  68.0764329  35.8034883 106.2681074  66.6266448
  52.4065752 111.6354713  55.1590212  52.9317076 111.9741986  54.4339532
  52.3188105 110.7001728  54.9753347  44.0685801 115.5488787  67.2880089
  44.3772927 115.3037934  68.1602788  44.8661283 115.7535425  66.7998959
  44.0906413 117.7026696  59.5185465  43.6511403 117.2103075  60.2118322
  44.8414530 117.1599664  59.2777540  36.5698752 113.8938237  59.5210093
  37.3956772 113.5942009  59.1408737  36.2192804 113.1245860  59.9699882
  41.5380285 113.2464706  61.5907767  40.9160294 112.5835411  61.2909995
  42.2085152 113.2725837  60.9081415  34.7707357 111.8124564  60.4799027
  33.9339265 111.3846738  60.2983028  34.7431002 112.0057007  61.4169818
  41.6104813 101.7246494  71.1840273  41.6592968 102.6008616  70.8018042
  42.1527327 101.1823887  70.6111916  52.0959658 112.2687617  70.4641410
  51.3055202 112.2511756  69.9245909  51.8593013 112.8075910  71.2190447
  52.2157533 109.1180083  67.7774139  52.2655538 108.9530091  68.7189661
  52.1071457 108.2507342  67.3872019  41.0993792 111.7968629  55.0666227
  41.2481912 112.4804093  54.4132900  41.9060236 111.7773719  55.5815683
  49.5061296 105.1011011  69.0933445  50.4071159 104.9617476  68.8017443
  49.5809270 105.2665466  70.0331623  43.8404101 102.4777866  67.9386632
  42.9707411 102.7711432  67.6669220  44.0763581 103.0618311  68.6593895
  53.7175730 111.5377025  68.0216160  53.4260539 111.9007005  68.8579621
  53.1047862 110.8244033  67.8429492  54.9171413 109.1029904  60.5418730
  55.7518304 109.5419709  60.7056291  55.0530541 108.6268558  59.7226976
  51.9662918 106.6609639  66.4896218  52.4417040 106.8537286  65.6815069
  51.0428484 106.7168825  66.2439602  38.8546425 107.8233807  56.0727296
  38.6092467 106.9196137  56.2707506  39.0242340 107.8250957  55.1306774
  46.5443135  98.6957483  65.4552052  47.0625079  99.4318510  65.1298540
  46.1898268  99.0021476  66.2898811  38.1242073 103.5562164  53.5713458
  37.4311318 103.6306519  52.9153494  37.8793825 102.7922508  54.0934975
  46.7955729  95.1157765  60.9752949  47.0757483  94.4480954  61.6013375
  47.5806336  95.3086861  60.4627612  44.5989198 114.2916759  52.5377975
  44.0263165 114.9106946  52.0848447  45.1721991 114.8416121  53.0717897
  50.6664587 103.5375399  64.7224524  51.6182010 103.6373497  64.7436748
  50.4968038 102.7453668  65.2322608  48.6878967 100.6230983  64.9083925
  48.0928899 100.9035995  64.2130413  48.4028664 101.1124884  65.6800666
  47.8186457 114.5753909  53.6686557  48.7517131 114.5099471  53.8719433
  47.7309670 115.4110176  53.2101090  50.4474474 113.8919780  50.6290505
  50.3688106 113.5579643  51.5226263  51.2684141 114.3841548  50.6281977
  53.1452665 106.7581519  63.8366823  53.1128985 105.8197520  64.0226507
  53.7553289 106.8365556  63.1032648  44.9835996 105.6277572  49.8794027
  45.9295101 105.4983780  49.9482445  44.6050241 104.8892234  50.3563455
  53.2947154 103.5492563  63.8825106  52.7786202 102.7651019  63.6955035
  54.1787102 103.2211279  64.0471626  50.9557881  97.2933578  59.8420919
  50.7582702  96.9848666  60.7264251  51.5657586  98.0195217  59.9718849
  58.9629215 107.8197526  62.9772860  59.6932604 107.5582814  63.5380563
  58.3536161 107.0826248  63.0174928  57.0444512 105.9605389  63.5747311
  56.3177676 105.8261353  62.9663803  56.6291799 106.2682217  64.3804029
  44.8674689 109.6795318  71.3394684  45.7877698 109.8573917  71.5334731
  44.8324272 108.7351364  71.1874384  43.1678913 103.5527548  49.8148913
  42.2610369 103.2560661  49.8911626  43.4454894 103.2557367  48.9483199
  34.0856854 104.8733912  60.2647959  33.7659638 104.0199220  59.9722333
  33.5390282 105.0882490  61.0205926  37.8636761 107.5896353  63.9817465
  38.0822771 108.5213461  64.0005499  38.2762535 107.2304327  64.7672269
  44.7840979  98.0964438  55.9693154  43.9741707  97.7511523  56.3448400
  45.4725396  97.7871982  56.5580765  46.7131527  97.1742485  57.5917450
  47.2662566  97.5937938  58.2507474  46.9501614  96.2478233  57.6340406
  42.7364627 103.1629559  73.3720214  42.6361353 104.1123916  73.3032305
  42.5186169 102.8347798  72.4996284  41.9377698 100.4114484  49.9560892
  42.7996862 100.7369382  50.2156709  42.1228042  99.6245980  49.4433958
  33.9545114 108.4936823  62.2341081  33.2608585 108.0790776  61.7211035
  34.7018105 108.5357360  61.6374499  50.0910334  99.2843010  57.0996115
  49.5109003  99.9427814  56.7174167  49.8246267  98.4620355  56.6883532
  48.5413901  98.6848068  59.3017435  49.0413679  98.7964602  58.4931754
  49.1849509  98.3809121  59.9418244  42.5995897 106.5926697  72.1885276
  42.1162978 107.3927058  72.3949165  42.6856836 106.6034642  71.2352720
  35.8681856 108.4255077  60.1107095  35.8452544 108.5242764  59.1588979
  36.1782493 109.2720228  60.4324262  38.5269234 110.4831232  64.2253710
  39.4812488 110.4515174  64.1583641  38.3281758 110.0221856  65.0403936
  39.1168616 109.0532348  66.7924507  39.9361505 109.5476427  66.8159345
  39.3905424 108.1364316  66.7642075  48.8735212 101.4443101  56.1552463
  47.9861067 101.7292751  55.9372658  49.2889201 101.2836864  55.3079740
  52.2249749 101.4689622  59.8706802  53.0010139 101.9586074  60.1431419
  51.4997883 101.8947676  60.3278672  54.6622307 102.1817241  60.9280743
  55.2566798 101.9412977  60.2174051  54.7348891 101.4624371  61.5554279
  48.0178426 111.2087775  50.2500483  48.7214276 111.4137778  50.8658139
  47.2941075 111.7764537  50.5149567  48.8476236 106.9597636  56.3702753
  48.7911438 107.4166188  55.5310386  49.4004579 106.1988321  56.1925596
  52.6581042 102.7487368  57.1952873  52.4017976 102.3484004  58.0261080
  52.0333910 103.4631162  57.0703012  56.9693380 105.4883442  59.7024164
  56.4092938 105.5576631  60.4755726  56.3636883 105.3124426  58.9823660
  49.9265123 111.6470304  52.2998943  50.7610727 111.2151503  52.1176418
  49.7649466 111.4752318  53.2275838  49.5811015 108.1502418  53.6655282
  49.5259819 107.9846689  52.7243726  48.9557071 108.8578451  53.8217472
  34.3703530 103.3870482  67.4916705  35.0162394 102.8769436  67.9803930
  34.1620682 104.1239164  68.0660130  46.8956923 110.4551330  72.9908845
  47.7648082 110.6291982  72.6295480  46.4163674 111.2745746  72.8684574
  42.8907141  97.6510527  53.2440601  42.8785811  98.5952367  53.4008872
  43.7830563  97.4680672  52.9500062  41.0643103 117.5748431  64.6698279
  41.9670350 117.6072041  64.9864774  40.8380473 116.6448882  64.6844615
  42.8196705 116.3279417  61.3308357  41.8692336 116.3281279  61.2172730
  43.1229191 115.5812152  60.8144392  46.7059260  94.2453303  57.4986538
  45.9391656  93.6911790  57.6443220  47.1169965  94.3175172  58.3600689
  38.7101021 100.5338099  71.5891719  39.5732483 100.1774904  71.7995043
  38.1366432 100.1951994  72.2767123  58.5549398 122.1639956  62.3954120
  59.1927808 122.0446703  61.6917460  58.4370241 123.1120799  62.4542072
  55.3639105 122.1167384  62.3315644  55.0257616 122.0008448  61.4436179
  56.2328873 121.7158549  62.3116651  55.8458888 123.2702235  68.2901850
  55.8347528 122.8755034  67.4182354  56.0079527 122.5368308  68.8835621
  53.0647384 120.8855631  51.6632585  53.3172905 120.3637152  50.9016048
  52.1271943 120.7221776  51.7659268  58.1090667 119.8891409  59.4707328
  58.8953756 119.4710833  59.1197745  58.3729371 120.7937502  59.6388976
  63.5099094 119.8266643  60.3740306  64.2424266 119.2565859  60.6078136
  62.7538450 119.4388243  60.8146812  55.1275214 122.2493884  57.5703649
  54.7633421 121.7224505  58.2816570  55.9842330 121.8592353  57.3970134
  61.0324514 113.5388217  64.8334915  60.7007839 114.4083628  64.6096130
  60.4370128 113.2224501  65.5128945  54.7680701 117.2783784  52.5664997
  54.9355103 118.1464020  52.9335468  54.5777870 117.4411065  51.6426287
  60.9253178 118.2583303  61.9128265  60.0170055 118.1898711  61.6187026
  60.8740773 118.7355248  62.7410090  54.7469922 119.7341441  53.5511664
  54.6269547 120.1798492  54.3897144  54.0522510 120.0826759  52.9925202
  54.9994043 119.6772948  69.8563162  54.2227377 120.2366869  69.8466027
  55.6384606 120.1629731  70.3778032  62.7914824 116.4599741  63.6906139
  62.1489204 116.7532274  63.0445934  62.2869753 116.3452662  64.4959336
  60.4454988 120.2062914  54.3791998  61.3572844 120.4390301  54.2039696
  59.9364635 120.7899959  53.8167077  55.0826825 119.5660149  65.3886848
  55.9288021 119.9899563  65.5321497  55.0225463 118.9093773  66.0825411
  58.2326271 117.2264517  67.0468021  57.9887203 117.9806578  66.5102297
  58.5086201 117.6049865  67.8815268  60.1864734 123.7703130  65.7245287
  60.3981629 124.4134890  65.0479668  60.1394482 122.9365446  65.2567217
  57.7890962 116.3820950  62.6281859  56.9275442 116.6802204  62.9198597
  57.8153397 116.5991349  61.6962892  53.5421418 121.0486293  55.8445230
  54.2445461 121.5007337  56.3119156  53.2102046 120.4070112  56.4725123
  51.9901779 119.6398050  70.2196439  51.3600440 120.3214331  70.4531836
  51.8837867 119.5281132  69.2749578  47.2846752 119.3069846  61.1462363
  46.4945806 119.5627375  60.6702474  47.7757999 120.1218184  61.2514404
  49.2361497 119.6714425  58.1045840  48.4392661 119.7833119  58.6229336
  49.0087089 120.0101077  57.2386731  69.3916555 122.9913834  60.2452616
  68.6380263 122.4221232  60.0896620  69.5264096 122.9576498  61.1923250
  51.2682522 113.9418816  72.5821690  50.8749468 113.3885014  73.2569335
  52.0848663 114.2529394  72.9728208  54.1850483 115.3576695  70.1741947
  54.9260197 115.9583848  70.0946409  54.4168406 114.6154333  69.6159989
  58.1307646 111.3857798  64.4506229  57.7871916 112.2759440  64.3745339
  58.4986609 111.1959455  63.5875814  58.0957929 121.3766409  52.9578664
  57.5804552 122.1471014  53.1967051  57.8235237 120.7031545  53.5811725
  55.6805040 116.2216110  58.0163902  54.8246636 115.8322960  57.8369541
  56.0931992 116.3008071  57.1563688  57.2104187 113.7562453  62.4155462
  56.7068982 113.7192588  61.6023267  57.5034793 114.6655196  62.4752118
  53.4547072 113.8401183  61.4221644  54.3200069 113.6443991  61.0627533
  53.5224581 113.6111534  62.3491000  63.0692203 124.1298764  54.8931837
  62.2921646 123.7909923  54.4486999  63.7483684 124.1351387  54.2186802
  57.8844232 119.2493501  54.7838445  57.5794368 119.5639650  55.6348588
  58.8374674 119.3274921  54.8265778  61.3083510 123.6032745  61.5498445
  60.6507184 124.2932006  61.6378574  62.1123909 123.9929177  61.8932431
  51.0609391 116.0703391  58.7938010  51.6353143 115.8478572  58.0611203
  51.6480374 116.1392085  59.5466612  60.1188969 121.9577118  59.6002387
  60.6320850 122.5907109  60.1024097  60.7690193 121.3578313  59.2345747
  51.3878979 118.1007852  52.8133896  50.5516291 118.4382538  53.1343170
  51.2483748 117.9656831  51.8761033  53.3632059 112.9444640  57.5213080
  52.7096472 112.6293657  56.8969695  53.3212533 112.3220380  58.2472903
  56.5969800 119.4326573  61.8460727  55.6792361 119.6541520  61.6882415
  57.0129943 119.5072884  60.9872435  57.3804847 120.8317989  56.9763408
  58.1276666 121.3439386  56.6670530  57.6496437 120.5102041  57.8367801
  59.8283684 117.8675105  58.9582197  59.0906441 117.3552491  59.2892440
  60.0810458 117.4275487  58.1465474  59.9295312 110.6451357  59.5523966
  60.2354189 109.7848720  59.2649881  60.6547917 111.2368977  59.3522960
  54.2016392 120.9405150  60.0600157  54.2565001 119.9878986  59.9842634
  53.3907594 121.0964589  60.5441456  52.1408751 119.5582210  57.8190536
  51.3276617 119.8576380  58.2255728  52.6367746 119.1637899  58.5365018
  57.7382963 120.0224034  66.6505430  58.0932351 120.2495507  67.5099896
  58.3855094 120.3542411  66.0282685  63.4680700 123.1442470  57.3554759
  63.3298599 123.3344066  56.4275948  63.1116919 123.9061853  57.8122810
  51.6322826 117.1300565  63.4351771  52.2722206 116.9889324  62.7374734
  50.8000357 116.8435079  63.0590373  63.4950080 125.2118997  62.3666031
  63.9286586 125.1194286  63.2149085  64.2081660 125.1876498  61.7286047
  48.7165894 120.5746078  55.6246516  47.7863482 120.5130533  55.8416478
  48.8123366 120.0522030  54.8283158  48.6351443 117.1000890  58.2124758
  48.8958260 118.0146224  58.1033918  49.4568615 116.6325333  58.3621371
  50.1076368 118.5138648  65.3823582  50.7799421 118.3056010  64.7336231
  49.2806154 118.3160734  64.9428815  64.3565629 125.2542698  64.8998916
  64.5501519 126.1588508  65.1458191  64.2566247 124.7950117  65.7337501
  56.0101940 115.1400588  67.3989243  55.3629855 115.8390538  67.3053720
  56.7802955 115.5736732  67.7665492  56.1866074 122.9781353  65.4586063
  57.1158134 123.1292513  65.2855030  55.7657104 123.0665374  64.6034710
  59.4718813 123.7269655  50.8910498  58.8547984 123.0016483  50.7943551
  59.0035301 124.4879015  50.5477572  53.1386166 121.5001210  65.6309699
  53.8485784 120.8594402  65.5896318  53.0955474 121.7514105  66.5535880
  51.8515100 118.4866428  67.4505339  51.3152457 118.0357166  68.1026935
  51.2631808 118.6212337  66.7075803  51.2617359 117.9455079  50.0131802
  50.3846825 117.8243880  49.6494049  51.7375112 117.1541157  49.7610691
  47.5854221 117.6222435  64.5358333  47.5012410 117.0148105  63.8008743
  46.7636927 118.1131454  64.5367830  57.7577935 116.1075999  59.9028528
  58.2546634 115.3545961  59.5829599  56.9864916 116.1440316  59.3371738
  65.6107692 121.8116364  61.5446820  65.5997569 122.6941080  61.1740753
  64.7425072 121.4587915  61.3501357  54.3412904 118.2493382  59.6300213
  53.9710691 117.6964422  60.3181118  54.8371996 117.6451515  59.0775213
  62.2280267 120.7065005  58.0116986  62.6940719 121.5392997  57.9377288
  62.6787767 120.2409987  58.7162244  60.1996930 113.0745592  62.0507887
  59.2860010 113.3049819  62.2190094  60.6290031 113.1584036  62.9021920
  59.9703388 121.2635484  64.5507781  59.3174838 121.5111392  63.8960234
  60.3483768 120.4499623  64.2170258  56.0190961 122.0055295  71.0373818
  55.3431598 121.9049425  71.7076193  56.8418595 121.8494509  71.5009815
  49.7378237 115.6597373  65.8753319  49.8019564 116.5212204  65.4630717
  49.6745358 115.0471374  65.1425677  49.2130510 117.7320505  69.5226353
  49.8402549 117.3497583  70.1363878  48.3558429 117.5134707  69.8882046
  45.9896053 119.5396934  55.4544708  46.2849494 118.6307613  55.4011762
  45.0884088 119.5184674  55.1325710  49.5190300 117.6152931  61.4372257
  48.7976885 118.2288899  61.2979730  50.3083555 118.1510696  61.3588903
  52.3216613 114.9507357  67.7112908  52.8451015 115.1969654  68.4739218
  52.1028946 115.7827392  67.2916046  47.7183894 117.2211032  55.5784033
  47.3896600 116.3408411  55.3959139  48.0723265 117.1658701  56.4660422
  50.8325717 117.5084002  55.9459511  51.1721790 118.0369923  55.2238119
  51.2797838 117.8464408  56.7218077  53.5269158 115.8921053  65.3962579
  53.1865979 115.0928866  65.7983259  52.8208164 116.1922763  64.8239412
  54.1785630 112.9770365  63.8489902  55.0011699 112.5030843  63.7268792
  54.4223694 113.7560849  64.3488588  52.8193865 116.0058623  54.1452804
  53.5402227 116.3839876  53.6416521  52.1959169 116.7247500  54.2487782
  56.9624987 116.7103772  55.0811136  57.1788602 117.5928410  54.7799964
  56.4819055 116.3189986  54.3516778  51.7024209 119.6689486  61.6581881
  51.5568790 119.9829789  62.5506162  51.2249412 120.2874386  61.1052779
  53.5620592 116.6592034  61.7062770  53.5482160 115.7633127  61.3695068
  54.2793020 116.6662697  62.3401056  55.4146722 117.0929374  63.7515898
  55.1564500 118.0146444  63.7500228  54.8831763 116.6959808  64.4416362
  52.9657488 115.5406414  56.9750340  53.0873399 114.6123060  57.1741228
  52.6759530 115.5545100  56.0628656  55.8348678 113.2261324  60.1117060
  55.8570375 113.2900657  59.1569040  56.2516737 112.3865833  60.3057566
  66.2132302 122.9616584  58.1496283  66.6563448 122.2123909  57.7515406
  65.3358813 122.9526720  57.7670015  52.4498567 117.0538411  71.1840273
  52.4986723 117.9300534  70.8018042  52.9921081 116.5115804  70.6111916
  63.0551288 124.4472001  67.7774139  63.1049293 124.2822008  68.7189661
  62.9465211 123.5799260  67.3872019  60.3455050 120.4302929  69.0933445
  61.2464913 120.2909394  68.8017443  60.4203025 120.5957384  70.0331623
  54.6797856 117.8069784  67.9386632  53.8101165 118.1003350  67.6669220
  54.9157336 118.3910229  68.6593895  65.7565167 124.4321822  60.5418730
  66.5912058 124.8711626  60.7056291  65.8924296 123.9560475  59.7226976
  62.8056673 121.9901557  66.4896218  63.2810795 122.1829203  65.6815069
  61.8822238 122.0460743  66.2439602  57.3836889 114.0249401  65.4552052
  57.9018833 114.7610427  65.1298540  57.0292022 114.3313394  66.2898811
  48.9635827 118.8854082  53.5713458  48.2705072 118.9598437  52.9153494
  48.7187579 118.1214425  54.0934975  57.6349484 110.4449683  60.9752949
  57.9151237 109.7772872  61.6013375  58.4200091 110.6378779  60.4627612
  61.5058342 118.8667317  64.7224524  62.4575765 118.9665415  64.7436748
  61.3361792 118.0745586  65.2322608  59.5272721 115.9522900  64.9083925
  58.9322654 116.2327913  64.2130413  59.2422418 116.4416801  65.6800666
  63.9846420 122.0873437  63.8366823  63.9522740 121.1489438  64.0226507
  64.5947043 122.1657473  63.1032648  55.8229751 120.9569490  49.8794027
  56.7688855 120.8275698  49.9482445  55.4443996 120.2184152  50.3563455
  64.1340908 118.8784480  63.8825106  63.6179957 118.0942937  63.6955035
  65.0180857 118.5503197  64.0471626  61.7951635 112.6225496  59.8420919
  61.5976456 112.3140584  60.7264251  62.4051341 113.3487135  59.9718849
  69.8022970 123.1489444  62.9772860  70.5326358 122.8874732  63.5380563
  69.1929915 122.4118166  63.0174928  67.8838267 121.2897306  63.5747311
  67.1571430 121.1553271  62.9663803  67.4685554 121.5974135  64.3804029
  54.0072668 118.8819466  49.8148913  53.1004123 118.5852579  49.8911626
  54.2848649 118.5849284  48.9483199  55.6234733 113.4256356  55.9693154
  54.8135462 113.0803441  56.3448400  56.3119150 113.1163900  56.5580765
  57.5525282 112.5034403  57.5917450  58.1056320 112.9229856  58.2507474
  57.7895368 111.5770151  57.6340406  53.5758381 118.4921476  73.3720214
  53.4755108 119.4415833  73.3032305  53.3579923 118.1639715  72.4996284
  52.7771452 115.7406401  49.9560892  53.6390616 116.0661300  50.2156709
  52.9621797 114.9537897  49.4433958  60.9304089 114.6134928  57.0996115
  60.3502758 115.2719732  56.7174167  60.6640022 113.7912272  56.6883532
  59.3807655 114.0139986  59.3017435  59.8807434 114.1256520  58.4931754
  60.0243263 113.7101038  59.9418244  59.7128967 116.7735018  56.1552463
  58.8254822 117.0584669  55.9372658  60.1282956 116.6128782  55.3079740
  63.0643503 116.7981539  59.8706802  63.8403893 117.2877992  60.1431419
  62.3391637 117.2239593  60.3278672  65.5016062 117.5109158  60.9280743
  66.0960552 117.2704894  60.2174051  65.5742645 116.7916289  61.5554279
  59.6869991 122.2889554  56.3702753  59.6305192 122.7458106  55.5310386
  60.2398333 121.5280239  56.1925596  63.4974797 118.0779286  57.1952873
  63.2411731 117.6775922  58.0261080  62.8727665 118.7923080  57.0703012
  67.8087134 120.8175359  59.7024164  67.2486692 120.8868549  60.4755726
  67.2030638 120.6416344  58.9823660  60.4204770 123.4794335  53.6655282
  60.3653574 123.3138607  52.7243726  59.7950825 124.1870368  53.8217472
  45.2097285 118.7162400  67.4916705  45.8556149 118.2061354  67.9803930
  45.0014436 119.4531081  68.0660130  53.7300895 112.9802444  53.2440601
  53.7179565 113.9244284  53.4008872  54.6224317 112.7972590  52.9500062
  57.5453015 109.5745221  57.4986538  56.7785411 109.0203708  57.6443220
  57.9563720 109.6467090  58.3600689  49.5494776 115.8630017  71.5891719
  50.4126237 115.5066822  71.7995043  48.9760187 115.5243912  72.2767123
  68.9701401 126.7149716  64.4506229  68.6265670 127.6051357  64.3745339
  69.3380363 126.5251373  63.5875814  70.7689066 125.9743275  59.5523966
  71.0747943 125.1140638  59.2649881  71.4941671 126.5660895  59.3522960
  68.4743238 125.7741601  60.9752949  68.7544992 125.1064790  61.6013375
  69.2593845 125.9670696  60.4627612  72.6345390 127.9517413  59.8420919
  72.4370211 127.6432502  60.7264251  73.2445095 128.6779052  59.9718849
  68.3846769 124.9037139  57.4986538  67.6179165 124.3495625  57.6443220
  68.7957474 124.9759007  58.3600689   4.3580627  22.5242490  49.1199426
   4.9959037  22.4049237  48.4162767   4.2401470  23.4723334  49.1787379
   1.1670333  22.4769918  49.0560951   0.8288845  22.3610983  48.1681486
   2.0360102  22.0761083  49.0361957   1.6490116  23.6304770  55.0147157
   1.6378757  23.2357568  54.1427660   1.8110756  22.8970842  55.6080928
   2.6056708  27.9976362  40.3572307   1.9544688  28.5830442  39.9706321
   3.4001071  28.5282557  40.4167344   3.9121896  20.2493944  46.1952634
   4.6984985  19.8313367  45.8443051   4.1760600  21.1540036  46.3634283
   4.0831973  25.6866794  40.8941291   3.4477806  25.7601420  41.6062196
   3.7529379  26.2760393  40.2160371   9.3130323  20.1869177  47.0985613
  10.0455495  19.6168394  47.3323442   8.5569678  19.7990777  47.5392119
   0.9306442  22.6096418  44.2948955   0.5664650  22.0827039  45.0061877
   1.7873558  22.2194887  44.1215441   3.3287263  26.1003297  50.9576134
   3.0287986  27.0028336  50.8491942   2.9838322  25.8335480  51.8097287
   6.7284406  18.6185837  48.6373572   5.8201284  18.5501245  48.3432333
   6.6772002  19.0957782  49.4655397   8.5946053  16.8202275  50.4151446
   7.9520433  17.1134809  49.7691240   8.0900981  16.7055196  51.2204642
   6.2486217  20.5665449  41.1037305   7.1604073  20.7992835  40.9285002
   5.7395864  21.1502493  40.5412383   4.5326984  24.9890076  54.7398597
   4.9410340  24.5472487  53.9953230   3.8104246  24.4142704  54.9932790
   0.8858054  19.9262683  52.1132154   1.7319249  20.3502097  52.2566803
   0.8256692  19.2696308  52.8070717   4.8555799  25.5491267  48.4950886
   4.2264661  25.7136981  47.7926954   4.4681461  25.9632877  49.2661850
   8.7345031  26.4845705  45.8495250   8.0496069  26.8644606  45.2992283
   8.8188880  27.0941032  46.5827198   4.0357500  17.5867052  53.7713328
   3.7918431  18.3409112  53.2347604   4.3117430  17.9652399  54.6060575
   5.9895962  24.1305664  52.4490594   6.2012858  24.7737424  51.7724975
   5.9425711  23.2967981  51.9812524   3.5922191  16.7423485  49.3527166
   2.7306670  17.0404738  49.6443903   3.6184626  16.9593884  48.4208198
   7.1041790  27.0077619  50.6212951   7.9259234  26.6057807  50.3395633
   7.1004193  26.9045854  51.5729067  15.1947783  23.3516368  46.9697922
  14.4411492  22.7823766  46.8141927  15.3295325  23.3179032  47.9168557
   0.5846411  28.2229770  42.6452642   0.4492086  29.0681306  43.0737490
   1.1256224  28.4249048  41.8818576   2.2114888  28.8453337  56.7752984
   1.7678742  28.0589715  56.4573888   2.8732101  29.0332487  56.1096875
   4.3096126  29.1256137  54.8034385   4.2914601  29.9465018  54.3114654
   5.2316046  29.0010212  55.0284526   3.8989158  21.7368943  39.6823970
   3.3835781  22.5073548  39.9212358   3.6266466  21.0634079  40.3057032
   8.8723432  24.4901298  41.6177144   8.0952875  24.1512457  41.1732306
   9.5514913  24.4953921  40.9432109   3.6875461  19.6096035  41.5083751
   3.3825596  19.9242184  42.3593895   4.6405903  19.6877455  41.5511084
   2.1321893  25.7686259  43.1576705   1.6043254  25.0339018  42.8449943
   1.6309395  26.5460935  42.9116674   7.1114739  23.9635279  48.2743752
   6.4538413  24.6534540  48.3623880   7.9155138  24.3531711  48.6177738
   5.9220197  22.3179652  46.3247694   6.4352079  22.9509644  46.8269403
   6.5721421  21.7180847  45.9591054   3.1842572  32.2963976  39.0808365
   2.5104270  32.5995673  39.6893322   3.5708394  33.0993056  38.7313822
   2.4001028  19.7929107  48.5706034   1.4823590  20.0144054  48.4127722
   2.8161172  19.8675418  47.7117741   3.1836076  21.1920523  43.7008714
   3.9307895  21.7041920  43.3915836   3.4527666  20.8704576  44.5613108
   1.4562726  23.6879064  40.6835669   0.5473946  23.4038097  40.7808138
   1.4857810  24.1078142  39.8238975   6.6881994  27.2985653  44.4526836
   6.2344321  26.4576563  44.5092027   6.0575960  27.9347052  44.7901616
   5.6314913  18.2277639  45.6827504   4.8937670  17.7155025  46.0137746
   5.8841687  17.7878021  44.8710780   5.1314933  29.1362150  45.3876654
   5.4237907  29.6967207  44.6689020   5.6413554  29.4290711  46.1429813
   1.1538814  25.2287807  38.0223747   0.7158244  24.5123666  37.5629385
   1.8949255  25.4563922  37.4608839   3.5414192  20.3826569  53.3750737
   3.8963580  20.6098042  54.2345202   4.1886323  20.7144945  52.7527992
   9.2711929  23.5045004  44.0800066   9.1329827  23.6946600  43.1521255
   8.9148148  24.2664387  44.5368117   9.2981308  25.5721531  49.0911337
   9.7317815  25.4796821  49.9394391  10.0112889  25.5479032  48.4531353
   3.0309203  29.1723626  50.6244438   3.0846226  29.7414562  51.3922154
   2.1623985  29.3425511  50.2598475  10.1596858  25.6145232  51.6244223
  10.3532748  26.5191043  51.8703498  10.0597476  25.1552651  52.4582808
   5.2211967  25.7651975  57.1985103   5.0697473  25.5362527  56.2815187
   5.2116646  26.7222576  57.2116448   1.9897303  23.3383888  52.1831370
   2.9189363  23.4895047  52.0100337   1.5688333  23.4267908  51.3280016
   1.3833787  32.4643648  41.2955444   1.5585543  31.9931692  42.1101067
   0.6966575  33.0909415  41.5236705   2.3390850  26.7416155  47.3418745
   2.0040683  26.7016925  48.2376395   1.8394796  26.0760871  46.8689155
   5.2750042  24.0872189  37.6155805   4.6579212  23.3619017  37.5188857
   4.8066530  24.8481549  37.2722879   6.9304173  28.7971097  55.2761585
   6.8716720  28.1130318  54.6092168   7.3323692  29.5390087  54.8242211
   6.9321581  26.7610681  53.5075565   6.0448359  26.4236603  53.6301964
   7.5020132  26.0293713  53.7444330   3.5609164  16.4678533  46.6273835
   4.0577863  15.7148495  46.3074905   2.7896145  16.5042850  46.0617044
  11.4138921  22.1718899  48.2692126  11.4028797  23.0543614  47.8986060
  10.5456301  21.8190450  48.0746663   2.9221418  31.3198968  52.6294967
   3.6349390  31.9546433  52.5570868   2.4311446  31.4162834  51.8134968
   4.6438944  25.2250220  44.2012258   3.7095223  25.3451683  44.0316963
   4.8215613  24.3222687  43.9372268   8.0311496  21.0667540  44.7362292
   8.4971948  21.8995531  44.6622595   8.4818996  20.6012521  45.4407551
   6.0987727  27.4111361  41.7348445   6.3747571  27.2967956  42.6442319
   5.2292226  27.0128846  41.6960618   5.7734617  21.6238019  51.2753088
   5.1206067  21.8713926  50.6205541   6.1514997  20.8102157  50.9415565
   2.7341791  31.6597712  45.3781258   2.9164185  30.8419368  45.8409010
   3.5574777  31.8765404  44.9406148   3.0683956  30.5865897  42.6396307
   3.5971723  30.0758351  42.0266469   3.3312176  30.2708427  43.5041840
   1.8222190  22.3657830  57.7619125   1.1462827  22.2651959  58.4321500
   2.6449824  22.2097043  58.2255122   0.5644973  33.6724757  51.9976741
   1.1163281  33.8356379  52.7625826   0.9051166  34.2629195  51.3256766
   5.4155847  28.4986015  57.8525395   5.9595751  29.1115973  57.3580350
   4.8342692  29.0565593  58.3692408   3.7013360  31.6206733  48.9840423
   3.5764500  30.8196472  48.4751369   4.3592451  32.1152926  48.4954393
   5.7648269  29.4215753  50.6119973   4.8178604  29.3021104  50.5398300
   6.1131042  28.5338251  50.6946235   2.7694702  29.2168469  46.8124325
   2.6219664  28.2885176  46.9931895   3.5948195  29.2388560  46.3281401
   6.3728824  30.0397028  47.8989198   7.2975371  29.8339889  47.7613649
   6.2044127  29.7913429  48.8078540   6.1624140  30.5582695  43.2551290
   6.3361018  29.9929118  42.5025142   6.6553031  31.3583590  43.0730780
  12.0163531  23.3219118  44.8741589  12.4594677  22.5726443  44.4760713
  11.1390041  23.3129254  44.4915321   7.1499312  29.8749460  40.3548188
   7.8450217  30.4956152  40.5735503   7.4922463  29.0244811  40.6300566
   9.0490736  27.3249165  41.8835519   9.5742060  27.6636438  41.1584839
   8.9613088  26.3896180  41.6998653   0.7110784  31.2383239  54.0125395
   1.0197911  30.9932385  54.8848095   1.5086266  31.4429877  53.5244266
   8.7384642  27.9582069  57.1886717   7.9480185  27.9406208  56.6491216
   8.5017996  28.4970362  57.9435753   8.8582517  24.8074535  54.5019445
   8.9080522  24.6424543  55.4434968   8.7496440  23.9401794  54.1117326
   6.1486279  20.7905463  55.8178752   7.0496142  20.6511928  55.5262750
   6.2234254  20.9559918  56.7576929  10.3600714  27.2271477  54.7461467
  10.0685522  27.5901457  55.5824928   9.7472845  26.5138485  54.5674799
  11.5596396  24.7924356  47.2664037  12.3943287  25.2314160  47.4301597
  11.6955525  24.3163010  46.4472283   8.6087902  22.3504091  53.2141525
   9.0842023  22.5431738  52.4060376   7.6853467  22.4063277  52.9684908
   1.2414181  29.9811211  39.2623281   0.6688148  30.6001398  38.8093753
   1.8146975  30.5310573  39.7963203   7.3089571  19.2269851  51.4469830
   8.2606994  19.3267949  51.4682054   7.1393021  18.4348120  51.9567915
   5.3303950  16.3125435  51.6329231   4.7353882  16.5930447  50.9375720
   5.0453647  16.8019335  52.4045972   4.4611441  30.2648361  40.3931864
   5.3942114  30.1993923  40.5964739   4.3734654  31.1004628  39.9346396
   7.0899457  29.5814232  37.3535811   7.0113089  29.2474095  38.2471569
   7.9109124  30.0736000  37.3527284   9.7877649  22.4475971  50.5612130
   9.7553969  21.5091972  50.7471814  10.3978272  22.5260008  49.8277955
   1.6260979  21.3172024  36.6039334   2.5720084  21.1878232  36.6727752
   1.2475224  20.5786686  37.0808762   9.9372137  19.2387014  50.6070413
   9.4211186  18.4545471  50.4200342  10.8212086  18.9105731  50.7716933
  15.6054198  23.5091978  49.7018167  16.3357587  23.2477266  50.2625870
  14.9961144  22.7720700  49.7420235  13.6869496  21.6499840  50.2992618
  12.9602659  21.5155805  49.6909110  13.2716782  21.9576669  51.1049336
   1.5099672  25.3689770  58.0639991   2.4302681  25.5468369  58.2580037
   1.4749255  24.4245815  57.9119690   6.7335318  14.9737462  43.8241421
   6.1533987  15.6322266  43.4419474   6.4671250  14.1514807  43.4128839
   5.5160196  17.1337552  42.8797770   4.6286051  17.4187203  42.6617964
   5.9314185  16.9731316  42.0325047   8.8674732  17.1584073  46.5952109
   9.6435122  17.6480526  46.8676726   8.1422866  17.5842128  47.0523978
  11.3047290  17.8711693  47.6526050  11.8991781  17.6307429  46.9419358
  11.3773874  17.1518823  48.2799586   4.6603409  26.8982227  36.9745790
   5.3639259  27.1032230  37.5903445   3.9366058  27.4658989  37.2394873
   5.4901219  22.6492088  43.0948060   5.4336421  23.1060640  42.2555692
   6.0429562  21.8882773  42.9170903   9.3006025  18.4381820  43.9198179
   9.0442960  18.0378456  44.7506387   8.6758893  19.1525614  43.7948318
  13.6118363  21.1777893  46.4269471  13.0517921  21.2471083  47.2001033
  13.0061867  21.0018878  45.7068967   6.5690107  27.3364756  39.0244250
   7.4035710  26.9045955  38.8421724   6.4074449  27.1646770  39.9521144
   6.2235999  23.8396870  40.3900589   6.1684803  23.6741141  39.4489033
   5.5982054  24.5472903  40.5462779   3.5381906  26.1445781  59.7154152
   4.4073066  26.3186434  59.3540787   3.0588657  26.9640198  59.5929881
  15.1974382  37.8534407  49.1199426  15.8352792  37.7341155  48.4162767
  15.0795225  38.8015251  49.1787379  12.0064088  37.8061836  49.0560951
  11.6682599  37.6902900  48.1681486  12.8753856  37.4053001  49.0361957
   7.8650904  39.6597312  45.0457842   7.3015769  39.5687249  44.2774130
   7.7503299  38.8397216  45.5260335  12.4883871  38.9596687  55.0147157
  12.4772512  38.5649485  54.1427660  12.6504510  38.2262760  55.6080928
   5.4115336  41.1548504  47.8842063   6.2036627  40.8139328  47.4688362
   5.6511986  41.2643479  48.8044216  13.4450462  43.3268280  40.3572307
  12.7938442  43.9122360  39.9706321  14.2394825  43.8574475  40.4167344
   7.3706089  40.4157417  40.7559441   8.1436965  39.8686404  40.6172317
   7.7231488  41.2801666  40.9673903   9.2091132  41.7433799  53.9626341
   8.9180998  42.6479430  53.8473007   9.8448116  41.7850327  54.6770410
  10.1347339  39.1210648  50.5527700  10.7310911  38.8966670  49.8384663
  10.1922310  38.3795393  51.1553148   9.7072367  36.5750083  38.3877891
   9.9597888  36.0531604  37.6261354   8.7696926  36.4116228  38.4904575
  14.7515650  35.5785861  46.1952634  15.5378739  35.1605284  45.8443051
  15.0154354  36.4831953  46.3634283  14.9225727  41.0158712  40.8941291
  14.2871560  41.0893338  41.6062196  14.5923134  41.6052310  40.2160371
  20.1524077  35.5161094  47.0985613  20.8849249  34.9460311  47.3323442
  19.3963433  35.1282695  47.5392119   9.4268656  38.4778189  40.5902266
   9.3104914  37.8023092  41.2583351   9.5370916  37.9910563  39.7734419
  11.7700197  37.9388336  44.2948955  11.4058404  37.4118957  45.0061877
  12.6267313  37.5486805  44.1215441  17.6749498  29.2282669  51.5580222
  17.3432822  30.0978080  51.3341437  17.0795111  28.9118953  52.2374252
  11.4105684  32.9678236  39.2910304  11.5780086  33.8358472  39.6580775
  11.2202853  33.1305517  38.3671593  14.1681017  41.4295215  50.9576134
  13.8681740  42.3320253  50.8491942  13.8232077  41.1627398  51.8097287
   7.6193499  37.8809011  46.9912839   6.6943995  37.7485225  47.1990531
   7.8677912  38.6603231  47.4882781  17.5678161  33.9477755  48.6373572
  16.6595038  33.8793163  48.3432333  17.5165757  34.4249700  49.4655397
  11.3894905  35.4235893  40.2756971  11.2694530  35.8692944  41.1142451
  10.6947493  35.7721211  39.7170509   4.9802310  37.5242285  47.8256628
   5.1094691  37.7776764  48.7396040   4.2999761  38.1169993  47.5061283
   9.1501797  48.1939535  43.9247102   9.0725827  49.1447360  44.0035583
   8.5463441  47.8485407  44.5822028  11.6419027  35.3667400  56.5808469
  10.8652361  35.9261320  56.5711334  12.2809590  35.8524183  57.1023339
  19.4339807  32.1494193  50.4151446  18.7914188  32.4426726  49.7691240
  18.9294736  32.0347113  51.2204642  17.0879971  35.8957366  41.1037305
  17.9997827  36.1284753  40.9285002  16.5789618  36.4794411  40.5412383
   9.8965399  38.1752854  56.1426436  10.6380083  38.7137898  55.8661260
   9.1902384  38.8019142  56.2997988  15.3720739  40.3181994  54.7398597
  15.7804095  39.8764405  53.9953230  14.6498000  39.7434622  54.9932790
  11.7251809  35.2554601  52.1132154  12.5713004  35.6794014  52.2566803
  11.6650446  34.5988225  52.8070717  15.6949553  40.8783185  48.4950886
  15.0658416  41.0428899  47.7926954  15.3075215  41.2924794  49.2661850
  19.5738785  41.8137623  45.8495250  18.8889823  42.1936524  45.2992283
  19.6582635  42.4232949  46.5827198  14.8751254  32.9158969  53.7713328
  14.6312186  33.6701030  53.2347604  15.1511185  33.2944317  54.6060575
  16.8289717  39.4597582  52.4490594  17.0406612  40.1029342  51.7724975
  16.7819465  38.6259898  51.9812524  14.4315946  32.0715402  49.3527166
  13.5700425  32.3696656  49.6443903  14.4578380  32.2885801  48.4208198
  11.2477515  40.6157593  45.7600971  11.7115861  40.8945296  44.9705594
  10.9834313  39.7141037  45.5774062   8.1401596  40.1629074  48.6980735
   8.7102953  40.5916343  48.0598219   8.7309708  39.8811659  49.3964920
  10.1846401  36.7380745  42.5690537  10.8870445  37.1901789  43.0364463
   9.8527030  36.0964564  43.1970430   8.6326763  35.3292502  56.9441746
   8.0025423  36.0108783  57.1777143   8.5262851  35.2175583  55.9994884
   3.9271735  34.9964298  47.8707670   3.1370789  35.2521826  47.3947781
   4.4182983  35.8112636  47.9759711  17.9435545  42.3369537  50.6212951
  18.7652988  41.9349724  50.3395633  17.9397948  42.2337771  51.5729067
   5.8786481  35.3608877  44.8291147   5.0817644  35.4727571  45.3474642
   5.6512073  35.6995529  43.9632037  11.7092148  41.8853580  52.7773661
  11.7736581  42.3473988  53.6131833  11.0003072  41.2550945  52.9055971
   2.2109438  35.2494788  50.3022661   2.4617477  36.1341798  50.5680237
   2.7468987  35.0699390  49.5297753  26.0341538  38.6808286  46.9697922
  25.2805246  38.1115684  46.8141927  26.1689079  38.6470950  47.9168557
  11.4240166  43.5521688  42.6452642  11.2885841  44.3973224  43.0737490
  11.9649978  43.7540965  41.8818576   7.9107505  29.6313268  59.3066997
   7.5174451  29.0779466  59.9814641   8.7273646  29.9423846  59.6973514
   4.8769563  41.0697126  43.2180567   5.3894084  41.8640376  43.3686132
   5.5292276  40.3723416  43.1514168   6.6864448  44.1862882  45.3003320
   6.8631076  45.1080847  45.1124304   7.4821281  43.8721301  45.7297700
  10.8275466  31.0471147  56.8987254  11.5685180  31.6478300  56.8191716
  11.0593389  30.3048785  56.3405296   5.9716804  36.2327514  55.1765483
   5.8570320  35.3312771  55.4772582   5.1161322  36.4791211  54.8250300
  13.0508642  44.1745254  56.7752984  12.6072496  43.3881633  56.4573888
  13.7125856  44.3624405  56.1096875   7.8095763  45.7041056  51.3013662
   8.3603189  45.5758119  50.5290656   6.9707239  46.0035945  50.9508555
  15.1489880  44.4548054  54.8034385  15.1308356  45.2756935  54.3114654
  16.0709800  44.3302130  55.0284526  11.6062934  41.9692184  55.6457893
  12.1391271  41.2080472  55.4157201  11.0777016  41.6765836  56.3882048
  14.7732629  27.0752250  51.1751535  14.4296899  27.9653891  51.0990646
  15.1411592  26.8853907  50.3121120   2.8418480  39.3985780  43.9940137
   3.6793702  39.8082789  43.7773845   3.0196748  38.4585222  43.9640331
  14.7382912  37.0660861  39.6823970  14.2229536  37.8365465  39.9212358
  14.4660221  36.3925997  40.3057032  12.3230023  31.9110562  44.7409209
  11.4671620  31.5217412  44.5614847  12.7356975  31.9902522  43.8808994
  13.8529170  29.4456905  49.1400768  13.3493965  29.4087040  48.3268574
  14.1459777  30.3549648  49.1997425  10.0972056  29.5295635  48.1466950
  10.9625052  29.3338443  47.7872840  10.1649565  29.3005986  49.0736307
  19.7117186  39.8193215  41.6177144  18.9346629  39.4804375  41.1732306
  20.3908667  39.8245839  40.9432109  14.5269215  34.9387953  41.5083751
  14.2219351  35.2534102  42.3593895  15.4799657  35.0169373  41.5511084
  12.9715647  41.0978176  43.1576705  12.4437009  40.3630936  42.8449943
  12.4703150  41.8752853  42.9116674  17.9508493  39.2927197  48.2743752
  17.2932168  39.9826458  48.3623880  18.7548892  39.6823629  48.6177738
   7.7034375  31.7597843  45.5183317   8.2778127  31.5373024  44.7856510
   8.2905357  31.8286537  46.2711918  16.7613952  37.6471569  46.3247694
  17.2745834  38.2801561  46.8269403  17.4115176  37.0472765  45.9591054
   8.0303962  33.7902304  39.5379202   7.1941274  34.1276990  39.8588477
   7.8908732  33.6551283  38.6006339  10.0057042  28.6339091  44.2458386
   9.3521455  28.3188109  43.6215001   9.9637517  28.0114832  44.9718209
  11.1168247  38.9158387  36.1611678  10.2095309  38.6847640  36.3602827
  11.6139279  38.1196006  36.3485660  14.0236326  47.6255894  39.0808365
  13.3498025  47.9287590  39.6893322  14.4102148  48.4284974  38.7313822
  13.2394783  35.1221025  48.5706034  12.3217344  35.3435972  48.4127722
  13.6554926  35.1967335  47.7117741  14.0229831  36.5212441  43.7008714
  14.7701650  37.0333838  43.3915836  14.2921420  36.1996493  44.5613108
  12.2956481  39.0170981  40.6835669  11.3867700  38.7330014  40.7808138
  12.3251565  39.4370060  39.8238975  17.5275748  42.6277571  44.4526836
  17.0738075  41.7868481  44.5092027  16.8969715  43.2638969  44.7901616
  16.4708668  33.5569557  45.6827504  15.7331425  33.0446943  46.0137746
  16.7235441  33.1169939  44.8710780  15.9708687  44.4654068  45.3876654
  16.2631662  45.0259125  44.6689020  16.4807308  44.7582629  46.1429813
  16.5720295  26.3345809  46.2769273  16.8779172  25.4743172  45.9895188
  17.2972900  26.9263429  46.0768267   2.8644651  36.7376496  44.6650871
   2.6669051  36.1445856  43.9401937   2.3091315  36.4328706  45.3826810
  10.8441375  36.6299602  46.7845464  10.8989985  35.6773438  46.7087941
  10.0332577  36.7859041  47.2686762  11.9932569  40.5579725  38.0223747
  11.5551999  39.8415584  37.5629385  12.7343009  40.7855840  37.4608839
   8.7833735  35.2476662  44.5435843   7.9701600  35.5470832  44.9501035
   9.2792729  34.8532351  45.2610325  10.9342313  45.2434419  46.4770108
  10.8918491  45.4695265  45.5478640  11.8505011  45.0097793  46.6255909
  14.3807946  35.7118486  53.3750737  14.7357334  35.9389959  54.2345202
  15.0280078  36.0436863  52.7527992  20.1105683  38.8336922  44.0800066
  19.9723582  39.0238518  43.1521255  19.7541902  39.5956305  44.5368117
   8.2747810  32.8195017  50.1597078   8.9147189  32.6783776  49.4620041
   7.4425340  32.5329531  49.7835680  20.1375063  40.9013449  49.0911337
  20.5711570  40.8088738  49.9394391  20.8506644  40.8770950  48.4531353
   9.0508113  42.1197448  46.2732070   9.8448712  41.6247768  46.0714645
   8.3399806  41.5915311  45.9099776  13.8702958  44.5015543  50.6244438
  13.9239980  45.0706480  51.3922154  13.0017739  44.6717428  50.2598475
   5.3590877  36.2640529  42.3491823   4.4288465  36.2024985  42.5661785
   5.4548349  35.7416482  41.5528464   5.2776426  32.7895342  44.9370065
   5.5383243  33.7040675  44.8279225   6.0993598  32.3219785  45.0866677
   6.7501351  34.2033099  52.1068889   7.4224405  33.9950462  51.4581538
   5.9231138  34.0055185  51.6674121  20.9990613  40.9437150  51.6244223
  21.1926503  41.8482960  51.8703498  20.8991231  40.4844569  52.4582808
  12.6526923  30.8295040  54.1234550  12.0054838  31.5284990  54.0299026
  13.4227939  31.2631184  54.4910798  16.0605721  41.0943893  57.1985103
  15.9091228  40.8654444  56.2815187  16.0510401  42.0514494  57.2116448
  12.8291058  38.6675805  52.1831370  13.7583118  38.8186965  52.0100337
  12.4082088  38.7559826  51.3280016  11.6279389  42.6926470  49.9529907
  11.4890475  42.3245254  50.8255845  10.8393986  43.2074109  49.7813865
  12.2227541  47.7935566  41.2955444  12.3979297  47.3223609  42.1101067
  11.5360329  48.4201332  41.5236705  13.1784605  42.0708072  47.3418745
  12.8434437  42.0308842  48.2376395  12.6788550  41.4052788  46.8689155
   7.1528849  37.4775702  52.8671326   7.0148646  36.7455941  53.4682865
   8.0633772  37.3884602  52.5855514  16.1143796  39.4164107  37.6155805
  15.4972967  38.6910935  37.5188857  15.6460285  40.1773467  37.2722879
   9.7811149  37.1895662  52.3555006  10.4910768  36.5488854  52.3141624
   9.7380457  37.4408557  53.2781187  17.7697928  44.1263015  55.2761585
  17.7110474  43.4422235  54.6092168  18.1717446  44.8682005  54.8242211
   8.4940083  34.1760880  54.1750645   7.9577440  33.7251618  54.8272242
   7.9056792  34.3106788  53.4321110   6.7888627  50.9424929  48.0695304
   7.0285225  51.5743453  48.7474323   5.9457823  50.5912969  48.3560663
   7.9042342  33.6349531  36.7377109   7.0271808  33.5138332  36.3739356
   8.3800095  32.8435609  36.4855998  17.7715335  42.0902599  53.5075565
  16.8842114  41.7528521  53.6301964  18.3413886  41.3585630  53.7444330
   4.2279204  33.3116887  51.2603640   4.1437393  32.7042557  50.5254050
   3.4061911  33.8025906  51.2613136  11.3016489  46.7504051  50.4736808
  11.2286660  47.5559023  50.9856113  10.8593882  46.9496017  49.6484829
  11.0906268  45.9875821  43.9839630  10.3073790  46.5297502  44.0777854
  11.7899013  46.5049801  44.3833871  14.4002918  31.7970451  46.6273835
  14.8971618  31.0440413  46.3074905  13.6289900  31.8334767  46.0617044
  22.2532676  37.5010816  48.2692126  22.2422552  38.3835532  47.8986060
  21.3850055  37.1482367  48.0746663  13.7615172  46.6490885  52.6294967
  14.4743144  47.2838350  52.5570868  13.2705201  46.7454751  51.8134968
  15.4832699  40.5542138  44.2012258  14.5488978  40.6743601  44.0316963
  15.6609367  39.6514605  43.9372268  10.9837887  33.9387834  46.3545520
  10.6135675  33.3858874  47.0426425  11.4796979  33.3345967  45.8020520
  18.8705250  36.3959457  44.7362292  19.3365703  37.2287449  44.6622595
  19.3212751  35.9304439  45.4407551   8.8127086  44.3985329  53.4500537
   9.5136545  45.0321812  53.6029932   8.3422201  44.7400060  52.6896177
  16.9381481  42.7403279  41.7348445  17.2141325  42.6259873  42.6442319
  16.0685980  42.3420763  41.6960618  16.8421913  28.7640044  48.7753194
  15.9284993  28.9944271  48.9435401  17.2715015  28.8478488  49.6267226
  16.6128372  36.9529936  51.2753088  15.9599822  37.2005844  50.6205541
  16.9908751  36.1394074  50.9415565  13.5735545  46.9889629  45.3781258
  13.7557940  46.1711285  45.8409010  14.3968531  47.2057322  44.9406148
  13.9077711  45.9157815  42.6396307  14.4365477  45.4050269  42.0266469
  14.1705931  45.6000345  43.5041840  12.6615945  37.6949747  57.7619125
  11.9856582  37.5943877  58.4321500  13.4843578  37.5388961  58.2255122
   4.4094804  43.9321684  50.3831640   4.9948240  43.1865372  50.5159544
   4.2119642  44.2425641  51.2668304   7.2633459  46.9672931  45.3994083
   6.5943834  47.4519059  44.9158123   7.1246329  47.2142152  46.3137461
  11.4038727  49.0016675  51.9976741  11.9557035  49.1648296  52.7625826
  11.7444921  49.5921113  51.3256766   6.3803221  31.3491825  52.5998626
   6.4444547  32.2106655  52.1876023   6.3170341  30.7365826  51.8670984
   5.8555493  33.4214957  56.2471660   6.4827532  33.0392034  56.8609184
   4.9983412  33.2029159  56.6127352  16.2549602  43.8277932  57.8525395
  16.7989506  44.4407891  57.3580350  15.6736447  44.3857511  58.3692408
   2.6321036  35.2291386  42.1790015   2.9274477  34.3202065  42.1257068
   1.7309072  35.2079126  41.8571017  14.5407115  46.9498650  48.9840423
  14.4158254  46.1488390  48.4751369  15.1986206  47.4444844  48.4954393
   6.1615283  33.3047383  48.1617563   5.4401869  33.9183351  48.0225037
   6.9508539  33.8405148  48.0834209  16.6042023  44.7507670  50.6119973
  15.6572359  44.6313022  50.5398300  16.9524796  43.8630168  50.6946235
   8.9641596  30.6401809  54.4358215   9.4875998  30.8864106  55.1984524
   8.7453930  31.4721844  54.0161352   4.3608878  32.9105484  42.3029340
   4.0321584  32.0302863  42.1204446   4.7148248  32.8553153  43.1905729
  13.6088456  44.5460387  46.8124325  13.4613419  43.6177094  46.9931895
  14.4341950  44.5680477  46.3281401   7.4750701  33.1978454  42.6704818
   7.8146773  33.7264375  41.9483426   7.9222821  33.5358860  43.4463384
  17.2122578  45.3688945  47.8989198  18.1369126  45.1631807  47.7613649
  17.0437882  45.1205347  48.8078540  10.1694142  31.5815504  52.1207886
   9.8290962  30.7823317  52.5228565   9.4633148  31.8817215  51.5484719
  10.8210613  28.6664817  50.5735209  11.6436683  28.1925295  50.4514099
  11.0648677  29.4455301  51.0733895   9.4618848  31.6953075  40.8698110
  10.1827210  32.0734328  40.3661827   8.8384152  32.4141952  40.9733088
  13.6049971  32.3998224  41.8056443  13.8213585  33.2822862  41.5045271
  13.1244038  32.0084438  41.0762085   8.3449192  35.3583937  48.3827187
   8.1993773  35.6724241  49.2751469   7.8674396  35.9768838  47.8298086
  10.2045575  32.3486485  48.4308077  10.1907144  31.4527579  48.0940375
  10.9218003  32.3557149  49.0646363  12.0571706  32.7823826  50.4761204
  11.7989484  33.7040896  50.4745535  11.5256746  32.3854260  51.1661668
  17.0017894  45.8874613  43.2551290  17.1754772  45.3221035  42.5025142
  17.4946786  46.6875508  43.0730780   2.8194854  37.8989282  51.3214848
   2.2748322  38.6749090  51.4535123   3.6974204  38.2460086  51.1633970
   9.6082471  31.2300866  43.6995647   9.7298382  30.3017512  43.8986534
   9.3184513  31.2439552  42.7873962  12.4773661  28.9155776  46.8362367
  12.4995358  28.9795109  45.8814346  12.8941720  28.0760285  47.0302873
  22.8557286  38.6511036  44.8741589  23.2988432  37.9018361  44.4760713
  21.9783796  38.6421172  44.4915321  17.9893067  45.2041377  40.3548188
  18.6843972  45.8248070  40.5735503  18.3316217  44.3536728  40.6300566
   3.6060876  37.0259178  54.2145005   2.8642612  37.1741814  54.8009636
   3.2853620  37.2867444  53.3511755  19.8884490  42.6541083  41.8835519
  20.4135814  42.9928355  41.1584839  19.8006843  41.7188098  41.6998653
  11.5504539  46.5675156  54.0125395  11.8591665  46.3224303  54.8848095
  12.3480021  46.7721795  53.5244266  11.5725151  48.7213066  46.2430772
  11.1330141  48.2289445  46.9363629  12.3233268  48.1786034  46.0022847
   4.0517490  44.9124607  46.2455400   4.8775510  44.6128379  45.8654043
   3.7011542  44.1432229  46.6945189   9.0199023  44.2651075  48.3153074
   8.3979032  43.6021780  48.0155301   9.6903890  44.2912207  47.6326721
   2.2526095  42.8310933  47.2044334   1.4158003  42.4033108  47.0228335
   2.2249740  43.0243377  48.1415125   9.0923550  32.7432863  57.9085580
   9.1411706  33.6194986  57.5263349   9.6346065  32.2010256  57.3357223
  19.5778396  43.2873986  57.1886717  18.7873940  43.2698125  56.6491216
  19.3411751  43.8262280  57.9435753  19.6976271  40.1366453  54.5019445
  19.7474276  39.9716460  55.4434968  19.5890195  39.2693712  54.1117326
   8.5812530  42.8154998  41.7911534   8.7300650  43.4990463  41.1378207
   9.3878973  42.7960088  42.3060990  16.9880034  36.1197381  55.8178752
  17.8889896  35.9803846  55.5262750  17.0628008  36.2851836  56.7576929
  11.3222839  33.4964236  54.6631938  10.4526148  33.7897802  54.3914527
  11.5582319  34.0804681  55.3839202  21.1994468  42.5563394  54.7461467
  20.9079276  42.9193375  55.5824928  20.5866599  41.8430403  54.5674799
  22.3990150  40.1216274  47.2664037  23.2337042  40.5606078  47.4301597
  22.5349279  39.6454927  46.4472283  19.4481656  37.6796009  53.2141525
  19.9235778  37.8723655  52.4060376  18.5247222  37.7355195  52.9684908
   6.3365163  38.8420176  42.7972603   6.0911205  37.9382506  42.9952813
   6.5061077  38.8437327  41.8552081  14.0261873  29.7143852  52.1797359
  14.5443817  30.4504879  51.8543847  13.6717006  30.0207846  53.0144118
   5.6060810  34.5748534  40.2958764   4.9130055  34.6492889  39.6398800
   5.3612562  33.8108877  40.8180281  14.2774467  26.1344135  47.6998255
  14.5576221  25.4667324  48.3258682  15.0625074  26.3273231  47.1872919
  12.0807935  45.3103129  39.2623281  11.5081902  45.9293316  38.8093753
  12.6540729  45.8602491  39.7963203  18.1483325  34.5561769  51.4469830
  19.1000748  34.6559867  51.4682054  17.9786776  33.7640038  51.9567915
  16.1697705  31.6417352  51.6329231  15.5747637  31.9222365  50.9375720
  15.8847401  32.1311253  52.4045972  15.3005195  45.5940279  40.3931864
  16.2335868  45.5285841  40.5964739  15.2128408  46.4296546  39.9346396
  17.9293212  44.9106149  37.3535811  17.8506843  44.5766013  38.2471569
  18.7502879  45.4027917  37.3527284  20.6271403  37.7767889  50.5612130
  20.5947723  36.8383889  50.7471814  21.2372027  37.8551925  49.8277955
  12.4654734  36.6463942  36.6039334  13.4113839  36.5170150  36.6727752
  12.0868979  35.9078604  37.0808762  20.7765892  34.5678932  50.6070413
  20.2604940  33.7837389  50.4200342  21.6605840  34.2397649  50.7716933
  18.4376618  28.3119948  46.5666226  18.2401440  28.0035036  47.4509558
  19.0476324  29.0381587  46.6964156  26.4447953  38.8383896  49.7018167
  27.1751341  38.5769184  50.2625870  25.8354898  38.1012617  49.7420235
  24.5263250  36.9791758  50.2992618  23.7996414  36.8447723  49.6909110
  24.1110537  37.2868587  51.1049336  12.3493426  40.6981688  58.0639991
  13.2696436  40.8760287  58.2580037  12.3143009  39.7537733  57.9119690
  10.6497651  34.5713918  36.5394219   9.7429106  34.2747031  36.6156933
  10.9273632  34.2743736  35.6728505   1.5675591  35.8920281  46.9893266
   1.2478376  35.0385590  46.6967640   1.0209020  36.1068860  47.7451233
   5.3455499  38.6082722  50.7062772   5.5641509  39.5399830  50.7250806
   5.7581273  38.2490697  51.4917576  12.2659717  29.1150808  42.6938460
  11.4560445  28.7697893  43.0693707  12.9544134  28.8058351  43.2826072
  14.1950265  28.1928855  44.3162757  14.7481304  28.6124308  44.9752780
  14.4320351  27.2664603  44.3585713  10.2183364  34.1815928  60.0965521
  10.1180091  35.1310285  60.0277612  10.0004906  33.8534167  59.2241591
   9.4196436  31.4300853  36.6806198  10.2815600  31.7555752  36.9402016
   9.6046780  30.6432349  36.1679264   1.4363851  39.5123193  48.9586387
   0.7427323  39.0977146  48.4456342   2.1836842  39.5543729  48.3619806
  17.5729072  30.3029380  43.8241421  16.9927741  30.9614184  43.4419474
  17.3065005  29.4806724  43.4128839  16.0232639  29.7034437  46.0262742
  16.5232417  29.8150972  45.2177061  16.6668246  29.3995490  46.6663550
  10.0814634  37.6113067  58.9130583   9.5981716  38.4113427  59.1194472
  10.1675573  37.6221012  57.9598027   3.3500594  39.4441447  46.8352402
   3.3271282  39.5429134  45.8834285   3.6601230  40.2906598  47.1569568
   6.0087972  41.5017602  50.9499016   6.9631225  41.4701544  50.8828948
   5.8100495  41.0408225  51.7649242   6.5987354  40.0718718  53.5169814
   7.4180243  40.5662796  53.5404651   6.8724162  39.1550686  53.4887382
  16.3553950  32.4629470  42.8797770  15.4679805  32.7479121  42.6617964
  16.7707939  32.3023233  42.0325047  19.7068486  32.4875991  46.5952109
  20.4828876  32.9772444  46.8676726  18.9816620  32.9134045  47.0523978
  22.1441045  33.2003610  47.6526050  22.7385536  32.9599346  46.9419358
  22.2167629  32.4810741  48.2799586   4.3638201  47.0437221  47.9669214
   4.2292669  46.2837622  47.4007212   3.9470263  47.7678121  47.4998003
  15.4997164  42.2274145  36.9745790  16.2033014  42.4324147  37.5903445
  14.7759812  42.7950907  37.2394873  16.3294974  37.9784006  43.0948060
  16.2730175  38.4352557  42.2555692  16.8823316  37.2174691  42.9170903
  20.1399780  33.7673738  43.9198179  19.8836714  33.3670374  44.7506387
  19.5152648  34.4817532  43.7948318  24.4512118  36.5069811  46.4269471
  23.8911676  36.5763000  47.2001033  23.8455621  36.3310796  45.7068967
   7.5207326  47.9406538  48.1787657   7.4039711  48.8851971  48.0766347
   6.6999773  47.6380100  48.5673456  17.4083861  42.6656674  39.0244250
  18.2429465  42.2337872  38.8421724  17.2468204  42.4938688  39.9521144
  17.0629753  39.1688787  40.3900589  17.0078557  39.0033059  39.4489033
  16.4375808  39.8764820  40.5462779   1.8522268  34.4056852  54.2162011
   2.4981132  33.8955806  54.7049236   1.6439419  35.1425533  54.7905436
  14.3775660  41.4737699  59.7154152  15.2466820  41.6478351  59.3540787
  13.8982412  42.2932116  59.5929881  10.3725879  28.6696896  39.9685907
  10.3604549  29.6138736  40.1254178  11.2649301  28.4867042  39.6745369
   8.5461841  48.5934800  51.3943585   9.4489087  48.6258410  51.7110080
   8.3199211  47.6635251  51.4089921  10.3015443  47.3465787  48.0553664
   9.3511074  47.3467648  47.9418036  10.6047929  46.5998521  47.5389699
  14.1877998  25.2639673  44.2231844  13.4210394  24.7098160  44.3688527
  14.5988703  25.3361542  45.0845996   6.1919759  31.5524469  58.3137025
   7.0551221  31.1961274  58.5240350   5.6185170  31.2138364  59.0012430
  26.0368136  53.1826325  49.1199426  26.6746546  53.0633072  48.4162767
  25.9188979  54.1307169  49.1787379  22.8457842  53.1353753  49.0560951
  22.5076354  53.0194818  48.1681486  23.7147611  52.7344918  49.0361957
  18.7044658  54.9889230  45.0457842  18.1409523  54.8979167  44.2774130
  18.5897053  54.1689134  45.5260335  23.3277625  54.2888605  55.0147157
  23.3166266  53.8941403  54.1427660  23.4898265  53.5554678  55.6080928
  16.2509090  56.4840421  47.8842063  17.0430382  56.1431246  47.4688362
  16.4905740  56.5935396  48.8044216  24.2844217  58.6560197  40.3572307
  23.6332197  59.2414278  39.9706321  25.0788580  59.1866392  40.4167344
  18.2099844  55.7449334  40.7559441  18.9830720  55.1978322  40.6172317
  18.5625243  56.6093584  40.9673903  20.0484887  57.0725717  53.9626341
  19.7574753  57.9771348  53.8473007  20.6841871  57.1142244  54.6770410
  20.9741093  54.4502565  50.5527700  21.5704666  54.2258588  49.8384663
  21.0316065  53.7087311  51.1553148  20.5466122  51.9042001  38.3877891
  20.7991642  51.3823522  37.6261354  19.6090681  51.7408146  38.4904575
  25.5909405  50.9077779  46.1952634  26.3772494  50.4897202  45.8443051
  25.8548109  51.8123871  46.3634283  25.7619482  56.3450629  40.8941291
  25.1265315  56.4185256  41.6062196  25.4316888  56.9344228  40.2160371
  30.9917832  50.8453012  47.0985613  31.7243004  50.2752229  47.3323442
  30.2357187  50.4574613  47.5392119  20.2662411  53.8070107  40.5902266
  20.1498669  53.1315010  41.2583351  20.3764670  53.3202480  39.7734419
  22.6093951  53.2680254  44.2948955  22.2452159  52.7410875  45.0061877
  23.4661067  52.8778723  44.1215441  28.5143252  44.5574586  51.5580222
  28.1826577  45.4269997  51.3341437  27.9188865  44.2410870  52.2374252
  22.2499438  48.2970153  39.2910304  22.4173841  49.1650390  39.6580775
  22.0596608  48.4597435  38.3671593  25.0074772  56.7587132  50.9576134
  24.7075495  57.6612171  50.8491942  24.6625831  56.4919315  51.8097287
  18.4587253  53.2100929  46.9912839  17.5337750  53.0777143  47.1990531
  18.7071666  53.9895148  47.4882781  28.4071915  49.2769672  48.6373572
  27.4988793  49.2085081  48.3432333  28.3559511  49.7541617  49.4655397
  22.2288659  50.7527811  40.2756971  22.1088285  51.1984862  41.1142451
  21.5341248  51.1013128  39.7170509  15.8196064  52.8534203  47.8256628
  15.9488445  53.1068682  48.7396040  15.1393515  53.4461911  47.5061283
  19.9895551  63.5231453  43.9247102  19.9119581  64.4739278  44.0035583
  19.3857195  63.1777325  44.5822028  22.4812781  50.6959318  56.5808469
  21.7046115  51.2553238  56.5711334  23.1203344  51.1816101  57.1023339
  30.2733562  47.4786111  50.4151446  29.6307942  47.7718644  49.7691240
  29.7688490  47.3639031  51.2204642  27.9273725  51.2249284  41.1037305
  28.8391582  51.4576671  40.9285002  27.4183373  51.8086328  40.5412383
  20.7359154  53.5044771  56.1426436  21.4773838  54.0429815  55.8661260
  20.0296139  54.1311060  56.2997988  26.2114493  55.6473912  54.7398597
  26.6197849  55.2056322  53.9953230  25.4891755  55.0726539  54.9932790
  22.5645563  50.5846519  52.1132154  23.4106758  51.0085932  52.2566803
  22.5044201  49.9280143  52.8070717  26.5343308  56.2075102  48.4950886
  25.9052170  56.3720817  47.7926954  26.1468970  56.6216712  49.2661850
  25.7145009  48.2450887  53.7713328  25.4705940  48.9992947  53.2347604
  25.9904939  48.6236235  54.6060575  27.6683471  54.7889499  52.4490594
  27.8800367  55.4321259  51.7724975  27.6213220  53.9551816  51.9812524
  25.2709700  47.4007320  49.3527166  24.4094179  47.6988574  49.6443903
  25.2972135  47.6177719  48.4208198  22.0871270  55.9449511  45.7600971
  22.5509615  56.2237214  44.9705594  21.8228068  55.0432955  45.5774062
  18.9795351  55.4920992  48.6980735  19.5496708  55.9208260  48.0598219
  19.5703463  55.2103577  49.3964920  21.0240156  52.0672663  42.5690537
  21.7264199  52.5193707  43.0364463  20.6920784  51.4256482  43.1970430
  19.4720517  50.6584420  56.9441746  18.8419178  51.3400700  57.1777143
  19.3656605  50.5467501  55.9994884  14.7665490  50.3256216  47.8707670
  13.9764544  50.5813744  47.3947781  15.2576737  51.1404553  47.9759711
  28.7829299  57.6661455  50.6212951  29.6046743  57.2641642  50.3395633
  28.7791702  57.5629689  51.5729067  16.7180235  50.6900795  44.8291147
  15.9211398  50.8019489  45.3474642  16.4905827  51.0287447  43.9632037
  22.5485903  57.2145498  52.7773661  22.6130335  57.6765905  53.6131833
  21.8396827  56.5842863  52.9055971  13.0503193  50.5786706  50.3022661
  13.3011231  51.4633716  50.5680237  13.5862741  50.3991308  49.5297753
  36.8735292  54.0100203  46.9697922  36.1199001  53.4407601  46.8141927
  37.0082834  53.9762868  47.9168557  22.2633920  58.8813606  42.6452642
  22.1279595  59.7265141  43.0737490  22.8043733  59.0832883  41.8818576
  18.7501260  44.9605185  59.3066997  18.3568206  44.4071384  59.9814641
  19.5667400  45.2715764  59.6973514  15.7163318  56.3989044  43.2180567
  16.2287838  57.1932294  43.3686132  16.3686031  55.7015334  43.1514168
  17.5258202  59.5154800  45.3003320  17.7024831  60.4372765  45.1124304
  18.3215036  59.2013219  45.7297700  21.6669221  46.3763064  56.8987254
  22.4078934  46.9770218  56.8191716  21.8987144  45.6340702  56.3405296
  16.8110559  51.5619432  55.1765483  16.6964074  50.6604689  55.4772582
  15.9555077  51.8083128  54.8250300  23.8902397  59.5037172  56.7752984
  23.4466251  58.7173551  56.4573888  24.5519610  59.6916323  56.1096875
  18.6489518  61.0332974  51.3013662  19.1996943  60.9050037  50.5290656
  17.8100994  61.3327863  50.9508555  25.9883635  59.7839972  54.8034385
  25.9702110  60.6048853  54.3114654  26.9103555  59.6594047  55.0284526
  22.4456689  57.2984101  55.6457893  22.9785026  56.5372390  55.4157201
  21.9170770  57.0057753  56.3882048  25.6126384  42.4044167  51.1751535
  25.2690653  43.2945809  51.0990646  25.9805347  42.2145825  50.3121120
  13.6812235  54.7277698  43.9940137  14.5187457  55.1374706  43.7773845
  13.8590502  53.7877140  43.9640331  25.5776667  52.3952779  39.6823970
  25.0623290  53.1657383  39.9212358  25.3053975  51.7217915  40.3057032
  23.1623778  47.2402479  44.7409209  22.3065374  46.8509330  44.5614847
  23.5750729  47.3194440  43.8808994  24.6922924  44.7748823  49.1400768
  24.1887720  44.7378958  48.3268574  24.9853531  45.6841565  49.1997425
  20.9365810  44.8587552  48.1466950  21.8018807  44.6630361  47.7872840
  21.0043319  44.6297904  49.0736307  30.5510941  55.1485133  41.6177144
  29.7740384  54.8096293  41.1732306  31.2302422  55.1537756  40.9432109
  25.3662970  50.2679871  41.5083751  25.0613105  50.5826020  42.3593895
  26.3193412  50.3461291  41.5511084  23.8109402  56.4270094  43.1576705
  23.2830763  55.6922854  42.8449943  23.3096904  57.2044770  42.9116674
  28.7902248  54.6219114  48.2743752  28.1325922  55.3118376  48.3623880
  29.5942647  55.0115546  48.6177738  18.5428129  47.0889760  45.5183317
  19.1171881  46.8664942  44.7856510  19.1299112  47.1578455  46.2711918
  27.6007706  52.9763487  46.3247694  28.1139588  53.6093479  46.8269403
  28.2508930  52.3764683  45.9591054  18.8697716  49.1194221  39.5379202
  18.0335029  49.4568908  39.8588477  18.7302486  48.9843201  38.6006339
  20.8450797  43.9631009  44.2458386  20.1915209  43.6480026  43.6215001
  20.8031271  43.3406750  44.9718209  21.9562002  54.2450304  36.1611678
  21.0489064  54.0139558  36.3602827  22.4533034  53.4487923  36.3485660
  24.8630081  62.9547811  39.0808365  24.1891779  63.2579508  39.6893322
  25.2495903  63.7576892  38.7313822  24.0788537  50.4512943  48.5706034
  23.1611099  50.6727890  48.4127722  24.4948681  50.5259253  47.7117741
  24.8623585  51.8504358  43.7008714  25.6095404  52.3625756  43.3915836
  25.1315175  51.5288411  44.5613108  23.1350235  54.3462899  40.6835669
  22.2261455  54.0621932  40.7808138  23.1645319  54.7661978  39.8238975
  28.3669503  57.9569489  44.4526836  27.9131830  57.1160398  44.5092027
  27.7363469  58.5930887  44.7901616  27.3102422  48.8861475  45.6827504
  26.5725179  48.3738861  46.0137746  27.5629196  48.4461856  44.8710780
  26.8102442  59.7945985  45.3876654  27.1025416  60.3551042  44.6689020
  27.3201063  60.0874546  46.1429813  27.4114050  41.6637727  46.2769273
  27.7172926  40.8035090  45.9895188  28.1366654  42.2555347  46.0768267
  13.7038406  52.0668413  44.6650871  13.5062805  51.4737774  43.9401937
  13.1485070  51.7620623  45.3826810  21.6835129  51.9591520  46.7845464
  21.7383739  51.0065356  46.7087941  20.8726331  52.1150959  47.2686762
  22.8326323  55.8871643  38.0223747  22.3945753  55.1707502  37.5629385
  23.5736764  56.1147758  37.4608839  19.6227489  50.5768579  44.5435843
  18.8095355  50.8762750  44.9501035  20.1186483  50.1824268  45.2610325
  21.7736067  60.5726336  46.4770108  21.7312246  60.7987183  45.5478640
  22.6898766  60.3389711  46.6255909  25.2201701  51.0410404  53.3750737
  25.5751089  51.2681877  54.2345202  25.8673832  51.3728781  52.7527992
  30.9499438  54.1628840  44.0800066  30.8117336  54.3530436  43.1521255
  30.5935657  54.9248223  44.5368117  19.1141564  48.1486935  50.1597078
  19.7540943  48.0075694  49.4620041  18.2819095  47.8621448  49.7835680
  30.9768817  56.2305367  49.0911337  31.4105324  56.1380656  49.9394391
  31.6900398  56.2062867  48.4531353  19.8901868  57.4489365  46.2732070
  20.6842466  56.9539685  46.0714645  19.1793560  56.9207228  45.9099776
  24.7096712  59.8307461  50.6244438  24.7633735  60.3998397  51.3922154
  23.8411494  60.0009346  50.2598475  16.1984631  51.5932447  42.3491823
  15.2682219  51.5316903  42.5661785  16.2942103  51.0708400  41.5528464
  16.1170180  48.1187260  44.9370065  16.3776998  49.0332593  44.8279225
  16.9387353  47.6511702  45.0866677  17.5895106  49.5325017  52.1068889
  18.2618159  49.3242379  51.4581538  16.7624892  49.3347103  51.6674121
  23.4920678  46.1586958  54.1234550  22.8448593  46.8576908  54.0299026
  24.2621693  46.5923102  54.4910798  26.8999476  56.4235810  57.1985103
  26.7484982  56.1946362  56.2815187  26.8904155  57.3806412  57.2116448
  23.6684812  53.9967723  52.1831370  24.5976872  54.1478883  52.0100337
  23.2475842  54.0851744  51.3280016  22.4673144  58.0218387  49.9529907
  22.3284230  57.6537172  50.8255845  21.6787740  58.5366027  49.7813865
  23.0621296  63.1227484  41.2955444  23.2373052  62.6515527  42.1101067
  22.3754084  63.7493250  41.5236705  24.0178359  57.3999990  47.3418745
  23.6828192  57.3600760  48.2376395  23.5182305  56.7344706  46.8689155
  17.9922603  52.8067620  52.8671326  17.8542401  52.0747859  53.4682865
  18.9027526  52.7176520  52.5855514  26.9537551  54.7456024  37.6155805
  26.3366721  54.0202853  37.5188857  26.4854039  55.5065385  37.2722879
  20.6204904  52.5187579  52.3555006  21.3304522  51.8780772  52.3141624
  20.5774212  52.7700474  53.2781187  28.6091682  59.4554933  55.2761585
  28.5504229  58.7714153  54.6092168  29.0111201  60.1973923  54.8242211
  19.3333838  49.5052797  54.1750645  18.7971195  49.0543536  54.8272242
  18.7450546  49.6398706  53.4321110  17.6282381  66.2716847  48.0695304
  17.8678979  66.9035371  48.7474323  16.7851578  65.9204887  48.3560663
  18.7436097  48.9641449  36.7377109  17.8665563  48.8430249  36.3739356
  19.2193850  48.1727527  36.4855998  28.6109090  57.4194517  53.5075565
  27.7235868  57.0820438  53.6301964  29.1807641  56.6877548  53.7444330
  10.2638237  53.7518608  46.8318616  10.9509277  53.4380338  46.2439631
  10.1086365  54.6559973  46.5585868  15.0672959  48.6408805  51.2603640
  14.9831148  48.0334475  50.5254050  14.2455665  49.1317823  51.2613136
  22.1410243  62.0795969  50.4736808  22.0680414  62.8850941  50.9856113
  21.6987636  62.2787935  49.6484829  21.9300023  61.3167739  43.9839630
  21.1467545  61.8589419  44.0777854  22.6292768  61.8341719  44.3833871
  25.2396673  47.1262369  46.6273835  25.7365372  46.3732331  46.3074905
  24.4683654  47.1626685  46.0617044  33.0926430  52.8302734  48.2692126
  33.0816306  53.7127449  47.8986060  32.2243810  52.4774285  48.0746663
  24.6008927  61.9782803  52.6294967  25.3136899  62.6130268  52.5570868
  24.1098955  62.0746669  51.8134968  26.3226453  55.8834056  44.2012258
  25.3882732  56.0035518  44.0316963  26.5003122  54.9806522  43.9372268
  21.8231642  49.2679751  46.3545520  21.4529429  48.7150792  47.0426425
  22.3190734  48.6637885  45.8020520  29.7099005  51.7251375  44.7362292
  30.1759457  52.5579367  44.6622595  30.1606505  51.2596357  45.4407551
  19.6520840  59.7277247  53.4500537  20.3530300  60.3613729  53.6029932
  19.1815955  60.0691978  52.6896177  27.7775236  58.0695196  41.7348445
  28.0535080  57.9551791  42.6442319  26.9079735  57.6712681  41.6960618
  27.6815668  44.0931962  48.7753194  26.7678747  44.3236189  48.9435401
  28.1108769  44.1770406  49.6267226  27.4522126  52.2821854  51.2753088
  26.7993576  52.5297761  50.6205541  27.8302506  51.4685992  50.9415565
  24.4129300  62.3181547  45.3781258  24.5951694  61.5003203  45.8409010
  25.2362286  62.5349239  44.9406148  24.7471465  61.2449732  42.6396307
  25.2759232  60.7342187  42.0266469  25.0099685  60.9292262  43.5041840
  23.5009699  53.0241665  57.7619125  22.8250336  52.9235794  58.4321500
  24.3237333  52.8680879  58.2255122  15.2488558  59.2613602  50.3831640
  15.8341995  58.5157289  50.5159544  15.0513397  59.5717558  51.2668304
  18.1027213  62.2964849  45.3994083  17.4337589  62.7810977  44.9158123
  17.9640083  62.5434069  46.3137461   9.8406213  51.8319202  49.1036083
   9.8790312  51.2982792  49.8973201   9.3346506  51.3054407  48.4847060
  22.2432482  64.3308592  51.9976741  22.7950790  64.4940214  52.7625826
  22.5838675  64.9213030  51.3256766  17.2196975  46.6783742  52.5998626
  17.2838302  47.5398573  52.1876023  17.1564095  46.0657744  51.8670984
  16.6949248  48.7506875  56.2471660  17.3221287  48.3683952  56.8609184
  15.8377167  48.5321077  56.6127352  27.0943356  59.1569850  57.8525395
  27.6383260  59.7699808  57.3580350  26.5130201  59.7149428  58.3692408
  13.4714790  50.5583304  42.1790015  13.7668232  49.6493982  42.1257068
  12.5702826  50.5371043  41.8571017  25.3800869  62.2790568  48.9840423
  25.2552009  61.4780308  48.4751369  26.0379960  62.7736761  48.4954393
  17.0009037  48.6339300  48.1617563  16.2795623  49.2475268  48.0225037
  17.7902293  49.1697065  48.0834209  27.4435778  60.0799588  50.6119973
  26.4966113  59.9604939  50.5398300  27.7918551  59.1922086  50.6946235
  19.8035351  45.9693727  54.4358215  20.3269753  46.2156024  55.1984524
  19.5847684  46.8013762  54.0161352  15.2002632  48.2397402  42.3029340
  14.8715338  47.3594780  42.1204446  15.5542003  48.1845070  43.1905729
  24.4482211  59.8752304  46.8124325  24.3007173  58.9469012  46.9931895
  25.2735704  59.8972395  46.3281401  18.3144455  48.5270371  42.6704818
  18.6540528  49.0556293  41.9483426  18.7616576  48.8650777  43.4463384
  28.0516333  60.6980863  47.8989198  28.9762880  60.4923724  47.7613649
  27.8831636  60.4497264  48.8078540  21.0087896  46.9107422  52.1207886
  20.6684716  46.1115235  52.5228565  20.3026902  47.2109133  51.5484719
  21.6604368  43.9956735  50.5735209  22.4830437  43.5217213  50.4514099
  21.9042431  44.7747218  51.0733895  20.3012602  47.0244993  40.8698110
  21.0220965  47.4026246  40.3661827  19.6777906  47.7433870  40.9733088
  24.4443725  47.7290142  41.8056443  24.6607340  48.6114780  41.5045271
  23.9637792  47.3376355  41.0762085  19.1842947  50.6875855  48.3827187
  19.0387527  51.0016158  49.2751469  18.7068150  51.3060755  47.8298086
  21.0439329  47.6778403  48.4308077  21.0300898  46.7819496  48.0940375
  21.7611758  47.6849067  49.0646363  22.8965460  48.1115743  50.4761204
  22.6383238  49.0332814  50.4745535  22.3650501  47.7146178  51.1661668
  27.8411649  61.2166530  43.2551290  28.0148526  60.6512953  42.5025142
  28.3340540  62.0167425  43.0730780  13.6588609  53.2281200  51.3214848
  13.1142077  54.0041008  51.4535123  14.5367959  53.5752004  51.1633970
  20.4476225  46.5592783  43.6995647  20.5692137  45.6309430  43.8986534
  20.1578268  46.5731469  42.7873962  23.3167416  44.2447694  46.8362367
  23.3389113  44.3087027  45.8814346  23.7335475  43.4052203  47.0302873
  33.6951040  53.9802953  44.8741589  34.1382186  53.2310279  44.4760713
  32.8177550  53.9713090  44.4915321  28.8286821  60.5333295  40.3548188
  29.5237726  61.1539988  40.5735503  29.1709972  59.6828646  40.6300566
  14.4454631  52.3551096  54.2145005  13.7036367  52.5033731  54.8009636
  14.1247375  52.6159361  53.3511755  30.7278245  57.9833000  41.8835519
  31.2529569  58.3220273  41.1584839  30.6400597  57.0480016  41.6998653
  22.3898293  61.8967074  54.0125395  22.6985420  61.6516221  54.8848095
  23.1873775  62.1013713  53.5244266  22.4118905  64.0504984  46.2430772
  21.9723896  63.5581362  46.9363629  23.1627022  63.5077951  46.0022847
  14.8911244  60.2416525  46.2455400  15.7169264  59.9420296  45.8654043
  14.5405296  59.4724147  46.6945189  19.8592777  59.5942993  48.3153074
  19.2372787  58.9313698  48.0155301  20.5297644  59.6204125  47.6326721
  13.0919849  58.1602851  47.2044334  12.2551758  57.7325025  47.0228335
  13.0643495  58.3535294  48.1415125  19.9317305  48.0724781  57.9085580
  19.9805460  48.9486904  57.5263349  20.4739819  47.5302174  57.3357223
  30.4172151  58.6165904  57.1886717  29.6267694  58.5990043  56.6491216
  30.1805505  59.1554198  57.9435753  30.5370026  55.4658370  54.5019445
  30.5868031  55.3008378  55.4434968  30.4283949  54.5985629  54.1117326
  19.4206284  58.1446916  41.7911534  19.5694405  58.8282381  41.1378207
  20.2272728  58.1252006  42.3060990  27.8273788  51.4489298  55.8178752
  28.7283651  51.3095763  55.5262750  27.9021763  51.6143753  56.7576929
  22.1616593  48.8256153  54.6631938  21.2919903  49.1189719  54.3914527
  22.3976074  49.4096598  55.3839202  33.2383905  55.4508192  47.2664037
  34.0730796  55.8897996  47.4301597  33.3743034  54.9746845  46.4472283
  30.2875411  53.0087927  53.2141525  30.7629532  53.2015573  52.4060376
  29.3640976  53.0647112  52.9684908  17.1758917  54.1712094  42.7972603
  16.9304959  53.2674424  42.9952813  17.3454832  54.1729244  41.8552081
  24.8655627  45.0435770  52.1797359  25.3837571  45.7796797  51.8543847
  24.5110760  45.3499763  53.0144118  16.4454565  49.9040451  40.2958764
  15.7523810  49.9784806  39.6398800  16.2006317  49.1400795  40.8180281
  25.1168221  41.4636053  47.6998255  25.3969975  40.7959242  48.3258682
  25.9018828  41.6565148  47.1872919  22.9201690  60.6395047  39.2623281
  22.3475657  61.2585234  38.8093753  23.4934484  61.1894408  39.7963203
  28.9877080  49.8853687  51.4469830  29.9394503  49.9851784  51.4682054
  28.8180530  49.0931955  51.9567915  27.0091459  46.9709270  51.6329231
  26.4141391  47.2514283  50.9375720  26.7241156  47.4603171  52.4045972
  26.1398950  60.9232197  40.3931864  27.0729623  60.8577758  40.5964739
  26.0522163  61.7588464  39.9346396  28.7686966  60.2398067  37.3535811
  28.6900598  59.9057931  38.2471569  29.5896633  60.7319835  37.3527284
  31.4665158  53.1059806  50.5612130  31.4341478  52.1675807  50.7471814
  32.0765781  53.1843843  49.8277955  23.3048488  51.9755859  36.6039334
  24.2507593  51.8462067  36.6727752  22.9262733  51.2370521  37.0808762
  31.6159646  49.8970850  50.6070413  31.0998695  49.1129306  50.4200342
  32.4999595  49.5689566  50.7716933  29.2770373  43.6411865  46.5666226
  29.0795194  43.3326954  47.4509558  29.8870079  44.3673504  46.6964156
  35.3657005  52.3083676  50.2992618  34.6390168  52.1739641  49.6909110
  34.9504291  52.6160504  51.1049336  23.1887181  56.0273605  58.0639991
  24.1090190  56.2052204  58.2580037  23.1536764  55.0829651  57.9119690
  21.4891406  49.9005836  36.5394219  20.5822861  49.6038948  36.6156933
  21.7667387  49.6035654  35.6728505  12.4069346  51.2212199  46.9893266
  12.0872130  50.3677507  46.6967640  11.8602774  51.4360777  47.7451233
  16.1849253  53.9374640  50.7062772  16.4035263  54.8691748  50.7250806
  16.5975027  53.5782615  51.4917576  23.1053471  44.4442725  42.6938460
  22.2954200  44.0989810  43.0693707  23.7937888  44.1350269  43.2826072
  25.0344020  43.5220772  44.3162757  25.5875058  43.9416226  44.9752780
  25.2714106  42.5956520  44.3585713  21.0577119  49.5107846  60.0965521
  20.9573846  50.4602203  60.0277612  20.8398661  49.1826085  59.2241591
  20.2590190  46.7592771  36.6806198  21.1209354  47.0847669  36.9402016
  20.4440534  45.9724267  36.1679264  12.2757606  54.8415111  48.9586387
  11.5821077  54.4269063  48.4456342  13.0230597  54.8835647  48.3619806
  28.4122827  45.6321297  43.8241421  27.8321496  46.2906101  43.4419474
  28.1458759  44.8098642  43.4128839  26.8626393  45.0326355  46.0262742
  27.3626171  45.1442890  45.2177061  27.5062001  44.7287408  46.6663550
  20.9208389  52.9404985  58.9130583  20.4375471  53.7405345  59.1194472
  21.0069328  52.9512930  57.9598027  14.1894348  54.7733364  46.8352402
  14.1665037  54.8721052  45.8834285  14.4994985  55.6198515  47.1569568
  16.8481726  56.8309519  50.9499016  17.8024980  56.7993462  50.8828948
  16.6494250  56.3700143  51.7649242  17.4381108  55.4010635  53.5169814
  18.2573997  55.8954714  53.5404651  17.7117916  54.4842604  53.4887382
  27.1947705  47.7921388  42.8797770  26.3073560  48.0771038  42.6617964
  27.6101694  47.6315151  42.0325047  30.5462241  47.8167909  46.5952109
  31.3222631  48.3064361  46.8676726  29.8210375  48.2425963  47.0523978
  32.9834799  48.5295528  47.6526050  33.5779290  48.2891264  46.9419358
  33.0561383  47.8102659  48.2799586  15.2031955  62.3729139  47.9669214
  15.0686423  61.6129540  47.4007212  14.7864017  63.0970039  47.4998003
  26.3390918  57.5566062  36.9745790  27.0426768  57.7616065  37.5903445
  25.6153567  58.1242824  37.2394873  27.1688728  53.3075924  43.0948060
  27.1123930  53.7644475  42.2555692  27.7217071  52.5466608  42.9170903
  30.9793534  49.0965656  43.9198179  30.7230469  48.6962291  44.7506387
  30.3546402  49.8109450  43.7948318  35.2905872  51.8361729  46.4269471
  34.7305430  51.9054918  47.2001033  34.6849376  51.6602713  45.7068967
  18.3601081  63.2698456  48.1787657  18.2433465  64.2143888  48.0766347
  17.5393527  62.9672017  48.5673456  28.2477616  57.9948592  39.0244250
  29.0823219  57.5629790  38.8421724  28.0861958  57.8230605  39.9521144
  27.9023508  54.4980705  40.3900589  27.8472312  54.3324976  39.4489033
  27.2769563  55.2056738  40.5462779  12.6916023  49.7348769  54.2162011
  13.3374886  49.2247723  54.7049236  12.4833174  50.4717451  54.7905436
  25.2169415  56.8029617  59.7154152  26.0860575  56.9770269  59.3540787
  24.7376166  57.6224034  59.5929881  21.2119633  43.9988814  39.9685907
  21.1998303  44.9430654  40.1254178  22.1043055  43.8158959  39.6745369
  19.3855595  63.9226718  51.3943585  20.2882842  63.9550328  51.7110080
  19.1592965  62.9927169  51.4089921  21.1409197  62.6757704  48.0553664
  20.1904828  62.6759566  47.9418036  21.4441683  61.9290439  47.5389699
  25.0271753  40.5931591  44.2231844  24.2604148  40.0390077  44.3688527
  25.4382458  40.6653459  45.0845996  17.0313514  46.8816386  58.3137025
  17.8944975  46.5253191  58.5240350  16.4578924  46.5430281  59.0012430
  29.5438413  70.3181147  45.0457842  28.9803278  70.2271084  44.2774130
  29.4290808  69.4981052  45.5260335  27.0902845  71.8132339  47.8842063
  27.8824136  71.4723164  47.4688362  27.3299495  71.9227314  48.8044216
  35.1237971  73.9852115  40.3572307  34.4725951  74.5706195  39.9706321
  35.9182334  74.5158310  40.4167344  29.0493598  71.0741252  40.7559441
  29.8224474  70.5270239  40.6172317  29.4018997  71.9385501  40.9673903
  31.3859876  67.2333918  38.3877891  31.6385397  66.7115440  37.6261354
  30.4484435  67.0700064  38.4904575  36.6013236  71.6742547  40.8941291
  35.9659069  71.7477173  41.6062196  36.2710643  72.2636146  40.2160371
  31.1056165  69.1362024  40.5902266  30.9892423  68.4606928  41.2583351
  31.2158425  68.6494398  39.7734419  33.0893193  63.6262071  39.2910304
  33.2567595  64.4942307  39.6580775  32.8990362  63.7889353  38.3671593
  29.2981008  68.5392847  46.9912839  28.3731504  68.4069061  47.1990531
  29.5465421  69.3187066  47.4882781  33.0682414  66.0819728  40.2756971
  32.9482039  66.5276779  41.1142451  32.3735002  66.4305046  39.7170509
  26.6589819  68.1826120  47.8256628  26.7882200  68.4360599  48.7396040
  25.9787270  68.7753828  47.5061283  30.8289306  78.8523370  43.9247102
  30.7513336  79.8031195  44.0035583  30.2250950  78.5069243  44.5822028
  32.9265024  71.2741428  45.7600971  33.3903370  71.5529131  44.9705594
  32.6621822  70.3724873  45.5774062  29.8189105  70.8212910  48.6980735
  30.3890462  71.2500178  48.0598219  30.4097217  70.5395494  49.3964920
  31.8633910  67.3964581  42.5690537  32.5657954  67.8485624  43.0364463
  31.5314539  66.7548399  43.1970430  30.3114272  65.9876337  56.9441746
  29.6812932  66.6692618  57.1777143  30.2050360  65.8759419  55.9994884
  25.6059244  65.6548133  47.8707670  24.8158298  65.9105662  47.3947781
  26.0970492  66.4696471  47.9759711  27.5573990  66.0192712  44.8291147
  26.7605153  66.1311407  45.3474642  27.3299582  66.3579365  43.9632037
  23.8896947  65.9078624  50.3022661  24.1404986  66.7925634  50.5680237
  24.4256496  65.7283225  49.5297753  33.1027675  74.2105523  42.6452642
  32.9673350  75.0557059  43.0737490  33.6437487  74.4124801  41.8818576
  26.5557072  71.7280961  43.2180567  27.0681593  72.5224211  43.3686132
  27.2079785  71.0307252  43.1514168  28.3651957  74.8446718  45.3003320
  28.5418585  75.7664682  45.1124304  29.1608790  74.5305137  45.7297700
  27.6504313  66.8911349  55.1765483  27.5357829  65.9896607  55.4772582
  26.7948831  67.1375046  54.8250300  29.4883272  76.3624891  51.3013662
  30.0390698  76.2341955  50.5290656  28.6494748  76.6619780  50.9508555
  24.5205989  70.0569616  43.9940137  25.3581211  70.4666624  43.7773845
  24.6984257  69.1169058  43.9640331  36.4170421  67.7244696  39.6823970
  35.9017045  68.4949301  39.9212358  36.1447730  67.0509832  40.3057032
  41.3904695  70.4777051  41.6177144  40.6134138  70.1388210  41.1732306
  42.0696176  70.4829674  40.9432109  34.6503156  71.7562012  43.1576705
  34.1224518  71.0214771  42.8449943  34.1490659  72.5336688  42.9116674
  29.3821884  62.4181678  45.5183317  29.9565636  62.1956859  44.7856510
  29.9692866  62.4870372  46.2711918  29.7091471  64.4486139  39.5379202
  28.8728783  64.7860825  39.8588477  29.5696241  64.3135119  38.6006339
  32.7955756  69.5742222  36.1611678  31.8882818  69.3431475  36.3602827
  33.2926788  68.7779841  36.3485660  35.7023835  78.2839729  39.0808365
  35.0285534  78.5871426  39.6893322  36.0889657  79.0868809  38.7313822
  33.9743990  69.6754817  40.6835669  33.0655209  69.3913850  40.7808138
  34.0039074  70.0953895  39.8238975  39.2063257  73.2861406  44.4526836
  38.7525584  72.4452316  44.5092027  38.5757224  73.9222805  44.7901616
  37.6496196  75.1237903  45.3876654  37.9419171  75.6842960  44.6689020
  38.1594817  75.4166464  46.1429813  24.5432160  67.3960331  44.6650871
  24.3456560  66.8029692  43.9401937  23.9878824  67.0912541  45.3826810
  33.6720078  71.2163560  38.0223747  33.2339507  70.4999419  37.5629385
  34.4130518  71.4439675  37.4608839  30.4621244  65.9060497  44.5435843
  29.6489109  66.2054668  44.9501035  30.9580238  65.5116186  45.2610325
  32.6129822  75.9018254  46.4770108  32.5706000  76.1279100  45.5478640
  33.5292520  75.6681629  46.6255909  29.9535318  63.4778853  50.1597078
  30.5934698  63.3367612  49.4620041  29.1212849  63.1913366  49.7835680
  30.7295622  72.7781283  46.2732070  31.5236221  72.2831603  46.0714645
  30.0187315  72.2499146  45.9099776  35.5490467  75.1599379  50.6244438
  35.6027489  75.7290315  51.3922154  34.6805248  75.3301264  50.2598475
  27.0378386  66.9224365  42.3491823  26.1075974  66.8608820  42.5661785
  27.1335858  66.4000318  41.5528464  26.9563935  63.4479178  44.9370065
  27.2170752  64.3624511  44.8279225  27.7781107  62.9803620  45.0866677
  28.4288860  64.8616935  52.1068889  29.1011914  64.6534297  51.4581538
  27.6018647  64.6639021  51.6674121  33.3066898  73.3510305  49.9529907
  33.1677984  72.9829089  50.8255845  32.5181495  73.8657944  49.7813865
  33.9015050  78.4519401  41.2955444  34.0766806  77.9807445  42.1101067
  33.2147838  79.0785168  41.5236705  34.8572114  72.7291908  47.3418745
  34.5221946  72.6892678  48.2376395  34.3576059  72.0636624  46.8689155
  28.8316357  68.1359538  52.8671326  28.6936155  67.4039777  53.4682865
  29.7421281  68.0468438  52.5855514  37.7931305  70.0747942  37.6155805
  37.1760476  69.3494770  37.5188857  37.3247794  70.8357302  37.2722879
  30.1727592  64.8344715  54.1750645  29.6364949  64.3835453  54.8272242
  29.5844301  64.9690624  53.4321110  28.4676136  81.6008764  48.0695304
  28.7072734  82.2327288  48.7474323  27.6245332  81.2496804  48.3560663
  29.5829851  64.2933366  36.7377109  28.7059317  64.1722167  36.3739356
  30.0587604  63.5019445  36.4855998  21.1031991  69.0810526  46.8318616
  21.7903031  68.7672256  46.2439631  20.9480120  69.9851891  46.5585868
  25.9066713  63.9700723  51.2603640  25.8224902  63.3626392  50.5254050
  25.0849420  64.4609741  51.2613136  32.9803998  77.4087887  50.4736808
  32.9074169  78.2142858  50.9856113  32.5381391  77.6079853  49.6484829
  32.7693777  76.6459657  43.9839630  31.9861299  77.1881337  44.0777854
  33.4686522  77.1633636  44.3833871  35.4402681  77.3074721  52.6294967
  36.1530653  77.9422186  52.5570868  34.9492710  77.4038587  51.8134968
  37.1620208  71.2125973  44.2012258  36.2276487  71.3327436  44.0316963
  37.3396876  70.3098440  43.9372268  38.6168990  73.3987114  41.7348445
  38.8928834  73.2843709  42.6442319  37.7473489  73.0004599  41.6960618
  35.2523054  77.6473465  45.3781258  35.4345449  76.8295121  45.8409010
  36.0756040  77.8641157  44.9406148  35.5865220  76.5741650  42.6396307
  36.1152986  76.0634105  42.0266469  35.8493439  76.2584180  43.5041840
  26.0882313  74.5905519  50.3831640  26.6735749  73.8449207  50.5159544
  25.8907151  74.9009476  51.2668304  28.9420968  77.6256767  45.3994083
  28.2731343  78.1102894  44.9158123  28.8033838  77.8725987  46.3137461
  20.6799967  67.1611119  49.1036083  20.7184067  66.6274710  49.8973201
  20.1740260  66.6346325  48.4847060  33.0826236  79.6600510  51.9976741
  33.6344544  79.8232132  52.7625826  33.4232430  80.2504948  51.3256766
  28.0590730  62.0075660  52.5998626  28.1232056  62.8690491  52.1876023
  27.9957850  61.3949662  51.8670984  27.5343002  64.0798792  56.2471660
  28.1615041  63.6975870  56.8609184  26.6770921  63.8612994  56.6127352
  24.3108545  65.8875222  42.1790015  24.6061986  64.9785900  42.1257068
  23.4096581  65.8662961  41.8571017  36.2194624  77.6082486  48.9840423
  36.0945763  76.8072226  48.4751369  36.8773715  78.1028679  48.4954393
  27.8402792  63.9631218  48.1617563  27.1189378  64.5767186  48.0225037
  28.6296048  64.4988983  48.0834209  26.0396387  63.5689319  42.3029340
  25.7109093  62.6886698  42.1204446  26.3935757  63.5136988  43.1905729
  35.2875965  75.2044222  46.8124325  35.1400928  74.2760929  46.9931895
  36.1129459  75.2264313  46.3281401  29.1538210  63.8562289  42.6704818
  29.4934282  64.3848210  41.9483426  29.6010330  64.1942695  43.4463384
  38.8910087  76.0272781  47.8989198  39.8156635  75.8215642  47.7613649
  38.7225391  75.7789182  48.8078540  31.1406357  62.3536911  40.8698110
  31.8614719  62.7318163  40.3661827  30.5171661  63.0725787  40.9733088
  35.2837480  63.0582060  41.8056443  35.5001094  63.9406697  41.5045271
  34.8031547  62.6668273  41.0762085  30.0236701  66.0167773  48.3827187
  29.8781282  66.3308076  49.2751469  29.5461905  66.6352673  47.8298086
  38.6805403  76.5458448  43.2551290  38.8542281  75.9804871  42.5025142
  39.1734295  77.3459343  43.0730780  24.4982363  68.5573117  51.3214848
  23.9535831  69.3332925  51.4535123  25.3761713  68.9043922  51.1633970
  31.2869980  61.8884701  43.6995647  31.4085891  60.9601347  43.8986534
  30.9972022  61.9023387  42.7873962  39.6680576  75.8625213  40.3548188
  40.3631481  76.4831905  40.5735503  40.0103726  75.0120564  40.6300566
  25.2848385  67.6843014  54.2145005  24.5430121  67.8325649  54.8009636
  24.9641129  67.9451279  53.3511755  41.5671999  73.3124918  41.8835519
  42.0923323  73.6512191  41.1584839  41.4794352  72.3771933  41.6998653
  33.2292048  77.2258992  54.0125395  33.5379174  76.9808138  54.8848095
  34.0267530  77.4305630  53.5244266  33.2512660  79.3796901  46.2430772
  32.8117650  78.8873280  46.9363629  34.0020777  78.8369869  46.0022847
  25.7304999  75.5708442  46.2455400  26.5563019  75.2712214  45.8654043
  25.3799051  74.8016065  46.6945189  30.6986532  74.9234910  48.3153074
  30.0766541  74.2605615  48.0155301  31.3691399  74.9496042  47.6326721
  23.9313604  73.4894769  47.2044334  23.0945512  73.0616943  47.0228335
  23.9037249  73.6827212  48.1415125  30.2600039  73.4738834  41.7911534
  30.4088159  74.1574298  41.1378207  31.0666482  73.4543924  42.3060990
  28.0152672  69.5004011  42.7972603  27.7698714  68.5966341  42.9952813
  28.1848586  69.5021162  41.8552081  27.2848319  65.2332369  40.2958764
  26.5917564  65.3076724  39.6398800  27.0400071  64.4692713  40.8180281
  33.7595444  75.9686964  39.2623281  33.1869411  76.5877151  38.8093753
  34.3328238  76.5186326  39.7963203  36.9792704  76.2524114  40.3931864
  37.9123377  76.1869676  40.5964739  36.8915917  77.0880381  39.9346396
  39.6080721  75.5689985  37.3535811  39.5294352  75.2349848  38.2471569
  40.4290388  76.0611753  37.3527284  34.1442243  67.3047777  36.6039334
  35.0901348  67.1753985  36.6727752  33.7656488  66.5662439  37.0808762
  32.3285160  65.2297753  36.5394219  31.4216615  64.9330866  36.6156933
  32.6061141  64.9327571  35.6728505  23.2463100  66.5504117  46.9893266
  22.9265885  65.6969425  46.6967640  22.6996529  66.7652695  47.7451233
  27.0243008  69.2666558  50.7062772  27.2429018  70.1983666  50.7250806
  27.4368782  68.9074532  51.4917576  31.0983945  62.0884689  36.6806198
  31.9603109  62.4139587  36.9402016  31.2834289  61.3016184  36.1679264
  23.1151360  70.1707028  48.9586387  22.4214832  69.7560981  48.4456342
  23.8624351  70.2127565  48.3619806  31.7602143  68.2696902  58.9130583
  31.2769225  69.0697262  59.1194472  31.8463082  68.2804847  57.9598027
  25.0288103  70.1025282  46.8352402  25.0058791  70.2012969  45.8834285
  25.3388739  70.9490433  47.1569568  27.6875481  72.1601437  50.9499016
  28.6418734  72.1285379  50.8828948  27.4888004  71.6992061  51.7649242
  28.2774863  70.7302553  53.5169814  29.0967752  71.2246632  53.5404651
  28.5511671  69.8134521  53.4887382  26.0425710  77.7021057  47.9669214
  25.9080178  76.9421457  47.4007212  25.6257772  78.4261956  47.4998003
  37.1784673  72.8857980  36.9745790  37.8820523  73.0907983  37.5903445
  36.4547321  73.4534742  37.2394873  29.1994835  78.5990374  48.1787657
  29.0827220  79.5435806  48.0766347  28.3787282  78.2963935  48.5673456
  39.0871370  73.3240509  39.0244250  39.9216974  72.8921708  38.8421724
  38.9255713  73.1522523  39.9521144  38.7417262  69.8272623  40.3900589
  38.6866066  69.6616894  39.4489033  38.1163317  70.5348656  40.5462779
  23.5309777  65.0640687  54.2162011  24.1768641  64.5539641  54.7049236
  23.3226928  65.8009369  54.7905436  32.0513388  59.3280732  39.9685907
  32.0392057  60.2722572  40.1254178  32.9436810  59.1450877  39.6745369
  30.2249350  79.2518635  51.3943585  31.1276596  79.2842246  51.7110080
  29.9986720  78.3219086  51.4089921  31.9802952  78.0049622  48.0553664
  31.0298583  78.0051484  47.9418036  32.2835438  77.2582357  47.5389699
  35.8665507  55.9223508  44.2231844  35.0997903  55.3681995  44.3688527
  36.2776212  55.9945377  45.0845996  27.8707268  62.2108304  58.3137025
  28.7338730  61.8545109  58.5240350  27.2972679  61.8722199  59.0012430
  47.7155645  83.8410160  49.1199426  48.3534055  83.7216908  48.4162767
  47.5976488  84.7891004  49.1787379  44.5245351  83.7937589  49.0560951
  44.1863863  83.6778653  48.1681486  45.3935120  83.3928754  49.0361957
  40.3832167  85.6473065  45.0457842  39.8197032  85.5563002  44.2774130
  40.2684562  84.8272969  45.5260335  45.0065134  84.9472440  55.0147157
  44.9953775  84.5525239  54.1427660  45.1685774  84.2138513  55.6080928
  37.9296599  87.1424257  47.8842063  38.7217891  86.8015081  47.4688362
  38.1693249  87.2519232  48.8044216  45.9631726  89.3144033  40.3572307
  45.3119706  89.8998113  39.9706321  46.7576089  89.8450228  40.4167344
  39.8887353  86.4033170  40.7559441  40.6618229  85.8562157  40.6172317
  40.2412752  87.2677419  40.9673903  41.7272396  87.7309552  53.9626341
  41.4362262  88.6355183  53.8473007  42.3629380  87.7726080  54.6770410
  42.6528602  85.1086401  50.5527700  43.2492175  84.8842423  49.8384663
  42.7103574  84.3671146  51.1553148  42.2253631  82.5625836  38.3877891
  42.4779151  82.0407357  37.6261354  41.2878190  82.3991981  38.4904575
  47.2696914  81.5661614  46.1952634  48.0560003  81.1481037  45.8443051
  47.5335618  82.4707706  46.3634283  47.4406991  87.0034465  40.8941291
  46.8052824  87.0769091  41.6062196  47.1104397  87.5928063  40.2160371
  52.6705341  81.5036847  47.0985613  53.4030513  80.9336064  47.3323442
  51.9144696  81.1158448  47.5392119  41.9449920  84.4653942  40.5902266
  41.8286178  83.7898845  41.2583351  42.0552179  83.9786316  39.7734419
  44.2881460  83.9264089  44.2948955  43.9239668  83.3994710  45.0061877
  45.1448576  83.5362558  44.1215441  50.1930761  75.2158422  51.5580222
  49.8614086  76.0853833  51.3341437  49.5976374  74.8994706  52.2374252
  43.9286947  78.9553989  39.2910304  44.0961350  79.8234225  39.6580775
  43.7384117  79.1181270  38.3671593  46.6862281  87.4170968  50.9576134
  46.3863004  88.3196006  50.8491942  46.3413340  87.1503151  51.8097287
  40.1374762  83.8684764  46.9912839  39.2125259  83.7360979  47.1990531
  40.3859175  84.6478984  47.4882781  50.0859424  79.9353508  48.6373572
  49.1776302  79.8668916  48.3432333  50.0347020  80.4125453  49.4655397
  43.9076168  81.4111646  40.2756971  43.7875794  81.8568697  41.1142451
  43.2128757  81.7596964  39.7170509  37.4983573  83.5118038  47.8256628
  37.6275954  83.7652517  48.7396040  36.8181024  84.1045746  47.5061283
  41.6683060  94.1815288  43.9247102  41.5907090  95.1323113  44.0035583
  41.0644704  93.8361160  44.5822028  44.1600290  81.3543153  56.5808469
  43.3833624  81.9137073  56.5711334  44.7990853  81.8399936  57.1023339
  51.9521071  78.1369946  50.4151446  51.3095451  78.4302479  49.7691240
  51.4475999  78.0222866  51.2204642  49.6061234  81.8833119  41.1037305
  50.5179091  82.1160506  40.9285002  49.0970882  82.4670164  40.5412383
  42.4146662  84.1628607  56.1426436  43.1561347  84.7013651  55.8661260
  41.7083648  84.7894895  56.2997988  47.8902002  86.3057747  54.7398597
  48.2985358  85.8640158  53.9953230  47.1679264  85.7310375  54.9932790
  44.2433072  81.2430354  52.1132154  45.0894267  81.6669767  52.2566803
  44.1831710  80.5863978  52.8070717  48.2130817  86.8658938  48.4950886
  47.5839679  87.0304652  47.7926954  47.8256479  87.2800547  49.2661850
  52.0920049  87.8013376  45.8495250  51.4071087  88.1812277  45.2992283
  52.1763898  88.4108702  46.5827198  47.3932518  78.9034722  53.7713328
  47.1493449  79.6576783  53.2347604  47.6692448  79.2820070  54.6060575
  49.3470980  85.4473335  52.4490594  49.5587876  86.0905095  51.7724975
  49.3000729  84.6135651  51.9812524  46.9497209  78.0591155  49.3527166
  46.0881688  78.3572409  49.6443903  46.9759644  78.2761554  48.4208198
  43.7658779  86.6033346  45.7600971  44.2297124  86.8821049  44.9705594
  43.5015577  85.7016790  45.5774062  40.6582860  86.1504827  48.6980735
  41.2284217  86.5792096  48.0598219  41.2490972  85.8687412  49.3964920
  42.7027665  82.7256498  42.5690537  43.4051708  83.1777542  43.0364463
  42.3708293  82.0840317  43.1970430  41.1508026  81.3168255  56.9441746
  40.5206687  81.9984536  57.1777143  41.0444114  81.2051336  55.9994884
  36.4452999  80.9840051  47.8707670  35.6552053  81.2397579  47.3947781
  36.9364246  81.7988389  47.9759711  50.4616808  88.3245290  50.6212951
  51.2834252  87.9225477  50.3395633  50.4579211  88.2213524  51.5729067
  38.3967744  81.3484630  44.8291147  37.5998907  81.4603324  45.3474642
  38.1693336  81.6871282  43.9632037  44.2273412  87.8729333  52.7773661
  44.2917844  88.3349741  53.6131833  43.5184336  87.2426698  52.9055971
  34.7290702  81.2370541  50.3022661  34.9798740  82.1217551  50.5680237
  35.2650250  81.0575143  49.5297753  58.5522801  84.6684039  46.9697922
  57.7986510  84.0991437  46.8141927  58.6870342  84.6346703  47.9168557
  43.9421429  89.5397441  42.6452642  43.8067104  90.3848977  43.0737490
  44.4831242  89.7416719  41.8818576  37.3950827  87.0572879  43.2180567
  37.9075347  87.8516129  43.3686132  38.0473540  86.3599169  43.1514168
  39.2045711  90.1738635  45.3003320  39.3812340  91.0956600  45.1124304
  40.0002545  89.8597054  45.7297700  43.3456730  77.0346900  56.8987254
  44.0866443  77.6354053  56.8191716  43.5774653  76.2924538  56.3405296
  38.4898068  82.2203267  55.1765483  38.3751583  81.3188524  55.4772582
  37.6342586  82.4666964  54.8250300  45.5689906  90.1621007  56.7752984
  45.1253760  89.3757386  56.4573888  46.2307119  90.3500158  56.1096875
  40.3277027  91.6916809  51.3013662  40.8784452  91.5633872  50.5290656
  39.4888503  91.9911698  50.9508555  47.6671144  90.4423807  54.8034385
  47.6489619  91.2632688  54.3114654  48.5891064  90.3177883  55.0284526
  44.1244198  87.9567937  55.6457893  44.6572535  87.1956225  55.4157201
  43.5958279  87.6641589  56.3882048  47.2913893  73.0628003  51.1751535
  46.9478162  73.9529644  51.0990646  47.6592855  72.8729660  50.3121120
  35.3599743  85.3861533  43.9940137  36.1974966  85.7958542  43.7773845
  35.5378011  84.4460975  43.9640331  47.2564176  83.0536614  39.6823970
  46.7410799  83.8241219  39.9212358  46.9841484  82.3801750  40.3057032
  44.8411287  77.8986315  44.7409209  43.9852883  77.5093165  44.5614847
  45.2538238  77.9778275  43.8808994  46.3710433  75.4332658  49.1400768
  45.8675229  75.3962793  48.3268574  46.6641040  76.3425401  49.1997425
  52.2298450  85.8068969  41.6177144  51.4527893  85.4680128  41.1732306
  52.9089931  85.8121592  40.9432109  47.0450479  80.9263706  41.5083751
  46.7400614  81.2409855  42.3593895  47.9980921  81.0045126  41.5511084
  45.4896911  87.0853929  43.1576705  44.9618272  86.3506689  42.8449943
  44.9884413  87.8628606  42.9116674  50.4689757  85.2802950  48.2743752
  49.8113431  85.9702211  48.3623880  51.2730156  85.6699382  48.6177738
  40.2215638  77.7473596  45.5183317  40.7959390  77.5248777  44.7856510
  40.8086621  77.8162290  46.2711918  49.2795215  83.6347322  46.3247694
  49.7927097  84.2677314  46.8269403  49.9296439  83.0348518  45.9591054
  40.5485225  79.7778057  39.5379202  39.7122538  80.1152743  39.8588477
  40.4089995  79.6427036  38.6006339  42.5238306  74.6214844  44.2458386
  41.8702718  74.3063862  43.6215001  42.4818780  73.9990585  44.9718209
  43.6349511  84.9034140  36.1611678  42.7276573  84.6723393  36.3602827
  44.1320543  84.1071759  36.3485660  46.5417590  93.6131647  39.0808365
  45.8679288  93.9163343  39.6893322  46.9283412  94.4160727  38.7313822
  45.7576046  81.1096778  48.5706034  44.8398608  81.3311725  48.4127722
  46.1736190  81.1843088  47.7117741  46.5411094  82.5088194  43.7008714
  47.2882913  83.0209591  43.3915836  46.8102684  82.1872246  44.5613108
  44.8137744  85.0046734  40.6835669  43.9048964  84.7205767  40.7808138
  44.8432828  85.4245813  39.8238975  50.0457012  88.6153324  44.4526836
  49.5919339  87.7744234  44.5092027  49.4150978  89.2514722  44.7901616
  48.9889931  79.5445310  45.6827504  48.2512688  79.0322696  46.0137746
  49.2416705  79.1045692  44.8710780  48.4889951  90.4529821  45.3876654
  48.7812925  91.0134878  44.6689020  48.9988571  90.7458382  46.1429813
  49.0901559  72.3221562  46.2769273  49.3960435  71.4618925  45.9895188
  49.8154163  72.9139182  46.0768267  35.3825915  82.7252249  44.6650871
  35.1850314  82.1321609  43.9401937  34.8272579  82.4204459  45.3826810
  43.3622638  82.6175355  46.7845464  43.4171248  81.6649191  46.7087941
  42.5513840  82.7734794  47.2686762  44.5113832  86.5455478  38.0223747
  44.0733262  85.8291337  37.5629385  45.2524273  86.7731593  37.4608839
  41.3014998  81.2352415  44.5435843  40.4882864  81.5346585  44.9501035
  41.7973992  80.8408104  45.2610325  43.4523576  91.2310172  46.4770108
  43.4099755  91.4571018  45.5478640  44.3686275  90.9973546  46.6255909
  46.8989210  81.6994239  53.3750737  47.2538598  81.9265712  54.2345202
  47.5461341  82.0312616  52.7527992  52.6286947  84.8212675  44.0800066
  52.4904845  85.0114271  43.1521255  52.2723166  85.5832058  44.5368117
  40.7929073  78.8070770  50.1597078  41.4328452  78.6659529  49.4620041
  39.9606604  78.5205284  49.7835680  52.6556326  86.8889202  49.0911337
  53.0892833  86.7964491  49.9394391  53.3687907  86.8646703  48.4531353
  41.5689377  88.1073201  46.2732070  42.3629975  87.6123521  46.0714645
  40.8581069  87.5791064  45.9099776  46.3884221  90.4891296  50.6244438
  46.4421244  91.0582233  51.3922154  45.5199003  90.6593181  50.2598475
  37.8772140  82.2516282  42.3491823  36.9469728  82.1900738  42.5661785
  37.9729612  81.7292235  41.5528464  37.7957689  78.7771095  44.9370065
  38.0564507  79.6916429  44.8279225  38.6174862  78.3095538  45.0866677
  39.2682615  80.1908852  52.1068889  39.9405668  79.9826215  51.4581538
  38.4412401  79.9930938  51.6674121  53.5171876  86.9312903  51.6244223
  53.7107766  87.8358713  51.8703498  53.4172494  86.4720322  52.4582808
  45.1708187  76.8170793  54.1234550  44.5236102  77.5160743  54.0299026
  45.9409202  77.2506937  54.4910798  45.3472321  84.6551558  52.1831370
  46.2764381  84.8062718  52.0100337  44.9263351  84.7435579  51.3280016
  44.1460653  88.6802223  49.9529907  44.0071739  88.3121007  50.8255845
  43.3575249  89.1949862  49.7813865  44.7408805  93.7811319  41.2955444
  44.9160561  93.3099362  42.1101067  44.0541593  94.4077085  41.5236705
  45.6965868  88.0583825  47.3418745  45.3615701  88.0184595  48.2376395
  45.1969814  87.3928541  46.8689155  39.6710112  83.4651455  52.8671326
  39.5329910  82.7331694  53.4682865  40.5815035  83.3760356  52.5855514
  48.6325060  85.4039860  37.6155805  48.0154230  84.6786688  37.5188857
  48.1641548  86.1649220  37.2722879  42.2992413  83.1771415  52.3555006
  43.0092031  82.5364607  52.3141624  42.2561721  83.4284310  53.2781187
  50.2879191  90.1138768  55.2761585  50.2291737  89.4297988  54.6092168
  50.6898710  90.8557758  54.8242211  41.0121347  80.1636633  54.1750645
  40.4758704  79.7127371  54.8272242  40.4238055  80.2982541  53.4321110
  39.3069890  96.9300682  48.0695304  39.5466488  97.5619206  48.7474323
  38.4639087  96.5788722  48.3560663  40.4223606  79.6225284  36.7377109
  39.5453072  79.5014085  36.3739356  40.8981359  78.8311362  36.4855998
  50.2896599  88.0778352  53.5075565  49.4023377  87.7404274  53.6301964
  50.8595150  87.3461383  53.7444330  31.9425746  84.4102444  46.8318616
  32.6296786  84.0964174  46.2439631  31.7873874  85.3143808  46.5585868
  36.7460468  79.2992640  51.2603640  36.6618657  78.6918310  50.5254050
  35.9243174  79.7901659  51.2613136  43.8197752  92.7379804  50.4736808
  43.7467923  93.5434776  50.9856113  43.3775145  92.9371770  49.6484829
  43.6087532  91.9751574  43.9839630  42.8255054  92.5173255  44.0777854
  44.3080277  92.4925554  44.3833871  46.9184182  77.7846204  46.6273835
  47.4152881  77.0316166  46.3074905  46.1471163  77.8210521  46.0617044
  54.7713939  83.4886569  48.2692126  54.7603815  84.3711285  47.8986060
  53.9031319  83.1358120  48.0746663  46.2796436  92.6366638  52.6294967
  46.9924408  93.2714103  52.5570868  45.7886464  92.7330504  51.8134968
  48.0013962  86.5417891  44.2012258  47.0670241  86.6619354  44.0316963
  48.1790631  85.6390358  43.9372268  43.5019150  79.9263587  46.3545520
  43.1316938  79.3734627  47.0426425  43.9978243  79.3221720  45.8020520
  51.3886514  82.3835210  44.7362292  51.8546966  83.2163202  44.6622595
  51.8394014  81.9180192  45.4407551  41.3308349  90.3861082  53.4500537
  42.0317809  91.0197565  53.6029932  40.8603464  90.7275813  52.6896177
  49.4562745  88.7279032  41.7348445  49.7322589  88.6135626  42.6442319
  48.5867244  88.3296516  41.6960618  49.3603177  74.7515797  48.7753194
  48.4466256  74.9820024  48.9435401  49.7896278  74.8354241  49.6267226
  49.1309635  82.9405689  51.2753088  48.4781085  83.1881597  50.6205541
  49.5090015  82.1269827  50.9415565  46.0916809  92.9765382  45.3781258
  46.2739203  92.1587038  45.8409010  46.9149795  93.1933075  44.9406148
  46.4258974  91.9033568  42.6396307  46.9546741  91.3926022  42.0266469
  46.6887194  91.5876098  43.5041840  45.1797208  83.6825500  57.7619125
  44.5037845  83.5819630  58.4321500  46.0024842  83.5264714  58.2255122
  36.9276067  89.9197437  50.3831640  37.5129504  89.1741125  50.5159544
  36.7300906  90.2301394  51.2668304  39.7814722  92.9548684  45.3994083
  39.1125098  93.4394812  44.9158123  39.6427592  93.2017905  46.3137461
  31.5193722  82.4903037  49.1036083  31.5577821  81.9566628  49.8973201
  31.0134015  81.9638243  48.4847060  43.9219991  94.9892428  51.9976741
  44.4738299  95.1524049  52.7625826  44.2626184  95.5796866  51.3256766
  38.3736757  79.4090710  56.2471660  39.0008795  79.0267787  56.8609184
  37.5164676  79.1904912  56.6127352  48.7730865  89.8153685  57.8525395
  49.3170769  90.4283644  57.3580350  48.1917710  90.3733264  58.3692408
  35.1502299  81.2167139  42.1790015  35.4455741  80.3077818  42.1257068
  34.2490335  81.1954879  41.8571017  47.0588378  92.9374403  48.9840423
  46.9339518  92.1364143  48.4751369  47.7167469  93.4320597  48.4954393
  38.6796546  79.2923136  48.1617563  37.9583132  79.9059104  48.0225037
  39.4689802  79.8280901  48.0834209  49.1223287  90.7383423  50.6119973
  48.1753622  90.6188775  50.5398300  49.4706060  89.8505921  50.6946235
  41.4822860  76.6277562  54.4358215  42.0057262  76.8739859  55.1984524
  41.2635193  77.4597597  54.0161352  36.8790141  78.8981237  42.3029340
  36.5502847  78.0178616  42.1204446  37.2329512  78.8428906  43.1905729
  46.1269720  90.5336140  46.8124325  45.9794682  89.6052847  46.9931895
  46.9523213  90.5556230  46.3281401  39.9931964  79.1854207  42.6704818
  40.3328037  79.7140128  41.9483426  40.4404085  79.5234613  43.4463384
  49.7303842  91.3564698  47.8989198  50.6550389  91.1507560  47.7613649
  49.5619145  91.1081100  48.8078540  42.6875405  77.5691257  52.1207886
  42.3472225  76.7699071  52.5228565  41.9814411  77.8692968  51.5484719
  41.9800111  77.6828828  40.8698110  42.7008474  78.0610081  40.3661827
  41.3565415  78.4017705  40.9733088  46.1231234  78.3873977  41.8056443
  46.3394849  79.2698615  41.5045271  45.6425301  77.9960191  41.0762085
  40.8630456  81.3459691  48.3827187  40.7175036  81.6599994  49.2751469
  40.3855659  81.9644591  47.8298086  42.7226838  78.3362239  48.4308077
  42.7088407  77.4403332  48.0940375  43.4399267  78.3432902  49.0646363
  44.5752969  78.7699579  50.4761204  44.3170747  79.6916649  50.4745535
  44.0438010  78.3730013  51.1661668  49.5199158  91.8750366  43.2551290
  49.6936035  91.3096788  42.5025142  50.0128049  92.6751261  43.0730780
  35.3376118  83.8865035  51.3214848  34.7929586  84.6624843  51.4535123
  36.2155468  84.2335839  51.1633970  42.1263734  77.2176619  43.6995647
  42.2479646  76.2893265  43.8986534  41.8365777  77.2315305  42.7873962
  55.3738549  84.6386789  44.8741589  55.8169695  83.8894114  44.4760713
  54.4965059  84.6296925  44.4915321  50.5074330  91.1917130  40.3548188
  51.2025235  91.8123823  40.5735503  50.8497481  90.3412481  40.6300566
  36.1242140  83.0134931  54.2145005  35.3823876  83.1617567  54.8009636
  35.8034884  83.2743197  53.3511755  52.4065754  88.6416836  41.8835519
  52.9317078  88.9804109  41.1584839  52.3188106  87.7063851  41.6998653
  44.0685802  92.5550909  54.0125395  44.3772929  92.3100056  54.8848095
  44.8661284  92.7597548  53.5244266  44.0906414  94.7088819  46.2430772
  43.6511405  94.2165198  46.9363629  44.8414531  94.1661787  46.0022847
  36.5698753  90.9000360  46.2455400  37.3956773  90.6004132  45.8654043
  36.2192805  90.1307982  46.6945189  41.5380286  90.2526828  48.3153074
  40.9160296  89.5897533  48.0155301  42.2085153  90.2787960  47.6326721
  34.7707358  88.8186686  47.2044334  33.9339267  88.3908861  47.0228335
  34.7431004  89.0119130  48.1415125  41.6104814  78.7308616  57.9085580
  41.6592969  79.6070739  57.5263349  42.1527328  78.1886009  57.3357223
  52.0959660  89.2749739  57.1886717  51.3055203  89.2573878  56.6491216
  51.8593014  89.8138033  57.9435753  52.2157535  86.1242206  54.5019445
  52.2655540  85.9592213  55.4434968  52.1071458  85.2569465  54.1117326
  41.0993793  88.8030751  41.7911534  41.2481914  89.4866216  41.1378207
  41.9060237  88.7835842  42.3060990  43.8404102  79.4839989  54.6631938
  42.9707412  79.7773555  54.3914527  44.0763583  80.0680434  55.3839202
  54.9171414  86.1092027  47.2664037  55.7518305  86.5481831  47.4301597
  55.0530543  85.6330680  46.4472283  51.9662920  83.6671762  53.2141525
  52.4417041  83.8599408  52.4060376  51.0428485  83.7230948  52.9684908
  38.8546426  84.8295929  42.7972603  38.6092468  83.9258259  42.9952813
  39.0242341  84.8313080  41.8552081  46.5443136  75.7019605  52.1797359
  47.0625080  76.4380632  51.8543847  46.1898269  76.0083599  53.0144118
  38.1242074  80.5624287  40.2958764  37.4311319  80.6368642  39.6398800
  37.8793826  79.7984630  40.8180281  46.7955730  72.1219888  47.6998255
  47.0757484  71.4543077  48.3258682  47.5806337  72.3148984  47.1872919
  44.5989199  91.2978882  39.2623281  44.0263166  91.9169069  38.8093753
  45.1721993  91.8478244  39.7963203  50.6664589  80.5437522  51.4469830
  51.6182012  80.6435620  51.4682054  50.4968039  79.7515791  51.9567915
  48.6878968  77.6293105  51.6329231  48.0928900  77.9098118  50.9375720
  48.4028665  78.1187006  52.4045972  47.8186459  91.5816032  40.3931864
  48.7517132  91.5161594  40.5964739  47.7309671  92.4172299  39.9346396
  50.4474475  90.8981902  37.3535811  50.3688107  90.5641766  38.2471569
  51.2684142  91.3903670  37.3527284  53.1452667  83.7643642  50.5612130
  53.1128987  82.8259642  50.7471814  53.7553290  83.8427678  49.8277955
  44.9835997  82.6339695  36.6039334  45.9295102  82.5045903  36.6727752
  44.6050242  81.8954357  37.0808762  53.2947155  80.5554685  50.6070413
  52.7786204  79.7713142  50.4200342  54.1787104  80.2273402  50.7716933
  50.9557882  74.2995701  46.5666226  50.7582703  73.9910789  47.4509558
  51.5657587  75.0257340  46.6964156  58.9629216  84.8259649  49.7018167
  59.6932605  84.5644937  50.2625870  58.3536162  84.0888370  49.7420235
  57.0444513  82.9667511  50.2992618  56.3177677  82.8323476  49.6909110
  56.6291800  83.2744340  51.1049336  44.8674690  86.6857441  58.0639991
  45.7877699  86.8636040  58.2580037  44.8324273  85.7413486  57.9119690
  43.1678915  80.5589671  36.5394219  42.2610370  80.2622784  36.6156933
  43.4454896  80.2619489  35.6728505  34.0856855  81.8796034  46.9893266
  33.7659639  81.0261343  46.6967640  33.5390283  82.0944613  47.7451233
  37.8636762  84.5958475  50.7062772  38.0822772  85.5275583  50.7250806
  38.2762536  84.2366450  51.4917576  44.7840980  75.1026561  42.6938460
  43.9741709  74.7573646  43.0693707  45.4725397  74.7934105  43.2826072
  46.7131529  74.1804608  44.3162757  47.2662567  74.6000061  44.9752780
  46.9501615  73.2540356  44.3585713  42.7364628  80.1691681  60.0965521
  42.6361355  81.1186038  60.0277612  42.5186170  79.8409920  59.2241591
  41.9377699  77.4176606  36.6806198  42.7996863  77.7431505  36.9402016
  42.1228043  76.6308102  36.1679264  33.9545115  85.4998946  48.9586387
  33.2608586  85.0852899  48.4456342  34.7018106  85.5419482  48.3619806
  50.0910336  76.2905133  43.8241421  49.5109005  76.9489937  43.4419474
  49.8246268  75.4682477  43.4128839  48.5413902  75.6910190  46.0262742
  49.0413680  75.8026725  45.2177061  49.1849510  75.3871243  46.6663550
  42.5995898  83.5988820  58.9130583  42.1162980  84.3989180  59.1194472
  42.6856837  83.6096765  57.9598027  35.8681857  85.4317200  46.8352402
  35.8452546  85.5304887  45.8834285  36.1782494  86.2782351  47.1569568
  38.5269235  87.4893355  50.9499016  39.4812489  87.4577297  50.8828948
  38.3281759  87.0283979  51.7649242  39.1168617  86.0594471  53.5169814
  39.9361506  86.5538549  53.5404651  39.3905425  85.1426439  53.4887382
  48.8735214  78.4505223  42.8797770  47.9861069  78.7354874  42.6617964
  49.2889203  78.2898986  42.0325047  52.2249750  78.4751744  46.5952109
  53.0010140  78.9648197  46.8676726  51.4997884  78.9009798  47.0523978
  54.6622308  79.1879363  47.6526050  55.2566799  78.9475099  46.9419358
  54.7348892  78.4686494  48.2799586  36.8819464  93.0312974  47.9669214
  36.7473932  92.2713375  47.4007212  36.4651526  93.7553874  47.4998003
  48.0178427  88.2149898  36.9745790  48.7214277  88.4199900  37.5903445
  47.2941076  88.7826660  37.2394873  48.8476237  83.9659759  43.0948060
  48.7911439  84.4228310  42.2555692  49.4004580  83.2050444  42.9170903
  52.6581043  79.7549491  43.9198179  52.4017978  79.3546127  44.7506387
  52.0333911  80.4693285  43.7948318  56.9693381  82.4945564  46.4269471
  56.4092939  82.5638753  47.2001033  56.3636885  82.3186549  45.7068967
  40.0388590  93.9282291  48.1787657  39.9220974  94.8727724  48.0766347
  39.2181036  93.6255853  48.5673456  49.9265125  88.6532427  39.0244250
  50.7610728  88.2213625  38.8421724  49.7649467  88.4814441  39.9521144
  49.5811017  85.1564540  40.3900589  49.5259820  84.9908812  39.4489033
  48.9557072  85.8640573  40.5462779  34.3703532  80.3932605  54.2162011
  35.0162395  79.8831559  54.7049236  34.1620683  81.1301286  54.7905436
  42.8907142  74.6572649  39.9685907  42.8785812  75.6014489  40.1254178
  43.7830564  74.4742795  39.6745369  41.0643104  94.5810553  51.3943585
  41.9670351  94.6134163  51.7110080  40.8380474  93.6511004  51.4089921
  42.8196706  93.3341540  48.0553664  41.8692337  93.3343401  47.9418036
  43.1229192  92.5874274  47.5389699  46.7059262  71.2515426  44.2231844
  45.9391657  70.6973913  44.3688527  47.1169967  71.3237295  45.0845996
  58.5549400  99.1702078  49.1199426  59.1927810  99.0508825  48.4162767
  58.4370242 100.1182922  49.1787379  55.3639106  99.1229506  49.0560951
  55.0257617  99.0070571  48.1681486  56.2328874  98.7220671  49.0361957
  51.2225922 100.9764983  45.0457842  50.6590787 100.8854920  44.2774130
  51.1078317 100.1564887  45.5260335  55.8458889 100.2764358  55.0147157
  55.8347530  99.8817156  54.1427660  56.0079528  99.5430431  55.6080928
  48.7690354 102.4716174  47.8842063  49.5611645 102.1306999  47.4688362
  49.0087004 102.5811149  48.8044216  56.8025480 104.6435950  40.3572307
  56.1513460 105.2290031  39.9706321  57.5969843 105.1742145  40.4167344
  50.7281107 101.7325087  40.7559441  51.5011983 101.1854075  40.6172317
  51.0806506 102.5969337  40.9673903  52.5666150 103.0601470  53.9626341
  52.2756016 103.9647101  53.8473007  53.2023134 103.1017997  54.6770410
  53.4922357 100.4378318  50.5527700  54.0885929 100.2134341  49.8384663
  53.5497328  99.6963064  51.1553148  53.0647385  97.8917754  38.3877891
  53.3172906  97.3699275  37.6261354  52.1271944  97.7283899  38.4904575
  58.1090668  96.8953532  46.1952634  58.8953757  96.4772955  45.8443051
  58.3729372  97.7999624  46.3634283  58.2800745 102.3326382  40.8941291
  57.6446578 102.4061009  41.6062196  57.9498152 102.9219981  40.2160371
  63.5099095  96.8328765  47.0985613  64.2424267  96.2627982  47.3323442
  62.7538451  96.4450366  47.5392119  52.7843674  99.7945860  40.5902266
  52.6679932  99.1190763  41.2583351  52.8945934  99.3078233  39.7734419
  55.1275215  99.2556007  44.2948955  54.7633422  98.7286628  45.0061877
  55.9842331  98.8654476  44.1215441  61.0324516  90.5450339  51.5580222
  60.7007840  91.4145750  51.3341437  60.4370129  90.2286623  52.2374252
  54.7680702  94.2845906  39.2910304  54.9355104  95.1526143  39.6580775
  54.5777871  94.4473188  38.3671593  57.5256035 102.7462885  50.9576134
  57.2256758 103.6487924  50.8491942  57.1807095 102.4795068  51.8097287
  50.9768517  99.1976682  46.9912839  50.0519013  99.0652896  47.1990531
  51.2252930  99.9770901  47.4882781  60.9253179  95.2645425  48.6373572
  60.0170056  95.1960834  48.3432333  60.8740775  95.7417370  49.4655397
  54.7469923  96.7403564  40.2756971  54.6269548  97.1860615  41.1142451
  54.0522511  97.0888882  39.7170509  48.3377328  98.8409956  47.8256628
  48.4669709  99.0944435  48.7396040  47.6574779  99.4337664  47.5061283
  52.5076815 109.5107206  43.9247102  52.4300845 110.4615031  44.0035583
  51.9038458 109.1653078  44.5822028  54.9994045  96.6835071  56.5808469
  54.2227379  97.2428991  56.5711334  55.6384608  97.1691854  57.1023339
  62.7914825  93.4661864  50.4151446  62.1489206  93.7594397  49.7691240
  62.2869754  93.3514784  51.2204642  60.4454989  97.2125037  41.1037305
  61.3572845  97.4452424  40.9285002  59.9364636  97.7962081  40.5412383
  53.2540417  99.4920524  56.1426436  53.9955101 100.0305568  55.8661260
  52.5477402 100.1186813  56.2997988  58.7295757 101.6349665  54.7398597
  59.1379113 101.1932075  53.9953230  58.0073018 101.0602292  54.9932790
  55.0826827  96.5722272  52.1132154  55.9288022  96.9961685  52.2566803
  55.0225464  95.9155896  52.8070717  59.0524571 102.1950855  48.4950886
  58.4233434 102.3596570  47.7926954  58.6650233 102.6092465  49.2661850
  62.9313803 103.1305293  45.8495250  62.2464841 103.5104195  45.2992283
  63.0157652 103.7400620  46.5827198  58.2326272  94.2326640  53.7713328
  57.9887204  94.9868701  53.2347604  58.5086203  94.6111988  54.6060575
  60.1864735 100.7765252  52.4490594  60.3981630 101.4197012  51.7724975
  60.1394483  99.9427569  51.9812524  57.7890964  93.3883073  49.3527166
  56.9275443  93.6864327  49.6443903  57.8153398  93.6053472  48.4208198
  54.6052533 101.9325264  45.7600971  55.0690879 102.2112967  44.9705594
  54.3409331 101.0308708  45.5774062  51.4976614 101.4796745  48.6980735
  52.0677971 101.9084013  48.0598219  52.0884726 101.1979330  49.3964920
  53.5421419  98.0548416  42.5690537  54.2445463  98.5069460  43.0364463
  53.2102048  97.4132235  43.1970430  51.9901781  96.6460173  56.9441746
  51.3600441  97.3276453  57.1777143  51.8837869  96.5343254  55.9994884
  47.2846753  96.3131969  47.8707670  46.4945807  96.5689497  47.3947781
  47.7758001  97.1280306  47.9759711  61.3010563 103.6537208  50.6212951
  62.1228006 103.2517395  50.3395633  61.2972966 103.5505442  51.5729067
  49.2361499  96.6776548  44.8291147  48.4392662  96.7895242  45.3474642
  49.0087091  97.0163200  43.9632037  55.0667166 103.2021251  52.7773661
  55.1311599 103.6641658  53.6131833  54.3578090 102.5718616  52.9055971
  45.5684456  96.5662459  50.3022661  45.8192495  97.4509469  50.5680237
  46.1044005  96.3867061  49.5297753  69.3916556  99.9975956  46.9697922
  68.6380264  99.4283354  46.8141927  69.5264097  99.9638621  47.9168557
  54.7815184 104.8689359  42.6452642  54.6460859 105.7140894  43.0737490
  55.3224996 105.0708636  41.8818576  51.2682523  90.9480938  59.3066997
  50.8749469  90.3947137  59.9814641  52.0848664  91.2591517  59.6973514
  48.2344581 102.3864797  43.2180567  48.7469102 103.1808047  43.3686132
  48.8867294 101.6891087  43.1514168  50.0439466 105.5030553  45.3003320
  50.2206094 106.4248518  45.1124304  50.8396299 105.1888972  45.7297700
  54.1850484  92.3638817  56.8987254  54.9260198  92.9645971  56.8191716
  54.4168407  91.6216455  56.3405296  49.3291822  97.5495185  55.1765483
  49.2145338  96.6480442  55.4772582  48.4736340  97.7958882  54.8250300
  56.4083660 105.4912925  56.7752984  55.9647514 104.7049304  56.4573888
  57.0700874 105.6792076  56.1096875  51.1670781 107.0208727  51.3013662
  51.7178206 106.8925790  50.5290656  50.3282257 107.3203616  50.9508555
  58.5064898 105.7715725  54.8034385  58.4883374 106.5924606  54.3114654
  59.4284818 105.6469800  55.0284526  54.9637952 103.2859854  55.6457893
  55.4966289 102.5248143  55.4157201  54.4352034 102.9933506  56.3882048
  58.1307647  88.3919920  51.1751535  57.7871917  89.2821562  51.0990646
  58.4986610  88.2021578  50.3121120  46.1993498 100.7153451  43.9940137
  47.0368720 101.1250459  43.7773845  46.3771766  99.7752893  43.9640331
  58.0957930  98.3828532  39.6823970  57.5804554  99.1533136  39.9212358
  57.8235239  97.7093668  40.3057032  55.6805041  93.2278232  44.7409209
  54.8246637  92.8385083  44.5614847  56.0931993  93.3070193  43.8808994
  57.2104188  90.7624576  49.1400768  56.7068983  90.7254711  48.3268574
  57.5034795  91.6717318  49.1997425  53.4547074  90.8463305  48.1466950
  54.3200070  90.6506114  47.7872840  53.5224583  90.6173657  49.0736307
  63.0692204 101.1360886  41.6177144  62.2921647 100.7972046  41.1732306
  63.7483685 101.1413509  40.9432109  57.8844233  96.2555624  41.5083751
  57.5794369  96.5701773  42.3593895  58.8374675  96.3337044  41.5511084
  56.3290665 102.4145847  43.1576705  55.8012027 101.6798607  42.8449943
  55.8278168 103.1920523  42.9116674  61.3083511 100.6094867  48.2743752
  60.6507186 101.2994129  48.3623880  62.1123910 100.9991299  48.6177738
  51.0609393  93.0765513  45.5183317  51.6353145  92.8540695  44.7856510
  51.6480375  93.1454208  46.2711918  60.1188970  98.9639240  46.3247694
  60.6320852  99.5969232  46.8269403  60.7690194  98.3640436  45.9591054
  51.3878980  95.1069974  39.5379202  50.5516292  95.4444661  39.8588477
  51.2483749  94.9718954  38.6006339  53.3632060  89.9506762  44.2458386
  52.7096473  89.6355779  43.6215001  53.3212535  89.3282503  44.9718209
  54.4743265 100.2326057  36.1611678  53.5670327 100.0015311  36.3602827
  54.9714297  99.4363676  36.3485660  57.3811344 108.9423564  39.0808365
  56.7073043 109.2455261  39.6893322  57.7677166 109.7452645  38.7313822
  56.5969801  96.4388696  48.5706034  55.6792362  96.6603643  48.4127722
  57.0129944  96.5135006  47.7117741  57.3804849  97.8380111  43.7008714
  58.1276668  98.3501509  43.3915836  57.6496438  97.5164164  44.5613108
  55.6531499 100.3338652  40.6835669  54.7442718 100.0497685  40.7808138
  55.6826583 100.7537731  39.8238975  60.8850766 103.9445242  44.4526836
  60.4313093 103.1036151  44.5092027  60.2544733 104.5806640  44.7901616
  59.8283686  94.8737228  45.6827504  59.0906443  94.3614614  46.0137746
  60.0810459  94.4337609  44.8710780  59.3283705 105.7821738  45.3876654
  59.6206680 106.3426795  44.6689020  59.8382326 106.0750299  46.1429813
  59.9295313  87.6513480  46.2769273  60.2354190  86.7910843  45.9895188
  60.6547918  88.2431100  46.0768267  46.2219669  98.0544166  44.6650871
  46.0244069  97.4613527  43.9401937  45.6666333  97.7496376  45.3826810
  54.2016393  97.9467273  46.7845464  54.2565003  96.9941109  46.7087941
  53.3907595  98.1026712  47.2686762  55.3507587 101.8747396  38.0223747
  54.9127016 101.1583255  37.5629385  56.0918027 102.1023511  37.4608839
  52.1408753  96.5644332  44.5435843  51.3276618  96.8638503  44.9501035
  52.6367747  96.1700021  45.2610325  54.2917331 106.5602089  46.4770108
  54.2493509 106.7862936  45.5478640  55.2080029 106.3265464  46.6255909
  57.7382964  97.0286157  53.3750737  58.0932352  97.2557630  54.2345202
  58.3855096  97.3604534  52.7527992  63.4680701 100.1504593  44.0800066
  63.3298600 100.3406189  43.1521255  63.1116920 100.9123976  44.5368117
  51.6322827  94.1362688  50.1597078  52.2722207  93.9951447  49.4620041
  50.8000358  93.8497201  49.7835680  63.4950081 102.2181120  49.0911337
  63.9286588 102.1256409  49.9394391  64.2081662 102.1938620  48.4531353
  52.4083131 103.4365118  46.2732070  53.2023730 102.9415439  46.0714645
  51.6974824 102.9082982  45.9099776  57.2277976 105.8183214  50.6244438
  57.2814998 106.3874150  51.3922154  56.3592757 105.9885099  50.2598475
  48.7165895  97.5808200  42.3491823  47.7863483  97.5192656  42.5661785
  48.8123367  97.0584153  41.5528464  48.6351444  94.1063013  44.9370065
  48.8958261  95.0208346  44.8279225  49.4568616  93.6387456  45.0866677
  50.1076369  95.5200770  52.1068889  50.7799423  95.3118132  51.4581538
  49.2806156  95.3222856  51.6674121  64.3565631 102.2604820  51.6244223
  64.5501521 103.1650631  51.8703498  64.2566249 101.8012240  52.4582808
  56.0101941  92.1462711  54.1234550  55.3629856  92.8452661  54.0299026
  56.7802957  92.5798855  54.4910798  59.4180739 102.4111563  57.1985103
  59.2666246 102.1822115  56.2815187  59.4085419 103.3682165  57.2116448
  56.1866076  99.9843476  52.1831370  57.1158136 100.1354636  52.0100337
  55.7657106 100.0727497  51.3280016  54.9854407 104.0094140  49.9529907
  54.8465493 103.6412925  50.8255845  54.1969004 104.5241780  49.7813865
  55.5802559 109.1103237  41.2955444  55.7554315 108.6391280  42.1101067
  54.8935347 109.7369003  41.5236705  56.5359623 103.3875743  47.3418745
  56.2009455 103.3476513  48.2376395  56.0363568 102.7220459  46.8689155
  50.5103866  98.7943373  52.8671326  50.3723664  98.0623612  53.4682865
  51.4208790  98.7052273  52.5855514  59.4718814 100.7331777  37.6155805
  58.8547985 100.0078606  37.5188857  59.0035303 101.4941138  37.2722879
  53.1386167  98.5063332  52.3555006  53.8485786  97.8656525  52.3141624
  53.0955475  98.7576227  53.2781187  61.1272946 105.4430686  55.2761585
  61.0685492 104.7589906  54.6092168  61.5292464 106.1849676  54.8242211
  51.8515101  95.4928550  54.1750645  51.3152458  95.0419289  54.8272242
  51.2631810  95.6274459  53.4321110  50.1463645 112.2592600  48.0695304
  50.3860243 112.8911124  48.7474323  49.3032841 111.9080640  48.3560663
  51.2617360  94.9517202  36.7377109  50.3846826  94.8306002  36.3739356
  51.7375113  94.1603280  36.4855998  61.1290353 103.4070270  53.5075565
  60.2417132 103.0696191  53.6301964  61.6988904 102.6753301  53.7444330
  42.7819500  99.7394361  46.8318616  43.4690540  99.4256091  46.2439631
  42.6267629 100.6435726  46.5585868  47.5854222  94.6284558  51.2603640
  47.5012411  94.0210228  50.5254050  46.7636929  95.1193576  51.2613136
  54.6591506 108.0671722  50.4736808  54.5861678 108.8726694  50.9856113
  54.2168900 108.2663688  49.6484829  54.4481286 107.3043492  43.9839630
  53.6648808 107.8465172  44.0777854  55.1474031 107.8217472  44.3833871
  57.7577936  93.1138122  46.6273835  58.2546636  92.3608084  46.3074905
  56.9864918  93.1502438  46.0617044  65.6107694  98.8178487  48.2692126
  65.5997570  99.7003202  47.8986060  64.7425073  98.4650038  48.0746663
  57.1190190 107.9658556  52.6294967  57.8318162 108.6006021  52.5570868
  56.6280219 108.0622422  51.8134968  58.8407717 101.8709809  44.2012258
  57.9063996 101.9911271  44.0316963  59.0184385 100.9682276  43.9372268
  54.3412905  95.2555505  46.3545520  53.9710692  94.7026545  47.0426425
  54.8371997  94.6513638  45.8020520  62.2280268  97.7127128  44.7362292
  62.6940720  98.5455120  44.6622595  62.6787769  97.2472110  45.4407551
  52.1702104 105.7153000  53.4500537  52.8711563 106.3489483  53.6029932
  51.6997219 106.0567731  52.6896177  60.2956499 104.0570949  41.7348445
  60.5716343 103.9427544  42.6442319  59.4260998 103.6588434  41.6960618
  60.1996931  90.0807715  48.7753194  59.2860011  90.3111942  48.9435401
  60.6290032  90.1646159  49.6267226  59.9703390  98.2697607  51.2753088
  59.3174840  98.5173514  50.6205541  60.3483769  97.4561745  50.9415565
  56.9310563 108.3057300  45.3781258  57.1132958 107.4878956  45.8409010
  57.7543549 108.5224992  44.9406148  57.2652729 107.2325485  42.6396307
  57.7940495 106.7217940  42.0266469  57.5280948 106.9168016  43.5041840
  56.0190963  99.0117418  57.7619125  55.3431600  98.9111547  58.4321500
  56.8418596  98.8556632  58.2255122  47.7669822 105.2489355  50.3831640
  48.3523258 104.5033042  50.5159544  47.5694660 105.5593311  51.2668304
  50.6208477 108.2840602  45.3994083  49.9518852 108.7686730  44.9158123
  50.4821347 108.5309822  46.3137461  42.3587476  97.8194955  49.1036083
  42.3971576  97.2858545  49.8973201  41.8527769  97.2930160  48.4847060
  54.7613745 110.3184345  51.9976741  55.3132053 110.4815967  52.7625826
  55.1019939 110.9088783  51.3256766  49.7378239  92.6659495  52.5998626
  49.8019565  93.5274326  52.1876023  49.6745359  92.0533497  51.8670984
  49.2130511  94.7382628  56.2471660  49.8402550  94.3559705  56.8609184
  48.3558430  94.5196830  56.6127352  59.6124620 105.1445603  57.8525395
  60.1564524 105.7575561  57.3580350  59.0311465 105.7025181  58.3692408
  45.9896054  96.5459057  42.1790015  46.2849495  95.6369735  42.1257068
  45.0884090  96.5246796  41.8571017  57.8982133 108.2666321  48.9840423
  57.7733272 107.4656061  48.4751369  58.5561224 108.7612514  48.4954393
  49.5190301  94.6215054  48.1617563  48.7976887  95.2351021  48.0225037
  50.3083557  95.1572818  48.0834209  59.9617041 106.0675341  50.6119973
  59.0147377 105.9480692  50.5398300  60.3099814 105.1797839  50.6946235
  52.3216614  91.9569480  54.4358215  52.8451016  92.2031777  55.1984524
  52.1028948  92.7889515  54.0161352  47.7183896  94.2273155  42.3029340
  47.3896602  93.3470534  42.1204446  48.0723266  94.1720823  43.1905729
  56.9663474 105.8628057  46.8124325  56.8188437 104.9344765  46.9931895
  57.7916968 105.8848148  46.3281401  50.8325719  94.5146124  42.6704818
  51.1721791  95.0432046  41.9483426  51.2797839  94.8526531  43.4463384
  60.5697596 106.6856616  47.8989198  61.4944144 106.4799477  47.7613649
  60.4012900 106.4373017  48.8078540  53.5269159  92.8983175  52.1207886
  53.1865980  92.0990988  52.5228565  52.8208166  93.1984886  51.5484719
  54.1785631  89.9832488  50.5735209  55.0011701  89.5092966  50.4514099
  54.4223695  90.7622971  51.0733895  52.8193866  93.0120746  40.8698110
  53.5402228  93.3901999  40.3661827  52.1959170  93.7309623  40.9733088
  56.9624989  93.7165895  41.8056443  57.1788603  94.5990533  41.5045271
  56.4819056  93.3252108  41.0762085  51.7024210  96.6751608  48.3827187
  51.5568791  96.9891911  49.2751469  51.2249414  97.2936509  47.8298086
  53.5620593  93.6654156  48.4308077  53.5482162  92.7695249  48.0940375
  54.2793021  93.6724820  49.0646363  55.4146724  94.0991496  50.4761204
  55.1564501  95.0208567  50.4745535  54.8831764  93.7021931  51.1661668
  60.3592912 107.2042283  43.2551290  60.5329790 106.6388706  42.5025142
  60.8521804 108.0043178  43.0730780  46.1769872  99.2156953  51.3214848
  45.6323340  99.9916761  51.4535123  47.0549222  99.5627757  51.1633970
  52.9657489  92.5468536  43.6995647  53.0873400  91.6185183  43.8986534
  52.6759531  92.5607222  42.7873962  55.8348679  90.2323447  46.8362367
  55.8570376  90.2962780  45.8814346  56.2516738  89.3927956  47.0302873
  66.2132304  99.9678706  44.8741589  66.6563450  99.2186032  44.4760713
  65.3358814  99.9588843  44.4915321  61.3468085 106.5209048  40.3548188
  62.0418990 107.1415741  40.5735503  61.6891235 105.6704399  40.6300566
  46.9635894  98.3426849  54.2145005  46.2217630  98.4909484  54.8009636
  46.6428638  98.6035114  53.3511755  63.2459508 103.9708753  41.8835519
  63.7710832 104.3096026  41.1584839  63.1581861 103.0355769  41.6998653
  54.9079557 107.8842827  54.0125395  55.2166683 107.6391974  54.8848095
  55.7055039 108.0889466  53.5244266  54.9300169 110.0380737  46.2430772
  54.4905159 109.5457115  46.9363629  55.6808286 109.4953704  46.0022847
  47.4092508 106.2292278  46.2455400  48.2350528 105.9296049  45.8654043
  47.0586560 105.4599900  46.6945189  52.3774041 105.5818746  48.3153074
  51.7554050 104.9189451  48.0155301  53.0478908 105.6079878  47.6326721
  45.6101113 104.1478604  47.2044334  44.7733021 103.7200778  47.0228335
  45.5824758 104.3411047  48.1415125  52.4498568  94.0600534  57.9085580
  52.4986724  94.9362657  57.5263349  52.9921083  93.5177927  57.3357223
  62.9353414 104.6041657  57.1886717  62.1448958 104.5865796  56.6491216
  62.6986769 105.1429951  57.9435753  63.0551289 101.4534123  54.5019445
  63.1049294 101.2884131  55.4434968  62.9465212 100.5861382  54.1117326
  51.9387548 104.1322669  41.7911534  52.0875668 104.8158134  41.1378207
  52.7453991 104.1127759  42.3060990  60.3455052  97.4365051  55.8178752
  61.2464914  97.2971516  55.5262750  60.4203026  97.6019506  56.7576929
  54.6797857  94.8131906  54.6631938  53.8101166  95.1065472  54.3914527
  54.9157337  95.3972351  55.3839202  64.5569486 103.8731065  54.7461467
  64.2654294 104.2361046  55.5824928  63.9441617 103.1598073  54.5674799
  65.7565168 101.4383945  47.2664037  66.5912060 101.8773749  47.4301597
  65.8924297 100.9622598  46.4472283  62.8056674  98.9963680  53.2141525
  63.2810796  99.1891326  52.4060376  61.8822240  99.0522865  52.9684908
  49.6940181 100.1587847  42.7972603  49.4486223  99.2550177  42.9952813
  49.8636095 100.1604997  41.8552081  57.3836891  91.0311523  52.1797359
  57.9018835  91.7672550  51.8543847  57.0292023  91.3375516  53.0144118
  48.9635828  95.8916204  40.2958764  48.2705073  95.9660559  39.6398800
  48.7187580  95.1276548  40.8180281  57.6349485  87.4511806  47.6998255
  57.9151239  86.7834995  48.3258682  58.4200092  87.6440901  47.1872919
  55.4382953 106.6270800  39.2623281  54.8656920 107.2460987  38.8093753
  56.0115747 107.1770161  39.7963203  61.5058343  95.8729440  51.4469830
  62.4575766  95.9727537  51.4682054  61.3361794  95.0807708  51.9567915
  59.5272723  92.9585023  51.6329231  58.9322655  93.2390036  50.9375720
  59.2422419  93.4478924  52.4045972  58.6580213 106.9107950  40.3931864
  59.5910886 106.8453511  40.5964739  58.5703426 107.7464217  39.9346396
  61.2868230 106.2273820  37.3535811  61.2081861 105.8933684  38.2471569
  62.1077897 106.7195588  37.3527284  63.9846421  99.0935559  50.5612130
  63.9522741  98.1551560  50.7471814  64.5947045  99.1719596  49.8277955
  55.8229752  97.9631612  36.6039334  56.7688857  97.8337820  36.6727752
  55.4443997  97.2246274  37.0808762  64.1340909  95.8846603  50.6070413
  63.6179958  95.1005059  50.4200342  65.0180858  95.5565319  50.7716933
  61.7951636  89.6287618  46.5666226  61.5976458  89.3202707  47.4509558
  62.4051342  90.3549257  46.6964156  69.8022971 100.1551566  49.7018167
  70.5326359  99.8936854  50.2625870  69.1929916  99.4180288  49.7420235
  67.8838268  98.2959429  50.2992618  67.1571432  98.1615394  49.6909110
  67.4685555  98.6036257  51.1049336  55.7068444 102.0149358  58.0639991
  56.6271454 102.1927957  58.2580037  55.6718027 101.0705404  57.9119690
  54.0072669  95.8881589  36.5394219  53.1004124  95.5914701  36.6156933
  54.2848650  95.5911407  35.6728505  44.9250609  97.2087952  46.9893266
  44.6053394  96.3553260  46.6967640  44.3784038  97.4236530  47.7451233
  48.7030517  99.9250393  50.7062772  48.9216527 100.8567501  50.7250806
  49.1156291  99.5658368  51.4917576  55.6234735  90.4318478  42.6938460
  54.8135463  90.0865563  43.0693707  56.3119152  90.1226022  43.2826072
  57.5525283  89.5096525  44.3162757  58.1056322  89.9291979  44.9752780
  57.7895369  88.5832273  44.3585713  53.5758382  95.4983599  60.0965521
  53.4755109  96.4477956  60.0277612  53.3579924  95.1701838  59.2241591
  52.7771454  92.7468524  36.6806198  53.6390618  93.0723422  36.9402016
  52.9621798  91.9600020  36.1679264  44.7938869 100.8290864  48.9586387
  44.1002341 100.4144816  48.4456342  45.5411860 100.8711400  48.3619806
  60.9304090  91.6197050  43.8241421  60.3502759  92.2781854  43.4419474
  60.6640023  90.7974395  43.4128839  59.3807656  91.0202108  46.0262742
  59.8807435  91.1318643  45.2177061  60.0243264  90.7163161  46.6663550
  53.4389652  98.9280738  58.9130583  52.9556734  99.7281098  59.1194472
  53.5250591  98.9388683  57.9598027  46.7075612 100.7609117  46.8352402
  46.6846300 100.8596805  45.8834285  47.0176248 101.6074268  47.1569568
  49.3662990 102.8185272  50.9499016  50.3206243 102.7869215  50.8828948
  49.1675513 102.3575896  51.7649242  49.9562372 101.3886388  53.5169814
  50.7755261 101.8830467  53.5404651  50.2299180 100.4718357  53.4887382
  59.7128968  93.7797141  42.8797770  58.8254823  94.0646791  42.6617964
  60.1282957  93.6190904  42.0325047  63.0643504  93.8043662  46.5952109
  63.8403894  94.2940114  46.8676726  62.3391638  94.2301716  47.0523978
  65.5016063  94.5171281  47.6526050  66.0960554  94.2767017  46.9419358
  65.5742647  93.7978412  48.2799586  47.7213219 108.3604892  47.9669214
  47.5867687 107.6005293  47.4007212  47.3045281 109.0845792  47.4998003
  58.8572182 103.5441815  36.9745790  59.5608032 103.7491818  37.5903445
  58.1334830 104.1118577  37.2394873  59.6869992  99.2951677  43.0948060
  59.6305193  99.7520228  42.2555692  60.2398334  98.5342361  42.9170903
  63.4974798  95.0841409  43.9198179  63.2411732  94.6838044  44.7506387
  62.8727666  95.7985203  43.7948318  67.8087136  97.8237482  46.4269471
  67.2486694  97.8930671  47.2001033  67.2030639  97.6478466  45.7068967
  50.8782344 109.2574209  48.1787657  50.7614729 110.2019641  48.0766347
  50.0574791 108.9547771  48.5673456  60.7658879 103.9824345  39.0244250
  61.6004483 103.5505543  38.8421724  60.6043222 103.8106358  39.9521144
  60.4204771 100.4856458  40.3900589  60.3653575 100.3200729  39.4489033
  59.7950826 101.1932491  40.5462779  45.2097286  95.7224522  54.2162011
  45.8556150  95.2123476  54.7049236  45.0014437  96.4593204  54.7905436
  57.7350678 102.7905370  59.7154152  58.6041838 102.9646022  59.3540787
  57.2557430 103.6099787  59.5929881  53.7300897  89.9864567  39.9685907
  53.7179566  90.9306407  40.1254178  54.6224319  89.8034712  39.6745369
  51.9036859 109.9102471  51.3943585  52.8064105 109.9426081  51.7110080
  51.6774229 108.9802922  51.4089921  53.6590461 108.6633457  48.0553664
  52.7086092 108.6635319  47.9418036  53.9622947 107.9166192  47.5389699
  57.5453016  86.5807344  44.2231844  56.7785412  86.0265830  44.3688527
  57.9563721  86.6529212  45.0845996  49.5494777  92.8692139  58.3137025
  50.4126239  92.5128944  58.5240350  48.9760188  92.5306034  59.0012430
  69.3943154 114.4993996  49.1199426  70.0321564 114.3800743  48.4162767
  69.2763997 115.4474840  49.1787379  66.2032860 114.4521424  49.0560951
  65.8651372 114.3362489  48.1681486  67.0722629 114.0512589  49.0361957
  62.0619676 116.3056900  45.0457842  61.4984541 116.2146837  44.2774130
  61.9472071 115.4856805  45.5260335  66.6852643 115.6056276  55.0147157
  66.6741284 115.2109074  54.1427660  66.8473283 114.8722348  55.6080928
  59.6084108 117.8008092  47.8842063  60.4005400 117.4598917  47.4688362
  59.8480758 117.9103067  48.8044216  67.6419235 119.9727868  40.3572307
  66.9907215 120.5581948  39.9706321  68.4363598 120.5034063  40.4167344
  61.5674862 117.0617005  40.7559441  62.3405738 116.5145992  40.6172317
  61.9200261 117.9261254  40.9673903  63.4059905 118.3893387  53.9626341
  63.1149770 119.2939018  53.8473007  64.0416889 118.4309915  54.6770410
  64.3316111 115.7670236  50.5527700  64.9279684 115.5426258  49.8384663
  64.3891083 115.0254981  51.1553148  63.9041140 113.2209671  38.3877891
  64.1566660 112.6991193  37.6261354  62.9665699 113.0575817  38.4904575
  68.9484423 112.2245450  46.1952634  69.7347512 111.8064873  45.8443051
  69.2123127 113.1291542  46.3634283  69.1194500 117.6618300  40.8941291
  68.4840333 117.7352926  41.6062196  68.7891906 118.2511899  40.2160371
  74.3492850 112.1620683  47.0985613  75.0818022 111.5919900  47.3323442
  73.5932205 111.7742283  47.5392119  63.6237429 115.1237777  40.5902266
  63.5073687 114.4482681  41.2583351  63.7339688 114.6370151  39.7734419
  65.9668969 114.5847924  44.2948955  65.6027177 114.0578545  45.0061877
  66.8236085 114.1946393  44.1215441  71.8718270 105.8742257  51.5580222
  71.5401595 106.7437668  51.3341437  71.2763883 105.5578541  52.2374252
  65.6074456 109.6137824  39.2910304  65.7748859 110.4818060  39.6580775
  65.4171625 109.7765106  38.3671593  68.3649790 118.0754803  50.9576134
  68.0650513 118.9779842  50.8491942  68.0200849 117.8086986  51.8097287
  61.8162271 114.5268600  46.9912839  60.8912768 114.3944814  47.1990531
  62.0646684 115.3062819  47.4882781  71.7646933 110.5937343  48.6373572
  70.8563811 110.5252752  48.3432333  71.7134529 111.0709288  49.4655397
  65.5863677 112.0695482  40.2756971  65.4663302 112.5152532  41.1142451
  64.8916266 112.4180799  39.7170509  59.1771082 114.1701873  47.8256628
  59.3063463 114.4236352  48.7396040  58.4968533 114.7629581  47.5061283
  63.3470569 124.8399123  43.9247102  63.2694599 125.7906948  44.0035583
  62.7432213 124.4944996  44.5822028  65.8387799 112.0126989  56.5808469
  65.0621133 112.5720909  56.5711334  66.4778362 112.4983772  57.1023339
  73.6308580 108.7953782  50.4151446  72.9882960 109.0886315  49.7691240
  73.1263508 108.6806702  51.2204642  71.2848743 112.5416955  41.1037305
  72.1966600 112.7744341  40.9285002  70.7758391 113.1253999  40.5412383
  64.0934171 114.8212442  56.1426436  64.8348856 115.3597486  55.8661260
  63.3871157 115.4478731  56.2997988  69.5689511 116.9641583  54.7398597
  69.9772867 116.5223993  53.9953230  68.8466773 116.3894210  54.9932790
  65.9220581 111.9014189  52.1132154  66.7681776 112.3253603  52.2566803
  65.8619219 111.2447814  52.8070717  69.8918326 117.5242773  48.4950886
  69.2627188 117.6888487  47.7926954  69.5043988 117.9384383  49.2661850
  73.7707558 118.4597211  45.8495250  73.0858596 118.8396112  45.2992283
  73.8551407 119.0692538  46.5827198  69.0720026 109.5618558  53.7713328
  68.8280958 110.3160618  53.2347604  69.3479957 109.9403905  54.6060575
  71.0258489 116.1057170  52.4490594  71.2375384 116.7488930  51.7724975
  70.9788238 115.2719487  51.9812524  68.6284718 108.7174991  49.3527166
  67.7669197 109.0156244  49.6443903  68.6547153 108.9345390  48.4208198
  65.4446288 117.2617181  45.7600971  65.9084633 117.5404884  44.9705594
  65.1803086 116.3600626  45.5774062  62.3370369 116.8088663  48.6980735
  62.9071726 117.2375931  48.0598219  62.9278481 116.5271247  49.3964920
  64.3815174 113.3840334  42.5690537  65.0839217 113.8361377  43.0364463
  64.0495802 112.7424152  43.1970430  62.8295535 111.9752090  56.9441746
  62.1994196 112.6568371  57.1777143  62.7231623 111.8635172  55.9994884
  58.1240508 111.6423886  47.8707670  57.3339562 111.8981415  47.3947781
  58.6151755 112.4572224  47.9759711  72.1404317 118.9829125  50.6212951
  72.9621761 118.5809313  50.3395633  72.1366720 118.8797360  51.5729067
  60.0755253 112.0068466  44.8291147  59.2786416 112.1187160  45.3474642
  59.8480845 112.3455118  43.9632037  65.9060921 118.5313169  52.7773661
  65.9705353 118.9933576  53.6131833  65.1971845 117.9010534  52.9055971
  56.4078211 111.8954377  50.3022661  56.6586249 112.7801387  50.5680237
  56.9437759 111.7158978  49.5297753  80.2310310 115.3267874  46.9697922
  79.4774019 114.7575272  46.8141927  80.3657851 115.2930538  47.9168557
  65.6208938 120.1981276  42.6452642  65.4854613 121.0432812  43.0737490
  66.1618751 120.4000554  41.8818576  62.1076278 106.2772856  59.3066997
  61.7143224 105.7239055  59.9814641  62.9242418 106.5883435  59.6973514
  59.0738336 117.7156714  43.2180567  59.5862856 118.5099965  43.3686132
  59.7261049 117.0183005  43.1514168  60.8833220 120.8322471  45.3003320
  61.0599849 121.7540435  45.1124304  61.6790054 120.5180890  45.7297700
  65.0244239 107.6930735  56.8987254  65.7653952 108.2937888  56.8191716
  65.2562162 106.9508373  56.3405296  60.1685577 112.8787102  55.1765483
  60.0539092 111.9772360  55.4772582  59.3130095 113.1250799  54.8250300
  67.2477415 120.8204843  56.7752984  66.8041269 120.0341221  56.4573888
  67.9094628 121.0083993  56.1096875  62.0064536 122.3500644  51.3013662
  62.5571961 122.2217708  50.5290656  61.1676012 122.6495533  50.9508555
  69.3458653 121.1007643  54.8034385  69.3277128 121.9216524  54.3114654
  70.2678573 120.9761718  55.0284526  65.8031707 118.6151772  55.6457893
  66.3360044 117.8540060  55.4157201  65.2745788 118.3225424  56.3882048
  68.9701402 103.7211838  51.1751535  68.6265671 104.6113480  51.0990646
  69.3380364 103.5313496  50.3121120  57.0387252 116.0445369  43.9940137
  57.8762474 116.4542377  43.7773845  57.2165520 115.1044811  43.9640331
  68.9351685 113.7120449  39.6823970  68.4198308 114.4825054  39.9212358
  68.6628993 113.0385585  40.3057032  66.5198796 108.5570150  44.7409209
  65.6640392 108.1677000  44.5614847  66.9325747 108.6362111  43.8808994
  68.0497942 106.0916493  49.1400768  67.5462738 106.0546628  48.3268574
  68.3428549 107.0009236  49.1997425  64.2940828 106.1755223  48.1466950
  65.1593825 105.9798032  47.7872840  64.3618337 105.9465575  49.0736307
  73.9085959 116.4652804  41.6177144  73.1315401 116.1263963  41.1732306
  74.5877440 116.4705427  40.9432109  68.7237988 111.5847541  41.5083751
  68.4188123 111.8993690  42.3593895  69.6768430 111.6628961  41.5511084
  67.1684420 117.7437765  43.1576705  66.6405781 117.0090524  42.8449943
  66.6671922 118.5212441  42.9116674  72.1477266 115.9386785  48.2743752
  71.4900940 116.6286047  48.3623880  72.9517665 116.3283217  48.6177738
  61.9003147 108.4057431  45.5183317  62.4746899 108.1832612  44.7856510
  62.4874130 108.4746125  46.2711918  70.9582724 114.2931158  46.3247694
  71.4714606 114.9261150  46.8269403  71.6083948 113.6932353  45.9591054
  62.2272734 110.4361892  39.5379202  61.3910047 110.7736578  39.8588477
  62.0877504 110.3010872  38.6006339  64.2025815 105.2798680  44.2458386
  63.5490227 104.9647697  43.6215001  64.1606289 104.6574420  44.9718209
  65.3137020 115.5617975  36.1611678  64.4064082 115.3307228  36.3602827
  65.8108052 114.7655594  36.3485660  68.2205099 124.2715482  39.0808365
  67.5466797 124.5747179  39.6893322  68.6070921 125.0744562  38.7313822
  67.4363555 111.7680613  48.5706034  66.5186117 111.9895560  48.4127722
  67.8523699 111.8426924  47.7117741  68.2198603 113.1672029  43.7008714
  68.9670422 113.6793426  43.3915836  68.4890193 112.8456082  44.5613108
  66.4925253 115.6630570  40.6835669  65.5836472 115.3789603  40.7808138
  66.5220337 116.0829648  39.8238975  71.7244521 119.2737159  44.4526836
  71.2706848 118.4328069  44.5092027  71.0938487 119.9098558  44.7901616
  70.6677440 110.2029145  45.6827504  69.9300197 109.6906532  46.0137746
  70.9204214 109.7629527  44.8710780  70.1677460 121.1113656  45.3876654
  70.4600434 121.6718713  44.6689020  70.6776080 121.4042217  46.1429813
  70.7689068 102.9805397  46.2769273  71.0747944 102.1202761  45.9895188
  71.4941672 103.5723017  46.0768267  57.0613424 113.3836084  44.6650871
  56.8637823 112.7905445  43.9401937  56.5060088 113.0788294  45.3826810
  65.0410147 113.2759190  46.7845464  65.0958757 112.3233027  46.7087941
  64.2301349 113.4318629  47.2686762  66.1901341 117.2039313  38.0223747
  65.7520771 116.4875172  37.5629385  66.9311782 117.4315428  37.4608839
  62.9802507 111.8936250  44.5435843  62.1670373 112.1930421  44.9501035
  63.4761501 111.4991939  45.2610325  65.1311085 121.8894007  46.4770108
  65.0887264 122.1154853  45.5478640  66.0473784 121.6557382  46.6255909
  68.5776719 112.3578075  53.3750737  68.9326107 112.5849548  54.2345202
  69.2248850 112.6896451  52.7527992  74.3074456 115.4796510  44.0800066
  74.1692354 115.6698106  43.1521255  73.9510675 116.2415893  44.5368117
  62.4716582 109.4654606  50.1597078  63.1115961 109.3243365  49.4620041
  61.6394112 109.1789119  49.7835680  74.3343835 117.5473037  49.0911337
  74.7680342 117.4548327  49.9394391  75.0475416 117.5230538  48.4531353
  63.2476886 118.7657036  46.2732070  64.0417484 118.2707356  46.0714645
  62.5368578 118.2374899  45.9099776  68.0671730 121.1475132  50.6244438
  68.1208753 121.7166068  51.3922154  67.1986512 121.3177017  50.2598475
  59.5559649 112.9100118  42.3491823  58.6257237 112.8484573  42.5661785
  59.6517121 112.3876071  41.5528464  59.4745198 109.4354931  44.9370065
  59.7352016 110.3500264  44.8279225  60.2962371 108.9679373  45.0866677
  60.9470124 110.8492688  52.1068889  61.6193177 110.6410050  51.4581538
  60.1199910 110.6514774  51.6674121  75.1959385 117.5896738  51.6244223
  75.3895275 118.4942549  51.8703498  75.0960003 117.1304157  52.4582808
  66.8495696 107.4754629  54.1234550  66.2023611 108.1744578  54.0299026
  67.6196711 107.9090773  54.4910798  70.2574494 117.7403481  57.1985103
  70.1060000 117.5114033  56.2815187  70.2479173 118.6974082  57.2116448
  67.0259830 115.3135394  52.1831370  67.9551890 115.4646553  52.0100337
  66.6050860 115.4019414  51.3280016  65.8248162 119.3386058  49.9529907
  65.6859248 118.9704842  50.8255845  65.0362758 119.8533697  49.7813865
  66.4196314 124.4395155  41.2955444  66.5948070 123.9683198  42.1101067
  65.7329102 125.0660921  41.5236705  67.3753377 118.7167661  47.3418745
  67.0403210 118.6768431  48.2376395  66.8757323 118.0512377  46.8689155
  61.3497621 114.1235291  52.8671326  61.2117419 113.3915530  53.4682865
  62.2602544 114.0344191  52.5855514  70.3112569 116.0623695  37.6155805
  69.6941739 115.3370523  37.5188857  69.8429057 116.8233055  37.2722879
  63.9779922 113.8355250  52.3555006  64.6879540 113.1948442  52.3141624
  63.9349230 114.0868145  53.2781187  71.9666700 120.7722603  55.2761585
  71.9079246 120.0881824  54.6092168  72.3686219 121.5141593  54.8242211
  62.6908856 110.8220468  54.1750645  62.1546213 110.3711206  54.8272242
  62.1025564 110.9566377  53.4321110  62.1011115 110.2809119  36.7377109
  61.2240581 110.1597920  36.3739356  62.5768868 109.4895198  36.4855998
  71.9684108 118.7362187  53.5075565  71.0810886 118.3988109  53.6301964
  72.5382659 118.0045219  53.7444330  53.6213255 115.0686279  46.8318616
  54.3084295 114.7548009  46.2439631  53.4661383 115.9727644  46.5585868
  58.4247977 109.9576476  51.2603640  58.3406166 109.3502145  50.5254050
  57.6030683 110.4485494  51.2613136  65.4985261 123.3963640  50.4736808
  65.4255432 124.2018611  50.9856113  65.0562654 123.5955606  49.6484829
  65.2875041 122.6335410  43.9839630  64.5042562 123.1757090  44.0777854
  65.9867786 123.1509389  44.3833871  68.5971691 108.4430039  46.6273835
  69.0940390 107.6900002  46.3074905  67.8258672 108.4794356  46.0617044
  76.4501448 114.1470405  48.2692126  76.4391324 115.0295120  47.8986060
  75.5818828 113.7941956  48.0746663  67.9583944 123.2950474  52.6294967
  68.6711917 123.9297939  52.5570868  67.4673973 123.3914340  51.8134968
  69.6801471 117.2001726  44.2012258  68.7457750 117.3203189  44.0316963
  69.8578140 116.2974193  43.9372268  65.1806659 110.5847422  46.3545520
  64.8104447 110.0318463  47.0426425  65.6765752 109.9805556  45.8020520
  73.0674023 113.0419046  44.7362292  73.5334475 113.8747037  44.6622595
  73.5181523 112.5764027  45.4407551  63.0095858 121.0444917  53.4500537
  63.7105318 121.6781400  53.6029932  62.5390973 121.3859649  52.6896177
  71.1350254 119.3862867  41.7348445  71.4110098 119.2719462  42.6442319
  70.2654753 118.9880352  41.6960618  71.0390685 105.4099633  48.7753194
  70.1253765 105.6403860  48.9435401  71.4683787 105.4938077  49.6267226
  70.8097144 113.5989525  51.2753088  70.1568594 113.8465432  50.6205541
  71.1877524 112.7853663  50.9415565  67.7704318 123.6349218  45.3781258
  67.9526712 122.8170874  45.8409010  68.5937304 123.8516910  44.9406148
  68.1046483 122.5617403  42.6396307  68.6334250 122.0509858  42.0266469
  68.3674703 122.2459933  43.5041840  66.8584717 114.3409336  57.7619125
  66.1825354 114.2403465  58.4321500  67.6812351 114.1848549  58.2255122
  58.6063576 120.5781272  50.3831640  59.1917013 119.8324960  50.5159544
  58.4088415 120.8885229  51.2668304  61.4602231 123.6132520  45.3994083
  60.7912607 124.0978647  44.9158123  61.3215101 123.8601740  46.3137461
  53.1981231 113.1486872  49.1036083  53.2365330 112.6150463  49.8973201
  52.6921524 112.6222078  48.4847060  65.6007500 125.6476263  51.9976741
  66.1525808 125.8107885  52.7625826  65.9413693 126.2380701  51.3256766
  60.5771993 107.9951413  52.5998626  60.6413320 108.8566244  52.1876023
  60.5139113 107.3825415  51.8670984  60.0524266 110.0674546  56.2471660
  60.6796304 109.6851623  56.8609184  59.1952185 109.8488747  56.6127352
  70.4518374 120.4737521  57.8525395  70.9958278 121.0867479  57.3580350
  69.8705219 121.0317099  58.3692408  56.8289808 111.8750975  42.1790015
  57.1243249 110.9661653  42.1257068  55.9277844 111.8538714  41.8571017
  68.7375887 123.5958239  48.9840423  68.6127027 122.7947979  48.4751369
  69.3954978 124.0904432  48.4954393  60.3584055 109.9506971  48.1617563
  59.6370641 110.5642939  48.0225037  61.1477311 110.4864736  48.0834209
  70.8010796 121.3967259  50.6119973  69.8541131 121.2772610  50.5398300
  71.1493569 120.5089757  50.6946235  63.1610369 107.2861398  54.4358215
  63.6844771 107.5323694  55.1984524  62.9422702 108.1181433  54.0161352
  58.5577650 109.5565072  42.3029340  58.2290356 108.6762451  42.1204446
  58.9117021 109.5012741  43.1905729  67.8057229 121.1919975  46.8124325
  67.6582191 120.2636682  46.9931895  68.6310722 121.2140066  46.3281401
  61.6719473 109.8438042  42.6704818  62.0115546 110.3723963  41.9483426
  62.1191594 110.1818448  43.4463384  71.4091351 122.0148534  47.8989198
  72.3337898 121.8091395  47.7613649  71.2406654 121.7664935  48.8078540
  64.3662914 108.2275093  52.1207886  64.0259734 107.4282906  52.5228565
  63.6601920 108.5276804  51.5484719  65.0179386 105.3124405  50.5735209
  65.8405455 104.8384883  50.4514099  65.2617449 106.0914889  51.0733895
  63.6587620 108.3412664  40.8698110  64.3795983 108.7193916  40.3661827
  63.0352924 109.0601540  40.9733088  67.8018743 109.0457813  41.8056443
  68.0182358 109.9282451  41.5045271  67.3212810 108.6544026  41.0762085
  62.5417965 112.0043526  48.3827187  62.3962545 112.3183829  49.2751469
  62.0643168 112.6228426  47.8298086  64.4014347 108.9946074  48.4308077
  64.3875916 108.0987167  48.0940375  65.1186776 109.0016738  49.0646363
  66.2540478 109.4283414  50.4761204  65.9958256 110.3500485  50.4745535
  65.7225519 109.0313849  51.1661668  71.1986667 122.5334201  43.2551290
  71.3723544 121.9680624  42.5025142  71.6915558 123.3335096  43.0730780
  57.0163627 114.5448870  51.3214848  56.4717095 115.3208678  51.4535123
  57.8942977 114.8919675  51.1633970  63.8051243 107.8760454  43.6995647
  63.9267155 106.9477100  43.8986534  63.5153286 107.8899140  42.7873962
  66.6742434 105.5615365  46.8362367  66.6964131 105.6254698  45.8814346
  67.0910493 104.7219873  47.0302873  77.0526058 115.2970624  44.8741589
  77.4957204 114.5477949  44.4760713  76.1752568 115.2880760  44.4915321
  72.1861839 121.8500966  40.3548188  72.8812744 122.4707658  40.5735503
  72.5284990 120.9996317  40.6300566  57.8029649 113.6718767  54.2145005
  57.0611385 113.8201402  54.8009636  57.4822393 113.9327032  53.3511755
  74.0853263 119.3000671  41.8835519  74.6104587 119.6387944  41.1584839
  73.9975615 118.3647686  41.6998653  65.7473311 123.2134745  54.0125395
  66.0560438 122.9683892  54.8848095  66.5448793 123.4181383  53.5244266
  65.7693923 125.3672654  46.2430772  65.3298914 124.8749033  46.9363629
  66.5202040 124.8245622  46.0022847  58.2486262 121.5584195  46.2455400
  59.0744282 121.2587967  45.8654043  57.8980314 120.7891818  46.6945189
  63.2167795 120.9110663  48.3153074  62.5947805 120.2481369  48.0155301
  63.8872662 120.9371795  47.6326721  56.4494867 119.4770522  47.2044334
  55.6126776 119.0492696  47.0228335  56.4218513 119.6702965  48.1415125
  63.2892323 109.3892452  57.9085580  63.3380478 110.2654574  57.5263349
  63.8314837 108.8469845  57.3357223  73.7747169 119.9333575  57.1886717
  72.9842712 119.9157714  56.6491216  73.5380523 120.4721868  57.9435753
  73.8945044 116.7826041  54.5019445  73.9443049 116.6176049  55.4434968
  73.7858967 115.9153300  54.1117326  62.7781302 119.4614587  41.7911534
  62.9269423 120.1450051  41.1378207  63.5847746 119.4419677  42.3060990
  71.1848806 112.7656969  55.8178752  72.0858669 112.6263434  55.5262750
  71.2596781 112.9311424  56.7576929  65.5191611 110.1423824  54.6631938
  64.6494921 110.4357390  54.3914527  65.7551092 110.7264269  55.3839202
  75.3963240 119.2022983  54.7461467  75.1048049 119.5652963  55.5824928
  74.7835372 118.4889991  54.5674799  76.5958923 116.7675862  47.2664037
  77.4305814 117.2065666  47.4301597  76.7318052 116.2914516  46.4472283
  73.6450429 114.3255597  53.2141525  74.1204550 114.5183244  52.4060376
  72.7215994 114.3814783  52.9684908  60.5333935 115.4879764  42.7972603
  60.2879977 114.5842094  42.9952813  60.7029850 115.4896915  41.8552081
  68.2230645 106.3603441  52.1797359  68.7412589 107.0964468  51.8543847
  67.8685778 106.6667434  53.0144118  59.8029583 111.2208122  40.2958764
  59.1098828 111.2952477  39.6398800  59.5581335 110.4568466  40.8180281
  68.4743239 102.7803723  47.6998255  68.7544993 102.1126912  48.3258682
  69.2593846 102.9732819  47.1872919  66.2776708 121.9562717  39.2623281
  65.7050675 122.5752904  38.8093753  66.8509502 122.5062079  39.7963203
  72.3452098 111.2021357  51.4469830  73.2969521 111.3019455  51.4682054
  72.1755548 110.4099626  51.9567915  70.3666477 108.2876941  51.6329231
  69.7716409 108.5681953  50.9375720  70.0816174 108.7770842  52.4045972
  69.4973968 122.2399867  40.3931864  70.4304641 122.1745429  40.5964739
  69.4097180 123.0756134  39.9346396  72.1261984 121.5565738  37.3535811
  72.0475616 121.2225601  38.2471569  72.9471651 122.0487506  37.3527284
  74.8240175 114.4227477  50.5612130  74.7916496 113.4843478  50.7471814
  75.4340799 114.5011514  49.8277955  66.6623506 113.2923530  36.6039334
  67.6082611 113.1629738  36.6727752  66.2837751 112.5538192  37.0808762
  74.9734664 111.2138520  50.6070413  74.4573713 110.4296977  50.4200342
  75.8574612 110.8857237  50.7716933  72.6345391 104.9579536  46.5666226
  72.4370212 104.6494624  47.4509558  73.2445096 105.6841175  46.6964156
  80.6416725 115.4843484  49.7018167  81.3720114 115.2228772  50.2625870
  80.0323671 114.7472206  49.7420235  78.7232022 113.6251346  50.2992618
  77.9965186 113.4907311  49.6909110  78.3079309 113.9328175  51.1049336
  66.5462199 117.3441276  58.0639991  67.4665208 117.5219875  58.2580037
  66.5111782 116.3997322  57.9119690  64.8466424 111.2173506  36.5394219
  63.9397879 110.9206619  36.6156933  65.1242405 110.9203324  35.6728505
  55.7644364 112.5379870  46.9893266  55.4447148 111.6845178  46.6967640
  55.2177792 112.7528448  47.7451233  59.5424271 115.2542311  50.7062772
  59.7610281 116.1859419  50.7250806  59.9550045 114.8950285  51.4917576
  66.4628489 105.7610396  42.6938460  65.6529218 105.4157481  43.0693707
  67.1512906 105.4517940  43.2826072  68.3919038 104.8388443  44.3162757
  68.9450076 105.2583896  44.9752780  68.6289124 103.9124191  44.3585713
  64.4152137 110.8275517  60.0965521  64.3148864 111.7769874  60.0277612
  64.1973679 110.4993755  59.2241591  63.6165208 108.0760442  36.6806198
  64.4784372 108.4015340  36.9402016  63.8015552 107.2891938  36.1679264
  55.6332624 116.1582781  48.9586387  54.9396095 115.7436734  48.4456342
  56.3805615 116.2003318  48.3619806  71.7697845 106.9488968  43.8241421
  71.1896514 107.6073772  43.4419474  71.5033777 106.1266313  43.4128839
  70.2201411 106.3494026  46.0262742  70.7201189 106.4610560  45.2177061
  70.8637019 106.0455079  46.6663550  64.2783407 114.2572655  58.9130583
  63.7950489 115.0573016  59.1194472  64.3644346 114.2680600  57.9598027
  57.5469366 116.0901035  46.8352402  57.5240055 116.1888722  45.8834285
  57.8570003 116.9366186  47.1569568  60.2056744 118.1477190  50.9499016
  61.1599998 118.1161132  50.8828948  60.0069268 117.6867814  51.7649242
  60.7956126 116.7178306  53.5169814  61.6149015 117.2122385  53.5404651
  61.0692934 115.8010274  53.4887382  70.5522723 109.1089058  42.8797770
  69.6648578 109.3938709  42.6617964  70.9676712 108.9482822  42.0325047
  73.9037259 109.1335579  46.5952109  74.6797649 109.6232032  46.8676726
  73.1785393 109.5593634  47.0523978  76.3409817 109.8463199  47.6526050
  76.9354308 109.6058935  46.9419358  76.4136401 109.1270329  48.2799586
  69.6965936 118.8733733  36.9745790  70.4001786 119.0783736  37.5903445
  68.9728585 119.4410495  37.2394873  70.5263746 114.6243594  43.0948060
  70.4698948 115.0812146  42.2555692  71.0792089 113.8634279  42.9170903
  74.3368552 110.4133326  43.9198179  74.0805487 110.0129962  44.7506387
  73.7121420 111.1277120  43.7948318  78.6480890 113.1529400  46.4269471
  78.0880448 113.2222589  47.2001033  78.0424393 112.9770384  45.7068967
  71.6052633 119.3116262  39.0244250  72.4398237 118.8797461  38.8421724
  71.4436976 119.1398276  39.9521144  71.2598526 115.8148376  40.3900589
  71.2047329 115.6492647  39.4489033  70.6344581 116.5224409  40.5462779
  56.0491041 111.0516440  54.2162011  56.6949904 110.5415394  54.7049236
  55.8408192 111.7885122  54.7905436  68.5744433 118.1197288  59.7154152
  69.4435592 118.2937940  59.3540787  68.0951184 118.9391704  59.5929881
  64.5694651 105.3156485  39.9685907  64.5573321 106.2598325  40.1254178
  65.4618073 105.1326630  39.6745369  62.7430613 125.2394389  51.3943585
  63.6457860 125.2717999  51.7110080  62.5167983 124.3094839  51.4089921
  64.4984215 123.9925375  48.0553664  63.5479846 123.9927237  47.9418036
  64.8016701 123.2458110  47.5389699  68.3846771 101.9099261  44.2231844
  67.6179166 101.3557748  44.3688527  68.7957476 101.9821130  45.0845996
  60.3888532 108.1984057  58.3137025  61.2519993 107.8420862  58.5240350
  59.8153942 107.8597952  59.0012430  80.2336909 129.8285913  49.1199426
  80.8715319 129.7092661  48.4162767  80.1157751 130.7766757  49.1787379
  77.0426615 129.7813342  49.0560951  76.7045126 129.6654406  48.1681486
  77.9116383 129.3804507  49.0361957  77.5246398 130.9348193  55.0147157
  77.5135039 130.5400992  54.1427660  77.6867037 130.2014266  55.6080928
  74.7434894 128.5501589  38.3877891  74.9960415 128.0283110  37.6261354
  73.8059453 128.3867734  38.4904575  79.7878177 127.5537367  46.1952634
  80.5741266 127.1356790  45.8443051  80.0516881 128.4583459  46.3634283
  85.1886604 127.4912601  47.0985613  85.9211776 126.9211817  47.3323442
  84.4325960 127.1034201  47.5392119  76.8062724 129.9139842  44.2948955
  76.4420931 129.3870463  45.0061877  77.6629840 129.5238311  44.1215441
  82.7112025 121.2034175  51.5580222  82.3795349 122.0729586  51.3341437
  82.1157638 120.8870459  52.2374252  76.4468211 124.9429742  39.2910304
  76.6142613 125.8109978  39.6580775  76.2565380 125.1057023  38.3671593
  82.6040688 125.9229261  48.6373572  81.6957565 125.8544669  48.3432333
  82.5528284 126.4001206  49.4655397  76.4257432 127.3987399  40.2756971
  76.3057057 127.8444450  41.1142451  75.7310020 127.7472717  39.7170509
  76.6781554 127.3418906  56.5808469  75.9014888 127.9012827  56.5711334
  77.3172117 127.8275689  57.1023339  84.4702334 124.1245699  50.4151446
  83.8276715 124.4178232  49.7691240  83.9657263 124.0098620  51.2204642
  82.1242498 127.8708872  41.1037305  83.0360354 128.1036259  40.9285002
  81.6152145 128.4545917  40.5412383  76.7614336 127.2306107  52.1132154
  77.6075531 127.6545521  52.2566803  76.7012973 126.5739731  52.8070717
  79.9113781 124.8910475  53.7713328  79.6674713 125.6452536  53.2347604
  80.1873711 125.2695823  54.6060575  79.4678473 124.0466908  49.3527166
  78.6062952 124.3448162  49.6443903  79.4940907 124.2637307  48.4208198
  75.2208928 128.7132251  42.5690537  75.9232972 129.1653295  43.0364463
  74.8889557 128.0716070  43.1970430  73.6689290 127.3044008  56.9441746
  73.0387950 127.9860289  57.1777143  73.5625378 127.1927090  55.9994884
  68.9634262 126.9715804  47.8707670  68.1733316 127.2273332  47.3947781
  69.4545510 127.7864142  47.9759711  70.9149008 127.3360383  44.8291147
  70.1180171 127.4479077  45.3474642  70.6874600 127.6747035  43.9632037
  72.9470032 121.6064774  59.3066997  72.5536978 121.0530972  59.9814641
  73.7636173 121.9175352  59.6973514  75.8637993 123.0222653  56.8987254
  76.6047707 123.6229806  56.8191716  76.0955916 122.2800291  56.3405296
  79.8095156 119.0503756  51.1751535  79.4659426 119.9405397  51.0990646
  80.1774119 118.8605413  50.3121120  79.7745439 129.0412367  39.6823970
  79.2592063 129.8116972  39.9212358  79.5022748 128.3677503  40.3057032
  77.3592550 123.8862068  44.7409209  76.5034146 123.4968918  44.5614847
  77.7719502 123.9654028  43.8808994  78.8891697 121.4208411  49.1400768
  78.3856492 121.3838546  48.3268574  79.1822304 122.3301154  49.1997425
  75.1334583 121.5047141  48.1466950  75.9987579 121.3089949  47.7872840
  75.2012092 121.2757492  49.0736307  79.5631742 126.9139459  41.5083751
  79.2581878 127.2285608  42.3593895  80.5162184 126.9920879  41.5511084
  72.7396902 123.7349349  45.5183317  73.3140654 123.5124530  44.7856510
  73.3267884 123.8038043  46.2711918  81.7976479 129.6223075  46.3247694
  82.3108361 130.2553067  46.8269403  82.4477703 129.0224271  45.9591054
  73.0666489 125.7653810  39.5379202  72.2303801 126.1028496  39.8588477
  72.9271258 125.6302789  38.6006339  75.0419569 120.6090597  44.2458386
  74.3883982 120.2939615  43.6215001  75.0000044 119.9866338  44.9718209
  78.2757310 127.0972531  48.5706034  77.3579871 127.3187478  48.4127722
  78.6917453 127.1718842  47.7117741  79.0592358 128.4963947  43.7008714
  79.8064176 129.0085344  43.3915836  79.3283947 128.1747999  44.5613108
  81.5071195 125.5321063  45.6827504  80.7693951 125.0198449  46.0137746
  81.7597968 125.0921445  44.8710780  81.6082822 118.3097315  46.2769273
  81.9141699 117.4494678  45.9895188  82.3335427 118.9014935  46.0768267
  75.8803902 128.6051108  46.7845464  75.9352512 127.6524944  46.7087941
  75.0695104 128.7610547  47.2686762  73.8196262 127.2228168  44.5435843
  73.0064127 127.5222338  44.9501035  74.3155256 126.8283857  45.2610325
  79.4170473 127.6869992  53.3750737  79.7719861 127.9141465  54.2345202
  80.0642605 128.0188369  52.7527992  73.3110336 124.7946523  50.1597078
  73.9509716 124.6535282  49.4620041  72.4787867 124.5081037  49.7835680
  70.3953404 128.2392035  42.3491823  69.4650992 128.1776491  42.5661785
  70.4910876 127.7167988  41.5528464  70.3138953 124.7646848  44.9370065
  70.5745770 125.6792182  44.8279225  71.1356125 124.2971291  45.0866677
  71.7863878 126.1784605  52.1068889  72.4586932 125.9701968  51.4581538
  70.9593665 125.9806691  51.6674121  77.6889450 122.8046546  54.1234550
  77.0417365 123.5036496  54.0299026  78.4590466 123.2382690  54.4910798
  77.8653585 130.6427311  52.1831370  78.7945645 130.7938471  52.0100337
  77.4444615 130.7311332  51.3280016  81.1506323 131.3915613  37.6155805
  80.5335494 130.6662441  37.5188857  80.6822812 132.1524973  37.2722879
  74.8173676 129.1647168  52.3555006  75.5273295 128.5240360  52.3141624
  74.7742984 129.4160063  53.2781187  73.5302610 126.1512386  54.1750645
  72.9939967 125.7003124  54.8272242  72.9419319 126.2858294  53.4321110
  72.9404869 125.6101037  36.7377109  72.0634335 125.4889838  36.3739356
  73.4162622 124.8187115  36.4855998  69.2641731 125.2868393  51.2603640
  69.1799920 124.6794063  50.5254050  68.4424438 125.7777412  51.2613136
  79.4365445 123.7721957  46.6273835  79.9334145 123.0191919  46.3074905
  78.6652427 123.8086274  46.0617044  76.0200414 125.9139340  46.3545520
  75.6498201 125.3610380  47.0426425  76.5159506 125.3097473  45.8020520
  83.9067777 128.3710963  44.7362292  84.3728229 129.2038955  44.6622595
  84.3575278 127.9055945  45.4407551  81.8784440 120.7391550  48.7753194
  80.9647520 120.9695777  48.9435401  82.3077541 120.8229994  49.6267226
  81.6490898 128.9281442  51.2753088  80.9962349 129.1757350  50.6205541
  82.0271278 128.1145581  50.9415565  77.6978472 129.6701253  57.7619125
  77.0219109 129.5695383  58.4321500  78.5206105 129.5140467  58.2255122
  71.4165748 123.3243331  52.5998626  71.4807074 124.1858162  52.1876023
  71.3532868 122.7117332  51.8670984  70.8918020 125.3966463  56.2471660
  71.5190059 125.0143541  56.8609184  70.0345939 125.1780665  56.6127352
  67.6683563 127.2042892  42.1790015  67.9637004 126.2953571  42.1257068
  66.7671599 127.1830632  41.8571017  71.1977810 125.2798889  48.1617563
  70.4764396 125.8934857  48.0225037  71.9871066 125.8156654  48.0834209
  74.0004123 122.6153315  54.4358215  74.5238525 122.8615612  55.1984524
  73.7816457 123.4473350  54.0161352  69.3971404 124.8856990  42.3029340
  69.0684111 124.0054369  42.1204446  69.7510775 124.8304659  43.1905729
  72.5113228 125.1729960  42.6704818  72.8509300 125.7015881  41.9483426
  72.9585348 125.5110366  43.4463384  75.2056668 123.5567010  52.1207886
  74.8653489 122.7574824  52.5228565  74.4995675 123.8568721  51.5484719
  75.8573140 120.6416323  50.5735209  76.6799210 120.1676801  50.4514099
  76.1011204 121.4206807  51.0733895  74.4981375 123.6704581  40.8698110
  75.2189737 124.0485834  40.3661827  73.8746679 124.3893458  40.9733088
  78.6412498 124.3749730  41.8056443  78.8576112 125.2574368  41.5045271
  78.1606565 123.9835944  41.0762085  73.3811719 127.3335444  48.3827187
  73.2356300 127.6475747  49.2751469  72.9036923 127.9520344  47.8298086
  75.2408102 124.3237992  48.4308077  75.2269671 123.4279085  48.0940375
  75.9580530 124.3308655  49.0646363  77.0934233 124.7575332  50.4761204
  76.8352010 125.6792402  50.4745535  76.5619273 124.3605766  51.1661668
  74.6444998 123.2052372  43.6995647  74.7660909 122.2769018  43.8986534
  74.3547040 123.2191058  42.7873962  77.5136188 120.8907282  46.8362367
  77.5357885 120.9546615  45.8814346  77.9304247 120.0511791  47.0302873
  74.1286077 124.7184369  57.9085580  74.1774233 125.5946492  57.5263349
  74.6708592 124.1761762  57.3357223  82.0242561 128.0948887  55.8178752
  82.9252423 127.9555352  55.5262750  82.0990535 128.2603342  56.7576929
  76.3585366 125.4715742  54.6631938  75.4888675 125.7649308  54.3914527
  76.5944846 126.0556187  55.3839202  79.0624400 121.6895359  52.1797359
  79.5806344 122.4256385  51.8543847  78.7079532 121.9959352  53.0144118
  70.6423337 126.5500040  40.2958764  69.9492582 126.6244395  39.6398800
  70.3975089 125.7860383  40.8180281  79.3136994 118.1095641  47.6998255
  79.5938748 117.4418830  48.3258682  80.0987601 118.3024737  47.1872919
  83.1845852 126.5313275  51.4469830  84.1363275 126.6311373  51.4682054
  83.0149303 125.7391544  51.9567915  81.2060232 123.6168858  51.6329231
  80.6110164 123.8973871  50.9375720  80.9209928 124.1062759  52.4045972
  77.5017261 128.6215448  36.6039334  78.4476366 128.4921656  36.6727752
  77.1231506 127.8830110  37.0808762  85.8128418 126.5430438  50.6070413
  85.2967467 125.7588895  50.4200342  86.6968367 126.2149155  50.7716933
  83.4739145 120.2871454  46.5666226  83.2763967 119.9786542  47.4509558
  84.0838851 121.0133093  46.6964156  75.6860178 126.5465424  36.5394219
  74.7791633 126.2498537  36.6156933  75.9636159 126.2495242  35.6728505
  77.3022244 121.0902314  42.6938460  76.4922972 120.7449399  43.0693707
  77.9906661 120.7809858  43.2826072  79.2312792 120.1680361  44.3162757
  79.7843831 120.5875814  44.9752780  79.4682878 119.2416109  44.3585713
  75.2545891 126.1567434  60.0965521  75.1542618 127.1061791  60.0277612
  75.0367433 125.8285673  59.2241591  74.4558963 123.4052359  36.6806198
  75.3178127 123.7307258  36.9402016  74.6409307 122.6183855  36.1679264
  82.6091599 122.2780886  43.8241421  82.0290268 122.9365690  43.4419474
  82.3427532 121.4558230  43.4128839  81.0595165 121.6785943  46.0262742
  81.5594944 121.7902478  45.2177061  81.7030773 121.3746996  46.6663550
  81.3916477 124.4380976  42.8797770  80.5042332 124.7230627  42.6617964
  81.8070466 124.2774740  42.0325047  84.7431013 124.4627497  46.5952109
  85.5191403 124.9523950  46.8676726  84.0179147 124.8885551  47.0523978
  87.1803572 125.1755116  47.6526050  87.7748063 124.9350852  46.9419358
  87.2530156 124.4562247  48.2799586  81.3657501 129.9535512  43.0948060
  81.3092702 130.4104064  42.2555692  81.9185843 129.1926197  42.9170903
  85.1762307 125.7425244  43.9198179  84.9199241 125.3421880  44.7506387
  84.5515175 126.4569038  43.7948318  82.0992280 131.1440293  40.3900589
  82.0441084 130.9784565  39.4489033  81.4738335 131.8516326  40.5462779
  66.8884795 126.3808358  54.2162011  67.5343659 125.8707312  54.7049236
  66.6801946 127.1177039  54.7905436  75.4088406 120.6448402  39.9685907
  75.3967075 121.5890242  40.1254178  76.3011827 120.4618548  39.6745369
  79.2240525 117.2391179  44.2231844  78.4572921 116.6849666  44.3688527
  79.6351230 117.3113048  45.0845996  71.2282286 123.5275975  58.3137025
  72.0913748 123.1712780  58.5240350  70.6547697 123.1889870  59.0012430
  15.1974383  14.8596530  35.8444733  15.8352793  14.7403277  35.1408073
  15.0795226  15.8077374  35.9032685  12.0064089  14.8123958  35.7806258
  11.6682601  14.6965023  34.8926793  12.8753857  14.4115123  35.7607264
  12.4883872  15.9658810  41.7392463  12.4772513  15.5711608  40.8672967
  12.6504512  15.2324882  42.3326235   5.4115337  18.1610626  34.6087369
   6.2036629  17.8201451  34.1933668   5.6511987  18.2705601  35.5289522
   9.2091133  18.7495922  40.6871647   8.9180999  19.6541552  40.5718314
   9.8448118  18.7912449  41.4015717  10.1347340  16.1272770  37.2773007
  10.7310912  15.9028793  36.5629970  10.1922312  15.3857516  37.8798455
  20.1524079  12.5223217  33.8230920  20.8849250  11.9522434  34.0568749
  19.3963434  12.1344817  34.2637425  14.1681018  18.4357337  37.6821441
  13.8681741  19.3382376  37.5737248  13.8232078  18.1689520  38.5342594
  17.5678162  10.9539877  35.3618878  16.6595040  10.8855286  35.0677639
  17.5165758  11.4311822  36.1900704   9.1501798  25.2001657  30.6492409
   9.0725828  26.1509483  30.7280889   8.5463442  24.8547530  31.3067335
  11.6419028  12.3729523  43.3053776  10.8652362  12.9323443  43.2956640
  12.2809591  12.8586306  43.8268646  19.4339809   9.1556316  37.1396752
  18.7914189   9.4488849  36.4936547  18.9294737   9.0409236  37.9449949
   9.8965400  15.1814976  42.8671743  10.6380085  15.7200020  42.5906566
   9.1902386  15.8081265  43.0243294  15.3720740  17.3244117  41.4643904
  15.7804096  16.8826527  40.7198536  14.6498001  16.7496744  41.7178097
  11.7251810  12.2616724  38.8377461  12.5713005  12.6856137  38.9812110
  11.6650448  11.6050348  39.5316024  15.6949555  17.8845307  35.2196193
  15.0658417  18.0491021  34.5172261  15.3075217  18.2986917  35.9907157
  19.5738786  18.8199745  32.5740557  18.8889825  19.1998647  32.0237590
  19.6582636  19.4295072  33.3072504  14.8751255   9.9221092  40.4958635
  14.6312187  10.6763152  39.9592910  15.1511186  10.3006439  41.3305882
  16.8289718  16.4659704  39.1735900  17.0406613  17.1091464  38.4970281
  16.7819466  15.6322021  38.7057830   8.1401598  17.1691197  35.4226041
   8.7102955  17.5978465  34.7843526   8.7309709  16.8873782  36.1210227
  17.9435546  19.3431660  37.3458258  18.7652990  18.9411847  37.0640939
  17.9397949  19.2399894  38.2974373  11.7092149  18.8915703  39.5018968
  11.7736582  19.3536110  40.3377140  11.0003073  18.2613068  39.6301278
  26.0341539  15.6870408  33.6943229  25.2805247  15.1177806  33.5387233
  26.1689080  15.6533073  34.6413864   6.6864449  21.1925005  32.0248627
   6.8631078  22.1142969  31.8369611   7.4821283  20.8783424  32.4543006
  13.0508643  21.1807377  43.4998290  12.6072498  20.3943756  43.1819195
  13.7125857  21.3686527  42.8342181   7.8095765  22.7103179  38.0258969
   8.3603190  22.5820242  37.2535963   6.9707241  23.0098068  37.6753862
  15.1489882  21.4610177  41.5279692  15.1308357  22.2819058  41.0359961
  16.0709802  21.3364252  41.7529833  11.6062936  18.9754306  42.3703200
  12.1391273  18.2142595  42.1402508  11.0777017  18.6827958  43.1127355
  17.9508494  16.2989319  34.9989058  17.2932169  16.9888581  35.0869187
  18.7548894  16.6885751  35.3423045  16.7613953  14.6533692  33.0493000
  17.2745835  15.2863684  33.5514710  17.4115177  14.0534888  32.6836360
  13.2394784  12.1283148  35.2951341  12.3217345  12.3498095  35.1373029
  13.6554928  12.2029458  34.4363048  17.5275749  19.6339693  31.1772143
  17.0738077  18.7930603  31.2337333  16.8969716  20.2701092  31.5146923
  15.9708689  21.4716190  32.1121961  16.2631663  22.0321247  31.3934327
  16.4807309  21.7644751  32.8675120  10.9342314  22.2496541  33.2015414
  10.8918493  22.4757388  32.2723946  11.8505013  22.0159916  33.3501215
  14.3807948  12.7180609  40.0996043  14.7357335  12.9452082  40.9590509
  15.0280079  13.0498986  39.4773299  20.1105685  15.8399045  30.8045372
  19.9723583  16.0300641  29.8766562  19.7541903  16.6018428  31.2613424
  20.1375064  17.9075572  35.8156644  20.5711571  17.8150861  36.6639698
  20.8506645  17.8833072  35.1776660  13.8702959  21.5077666  37.3489744
  13.9239981  22.0768602  38.1167460  13.0017741  21.6779551  36.9843782
  20.9990614  17.9499272  38.3489529  21.1926504  18.8545083  38.5948804
  20.8991232  17.4906691  39.1828114  16.0605722  18.1006015  43.9230410
  15.9091229  17.8716567  43.0060494  16.0510402  19.0576617  43.9361755
  12.8291059  15.6737928  38.9076676  13.7583119  15.8249087  38.7345644
  12.4082089  15.7621949  38.0525323  11.6279391  19.6988592  36.6775214
  11.4890476  19.3307377  37.5501152  10.8393987  20.2136232  36.5059172
  12.2227543  24.7997689  28.0200750  12.3979298  24.3285732  28.8346373
  11.5360331  25.4263455  28.2482011  13.1784606  19.0770195  34.0664052
  12.8434438  19.0370965  34.9621702  12.6788551  18.4114911  33.5934462
   7.1528850  14.4837825  39.5916633   7.0148648  13.7518064  40.1928172
   8.0633773  14.3946725  39.3100821   9.7811150  14.1957784  39.0800313
  10.4910769  13.5550977  39.0386931   9.7380459  14.4470679  40.0026493
  17.7697929  21.1325138  42.0006892  17.7110475  20.4484358  41.3337475
  18.1717447  21.8744128  41.5487518   6.7888628  27.9487051  34.7940611
   7.0285226  28.5805576  35.4719629   5.9457824  27.5975092  35.0805970
  17.7715336  19.0964722  40.2320871  16.8842115  18.7590643  40.3547270
  18.3413887  18.3647753  40.4689637  11.3016490  23.7566174  37.1982115
  11.2286661  24.5621145  37.7101419  10.8593883  23.9558140  36.3730136
  11.0906269  22.9937944  30.7084936  10.3073791  23.5359624  30.8023161
  11.7899015  23.5111924  31.1079177  22.2532677  14.5072939  34.9937433
  22.2422553  15.3897654  34.6231366  21.3850056  14.1544490  34.7991970
  13.7615173  23.6553008  39.3540273  14.4743146  24.2900473  39.2816175
  13.2705202  23.7516874  38.5380275   8.8127087  21.4047451  40.1745844
   9.5136546  22.0383934  40.3275238   8.3422202  21.7462183  39.4141483
  16.6128373  13.9592059  37.9998394  15.9599823  14.2067966  37.3450847
  16.9908753  13.1456197  37.6660872  13.5735547  23.9951752  32.1026565
  13.7557941  23.1773408  32.5654317  14.3968533  24.2119444  31.6651455
  13.9077712  22.9219937  29.3641613  14.4365479  22.4112392  28.7511775
  14.1705932  22.6062467  30.2287146  12.6615946  14.7011870  44.4864432
  11.9856583  14.6005999  45.1566807  13.4843580  14.5451084  44.9500429
   4.4094805  20.9383806  37.1076947   4.9948242  20.1927494  37.2404851
   4.2119643  21.2487763  37.9913611   7.2633460  23.9735054  32.1239389
   6.5943835  24.4581181  31.6403429   7.1246330  24.2204274  33.0382768
  11.4038729  26.0078797  38.7222048  11.9557037  26.1710419  39.4871133
  11.7444922  26.5983235  38.0502072  16.2549603  20.8340055  44.5770702
  16.7989507  21.4470013  44.0825657  15.6736448  21.3919633  45.0937715
  14.5407116  23.9560773  35.7085730  14.4158255  23.1550513  35.1996675
  15.1986207  24.4506966  35.2199700  16.6042024  21.7569793  37.3365280
  15.6572360  21.6375144  37.2643607  16.9524797  20.8692291  37.4191541
  13.6088458  21.5522509  33.5369632  13.4613420  20.6239217  33.7177202
  14.4341951  21.5742600  33.0526707  17.2122579  22.3751068  34.6234505
  18.1369127  22.1693929  34.4858956  17.0437883  22.1267469  35.5323846
  17.0017896  22.8936735  29.9796596  17.1754773  22.3283158  29.2270449
  17.4946787  23.6937630  29.7976086  22.8557287  15.6573158  31.5986896
  23.2988433  14.9080484  31.2006019  21.9783797  15.6483295  31.2160628
  17.9893068  22.2103500  27.0793495  18.6843973  22.8310192  27.2980809
  18.3316218  21.3598851  27.3545872  19.8884491  19.6603205  28.6080825
  20.4135815  19.9990478  27.8830145  19.8006844  18.7250221  28.4243960
  11.5504540  23.5737279  40.7370702  11.8591666  23.3286426  41.6093401
  12.3480022  23.7783917  40.2489572  11.5725152  25.7275189  32.9676078
  11.1330142  25.2351567  33.6608935  12.3233269  25.1848156  32.7268154
   4.0517491  21.9186729  32.9700707   4.8775511  21.6190501  32.5899350
   3.7011543  21.1494352  33.4190495   9.0199024  21.2713198  35.0398380
   8.3979034  20.6083903  34.7400608   9.6903891  21.2974330  34.3572028
  19.5778397  20.2936109  43.9132023  18.7873941  20.2760248  43.3736523
  19.3411752  20.8324403  44.6681060  19.6976272  17.1428575  41.2264752
  19.7474277  16.9778583  42.1680275  19.5890196  16.2755834  40.8362633
  16.9880035  13.1259503  42.5424058  17.8889898  12.9865968  42.2508056
  17.0628009  13.2913958  43.4822236  21.1994469  19.5625517  41.4706773
  20.9079278  19.9255497  42.3070234  20.5866601  18.8492525  41.2920105
  22.3990152  17.1278397  33.9909344  23.2337043  17.5668201  34.1546904
  22.5349280  16.6517050  33.1717589  19.4481658  14.6858131  39.9386831
  19.9235779  14.8785778  39.1305683  18.5247223  14.7417317  39.6930215
  18.1483327  11.5623892  38.1715137  19.1000749  11.6621989  38.1927361
  17.9786777  10.7702160  38.6813221  16.1697706   8.6479475  38.3574538
  15.5747638   8.9284488  37.6621026  15.8847403   9.1373376  39.1291279
  20.6271404  14.7830011  37.2857437  20.5947724  13.8446012  37.4717120
  21.2372028  14.8614048  36.5523261  20.7765893  11.5741055  37.3315720
  20.2604941  10.7899511  37.1445649  21.6605841  11.2459771  37.4962239
  26.4447954  15.8446018  36.4263473  27.1751343  15.5831306  36.9871177
  25.8354900  15.1074740  36.4665541  24.5263251  13.9853881  37.0237925
  23.7996415  13.8509846  36.4154416  24.1110538  14.2930709  37.8294643
  12.3493428  17.7043810  44.7885298  13.2696437  17.8822409  44.9825344
  12.3143011  16.7599856  44.6364997   5.3455500  15.6144845  37.4308079
   5.5641510  16.5461953  37.4496113   5.7581274  15.2552819  38.2162883
  10.0814636  14.6175190  45.6375889   9.5981717  15.4175550  45.8439778
  10.1675575  14.6283134  44.6843333   6.0087973  18.5079724  37.6744323
   6.9631227  18.4763667  37.6074255   5.8100497  18.0470348  38.4894549
   6.5987355  17.0780840  40.2415121   7.4180244  17.5724919  40.2649958
   6.8724163  16.1612809  40.2132688  22.1441046  10.2065733  34.3771356
  22.7385537   9.9661469  33.6664664  22.2167630   9.4872863  35.0044892
   4.3638202  24.0499344  34.6914521   4.2292670  23.2899745  34.1252519
   3.9470264  24.7740244  34.2243310  24.4512119  13.5131934  33.1514777
  23.8911677  13.5825123  33.9246339  23.8455622  13.3372918  32.4314274
   7.5207328  24.9468661  34.9032964   7.4039712  25.8914093  34.8011654
   6.6999774  24.6442222  35.2918763  14.3775662  18.4799822  46.4399458
  15.2466821  18.6540474  46.0786093  13.8982413  19.2994239  46.3175188
   8.5461842  25.5996923  38.1188892   9.4489089  25.6320533  38.4355387
   8.3199212  24.6697374  38.1335228  10.3015444  24.3527909  34.7798971
   9.3511075  24.3529771  34.6663343  10.6047930  23.6060644  34.2635005
  26.0368137  30.1888448  35.8444733  26.6746547  30.0695195  35.1408073
  25.9188980  31.1369292  35.9032685  22.8457844  30.1415876  35.7806258
  22.5076355  30.0256940  34.8926793  23.7147612  29.7407041  35.7607264
  18.7044659  31.9951352  31.7703149  18.1409525  31.9041289  31.0019436
  18.5897054  31.1751257  32.2505641  23.3277627  31.2950727  41.7392463
  23.3166267  30.9003526  40.8672967  23.4898266  30.5616800  42.3326235
  16.2509091  33.4902544  34.6087369  17.0430383  33.1493368  34.1933668
  16.4905741  33.5997519  35.5289522  24.2844218  35.6622320  27.0817614
  23.6332198  36.2476400  26.6951627  25.0788581  36.1928515  27.1412651
  18.2099845  32.7511457  27.4804748  18.9830721  32.2040444  27.3417624
  18.5625244  33.6155706  27.6919209  20.0484888  34.0787839  40.6871647
  19.7574754  34.9833470  40.5718314  20.6841872  34.1204367  41.4015717
  20.9741095  31.4564688  37.2773007  21.5704667  31.2320710  36.5629970
  21.0316066  30.7149433  37.8798455  20.5466123  28.9104123  25.1123198
  20.7991644  28.3885644  24.3506661  19.6090682  28.7470269  25.2149881
  25.5909406  27.9139902  32.9197941  26.3772495  27.4959325  32.5688358
  25.8548110  28.8185994  33.0879589  25.7619483  33.3512752  27.6186598
  25.1265316  33.4247378  28.3307503  25.4316890  33.9406351  26.9405677
  30.9917833  27.8515135  33.8230920  31.7243005  27.2814352  34.0568749
  30.2357189  27.4636735  34.2637425  20.2662412  30.8132229  27.3147573
  20.1498670  30.1377132  27.9828657  20.3764672  30.3264603  26.4979726
  22.6093953  30.2742376  31.0194262  22.2452160  29.7472997  31.7307184
  23.4661069  29.8840845  30.8460747  28.5143253  21.5636709  38.2825528
  28.1826578  22.4332120  38.0586743  27.9188867  21.2472993  38.9619559
  22.2499440  25.3032276  26.0155611  22.4173842  26.1712512  26.3826082
  22.0596609  25.4659558  25.0916900  25.0074773  33.7649255  37.6821441
  24.7075496  34.6674294  37.5737248  24.6625832  33.4981438  38.5342594
  18.4587254  30.2163052  33.7158145  17.5337751  30.0839266  33.9235837
  18.7071668  30.9957271  34.2128088  28.4071917  26.2831795  35.3618878
  27.4988794  26.2147203  35.0677639  28.3559512  26.7603740  36.1900704
  22.2288661  27.7589933  27.0002277  22.1088286  28.2046984  27.8387758
  21.5341249  28.1075251  26.4415816  15.8196065  29.8596325  34.5501934
  15.9488447  30.1130804  35.4641346  15.1393517  30.4524033  34.2306590
  19.9895553  40.5293575  30.6492409  19.9119582  41.4801400  30.7280889
  19.3857196  40.1839448  31.3067335  22.4812782  27.7021441  43.3053776
  21.7046117  28.2615361  43.2956640  23.1203346  28.1878224  43.8268646
  30.2733563  24.4848233  37.1396752  29.6307943  24.7780767  36.4936547
  29.7688492  24.3701154  37.9449949  27.9273727  28.2311407  27.8282611
  28.8391583  28.4638793  27.6530309  27.4183374  28.8148451  27.2657690
  20.7359155  30.5106894  42.8671743  21.4773839  31.0491938  42.5906566
  20.0296140  31.1373183  43.0243294  26.2114494  32.6536034  41.4643904
  26.6197850  32.2118445  40.7198536  25.4891756  32.0788662  41.7178097
  22.5645564  27.5908641  38.8377461  23.4106760  28.0148055  38.9812110
  22.5044202  26.9342266  39.5316024  26.5343309  33.2137225  35.2196193
  25.9052171  33.3782939  34.5172261  26.1468971  33.6278835  35.9907157
  30.4132541  34.1491663  32.5740557  29.7283579  34.5290564  32.0237590
  30.4976390  34.7586990  33.3072504  25.7145010  25.2513010  40.4958635
  25.4705942  26.0055070  39.9592910  25.9904940  25.6298357  41.3305882
  27.6683473  31.7951622  39.1735900  27.8800368  32.4383382  38.4970281
  27.6213221  30.9613938  38.7057830  25.2709702  24.4069443  36.0772472
  24.4094181  24.7050696  36.3689210  25.2972136  24.6239841  35.1453505
  22.0871271  32.9511633  32.4846278  22.5509616  33.2299336  31.6950901
  21.8228069  32.0495078  32.3019369  18.9795352  32.4983115  35.4226041
  19.5496709  32.9270383  34.7843526  19.5703464  32.2165699  36.1210227
  21.0240157  29.0734786  29.2935843  21.7264200  29.5255829  29.7609770
  20.6920785  28.4318604  29.9215736  19.4720519  27.6646542  43.6687053
  18.8419179  28.3462823  43.9022449  19.3656606  27.5529624  42.7240191
  14.7665491  27.3318338  34.5952977  13.9764545  27.5875867  34.1193087
  15.2576738  28.1466676  34.7005017  28.7829301  34.6723577  37.3458258
  29.6046744  34.2703765  37.0640939  28.7791703  34.5691812  38.2974373
  16.7180236  27.6962917  31.5536453  15.9211400  27.8081612  32.0719949
  16.4905829  28.0349570  30.6877344  22.5485904  34.2207621  39.5018968
  22.6130336  34.6828028  40.3377140  21.8396828  33.5904986  39.6301278
  13.0503194  27.5848829  37.0267968  13.3011232  28.4695839  37.2925543
  13.5862742  27.4053430  36.2543059  36.8735294  31.0162326  33.6943229
  36.1199002  30.4469724  33.5387233  37.0082835  30.9824990  34.6413864
  22.2633922  35.8875728  29.3697948  22.1279596  36.7327264  29.7982796
  22.8043734  36.0895006  28.6063882  18.7501261  21.9667308  46.0312304
  18.3568207  21.4133507  46.7059948  19.5667402  22.2777886  46.4218821
  15.7163319  33.4051166  29.9425873  16.2287840  34.1994416  30.0931438
  16.3686032  32.7077457  29.8759475  17.5258204  36.5216922  32.0248627
  17.7024832  37.4434887  31.8369611  18.3215037  36.2075342  32.4543006
  21.6669222  23.3825187  43.6232560  22.4078936  23.9832340  43.5437023
  21.8987145  22.6402825  43.0650603  16.8110560  28.5681554  41.9010790
  16.6964075  27.6666812  42.2017889  15.9555078  28.8145251  41.5495606
  23.8902398  36.5099295  43.4998290  23.4466252  35.7235673  43.1819195
  24.5519612  36.6978445  42.8342181  18.6489519  38.0395096  38.0258969
  19.1996944  37.9112160  37.2535963  17.8100995  38.3389985  37.6753862
  25.9883636  36.7902095  41.5279692  25.9702111  37.6110976  41.0359961
  26.9103556  36.6656170  41.7529833  22.4456690  34.3046224  42.3703200
  22.9785027  33.5434512  42.1402508  21.9170771  34.0119876  43.1127355
  25.6126385  19.4106290  37.8996842  25.2690655  20.3007932  37.8235952
  25.9805348  19.2207948  37.0366427  13.6812236  31.7339820  30.7185444
  14.5187458  32.1436829  30.5019152  13.8590503  30.7939263  30.6885638
  25.5776668  29.4014901  26.4069277  25.0623291  30.1719506  26.6457664
  25.3053976  28.7280037  27.0302338  23.1623779  24.2464602  31.4654515
  22.3065375  23.8571452  31.2860154  23.5750731  24.3256563  30.6054301
  24.6922926  21.7810945  35.8646075  24.1887721  21.7441080  35.0513880
  24.9853532  22.6903688  35.9242732  20.9365811  21.8649675  34.8712257
  21.8018808  21.6692484  34.5118146  21.0043320  21.6360027  35.7981614
  30.5510942  32.1547256  28.3422450  29.7740385  31.8158415  27.8977613
  31.2302423  32.1599879  27.6677415  25.3662971  27.2741993  28.2329058
  25.0613107  27.5888142  29.0839201  26.3193413  27.3523413  28.2756391
  23.8109403  33.4332217  29.8822012  23.2830764  32.6984976  29.5695250
  23.3096906  34.2106893  29.6361980  28.7902249  31.6281237  34.9989058
  28.1325923  32.3180498  35.0869187  29.5942648  32.0177669  35.3423045
  18.5428131  24.0951883  32.2428624  19.1171882  23.8727064  31.5101817
  19.1299113  24.1640577  32.9957225  27.6007708  29.9825610  33.0493000
  28.1139589  30.6155602  33.5514710  28.2508932  29.3826805  32.6836360
  18.8697718  26.1256344  26.2624509  18.0335030  26.4631030  26.5833784
  18.7302487  25.9905324  25.3251646  20.8450798  20.9693132  30.9703693
  20.1915211  20.6542149  30.3460308  20.8031272  20.3468872  31.6963516
  21.9562003  31.2512427  22.8856985  21.0489065  31.0201680  23.0848134
  22.4533035  30.4550046  23.0730967  24.8630082  39.9609934  25.8053671
  24.1891781  40.2641631  26.4138629  25.2495904  40.7639014  25.4559128
  24.0788539  27.4575065  35.2951341  23.1611100  27.6790012  35.1373029
  24.4948682  27.5321376  34.4363048  24.8623586  28.8566481  30.4254021
  25.6095405  29.3687878  30.1161143  25.1315176  28.5350534  31.2858415
  23.1350237  31.3525022  27.4080975  22.2261456  31.0684054  27.5053445
  23.1645320  31.7724100  26.5484282  28.3669504  34.9631611  31.1772143
  27.9131831  34.1222521  31.2337333  27.7363471  35.5993010  31.5146923
  27.3102424  25.8923597  32.4072810  26.5725180  25.3800983  32.7383053
  27.5629197  25.4523979  31.5956087  26.8102443  36.8008108  32.1121961
  27.1025418  37.3613165  31.3934327  27.3201064  37.0936669  32.8675120
  27.4114051  18.6699849  33.0014580  27.7172928  17.8097213  32.7140495
  28.1366656  19.2617469  32.8013573  13.7038407  29.0730536  31.3896177
  13.5062807  28.4799896  30.6647244  13.1485071  28.7682746  32.1072116
  21.6835131  28.9653642  33.5090771  21.7383740  28.0127479  33.4333247
  20.8726333  29.1213081  33.9932069  22.8326324  32.8933765  24.7469054
  22.3945754  32.1769624  24.2874691  23.5736765  33.1209880  24.1854145
  19.6227490  27.5830702  31.2681149  18.8095356  27.8824873  31.6746342
  20.1186485  27.1886391  31.9855632  21.7736068  37.5788459  33.2015414
  21.7312247  37.8049305  32.2723946  22.6898767  37.3451834  33.3501215
  25.2201702  28.0472526  40.0996043  25.5751090  28.2744000  40.9590509
  25.8673833  28.3790903  39.4773299  30.9499439  31.1690962  30.8045372
  30.8117338  31.3592558  29.8766562  30.5935658  31.9310345  31.2613424
  19.1141565  25.1549058  36.8842384  19.7540945  25.0137817  36.1865348
  18.2819096  24.8683571  36.5080986  30.9768819  33.2367489  35.8156644
  31.4105325  33.1442778  36.6639698  31.6900399  33.2124990  35.1776660
  19.8901869  34.4551488  32.9977377  20.6842468  33.9601808  32.7959952
  19.1793562  33.9269351  32.6345082  24.7096714  36.8369583  37.3489744
  24.7633736  37.4060520  38.1167460  23.8411495  37.0071469  36.9843782
  16.1984633  28.5994570  29.0737130  15.2682221  28.5379025  29.2907092
  16.2942105  28.0770522  28.2773771  16.1170182  25.1249383  31.6615371
  16.3776999  26.0394716  31.5524532  16.9387354  24.6573825  31.8111984
  17.5895107  26.5387140  38.8314196  18.2618160  26.3304502  38.1826845
  16.7624894  26.3409226  38.3919428  31.8384368  33.2791190  38.3489529
  32.0320258  34.1837001  38.5948804  31.7384986  32.8198609  39.1828114
  23.4920679  23.1649081  40.8479857  22.8448594  23.8639030  40.7544333
  24.2621694  23.5985225  41.2156105  26.8999477  33.4297933  43.9230410
  26.7484983  33.2008484  43.0060494  26.8904156  34.3868534  43.9361755
  23.6684813  31.0029846  38.9076676  24.5976873  31.1541005  38.7345644
  23.2475843  31.0913866  38.0525323  22.4673145  35.0280510  36.6775214
  22.3284231  34.6599294  37.5501152  21.6787741  35.5428149  36.5059172
  23.0621297  40.1289606  28.0200750  23.2373053  39.6577650  28.8346373
  22.3754085  40.7555373  28.2482011  24.0178360  34.4062113  34.0664052
  23.6828193  34.3662883  34.9621702  23.5182306  33.7406829  33.5934462
  17.9922604  29.8129743  39.5916633  17.8542402  29.0809981  40.1928172
  18.9027528  29.7238643  39.3100821  26.9537552  31.7518147  24.3401111
  26.3366723  31.0264975  24.2434164  26.4854040  32.5127507  23.9968186
  20.6204905  29.5249702  39.0800313  21.3304523  28.8842894  39.0386931
  20.5774213  29.7762597  40.0026493  28.6091684  36.4617055  42.0006892
  28.5504230  35.7776275  41.3337475  29.0111202  37.2036045  41.5487518
  19.3333839  26.5114920  40.8995952  18.7971196  26.0605658  41.5517548
  18.7450547  26.6460829  40.1566416  17.6282382  43.2778969  34.7940611
  17.8678981  43.9097493  35.4719629  16.7851579  42.9267009  35.0805970
  28.6109091  34.4256639  40.2320871  27.7235870  34.0882561  40.3547270
  29.1807642  33.6939670  40.4689637  10.2638238  30.7580731  33.5563923
  10.9509278  30.4442461  32.9684938  10.1086367  31.6622096  33.2831174
  15.0672960  25.6470928  37.9848947  14.9831149  25.0396597  37.2499356
  14.2455667  26.1379946  37.9858443  22.1410244  39.0858092  37.1982115
  22.0680416  39.8913063  37.7101419  21.6987637  39.2850057  36.3730136
  21.9300024  38.3229862  30.7084936  21.1467546  38.8651542  30.8023161
  22.6292769  38.8403841  31.1079177  25.2396674  24.1324491  33.3519142
  25.7365374  23.3794453  33.0320212  24.4683656  24.1688808  32.7862351
  33.0926431  29.8364857  34.9937433  33.0816308  30.7189572  34.6231366
  32.2243811  29.4836407  34.7991970  24.6008928  38.9844926  39.3540273
  25.3136900  39.6192390  39.2816175  24.1098956  39.0808792  38.5380275
  26.3226455  32.8896178  30.9257565  25.3882733  33.0097641  30.7562269
  26.5003123  31.9868645  30.6617575  21.8231643  26.2741874  33.0790826
  21.4529430  25.7212914  33.7671732  22.3190735  25.6700008  32.5265826
  29.7099006  28.7313498  31.4607599  30.1759458  29.5641489  31.3867902
  30.1606507  28.2658479  32.1652858  19.6520841  36.7339369  40.1745844
  20.3530301  37.3675852  40.3275238  19.1815956  37.0754101  39.4141483
  27.7775237  35.0757319  28.4593751  28.0535081  34.9613913  29.3687625
  26.9079736  34.6774804  28.4205924  27.6815669  21.0994085  35.4998500
  26.7678749  21.3298311  35.6680707  28.1108770  21.1832529  36.3512533
  27.4522127  29.2883977  37.9998394  26.7993578  29.5359884  37.3450847
  27.8302507  28.4748115  37.6660872  24.4129301  39.3243670  32.1026565
  24.5951696  38.5065326  32.5654317  25.2362287  39.5411362  31.6651455
  24.7471467  38.2511855  29.3641613  25.2759233  37.7404309  28.7511775
  25.0099686  37.9354385  30.2287146  23.5009700  30.0303788  44.4864432
  22.8250337  29.9297917  45.1566807  24.3237334  29.8743001  44.9500429
  15.2488559  36.2675724  37.1076947  15.8341996  35.5219412  37.2404851
  15.0513398  36.5779681  37.9913611  18.1027215  39.3026972  32.1239389
  17.4337590  39.7873099  31.6403429  17.9640084  39.5496192  33.0382768
   9.8406214  28.8381324  35.8281390   9.8790314  28.3044915  36.6218508
   9.3346507  28.3116530  35.2092367  22.2432483  41.3370715  38.7222048
  22.7950791  41.5002337  39.4871133  22.5838677  41.9275153  38.0502072
  17.2196976  23.6845865  39.3243932  17.2838303  24.5460696  38.9121330
  17.1564097  23.0719867  38.5916291  16.6949249  25.7568997  42.9716967
  17.3221288  25.3746075  43.5854491  15.8377168  25.5383199  43.3372659
  27.0943358  36.1631973  44.5770702  27.6383261  36.7761931  44.0825657
  26.5130202  36.7211551  45.0937715  13.4714792  27.5645427  28.9035321
  13.7668233  26.6556105  28.8502375  12.5702827  27.5433166  28.5816324
  25.3800870  39.2852691  35.7085730  25.2552010  38.4842430  35.1996675
  26.0379962  39.7798884  35.2199700  17.0009039  25.6401423  34.8862870
  16.2795624  26.2537391  34.7470343  17.7902294  26.1759188  34.8079516
  27.4435779  37.0861711  37.3365280  26.4966114  36.9667062  37.2643607
  27.7918552  36.1984209  37.4191541  19.8035352  22.9755850  41.1603522
  20.3269754  23.2218146  41.9229831  19.5847685  23.8075884  40.7406659
  15.2002633  25.2459524  29.0274646  14.8715339  24.3656903  28.8449752
  15.5542004  25.1907193  29.9151036  24.4482212  36.8814427  33.5369632
  24.3007175  35.9531134  33.7177202  25.2735706  36.9034518  33.0526707
  18.3144456  25.5332494  29.3950124  18.6540529  26.0618415  28.6728733
  18.7616577  25.8712900  30.1708691  28.0516334  37.7042986  34.6234505
  28.9762881  37.4985847  34.4858956  27.8831637  37.4559387  35.5323846
  21.0087897  23.9169545  38.8453192  20.6684718  23.1177358  39.2473872
  20.3026904  24.2171256  38.2730025  21.6604369  21.0018857  37.2980515
  22.4830438  20.5279335  37.1759406  21.9042433  21.7809341  37.7979202
  20.3012604  24.0307116  27.5943417  21.0220966  24.4088368  27.0907134
  19.6777908  24.7495992  27.6978395  24.4443726  24.7352265  28.5301749
  24.6607341  25.6176902  28.2290577  23.9637794  24.3438478  27.8007391
  19.1842948  27.6937978  35.1072494  19.0387529  28.0078281  35.9996775
  18.7068151  28.3122878  34.5543392  21.0439331  24.6840526  35.1553383
  21.0300899  23.7881619  34.8185681  21.7611759  24.6911189  35.7891669
  22.8965461  25.1177866  37.2006511  22.6383239  26.0394937  37.1990841
  22.3650502  24.7208300  37.8906975  27.8411650  38.2228653  29.9796596
  28.0148528  37.6575076  29.2270449  28.3340541  39.0229548  29.7976086
  13.6588610  30.2343322  38.0460155  13.1142078  31.0103130  38.1780429
  14.5367960  30.5814127  37.8879276  20.4476227  23.5654906  30.4240954
  20.5692138  22.6371552  30.6231841  20.1578269  23.5793592  29.5119269
  23.3167417  21.2509816  33.5607673  23.3389114  21.3149150  32.6059653
  23.7335476  20.4114325  33.7548180  33.6951041  30.9865076  31.5986896
  34.1382187  30.2372401  31.2006019  32.8177552  30.9775212  31.2160628
  28.8286823  37.5395417  27.0793495  29.5237727  38.1602110  27.2980809
  29.1709973  36.6890769  27.3545872  14.4454632  29.3613218  40.9390312
  13.7036368  29.5095854  41.5254942  14.1247376  29.6221484  40.0757061
  30.7278246  34.9895123  28.6080825  31.2529570  35.3282396  27.8830145
  30.6400598  34.0542138  28.4243960  22.3898295  38.9029197  40.7370702
  22.6985421  38.6578343  41.6093401  23.1873777  39.1075835  40.2489572
  22.4118907  41.0567106  32.9676078  21.9723897  40.5643485  33.6608935
  23.1627024  40.5140074  32.7268154  14.8911246  37.2478647  32.9700707
  15.7169265  36.9482419  32.5899350  14.5405298  36.4786270  33.4190495
  19.8592779  36.6005115  35.0398380  19.2372788  35.9375820  34.7400608
  20.5297646  36.6266247  34.3572028  13.0919851  35.1664974  33.9289640
  12.2551759  34.7387148  33.7473641  13.0643496  35.3597417  34.8660431
  19.9317306  25.0786903  44.6330886  19.9805462  25.9549026  44.2508656
  20.4739820  24.5364296  44.0602529  30.4172152  35.6228027  43.9132023
  29.6267696  35.6052165  43.3736523  30.1805506  36.1616320  44.6681060
  30.5370027  32.4720493  41.2264752  30.5868032  32.3070500  42.1680275
  30.4283950  31.6047752  40.8362633  19.4206286  35.1509039  28.5156841
  19.5694406  35.8344503  27.8623513  20.2272729  35.1314129  29.0306296
  27.8273789  28.4551421  42.5424058  28.7283652  28.3157886  42.2508056
  27.9021764  28.6205876  43.4822236  22.1616595  25.8318276  41.3877245
  21.2919904  26.1251842  41.1159833  22.3976075  26.4158721  42.1084508
  32.0388224  34.8917435  41.4706773  31.7473032  35.2547415  42.3070234
  31.4260355  34.1784443  41.2920105  33.2383906  32.4570314  33.9909344
  34.0730797  32.8960118  34.1546904  33.3743035  31.9808968  33.1717589
  30.2875412  30.0150049  39.9386831  30.7629534  30.2077695  39.1305683
  29.3640977  30.0709235  39.6930215  17.1758919  31.1774216  29.5217910
  16.9304961  30.2736546  29.7198120  17.3454833  31.1791367  28.5797388
  24.8655628  22.0497893  38.9042665  25.3837572  22.7858920  38.5789154
  24.5110761  22.3561886  39.7389424  16.4454566  26.9102574  27.0204071
  15.7523811  26.9846929  26.3644107  16.2006318  26.1462918  27.5425588
  25.1168223  18.4698175  34.4243562  25.3969976  17.8021364  35.0503988
  25.9018830  18.6627271  33.9118226  22.9201691  37.6457169  25.9868588
  22.3475658  38.2647356  25.5339060  23.4934485  38.1956531  26.5208510
  28.9877081  26.8915809  38.1715137  29.9394504  26.9913907  38.1927361
  28.8180531  26.0994078  38.6813221  27.0091460  23.9771392  38.3574538
  26.4141393  24.2576405  37.6621026  26.7241157  24.4665293  39.1291279
  26.1398951  37.9294319  27.1177170  27.0729624  37.8639881  27.3210046
  26.0522164  38.7650586  26.6591703  28.7686968  37.2460190  24.0781118
  28.6900599  36.9120053  24.9716876  29.5896634  37.7381958  24.0772590
  31.4665159  30.1121929  37.2857437  31.4341479  29.1737930  37.4717120
  32.0765782  30.1905966  36.5523261  23.3048490  28.9817982  23.3284641
  24.2507594  28.8524190  23.3973059  22.9262735  28.2432644  23.8054069
  31.6159647  26.9032972  37.3315720  31.0998696  26.1191429  37.1445649
  32.4999596  26.5751689  37.4962239  29.2770374  20.6473988  33.2911532
  29.0795195  20.3389076  34.1754864  29.8870080  21.3735627  33.4209462
  37.2841709  31.1737936  36.4263473  38.0145097  30.9123224  36.9871177
  36.6748654  30.4366658  36.4665541  35.3657006  29.3145798  37.0237925
  34.6390169  29.1801763  36.4154416  34.9504293  29.6222627  37.8294643
  23.1887182  33.0335728  44.7885298  24.1090192  33.2114327  44.9825344
  23.1536765  32.0891773  44.6364997  12.4069347  28.2274322  33.7138572
  12.0872132  27.3739630  33.4212946  11.8602775  28.4422900  34.4696540
  16.1849255  30.9436763  37.4308079  16.4035265  31.8753871  37.4496113
  16.5975029  30.5844737  38.2162883  23.1053473  21.4504848  29.4183767
  22.2954201  21.1051933  29.7939013  23.7937889  21.1412392  30.0071379
  25.0344021  20.5282895  31.0408064  25.5875059  20.9478348  31.6998087
  25.2714107  19.6018643  31.0831020  21.0577120  26.5169968  46.8210828
  20.9573847  27.4664325  46.7522919  20.8398662  26.1888207  45.9486898
  12.2757607  31.8477233  35.6831694  11.5821079  31.4331186  35.1701648
  13.0230598  31.8897770  35.0865113  28.4122828  22.6383420  30.5486728
  27.8321497  23.2968224  30.1664780  28.1458761  21.8160765  30.1374146
  26.8626394  22.0388478  32.7508048  27.3626173  22.1505012  31.9422367
  27.5062002  21.7349531  33.3908857  20.9208390  29.9467107  45.6375889
  20.4375472  30.7467467  45.8439778  21.0069329  29.9575052  44.6843333
  14.1894350  31.7795487  33.5597709  14.1665038  31.8783174  32.6079592
  14.4994986  32.6260638  33.8814875  16.8481728  33.8371642  37.6744323
  17.8024981  33.8055584  37.6074255  16.6494251  33.3762266  38.4894549
  17.4381110  32.4072758  40.2415121  18.2573999  32.9016837  40.2649958
  17.7117917  31.4904726  40.2132688  27.1947706  24.7983510  29.6043076
  26.3073561  25.0833161  29.3863271  27.6101695  24.6377274  28.7570353
  30.5462242  24.8230031  33.3197416  31.3222632  25.3126484  33.5922032
  29.8210376  25.2488086  33.7769285  32.9834801  25.5357651  34.3771356
  33.5779291  25.2953387  33.6664664  33.0561384  24.8164781  35.0044892
  15.2031956  39.3791262  34.6914521  15.0686424  38.6191662  34.1252519
  14.7864019  40.1032161  34.2243310  26.3390919  34.5628185  23.6991096
  27.0426770  34.7678188  24.3148752  25.6153568  35.1304947  23.9640180
  27.1688730  30.3138046  29.8193366  27.1123931  30.7706598  28.9800999
  27.7217072  29.5528731  29.6416209  30.9793536  26.1027778  30.6443486
  30.7230470  25.7024414  31.4751694  30.3546404  26.8171572  30.5193625
  35.2905873  28.8423851  33.1514777  34.7305431  28.9117041  33.9246339
  34.6849377  28.6664836  32.4314274  18.3601082  40.2760579  34.9032964
  18.2433466  41.2206011  34.8011654  17.5393529  39.9734140  35.2918763
  28.2477617  35.0010714  25.7489556  29.0823221  34.5691913  25.5667031
  28.0861960  34.8292728  26.6766451  27.9023509  31.5042828  27.1145896
  27.8472313  31.3387099  26.1734340  27.2769564  32.2118860  27.2708085
  12.6916024  26.7410892  40.9407318  13.3374888  26.2309846  41.4294543
  12.4833175  27.4779574  41.5150743  25.2169416  33.8091739  46.4399458
  26.0860576  33.9832392  46.0786093  24.7376168  34.6286156  46.3175188
  21.2119634  21.0050937  26.6931214  21.1998304  21.9492776  26.8499485
  22.1043056  20.8221082  26.3990675  19.3855596  40.9288840  38.1188892
  20.2882843  40.9612451  38.4355387  19.1592966  39.9989291  38.1335228
  21.1409198  39.6819827  34.7798971  20.1904829  39.6821689  34.6663343
  21.4441685  38.9352562  34.2635005  25.0271754  17.5993713  30.9477151
  24.2604150  17.0452200  31.0933833  25.4382459  17.6715582  31.8091302
  17.0313515  23.8878509  45.0382332  17.8944977  23.5315314  45.2485657
  16.4578926  23.5492404  45.7257736  36.8761892  45.5180365  35.8444733
  37.5140302  45.3987113  35.1408073  36.7582735  46.4661209  35.9032685
  33.6851598  45.4707793  35.7806258  33.3470110  45.3548858  34.8926793
  34.5541366  45.0698959  35.7607264  29.5438414  47.3243270  31.7703149
  28.9803279  47.2333207  31.0019436  29.4290809  46.5043174  32.2505641
  34.1671381  46.6242645  41.7392463  34.1560022  46.2295443  40.8672967
  34.3292021  45.8908718  42.3326235  27.0902846  48.8194461  34.6087369
  27.8824138  48.4785286  34.1933668  27.3299496  48.9289437  35.5289522
  35.1237973  50.9914238  27.0817614  34.4725952  51.5768318  26.6951627
  35.9182335  51.5220432  27.1412651  29.0493600  48.0803375  27.4804748
  29.8224476  47.5332362  27.3417624  29.4018999  48.9447624  27.6919209
  30.8878642  49.4079757  40.6871647  30.5968508  50.3125388  40.5718314
  31.5235627  49.4496285  41.4015717  31.8134849  46.7856606  37.2773007
  32.4098421  46.5612628  36.5629970  31.8709821  46.0441351  37.8798455
  31.3859878  44.2396041  25.1123198  31.6385398  43.7177562  24.3506661
  30.4484437  44.0762186  25.2149881  36.4303160  43.2431819  32.9197941
  37.2166250  42.8251242  32.5688358  36.6941865  44.1477911  33.0879589
  36.6013238  48.6804670  27.6186598  35.9659071  48.7539296  28.3307503
  36.2710644  49.2698268  26.9405677  41.8311588  43.1807052  33.8230920
  42.5636759  42.6106269  34.0568749  41.0750943  42.7928653  34.2637425
  31.1056166  46.1424147  27.3147573  30.9892424  45.4669050  27.9828657
  31.2158426  45.6556521  26.4979726  33.4487707  45.6034294  31.0194262
  33.0845914  45.0764915  31.7307184  34.3054823  45.2132763  30.8460747
  39.3537008  36.8928627  38.2825528  39.0220333  37.7624037  38.0586743
  38.7582621  36.5764911  38.9619559  33.0893194  40.6324194  26.0155611
  33.2567597  41.5004430  26.3826082  32.8990363  40.7951475  25.0916900
  35.8468527  49.0941172  37.6821441  35.5469250  49.9966211  37.5737248
  35.5019587  48.8273356  38.5342594  29.2981009  45.5454969  33.7158145
  28.3731505  45.4131183  33.9235837  29.5465422  46.3249189  34.2128088
  39.2465671  41.6123713  35.3618878  38.3382549  41.5439121  35.0677639
  39.1953267  42.0895658  36.1900704  33.0682415  43.0881851  27.0002277
  32.9482040  43.5338902  27.8387758  32.3735003  43.4367169  26.4415816
  26.6589820  45.1888243  34.5501934  26.7882201  45.4422722  35.4641346
  25.9787271  45.7815951  34.2306590  30.8289307  55.8585493  30.6492409
  30.7513337  56.8093318  30.7280889  30.2250951  55.5131365  31.3067335
  33.3206537  43.0313358  43.3053776  32.5439871  43.5907278  43.2956640
  33.9597100  43.5170141  43.8268646  41.1127318  39.8140151  37.1396752
  40.4701698  40.1072684  36.4936547  40.6082246  39.6993071  37.9449949
  38.7667481  43.5603324  27.8282611  39.6785337  43.7930711  27.6530309
  38.2577128  44.1440368  27.2657690  31.5752909  45.8398812  42.8671743
  32.3167594  46.3783856  42.5906566  30.8689895  46.4665100  43.0243294
  37.0508249  47.9827952  41.4643904  37.4591605  47.5410363  40.7198536
  36.3285510  47.4080580  41.7178097  33.4039319  42.9200559  38.8377461
  34.2500514  43.3439972  38.9812110  33.3437957  42.2634183  39.5316024
  37.3737064  48.5429143  35.2196193  36.7445926  48.7074857  34.5172261
  36.9862726  48.9570752  35.9907157  41.2526295  49.4783581  32.5740557
  40.5677334  49.8582482  32.0237590  41.3370145  50.0878907  33.3072504
  36.5538764  40.5804927  40.4958635  36.3099696  41.3346988  39.9592910
  36.8298695  40.9590275  41.3305882  38.5077227  47.1243540  39.1735900
  38.7194122  47.7675299  38.4970281  38.4606975  46.2905856  38.7057830
  36.1103456  39.7361360  36.0772472  35.2487935  40.0342614  36.3689210
  36.1365891  39.9531759  35.1453505  32.9265025  48.2803551  32.4846278
  33.3903371  48.5591254  31.6950901  32.6621824  47.3786995  32.3019369
  29.8189106  47.8275032  35.4226041  30.3890464  48.2562301  34.7843526
  30.4097218  47.5457617  36.1210227  31.8633911  44.4026703  29.2935843
  32.5657955  44.8547747  29.7609770  31.5314540  43.7610522  29.9215736
  30.3114273  42.9938460  43.6687053  29.6812934  43.6754741  43.9022449
  30.2050361  42.8821541  42.7240191  25.6059245  42.6610256  34.5952977
  24.8158299  42.9167784  34.1193087  26.0970493  43.4758594  34.7005017
  39.6223055  50.0015495  37.3458258  40.4440499  49.5995682  37.0640939
  39.6185458  49.8983729  38.2974373  27.5573991  43.0254835  31.5536453
  26.7605154  43.1373529  32.0719949  27.3299583  43.3641487  30.6877344
  33.3879658  49.5499538  39.5018968  33.4524091  50.0119946  40.3377140
  32.6790582  48.9196903  39.6301278  23.8896948  42.9140746  37.0267968
  24.1404987  43.7987756  37.2925543  24.4256497  42.7345348  36.2543059
  47.7129048  46.3454243  33.6943229  46.9592756  45.7761642  33.5387233
  47.8476589  46.3116908  34.6413864  33.1027676  51.2167646  29.3697948
  32.9673351  52.0619182  29.7982796  33.6437489  51.4186923  28.6063882
  29.5895016  37.2959226  46.0312304  29.1961961  36.7425424  46.7059948
  30.4061156  37.6069804  46.4218821  26.5557073  48.7343084  29.9425873
  27.0681594  49.5286334  30.0931438  27.2079786  48.0369374  29.8759475
  28.3651958  51.8508840  32.0248627  28.5418587  52.7726805  31.8369611
  29.1608792  51.5367259  32.4543006  32.5062977  38.7117105  43.6232560
  33.2472690  39.3124258  43.5437023  32.7380900  37.9694743  43.0650603
  27.6504315  43.8973472  41.9010790  27.5357830  42.9958729  42.2017889
  26.7948832  44.1437169  41.5495606  34.7296152  51.8391212  43.4998290
  34.2860007  51.0527591  43.1819195  35.3913366  52.0270363  42.8342181
  29.4883274  53.3687014  38.0258969  30.0390699  53.2404077  37.2535963
  28.6494750  53.6681903  37.6753862  36.8277391  52.1194012  41.5279692
  36.8095866  52.9402893  41.0359961  37.7497311  51.9948087  41.7529833
  33.2850445  49.6338142  42.3703200  33.8178781  48.8726430  42.1402508
  32.7564526  49.3411794  43.1127355  36.4520140  34.7398208  37.8996842
  36.1084409  35.6299849  37.8235952  36.8199102  34.5499865  37.0366427
  24.5205990  47.0631738  30.7185444  25.3581212  47.4728747  30.5019152
  24.6984258  46.1231180  30.6885638  36.4170422  44.7306819  26.4069277
  35.9017046  45.5011423  26.6457664  36.1447731  44.0571955  27.0302338
  34.0017533  39.5756520  31.4654515  33.1459130  39.1863370  31.2860154
  34.4144485  39.6548480  30.6054301  35.5316680  37.1102863  35.8646075
  35.0281476  37.0732998  35.0513880  35.8247287  38.0195606  35.9242732
  31.7759566  37.1941593  34.8712257  32.6412563  36.9984401  34.5118146
  31.8437075  36.9651944  35.7981614  41.3904697  47.4839173  28.3422450
  40.6134139  47.1450333  27.8977613  42.0696177  47.4891797  27.6677415
  36.2056726  42.6033911  28.2329058  35.9006861  42.9180060  29.0839201
  37.1587168  42.6815331  28.2756391  34.6503157  48.7624134  29.8822012
  34.1224519  48.0276894  29.5695250  34.1490660  49.5398811  29.6361980
  39.6296003  46.9573155  34.9989058  38.9719678  47.6472416  35.0869187
  40.4336403  47.3469587  35.3423045  29.3821885  39.4243800  32.2428624
  29.9565637  39.2018982  31.5101817  29.9692867  39.4932495  32.9957225
  38.4401462  45.3117527  33.0493000  38.9533344  45.9447519  33.5514710
  39.0902686  44.7118723  32.6836360  29.7091472  41.4548262  26.2624509
  28.8728784  41.7922948  26.5833784  29.5696242  41.3197241  25.3251646
  31.6844553  36.2985049  30.9703693  31.0308965  35.9834067  30.3460308
  31.6425027  35.6760790  31.6963516  32.7955758  46.5804344  22.8856985
  31.8882819  46.3493598  23.0848134  33.2926790  45.7841964  23.0730967
  35.7023836  55.2901852  25.8053671  35.0285535  55.5933548  26.4138629
  36.0889658  56.0930932  25.4559128  34.9182293  42.7866983  35.2951341
  34.0004854  43.0081930  35.1373029  35.3342437  42.8613293  34.4363048
  35.7017341  44.1858399  30.4254021  36.4489160  44.6979796  30.1161143
  35.9708930  43.8642451  31.2858415  33.9743991  46.6816939  27.4080975
  33.0655210  46.3975972  27.5053445  34.0039075  47.1016018  26.5484282
  39.2063258  50.2923529  31.1772143  38.7525586  49.4514439  31.2337333
  38.5757225  50.9284927  31.5146923  38.1496178  41.2215515  32.4072810
  37.4118935  40.7092901  32.7383053  38.4022952  40.7815896  31.5956087
  37.6496198  52.1300026  32.1121961  37.9419172  52.6905083  31.3934327
  38.1594818  52.4228587  32.8675120  38.2507805  33.9991767  33.0014580
  38.5566682  33.1389130  32.7140495  38.9760410  34.5909387  32.8013573
  24.5432161  44.4022453  31.3896177  24.3456561  43.8091814  30.6647244
  23.9878825  44.0974664  32.1072116  32.5228885  44.2945560  33.5090771
  32.5777495  43.3419396  33.4333247  31.7120087  44.4504999  33.9932069
  33.6720079  48.2225683  24.7469054  33.2339509  47.5061542  24.2874691
  34.4130520  48.4501798  24.1854145  30.4621245  42.9122620  31.2681149
  29.6489111  43.2116790  31.6746342  30.9580239  42.5178308  31.9855632
  32.6129823  52.9080377  33.2015414  32.5706002  53.1341223  32.2723946
  33.5292522  52.6743751  33.3501215  36.0595457  43.3764444  40.0996043
  36.4144844  43.6035917  40.9590509  36.7067588  43.7082821  39.4773299
  41.7893194  46.4982880  30.8045372  41.6511092  46.6884476  29.8766562
  41.4329412  47.2602263  31.2613424  29.9535320  40.4840975  36.8842384
  30.5934699  40.3429734  36.1865348  29.1212850  40.1975489  36.5080986
  41.8162573  48.5659407  35.8156644  42.2499080  48.4734696  36.6639698
  42.5294154  48.5416908  35.1776660  30.7295624  49.7843406  32.9977377
  31.5236222  49.2893726  32.7959952  30.0187316  49.2561269  32.6345082
  35.5490468  52.1661501  37.3489744  35.6027490  52.7352437  38.1167460
  34.6805249  52.3363386  36.9843782  27.0378387  43.9286487  29.0737130
  26.1075975  43.8670943  29.2907092  27.1335859  43.4062440  28.2773771
  26.9563936  40.4541300  31.6615371  27.2170753  41.3686633  31.5524532
  27.7781108  39.9865743  31.8111984  28.4288861  41.8679057  38.8314196
  29.1011915  41.6596419  38.1826845  27.6018648  41.6701143  38.3919428
  42.6778123  48.6083108  38.3489529  42.8714013  49.5128918  38.5948804
  42.5778741  48.1490527  39.1828114  34.3314434  38.4940998  40.8479857
  33.6842349  39.1930948  40.7544333  35.1015449  38.9277142  41.2156105
  37.7393231  48.7589850  43.9230410  37.5878738  48.5300402  43.0060494
  37.7297911  49.7160452  43.9361755  34.5078568  46.3321763  38.9076676
  35.4370628  46.4832923  38.7345644  34.0869598  46.4205784  38.0525323
  33.3066900  50.3572428  36.6775214  33.1677985  49.9891212  37.5501152
  32.5181496  50.8720067  36.5059172  33.9015052  55.4581524  28.0200750
  34.0766807  54.9869567  28.8346373  33.2147840  56.0847290  28.2482011
  34.8572115  49.7354030  34.0664052  34.5221947  49.6954800  34.9621702
  34.3576060  49.0698746  33.5934462  28.8316359  45.1421660  39.5916633
  28.6936157  44.4101899  40.1928172  29.7421282  45.0530560  39.3100821
  37.7931306  47.0810065  24.3401111  37.1760477  46.3556893  24.2434164
  37.3247795  47.8419425  23.9968186  31.4598659  44.8541620  39.0800313
  32.1698278  44.2134812  39.0386931  31.4167968  45.1054515  40.0026493
  39.4485438  51.7908973  42.0006892  39.3897984  51.1068193  41.3337475
  39.8504956  52.5327963  41.5487518  30.1727593  41.8406838  40.8995952
  29.6364950  41.3897576  41.5517548  29.5844302  41.9752746  40.1566416
  28.4676137  58.6070887  34.7940611  28.7072735  59.2389411  35.4719629
  27.6245333  58.2558927  35.0805970  29.5829852  41.2995489  23.4622416
  28.7059319  41.1784290  23.0984662  30.0587605  40.5081567  23.2101304
  39.4502845  49.7548557  40.2320871  38.5629624  49.4174479  40.3547270
  40.0201396  49.0231588  40.4689637  21.1031992  46.0872649  33.5563923
  21.7903032  45.7734379  32.9684938  20.9480121  46.9914013  33.2831174
  25.9066715  40.9762845  37.9848947  25.8224903  40.3688515  37.2499356
  25.0849421  41.4671864  37.9858443  32.9803999  54.4150009  37.1982115
  32.9074170  55.2204981  37.7101419  32.5381392  54.6141975  36.3730136
  32.7693778  53.6521779  30.7084936  31.9861300  54.1943459  30.8023161
  33.4686524  54.1695759  31.1079177  36.0790428  39.4616409  33.3519142
  36.5759128  38.7086371  33.0320212  35.3077410  39.4980725  32.7862351
  43.9320186  45.1656774  34.9937433  43.9210062  46.0481490  34.6231366
  43.0637565  44.8128325  34.7991970  35.4402682  54.3136843  39.3540273
  36.1530654  54.9484308  39.2816175  34.9492711  54.4100709  38.5380275
  37.1620209  48.2188096  30.9257565  36.2276488  48.3389558  30.7562269
  37.3396878  47.3160563  30.6617575  32.6625397  41.6033792  33.0790826
  32.2923185  41.0504832  33.7671732  33.1584490  40.9991925  32.5265826
  40.5492761  44.0605415  31.4607599  41.0153213  44.8933407  31.3867902
  41.0000261  43.5950397  32.1652858  30.4914596  52.0631287  40.1745844
  31.1924055  52.6967770  40.3275238  30.0209711  52.4046018  39.4141483
  38.6168992  50.4049237  28.4593751  38.8928836  50.2905831  29.3687625
  37.7473490  50.0066721  28.4205924  38.5209423  36.4286002  35.4998500
  37.6072503  36.6590229  35.6680707  38.9502525  36.5124446  36.3512533
  38.2915882  44.6175894  37.9998394  37.6387332  44.8651802  37.3450847
  38.6696262  43.8040032  37.6660872  35.2523056  54.6535587  32.1026565
  35.4345450  53.8357243  32.5654317  36.0756042  54.8703280  31.6651455
  35.5865221  53.5803773  29.3641613  36.1152988  53.0696227  28.7511775
  35.8493441  53.2646303  30.2287146  34.3403455  45.3595705  44.4864432
  33.6644092  45.2589835  45.1566807  35.1631089  45.2034919  44.9500429
  26.0882314  51.5967642  37.1076947  26.6735751  50.8511330  37.2404851
  25.8907152  51.9071599  37.9913611  28.9420969  54.6318889  32.1239389
  28.2731344  55.1165017  31.6403429  28.8033839  54.8788110  33.0382768
  20.6799969  44.1673242  35.8281390  20.7184068  43.6336833  36.6218508
  20.1740261  43.6408448  35.2092367  33.0826238  56.6662633  38.7222048
  33.6344546  56.8294254  39.4871133  33.4232431  57.2567071  38.0502072
  28.0590731  39.0137783  39.3243932  28.1232057  39.8752613  38.9121330
  27.9957851  38.4011784  38.5916291  27.5343003  41.0860915  42.9716967
  28.1615042  40.7037992  43.5854491  26.6770922  40.8675117  43.3372659
  37.9337112  51.4923890  44.5770702  38.4777016  52.1053849  44.0825657
  37.3523957  52.0503469  45.0937715  24.3108546  42.8937344  28.9035321
  24.6061987  41.9848023  28.8502375  23.4096582  42.8725084  28.5816324
  36.2194625  54.6144608  35.7085730  36.0945764  53.8134348  35.1996675
  36.8773716  55.1090802  35.2199700  27.8402793  40.9693341  34.8862870
  27.1189379  41.5829308  34.7470343  28.6296049  41.5051106  34.8079516
  38.2829533  52.4153628  37.3365280  37.3359869  52.2958980  37.2643607
  38.6312306  51.5276126  37.4191541  30.6429107  38.3047767  41.1603522
  31.1663509  38.5510064  41.9229831  30.4241440  39.1367802  40.7406659
  26.0396388  40.5751442  29.0274646  25.7109094  39.6948821  28.8449752
  26.3935758  40.5199111  29.9151036  35.2875967  52.2106345  33.5369632
  35.1400929  51.2823052  33.7177202  36.1129460  52.2326435  33.0526707
  29.1538211  40.8624412  29.3950124  29.4934283  41.3910333  28.6728733
  29.6010331  41.2004818  30.1708691  38.8910088  53.0334903  34.6234505
  39.8156636  52.8277765  34.4858956  38.7225392  52.7851304  35.5323846
  31.8481652  39.2461462  38.8453192  31.5078472  38.4469275  39.2473872
  31.1420658  39.5463173  38.2730025  32.4998124  36.3310775  37.2980515
  33.3224193  35.8571253  37.1759406  32.7436187  37.1101259  37.7979202
  31.1406358  39.3599033  27.5943417  31.8614721  39.7380286  27.0907134
  30.5171662  40.0787910  27.6978395  35.2837481  40.0644182  28.5301749
  35.5001095  40.9468820  28.2290577  34.8031548  39.6730396  27.8007391
  30.0236702  43.0229895  35.1072494  29.8781283  43.3370199  35.9996775
  29.5461906  43.6414796  34.5543392  31.8833085  40.0132443  35.1553383
  31.8694654  39.1173537  34.8185681  32.6005513  40.0203107  35.7891669
  33.7359216  40.4469784  37.2006511  33.4776994  41.3686854  37.1990841
  33.2044256  40.0500218  37.8906975  38.6805405  53.5520571  29.9796596
  38.8542282  52.9866993  29.2270449  39.1734296  54.3521466  29.7976086
  24.4982364  45.5635240  38.0460155  23.9535833  46.3395048  38.1780429
  25.3761714  45.9106044  37.8879276  31.2869981  38.8946824  30.4240954
  31.4085892  37.9663470  30.6231841  30.9972024  38.9085510  29.5119269
  34.1561172  36.5801734  33.5607673  34.1782868  36.6441067  32.6059653
  34.5729231  35.7406243  33.7548180  44.5344796  46.3156994  31.5986896
  44.9775942  45.5664319  31.2006019  43.6571306  46.3067130  31.2160628
  39.6680577  52.8687335  27.0793495  40.3631482  53.4894028  27.2980809
  40.0103727  52.0182686  27.3545872  25.2848386  44.6905136  40.9390312
  24.5430122  44.8387771  41.5254942  24.9641131  44.9513402  40.0757061
  41.5672000  50.3187041  28.6080825  42.0923324  50.6574313  27.8830145
  41.4794353  49.3834056  28.4243960  33.2292049  54.2321114  40.7370702
  33.5379175  53.9870261  41.6093401  34.0267531  54.4367753  40.2489572
  33.2512661  56.3859024  32.9676078  32.8117651  55.8935403  33.6608935
  34.0020778  55.8431992  32.7268154  25.7305000  52.5770565  32.9700707
  26.5563020  52.2774337  32.5899350  25.3799052  51.8078187  33.4190495
  30.6986533  51.9297033  35.0398380  30.0766542  51.2667738  34.7400608
  31.3691400  51.9558165  34.3572028  23.9313605  50.4956891  33.9289640
  23.0945513  50.0679066  33.7473641  23.9037251  50.6889335  34.8660431
  30.7711061  40.4078821  44.6330886  30.8199216  41.2840944  44.2508656
  31.3133575  39.8656214  44.0602529  41.3763781  47.8012411  41.2264752
  41.4261786  47.6362418  42.1680275  41.2677705  46.9339670  40.8362633
  30.2600040  50.4800956  28.5156841  30.4088160  51.1636421  27.8623513
  31.0666484  50.4606046  29.0306296  38.6667544  43.7843339  42.5424058
  39.5677407  43.6449804  42.2508056  38.7415518  43.9497794  43.4822236
  33.0010349  41.1610193  41.3877245  32.1313659  41.4543760  41.1159833
  33.2369829  41.7450638  42.1084508  42.8781978  50.2209352  41.4706773
  42.5866787  50.5839333  42.3070234  42.2654110  49.5076360  41.2920105
  44.0777661  47.7862232  33.9909344  44.9124552  48.2252036  34.1546904
  44.2136789  47.3100885  33.1717589  41.1269166  45.3441967  39.9386831
  41.6023288  45.5369613  39.1305683  40.2034732  45.4001153  39.6930215
  28.0152673  46.5066134  29.5217910  27.7698715  45.6028464  29.7198120
  28.1848588  46.5083284  28.5797388  35.7049383  37.3789810  38.9042665
  36.2231327  38.1150837  38.5789154  35.3504516  37.6853804  39.7389424
  27.2848321  42.2394492  27.0204071  26.5917566  42.3138847  26.3644107
  27.0400073  41.4754835  27.5425588  35.9561977  33.7990093  34.4243562
  36.2363731  33.1313282  35.0503988  36.7412584  33.9919189  33.9118226
  33.7595446  52.9749087  25.9868588  33.1869413  53.5939274  25.5339060
  34.3328239  53.5248449  26.5208510  39.8270835  42.2207727  38.1715137
  40.7788258  42.3205825  38.1927361  39.6574286  41.4285995  38.6813221
  37.8485215  39.3063310  38.3574538  37.2535147  39.5868323  37.6621026
  37.5634912  39.7957211  39.1291279  36.9792705  53.2586237  27.1177170
  37.9123379  53.1931799  27.3210046  36.8915918  54.0942504  26.6591703
  39.6080722  52.5752107  24.0781118  39.5294354  52.2411971  24.9716876
  40.4290389  53.0673875  24.0772590  42.3058913  45.4413847  37.2857437
  42.2735233  44.5029847  37.4717120  42.9159537  45.5197883  36.5523261
  34.1442244  44.3109900  23.3284641  35.0901349  44.1816108  23.3973059
  33.7656489  43.5724561  23.8054069  42.4553402  42.2324890  37.3315720
  41.9392450  41.4483347  37.1445649  43.3393350  41.9043607  37.4962239
  40.1164129  35.9765906  33.2911532  39.9188950  35.6680994  34.1754864
  40.7263834  36.7027545  33.4209462  48.1235463  46.5029853  36.4263473
  48.8538852  46.2415142  36.9871177  47.5142409  45.7658575  36.4665541
  46.2050760  44.6437716  37.0237925  45.4783924  44.5093681  36.4154416
  45.7898047  44.9514545  37.8294643  34.0280937  48.3627646  44.7885298
  34.9483946  48.5406245  44.9825344  33.9930520  47.4183691  44.6364997
  32.3285161  42.2359876  23.2639526  31.4216617  41.9392989  23.3402239
  32.6061142  41.9389694  22.3973812  23.2463102  43.5566239  33.7138572
  22.9265886  42.7031548  33.4212946  22.6996530  43.7714818  34.4696540
  27.0243009  46.2728680  37.4308079  27.2429019  47.2045788  37.4496113
  27.4368783  45.9136655  38.2162883  33.9447227  36.7796766  29.4183767
  33.1347955  36.4343851  29.7939013  34.6331644  36.4704309  30.0071379
  35.8737775  35.8574813  31.0408064  36.4268814  36.2770266  31.6998087
  36.1107862  34.9310561  31.0831020  31.8970875  41.8461886  46.8210828
  31.7967601  42.7956243  46.7522919  31.6792417  41.5180125  45.9486898
  31.0983946  39.0946811  23.4051505  31.9603110  39.4201710  23.6647322
  31.2834290  38.3078307  22.8924571  23.1151362  47.1769151  35.6831694
  22.4214833  46.7623104  35.1701648  23.8624353  47.2189687  35.0865113
  39.2516582  37.9675338  30.5486728  38.6715251  38.6260142  30.1664780
  38.9852515  37.1452682  30.1374146  37.7020149  37.3680395  32.7508048
  38.2019927  37.4796930  31.9422367  38.3455757  37.0641448  33.3908857
  31.7602145  45.2759025  45.6375889  31.2769226  46.0759385  45.8439778
  31.8463084  45.2866970  44.6843333  25.0288104  47.1087405  33.5597709
  25.0058792  47.2075092  32.6079592  25.3388741  47.9552555  33.8814875
  27.6875482  49.1663560  37.6744323  28.6418736  49.1347502  37.6074255
  27.4888006  48.7054183  38.4894549  28.2774864  47.7364676  40.2415121
  29.0967753  48.2308754  40.2649958  28.5511672  46.8196644  40.2132688
  38.0341460  40.1275428  29.6043076  37.1467315  40.4125079  29.3863271
  38.4495449  39.9669191  28.7570353  41.3855997  40.1521949  33.3197416
  42.1616387  40.6418401  33.5922032  40.6604131  40.5780003  33.7769285
  43.8228555  40.8649568  34.3771356  44.4173046  40.6245304  33.6664664
  43.8955139  40.1456699  35.0044892  26.0425711  54.7083179  34.6914521
  25.9080179  53.9483580  34.1252519  25.6257773  55.4324079  34.2243310
  37.1784674  49.8920103  23.6991096  37.8820524  50.0970105  24.3148752
  36.4547323  50.4596865  23.9640180  38.0082484  45.6429964  29.8193366
  37.9517686  46.0998515  28.9800999  38.5610827  44.8820649  29.6416209
  41.8187290  41.4319696  30.6443486  41.5624224  41.0316332  31.4751694
  41.1940158  42.1463490  30.5193625  46.1299628  44.1715769  33.1514777
  45.5699186  44.2408958  33.9246339  45.5243131  43.9956754  32.4314274
  29.1994837  55.6052496  34.9032964  29.0827221  56.5497929  34.8011654
  28.3787283  55.3026058  35.2918763  39.0871371  50.3302632  25.7489556
  39.9216975  49.8983830  25.5667031  38.9255714  50.1584646  26.6766451
  38.7417263  46.8334745  27.1145896  38.6866067  46.6679017  26.1734340
  38.1163319  47.5410778  27.2708085  23.5309778  42.0702810  40.9407318
  24.1768642  41.5601764  41.4294543  23.3226930  42.8071491  41.5150743
  36.0563171  49.1383657  46.4399458  36.9254330  49.3124309  46.0786093
  35.5769922  49.9578074  46.3175188  32.0513389  36.3342854  26.6931214
  32.0392059  37.2784694  26.8499485  32.9436811  36.1513000  26.3990675
  30.2249351  56.2580758  38.1188892  31.1276598  56.2904368  38.4355387
  29.9986721  55.3281209  38.1335228  31.9802953  55.0111745  34.7798971
  31.0298584  55.0113606  34.6663343  32.2835439  54.2644479  34.2635005
  35.8665508  32.9285631  30.9477151  35.0997904  32.3744118  31.0933833
  36.2776213  33.0007500  31.8091302  27.8707269  39.2170427  45.0382332
  28.7338731  38.8607232  45.2485657  27.2972680  38.8784321  45.7257736
  44.5245353  60.7999711  35.7806258  44.1863864  60.6840776  34.8926793
  45.3935121  60.3990876  35.7607264  40.3832168  62.6535188  31.7703149
  39.8197033  62.5625124  31.0019436  40.2684563  61.8335092  32.2505641
  37.9296600  64.1486379  34.6087369  38.7217892  63.8077204  34.1933668
  38.1693250  64.2581354  35.5289522  45.9631727  66.3206155  27.0817614
  45.3119707  66.9060236  26.6951627  46.7576090  66.8512350  27.1412651
  39.8887354  63.4095292  27.4804748  40.6618230  62.8624279  27.3417624
  40.2412753  64.2739542  27.6919209  42.6528604  62.1148523  37.2773007
  43.2492176  61.8904546  36.5629970  42.7103575  61.3733269  37.8798455
  42.2253632  59.5687959  25.1123198  42.4779153  59.0469480  24.3506661
  41.2878191  59.4054104  25.2149881  47.2696915  58.5723737  32.9197941
  48.0560004  58.1543160  32.5688358  47.5335619  59.4769829  33.0879589
  47.4406992  64.0096587  27.6186598  46.8052825  64.0831214  28.3307503
  47.1104399  64.5990186  26.9405677  41.9449921  61.4716064  27.3147573
  41.8286179  60.7960968  27.9828657  42.0552181  60.9848438  26.4979726
  44.2881462  60.9326212  31.0194262  43.9239669  60.4056833  31.7307184
  45.1448578  60.5424681  30.8460747  50.1930762  52.2220544  38.2825528
  49.8614087  53.0915955  38.0586743  49.5976376  51.9056828  38.9619559
  43.9286949  55.9616111  26.0155611  44.0961351  56.8296348  26.3826082
  43.7384118  56.1243393  25.0916900  40.1374763  60.8746887  33.7158145
  39.2125260  60.7423101  33.9235837  40.3859177  61.6541106  34.2128088
  43.9076170  58.4173769  27.0002277  43.7875795  58.8630820  27.8387758
  43.2128758  58.7659086  26.4415816  37.4983574  60.5180161  34.5501934
  37.6275956  60.7714639  35.4641346  36.8181026  61.1107869  34.2306590
  41.6683062  71.1877411  30.6492409  41.5907091  72.1385236  30.7280889
  41.0644705  70.8423283  31.3067335  49.6061236  58.8895242  27.8282611
  50.5179092  59.1222629  27.6530309  49.0970883  59.4732286  27.2657690
  44.2433073  58.2492477  38.8377461  45.0894269  58.6731890  38.9812110
  44.1831711  57.5926101  39.5316024  46.9497210  55.0653278  36.0772472
  46.0881690  55.3634531  36.3689210  46.9759645  55.2823677  35.1453505
  43.7658780  63.6095468  32.4846278  44.2297125  63.8883171  31.6950901
  43.5015578  62.7078913  32.3019369  40.6582861  63.1566950  35.4226041
  41.2284218  63.5854218  34.7843526  41.2490973  62.8749535  36.1210227
  42.7027666  59.7318621  29.2935843  43.4051709  60.1839665  29.7609770
  42.3708294  59.0902440  29.9215736  36.4453000  57.9902174  34.5952977
  35.6552054  58.2459702  34.1193087  36.9364247  58.8050511  34.7005017
  38.3967745  58.3546753  31.5536453  37.5998909  58.4665447  32.0719949
  38.1693338  58.6933405  30.6877344  44.2273413  64.8791456  39.5018968
  44.2917845  65.3411863  40.3377140  43.5184337  64.2488821  39.6301278
  34.7290703  58.2432664  37.0267968  34.9798741  59.1279674  37.2925543
  35.2650251  58.0637265  36.2543059  43.9421431  66.5459563  29.3697948
  43.8067105  67.3911099  29.7982796  44.4831243  66.7478841  28.6063882
  37.3950828  64.0635002  29.9425873  37.9075349  64.8578252  30.0931438
  38.0473541  63.3661292  29.8759475  39.2045713  67.1800758  32.0248627
  39.3812341  68.1018722  31.8369611  40.0002546  66.8659177  32.4543006
  40.3277028  68.6978932  38.0258969  40.8784453  68.5695995  37.2535963
  39.4888504  68.9973821  37.6753862  47.6671145  67.4485930  41.5279692
  47.6489620  68.2694811  41.0359961  48.5891065  67.3240005  41.7529833
  47.2913894  50.0690125  37.8996842  46.9478164  50.9591767  37.8235952
  47.6592857  49.8791783  37.0366427  35.3599745  62.3923656  30.7185444
  36.1974967  62.8020664  30.5019152  35.5378012  61.4523098  30.6885638
  47.2564177  60.0598736  26.4069277  46.7410800  60.8303341  26.6457664
  46.9841485  59.3863873  27.0302338  44.8411288  54.9048437  31.4654515
  43.9852884  54.5155288  31.2860154  45.2538240  54.9840398  30.6054301
  46.3710435  52.4394781  35.8646075  45.8675230  52.4024916  35.0513880
  46.6641041  53.3487523  35.9242732  42.6153320  52.5233510  34.8712257
  43.4806317  52.3276319  34.5118146  42.6830829  52.2943862  35.7981614
  47.0450480  57.9325829  28.2329058  46.7400616  58.2471978  29.0839201
  47.9980922  58.0107248  28.2756391  45.4896912  64.0916052  29.8822012
  44.9618273  63.3568811  29.5695250  44.9884415  64.8690728  29.6361980
  40.2215640  54.7535718  32.2428624  40.7959391  54.5310900  31.5101817
  40.8086622  54.8224413  32.9957225  40.5485227  56.7840179  26.2624509
  39.7122539  57.1214866  26.5833784  40.4089996  56.6489159  25.3251646
  42.5238307  51.6276967  30.9703693  41.8702720  51.3125984  30.3460308
  42.4818781  51.0052708  31.6963516  43.6349512  61.9096262  22.8856985
  42.7276574  61.6785516  23.0848134  44.1320544  61.1133881  23.0730967
  46.5417591  70.6193769  25.8053671  45.8679290  70.9225466  26.4138629
  46.9283413  71.4222850  25.4559128  45.7576048  58.1158901  35.2951341
  44.8398609  58.3373848  35.1373029  46.1736191  58.1905211  34.4363048
  46.5411095  59.5150316  30.4254021  47.2882914  60.0271713  30.1161143
  46.8102685  59.1934369  31.2858415  44.8137746  62.0108857  27.4080975
  43.9048965  61.7267890  27.5053445  44.8432829  62.4307936  26.5484282
  48.4889952  67.4591943  32.1121961  48.7812927  68.0197000  31.3934327
  48.9988573  67.7520504  32.8675120  49.0901560  49.3283685  33.0014580
  49.3960437  48.4681048  32.7140495  49.8154165  49.9201305  32.8013573
  35.3825916  59.7314371  31.3896177  35.1850316  59.1383732  30.6647244
  34.8272580  59.4266581  32.1072116  43.3622640  59.6237478  33.5090771
  43.4171249  58.6711314  33.4333247  42.5513842  59.7796917  33.9932069
  44.5113833  63.5517601  24.7469054  44.0733263  62.8353460  24.2874691
  45.2524274  63.7793715  24.1854145  41.3014999  58.2414537  31.2681149
  40.4882865  58.5408708  31.6746342  41.7973994  57.8470226  31.9855632
  43.4523577  68.2372294  33.2015414  43.4099756  68.4633141  32.2723946
  44.3686276  68.0035669  33.3501215  40.7929074  55.8132893  36.8842384
  41.4328454  55.6721652  36.1865348  39.9606605  55.5267406  36.5080986
  41.5689378  65.1135323  32.9977377  42.3629977  64.6185643  32.7959952
  40.8581071  64.5853186  32.6345082  46.3884223  67.4953419  37.3489744
  46.4421245  68.0644355  38.1167460  45.5199004  67.6655304  36.9843782
  37.8772142  59.2578405  29.0737130  36.9469730  59.1962861  29.2907092
  37.9729614  58.7354358  28.2773771  37.7957691  55.7833218  31.6615371
  38.0564508  56.6978551  31.5524532  38.6174863  55.3157660  31.8111984
  39.2682616  57.1970975  38.8314196  39.9405669  56.9888337  38.1826845
  38.4412403  56.9993061  38.3919428  44.1460654  65.6864345  36.6775214
  44.0071740  65.3183130  37.5501152  43.3575250  66.2011985  36.5059172
  44.7408806  70.7873442  28.0200750  44.9160562  70.3161485  28.8346373
  44.0541594  71.4139208  28.2482011  45.6965869  65.0645948  34.0664052
  45.3615702  65.0246718  34.9621702  45.1969815  64.3990664  33.5934462
  39.6710113  60.4713578  39.5916633  39.5329911  59.7393817  40.1928172
  40.5815037  60.3822478  39.3100821  48.6325061  62.4101982  24.3401111
  48.0154232  61.6848810  24.2434164  48.1641549  63.1711343  23.9968186
  42.2992414  60.1833537  39.0800313  43.0092032  59.5426730  39.0386931
  42.2561722  60.4346432  40.0026493  50.2879193  67.1200891  42.0006892
  50.2291739  66.4360111  41.3337475  50.6898711  67.8619881  41.5487518
  39.3069891  73.9362805  34.7940611  39.5466490  74.5681329  35.4719629
  38.4639088  73.5850845  35.0805970  40.4223607  56.6287407  23.4622416
  39.5453073  56.5076207  23.0984662  40.8981360  55.8373485  23.2101304
  31.9425747  61.4164566  33.5563923  32.6296787  61.1026296  32.9684938
  31.7873876  62.3205931  33.2831174  36.7460469  56.3054763  37.9848947
  36.6618658  55.6980432  37.2499356  35.9243176  56.7963781  37.9858443
  43.8197753  69.7441927  37.1982115  43.7467925  70.5496898  37.7101419
  43.3775146  69.9433893  36.3730136  43.6087533  68.9813697  30.7084936
  42.8255055  69.5235377  30.8023161  44.3080278  69.4987677  31.1079177
  46.9184183  54.7908326  33.3519142  47.4152883  54.0378289  33.0320212
  46.1471164  54.8272643  32.7862351  46.2796437  69.6428761  39.3540273
  46.9924409  70.2776226  39.2816175  45.7886465  69.7392627  38.5380275
  43.5019152  56.9325709  33.0790826  43.1316939  56.3796750  33.7671732
  43.9978244  56.3283843  32.5265826  41.3308350  67.3923204  40.1745844
  42.0317810  68.0259687  40.3275238  40.8603465  67.7337936  39.4141483
  49.4562746  65.7341154  28.4593751  49.7322590  65.6197749  29.3687625
  48.5867245  65.3358639  28.4205924  49.3603178  51.7577920  35.4998500
  48.4466258  51.9882147  35.6680707  49.7896279  51.8416364  36.3512533
  46.0916810  69.9827505  32.1026565  46.2739205  69.1649161  32.5654317
  46.9149796  70.1995197  31.6651455  46.4258976  68.9095690  29.3641613
  46.9546742  68.3988145  28.7511775  46.6887195  68.5938220  30.2287146
  36.9276068  66.9259559  37.1076947  37.5129505  66.1803247  37.2404851
  36.7300907  67.2363516  37.9913611  39.7814724  69.9610807  32.1239389
  39.1125099  70.4456935  31.6403429  39.6427593  70.2080027  33.0382768
  31.5193723  59.4965160  35.8281390  31.5577823  58.9628750  36.6218508
  31.0134016  58.9700365  35.2092367  43.9219992  71.9954550  38.7222048
  44.4738300  72.1586172  39.4871133  44.2626186  72.5858988  38.0502072
  38.8984485  54.3429700  39.3243932  38.9625812  55.2044531  38.9121330
  38.8351606  53.7303702  38.5916291  48.7730866  66.8215808  44.5770702
  49.3170770  67.4345766  44.0825657  48.1917711  67.3795386  45.0937715
  35.1502301  58.2229262  28.9035321  35.4455742  57.3139940  28.8502375
  34.2490336  58.2017001  28.5816324  47.0588379  69.9436526  35.7085730
  46.9339519  69.1426266  35.1996675  47.7167471  70.4382719  35.2199700
  38.6796548  56.2985258  34.8862870  37.9583133  56.9121226  34.7470343
  39.4689803  56.8343023  34.8079516  41.4822861  53.6339685  41.1603522
  42.0057263  53.8801981  41.9229831  41.2635194  54.4659720  40.7406659
  36.8790142  55.9043360  29.0274646  36.5502848  55.0240738  28.8449752
  37.2329513  55.8491028  29.9151036  46.1269721  67.5398262  33.5369632
  45.9794684  66.6114970  33.7177202  46.9523215  67.5618353  33.0526707
  39.9931965  56.1916329  29.3950124  40.3328038  56.7202251  28.6728733
  40.4404086  56.5296735  30.1708691  49.7303843  68.3626821  34.6234505
  50.6550390  68.1569682  34.4858956  49.5619146  68.1143222  35.5323846
  42.6875406  54.5753380  38.8453192  42.3472227  53.7761193  39.2473872
  41.9814413  54.8755091  38.2730025  43.3391878  51.6602692  37.2980515
  44.1617947  51.1863171  37.1759406  43.5829942  52.4393176  37.7979202
  41.9800113  54.6890951  27.5943417  42.7008475  55.0672204  27.0907134
  41.3565417  55.4079828  27.6978395  46.1231235  55.3936100  28.5301749
  46.3394850  56.2760738  28.2290577  45.6425303  55.0022313  27.8007391
  40.8630457  58.3521813  35.1072494  40.7175038  58.6662116  35.9996775
  40.3855660  58.9706713  34.5543392  42.7226840  55.3424361  35.1553383
  42.7088408  54.4465454  34.8185681  43.4399268  55.3495025  35.7891669
  44.5752970  55.7761701  37.2006511  44.3170748  56.6978772  37.1990841
  44.0438011  55.3792136  37.8906975  49.5199159  68.8812488  29.9796596
  49.6936037  68.3158911  29.2270449  50.0128050  69.6813383  29.7976086
  35.3376119  60.8927158  38.0460155  34.7929587  61.6686965  38.1780429
  36.2155469  61.2397962  37.8879276  42.1263736  54.2238741  30.4240954
  42.2479647  53.2955388  30.6231841  41.8365778  54.2377427  29.5119269
  44.9954926  51.9093652  33.5607673  45.0176623  51.9732985  32.6059653
  45.4122985  51.0698160  33.7548180  50.5074332  68.1979253  27.0793495
  51.2025236  68.8185946  27.2980809  50.8497482  67.3474604  27.3545872
  36.1242141  60.0197054  40.9390312  35.3823877  60.1679689  41.5254942
  35.8034885  60.2805319  40.0757061  52.4065755  65.6478958  28.6080825
  52.9317079  65.9866231  27.8830145  52.3188107  64.7125974  28.4243960
  44.0685803  69.5613032  40.7370702  44.3772930  69.3162179  41.6093401
  44.8661286  69.7659670  40.2489572  44.0906416  71.7150942  32.9676078
  43.6511406  71.2227320  33.6608935  44.8414532  71.1723909  32.7268154
  36.5698755  67.9062482  32.9700707  37.3956774  67.6066254  32.5899350
  36.2192807  67.1370105  33.4190495  41.5380288  67.2588951  35.0398380
  40.9160297  66.5959656  34.7400608  42.2085155  67.2850083  34.3572028
  34.7707360  65.8248809  33.9289640  33.9339268  65.3970983  33.7473641
  34.7431005  66.0181252  34.8660431  52.0959661  66.2811862  43.9132023
  51.3055205  66.2636001  43.3736523  51.8593015  66.8200156  44.6681060
  41.0993795  65.8092874  28.5156841  41.2481915  66.4928338  27.8623513
  41.9060238  65.7897964  29.0306296  38.8546428  61.8358052  29.5217910
  38.6092470  60.9320382  29.7198120  39.0242342  61.8375202  28.5797388
  46.5443137  52.7081728  38.9042665  47.0625081  53.4442755  38.5789154
  46.1898270  53.0145721  39.7389424  38.1242075  57.5686409  27.0204071
  37.4311320  57.6430764  26.3644107  37.8793827  56.8046753  27.5425588
  46.7955732  49.1282011  34.4243562  47.0757485  48.4605200  35.0503988
  47.5806339  49.3211106  33.9118226  44.5989200  68.3041004  25.9868588
  44.0263167  68.9231192  25.5339060  45.1721994  68.8540366  26.5208510
  48.6878969  54.6355228  38.3574538  48.0928902  54.9160241  37.6621026
  48.4028666  55.1249129  39.1291279  47.8186460  68.5878155  27.1177170
  48.7517133  68.5223716  27.3210046  47.7309673  69.4234421  26.6591703
  50.4474477  67.9044025  24.0781118  50.3688108  67.5703889  24.9716876
  51.2684143  68.3965793  24.0772590  44.9835999  59.6401817  23.3284641
  45.9295103  59.5108025  23.3973059  44.6050244  58.9016479  23.8054069
  50.9557883  51.3057823  33.2911532  50.7582704  50.9972911  34.1754864
  51.5657589  52.0319462  33.4209462  43.1678916  57.5651794  23.2639526
  42.2610371  57.2684906  23.3402239  43.4454897  57.2681612  22.3973812
  34.0856856  58.8858157  33.7138572  33.7659641  58.0323465  33.4212946
  33.5390284  59.1006735  34.4696540  37.8636764  61.6020598  37.4308079
  38.0822773  62.5337706  37.4496113  38.2762538  61.2428572  38.2162883
  44.7840982  52.1088683  29.4183767  43.9741710  51.7635768  29.7939013
  45.4725398  51.7996227  30.0071379  46.7131530  51.1866730  31.0408064
  47.2662568  51.6062184  31.6998087  46.9501616  50.2602478  31.0831020
  41.9377700  54.4238729  23.4051505  42.7996864  54.7493627  23.6647322
  42.1228045  53.6370225  22.8924571  33.9545116  62.5061069  35.6831694
  33.2608588  62.0915021  35.1701648  34.7018107  62.5481605  35.0865113
  50.0910337  53.2967255  30.5486728  49.5109006  53.9552059  30.1664780
  49.8246270  52.4744600  30.1374146  48.5413903  52.6972313  32.7508048
  49.0413682  52.8088848  31.9422367  49.1849511  52.3933366  33.3908857
  35.8681859  62.4379322  33.5597709  35.8452547  62.5367010  32.6079592
  36.1782495  63.2844473  33.8814875  38.5269237  64.4955477  37.6744323
  39.4812490  64.4639420  37.6074255  38.3281760  64.0346101  38.4894549
  39.1168619  63.0656593  40.2415121  39.9361508  63.5600672  40.2649958
  39.3905426  62.1488562  40.2132688  48.8735215  55.4567346  29.6043076
  47.9861070  55.7416996  29.3863271  49.2889204  55.2961109  28.7570353
  52.2249751  55.4813867  33.3197416  53.0010141  55.9710319  33.5922032
  51.4997885  55.9071921  33.7769285  36.8819465  70.0375097  34.6914521
  36.7473933  69.2775498  34.1252519  36.4651528  70.7615997  34.2243310
  48.0178428  65.2212020  23.6991096  48.7214278  65.4262023  24.3148752
  47.2941077  65.7888782  23.9640180  40.0388591  70.9344414  34.9032964
  39.9220975  71.8789846  34.8011654  39.2181037  70.6317975  35.2918763
  49.9265126  65.6594550  25.7489556  50.7610730  65.2275748  25.5667031
  49.7649469  65.4876563  26.6766451  49.5811018  62.1626663  27.1145896
  49.5259822  61.9970934  26.1734340  48.9557073  62.8702696  27.2708085
  34.3703533  57.3994727  40.9407318  35.0162397  56.8893681  41.4294543
  34.1620684  58.1363409  41.5150743  42.8907143  51.6634772  26.6931214
  42.8785813  52.6076612  26.8499485  43.7830565  51.4804917  26.3990675
  41.0643105  71.5872676  38.1188892  41.9670352  71.6196286  38.4355387
  40.8380475  70.6573127  38.1335228  42.8196707  70.3403662  34.7798971
  41.8692338  70.3405524  34.6663343  43.1229194  69.5936397  34.2635005
  46.7059263  48.2577549  30.9477151  45.9391659  47.7036035  31.0933833
  47.1169968  48.3299417  31.8091302  58.5549401  76.1764201  35.8444733
  59.1927811  76.0570948  35.1408073  58.4370244  77.1245045  35.9032685
  55.3639107  76.1291629  35.7806258  55.0257619  76.0132693  34.8926793
  56.2328875  75.7282794  35.7607264  51.2225923  77.9827105  31.7703149
  50.6590788  77.8917042  31.0019436  51.1078318  77.1627010  32.2505641
  55.8458890  77.2826481  41.7392463  55.8347531  76.8879279  40.8672967
  56.0079530  76.5492553  42.3326235  48.7690355  79.4778297  34.6087369
  49.5611647  79.1369121  34.1933668  49.0087005  79.5873272  35.5289522
  56.8025482  81.6498073  27.0817614  56.1513461  82.2352153  26.6951627
  57.5969844  82.1804268  27.1412651  50.7281109  78.7387210  27.4804748
  51.5011985  78.1916197  27.3417624  51.0806508  79.6031459  27.6919209
  52.5666151  80.0663592  40.6871647  52.2756017  80.9709223  40.5718314
  53.2023136  80.1080120  41.4015717  53.4922358  77.4440441  37.2773007
  54.0885930  77.2196463  36.5629970  53.5497330  76.7025186  37.8798455
  53.0647387  74.8979876  25.1123198  53.3172907  74.3761397  24.3506661
  52.1271946  74.7346022  25.2149881  58.1090669  73.9015655  32.9197941
  58.8953759  73.4835078  32.5688358  58.3729374  74.8061747  33.0879589
  58.2800747  79.3388505  27.6186598  57.6446580  79.4123131  28.3307503
  57.9498153  79.9282104  26.9405677  52.7843675  76.8007982  27.3147573
  52.6679933  76.1252886  27.9828657  52.8945935  76.3140356  26.4979726
  55.1275216  76.2618129  31.0194262  54.7633423  75.7348750  31.7307184
  55.9842332  75.8716598  30.8460747  54.7680703  71.2908029  26.0155611
  54.9355106  72.1588265  26.3826082  54.5777872  71.4535311  25.0916900
  57.5256036  79.7525008  37.6821441  57.2256759  80.6550047  37.5737248
  57.1807096  79.4857191  38.5342594  50.9768518  76.2038805  33.7158145
  50.0519014  76.0715019  33.9235837  51.2252931  76.9833024  34.2128088
  54.7469924  73.7465686  27.0002277  54.6269549  74.1922737  27.8387758
  54.0522512  74.0951004  26.4415816  48.3377329  75.8472078  34.5501934
  48.4669710  76.1006557  35.4641346  47.6574780  76.4399786  34.2306590
  52.5076816  86.5169328  30.6492409  52.4300846  87.4677153  30.7280889
  51.9038460  86.1715201  31.3067335  54.9994046  73.6897194  43.3053776
  54.2227380  74.2491114  43.2956640  55.6384609  74.1753977  43.8268646
  60.4454990  74.2187160  27.8282611  61.3572846  74.4514546  27.6530309
  59.9364637  74.8024204  27.2657690  53.2540418  76.4982647  42.8671743
  53.9955103  77.0367691  42.5906566  52.5477404  77.1248936  43.0243294
  58.7295758  78.6411787  41.4643904  59.1379114  78.1994198  40.7198536
  58.0073019  78.0664415  41.7178097  55.0826828  73.5784394  38.8377461
  55.9288023  74.0023808  38.9812110  55.0225466  72.9218019  39.5316024
  59.0524573  79.2012978  35.2196193  58.4233435  79.3658692  34.5172261
  58.6650235  79.6154588  35.9907157  62.9313804  80.1367416  32.5740557
  62.2464843  80.5166317  32.0237590  63.0157654  80.7462743  33.3072504
  58.2326273  71.2388763  40.4958635  57.9887205  71.9930823  39.9592910
  58.5086204  71.6174110  41.3305882  60.1864736  77.7827375  39.1735900
  60.3981631  78.4259135  38.4970281  60.1394484  76.9489692  38.7057830
  57.7890965  70.3945196  36.0772472  56.9275444  70.6926449  36.3689210
  57.8153400  70.6115594  35.1453505  54.6052534  78.9387386  32.4846278
  55.0690880  79.2175089  31.6950901  54.3409333  78.0370831  32.3019369
  51.4976615  78.4858868  35.4226041  52.0677973  78.9146136  34.7843526
  52.0884727  78.2041452  36.1210227  53.5421420  75.0610539  29.2935843
  54.2445464  75.5131582  29.7609770  53.2102049  74.4194357  29.9215736
  51.9901782  73.6522295  43.6687053  51.3600443  74.3338576  43.9022449
  51.8837870  73.5405377  42.7240191  47.2846754  73.3194091  34.5952977
  46.4945808  73.5751620  34.1193087  47.7758002  74.1342429  34.7005017
  61.3010564  80.6599330  37.3458258  62.1228008  80.2579518  37.0640939
  61.2972967  80.5567565  38.2974373  49.2361500  73.6838670  31.5536453
  48.4392663  73.7957365  32.0719949  49.0087092  74.0225323  30.6877344
  55.0667167  80.2083374  39.5018968  55.1311600  80.6703781  40.3377140
  54.3578091  79.5780739  39.6301278  45.5684457  73.5724582  37.0267968
  45.8192496  74.4571592  37.2925543  46.1044006  73.3929183  36.2543059
  69.3916557  77.0038079  33.6943229  68.6380265  76.4345477  33.5387233
  69.5264098  76.9700743  34.6413864  54.7815185  81.8751481  29.3697948
  54.6460860  82.7203017  29.7982796  55.3224998  82.0770759  28.6063882
  51.2682525  67.9543061  46.0312304  50.8749470  67.4009260  46.7059948
  52.0848665  68.2653639  46.4218821  48.2344582  79.3926919  29.9425873
  48.7469103  80.1870169  30.0931438  48.8867295  78.6953210  29.8759475
  50.0439467  82.5092675  32.0248627  50.2206096  83.4310640  31.8369611
  50.8396301  82.1951095  32.4543006  54.1850486  69.3700940  43.6232560
  54.9260199  69.9708093  43.5437023  54.4168409  68.6278578  43.0650603
  49.3291824  74.5557307  41.9010790  49.2145339  73.6542565  42.2017889
  48.4736341  74.8021004  41.5495606  56.4083661  82.4975048  43.4998290
  55.9647516  81.7111426  43.1819195  57.0700875  82.6854198  42.8342181
  51.1670783  84.0270849  38.0258969  51.7178208  83.8987913  37.2535963
  50.3282259  84.3265738  37.6753862  58.5064900  82.7777848  41.5279692
  58.4883375  83.5986729  41.0359961  59.4284820  82.6531923  41.7529833
  54.9637954  80.2921977  42.3703200  55.4966290  79.5310265  42.1402508
  54.4352035  79.9995629  43.1127355  46.1993499  77.7215573  30.7185444
  47.0368721  78.1312582  30.5019152  46.3771767  76.7815016  30.6885638
  58.0957931  75.3890654  26.4069277  57.5804555  76.1595259  26.6457664
  57.8235240  74.7155790  27.0302338  55.6805042  70.2340355  31.4654515
  54.8246639  69.8447205  31.2860154  56.0931994  70.3132316  30.6054301
  57.2104189  67.7686698  35.8646075  56.7068985  67.7316833  35.0513880
  57.5034796  68.6779441  35.9242732  53.4547075  67.8525428  34.8712257
  54.3200072  67.6568237  34.5118146  53.5224584  67.6235780  35.7981614
  63.0692205  78.1423009  28.3422450  62.2921648  77.8034168  27.8977613
  63.7483686  78.1475632  27.6677415  57.8844235  73.2617746  28.2329058
  57.5794370  73.5763895  29.0839201  58.8374677  73.3399166  28.2756391
  56.3290666  79.4207970  29.8822012  55.8012028  78.6860729  29.5695250
  55.8278169  80.1982646  29.6361980  61.3083512  77.6156990  34.9989058
  60.6507187  78.3056251  35.0869187  62.1123912  78.0053422  35.3423045
  51.0609394  70.0827636  32.2428624  51.6353146  69.8602817  31.5101817
  51.6480376  70.1516330  32.9957225  60.1188971  75.9701363  33.0493000
  60.6320853  76.6031355  33.5514710  60.7690195  75.3702558  32.6836360
  51.3878981  72.1132097  26.2624509  50.5516293  72.4506783  26.5833784
  51.2483751  71.9781077  25.3251646  53.3632062  66.9568885  30.9703693
  52.7096474  66.6417902  30.3460308  53.3212536  66.3344625  31.6963516
  54.4743267  77.2388180  22.8856985  53.5670328  77.0077433  23.0848134
  54.9714299  76.4425799  23.0730967  57.3811345  85.9485687  25.8053671
  56.7073044  86.2517384  26.4138629  57.7677167  86.7514767  25.4559128
  56.5969802  73.4450818  35.2951341  55.6792363  73.6665765  35.1373029
  57.0129946  73.5197129  34.4363048  57.3804850  74.8442234  30.4254021
  58.1276669  75.3563631  30.1161143  57.6496439  74.5226287  31.2858415
  55.6531500  77.3400775  27.4080975  54.7442719  77.0559807  27.5053445
  55.6826584  77.7599853  26.5484282  60.8850767  80.9507364  31.1772143
  60.4313095  80.1098274  31.2337333  60.2544734  81.5868763  31.5146923
  59.3283707  82.7883861  32.1121961  59.6206681  83.3488918  31.3934327
  59.8382327  83.0812422  32.8675120  46.2219670  75.0606289  31.3896177
  46.0244070  74.4675650  30.6647244  45.6666334  74.7558499  32.1072116
  54.2016394  74.9529395  33.5090771  54.2565004  74.0003232  33.4333247
  53.3907596  75.1088834  33.9932069  55.3507588  78.8809518  24.7469054
  54.9127018  78.1645377  24.2874691  56.0918029  79.1085633  24.1854145
  52.1408754  73.5706455  31.2681149  51.3276619  73.8700626  31.6746342
  52.6367748  73.1762144  31.9855632  54.2917332  83.5664212  33.2015414
  54.2493511  83.7925058  32.2723946  55.2080031  83.3327587  33.3501215
  57.7382966  74.0348280  40.0996043  58.0932353  74.2619753  40.9590509
  58.3855097  74.3666656  39.4773299  63.4680703  77.1566715  30.8045372
  63.3298601  77.3468311  29.8766562  63.1116921  77.9186098  31.2613424
  51.6322829  71.1424811  36.8842384  52.2722208  71.0013570  36.1865348
  50.8000359  70.8559324  36.5080986  63.4950082  79.2243242  35.8156644
  63.9286589  79.1318531  36.6639698  64.2081663  79.2000743  35.1776660
  52.4083133  80.4427241  32.9977377  53.2023731  79.9477561  32.7959952
  51.6974825  79.9145104  32.6345082  57.2277977  82.8245337  37.3489744
  57.2814999  83.3936273  38.1167460  56.3592758  82.9947222  36.9843782
  48.7165896  74.5870323  29.0737130  47.7863484  74.5254778  29.2907092
  48.8123368  74.0646275  28.2773771  48.6351445  71.1125136  31.6615371
  48.8958262  72.0270469  31.5524532  49.4568617  70.6449578  31.8111984
  50.1076370  72.5262893  38.8314196  50.7799424  72.3180255  38.1826845
  49.2806157  72.3284979  38.3919428  64.3565632  79.2666943  38.3489529
  64.5501522  80.1712754  38.5948804  64.2566250  78.8074362  39.1828114
  56.0101942  69.1524834  40.8479857  55.3629858  69.8514783  40.7544333
  56.7802958  69.5860978  41.2156105  59.4180740  79.4173686  43.9230410
  59.2666247  79.1884237  43.0060494  59.4085420  80.3744287  43.9361755
  56.1866077  76.9905599  38.9076676  57.1158137  77.1416758  38.7345644
  55.7657107  77.0789619  38.0525323  54.9854409  81.0156263  36.6775214
  54.8465494  80.6475047  37.5501152  54.1969005  81.5303902  36.5059172
  55.5802561  86.1165359  28.0200750  55.7554316  85.6453403  28.8346373
  54.8935349  86.7431126  28.2482011  56.5359624  80.3937866  34.0664052
  56.2009456  80.3538636  34.9621702  56.0363569  79.7282582  33.5934462
  50.5103868  75.8005496  39.5916633  50.3723666  75.0685735  40.1928172
  51.4208791  75.7114396  39.3100821  59.4718815  77.7393900  24.3401111
  58.8547986  77.0140728  24.2434164  59.0035304  78.5003260  23.9968186
  53.1386168  75.5125455  39.0800313  53.8485787  74.8718647  39.0386931
  53.0955477  75.7638350  40.0026493  61.1272947  82.4492808  42.0006892
  61.0685493  81.7652028  41.3337475  61.5292465  83.1911798  41.5487518
  51.8515102  72.4990673  40.8995952  51.3152459  72.0481411  41.5517548
  51.2631811  72.6336582  40.1566416  50.1463646  89.2654722  34.7940611
  50.3860244  89.8973246  35.4719629  49.3032842  88.9142762  35.0805970
  51.2617361  71.9579324  23.4622416  50.3846828  71.8368125  23.0984662
  51.7375114  71.1665403  23.2101304  61.1290354  80.4132392  40.2320871
  60.2417133  80.0758314  40.3547270  61.6988905  79.6815424  40.4689637
  42.7819501  76.7456484  33.5563923  43.4690541  76.4318214  32.9684938
  42.6267630  77.6497849  33.2831174  47.5854224  71.6346681  37.9848947
  47.5012412  71.0272350  37.2499356  46.7636930  72.1255699  37.9858443
  54.6591508  85.0733845  37.1982115  54.5861679  85.8788816  37.7101419
  54.2168901  85.2725810  36.3730136  54.4481287  84.3105615  30.7084936
  53.6648809  84.8527295  30.8023161  55.1474033  84.8279594  31.1079177
  65.6107695  75.8240610  34.9937433  65.5997571  76.7065325  34.6231366
  64.7425074  75.4712160  34.7991970  57.1190191  84.9720679  39.3540273
  57.8318163  85.6068143  39.2816175  56.6280220  85.0684545  38.5380275
  58.8407718  78.8771931  30.9257565  57.9063997  78.9973394  30.7562269
  59.0184387  77.9744398  30.6617575  54.3412906  72.2617627  33.0790826
  53.9710694  71.7088667  33.7671732  54.8371999  71.6575761  32.5265826
  62.2280270  74.7189251  31.4607599  62.6940722  75.5517242  31.3867902
  62.6787770  74.2534232  32.1652858  52.1702105  82.7215122  40.1745844
  52.8711564  83.3551605  40.3275238  51.6997220  83.0629854  39.4141483
  60.2956501  81.0633072  28.4593751  60.5716345  80.9489666  29.3687625
  59.4260999  80.6650557  28.4205924  59.9703391  75.2759730  37.9998394
  59.3174841  75.5235637  37.3450847  60.3483771  74.4623868  37.6660872
  56.9310565  85.3119423  32.1026565  57.1132959  84.4941079  32.5654317
  57.7543551  85.5287115  31.6651455  57.2652730  84.2387608  29.3641613
  57.7940497  83.7280062  28.7511775  57.5280950  83.9230138  30.2287146
  56.0190964  76.0179541  44.4864432  55.3431601  75.9173670  45.1566807
  56.8418598  75.8618754  44.9500429  47.7669823  82.2551477  37.1076947
  48.3523260  81.5095165  37.2404851  47.5694661  82.5655434  37.9913611
  50.6208478  85.2902725  32.1239389  49.9518853  85.7748852  31.6403429
  50.4821348  85.5371945  33.0382768  42.3587478  74.8257077  35.8281390
  42.3971577  74.2920668  36.6218508  41.8527770  74.2992283  35.2092367
  54.7613747  87.3246468  38.7222048  55.3132055  87.4878090  39.4871133
  55.1019940  87.9150906  38.0502072  49.7378240  69.6721618  39.3243932
  49.8019566  70.5336449  38.9121330  49.6745360  69.0595620  38.5916291
  49.2130512  71.7444750  42.9716967  49.8402551  71.3621828  43.5854491
  48.3558431  71.5258952  43.3372659  59.6124621  82.1507726  44.5770702
  60.1564525  82.7637684  44.0825657  59.0311466  82.7087304  45.0937715
  45.9896055  73.5521180  28.9035321  46.2849496  72.6431858  28.8502375
  45.0884091  73.5308919  28.5816324  57.8982134  85.2728444  35.7085730
  57.7733273  84.4718183  35.1996675  58.5561225  85.7674637  35.2199700
  49.5190302  71.6277176  34.8862870  48.7976888  72.2413144  34.7470343
  50.3083558  72.1634941  34.8079516  59.9617042  83.0737464  37.3365280
  59.0147378  82.9542815  37.2643607  60.3099815  82.1859962  37.4191541
  52.3216616  68.9631603  41.1603522  52.8451018  69.2093899  41.9229831
  52.1028949  69.7951637  40.7406659  47.7183897  71.2335277  29.0274646
  47.3896603  70.3532656  28.8449752  48.0723267  71.1782946  29.9151036
  56.9663476  82.8690180  33.5369632  56.8188438  81.9406887  33.7177202
  57.7916969  82.8910271  33.0526707  50.8325720  71.5208247  29.3950124
  51.1721792  72.0494168  28.6728733  51.2797840  71.8588653  30.1708691
  60.5697597  83.6918739  34.6234505  61.4944145  83.4861600  34.4858956
  60.4012901  83.4435140  35.5323846  53.5269161  69.9045298  38.8453192
  53.1865981  69.1053111  39.2473872  52.8208167  70.2047009  38.2730025
  54.1785633  66.9894610  37.2980515  55.0011702  66.5155088  37.1759406
  54.4223696  67.7685094  37.7979202  52.8193867  70.0182869  27.5943417
  53.5402230  70.3964121  27.0907134  52.1959171  70.7371745  27.6978395
  56.9624990  70.7228018  28.5301749  57.1788604  71.6052655  28.2290577
  56.4819057  70.3314231  27.8007391  51.7024211  73.6813731  35.1072494
  51.5568792  73.9954034  35.9996775  51.2249415  74.2998631  34.5543392
  53.5620594  70.6716279  35.1553383  53.5482163  69.7757372  34.8185681
  54.2793022  70.6786943  35.7891669  55.4146725  71.1053619  37.2006511
  55.1564503  72.0270690  37.1990841  54.8831765  70.7084054  37.8906975
  60.3592914  84.2104406  29.9796596  60.5329791  83.6450829  29.2270449
  60.8521805  85.0105301  29.7976086  46.1769873  76.2219075  38.0460155
  45.6323342  76.9978883  38.1780429  47.0549223  76.5689880  37.8879276
  52.9657490  69.5530659  30.4240954  53.0873401  68.6247305  30.6231841
  52.6759532  69.5669345  29.5119269  55.8348681  67.2385569  33.5607673
  55.8570377  67.3024903  32.6059653  56.2516740  66.3990078  33.7548180
  66.2132305  76.9740829  31.5986896  66.6563451  76.2248154  31.2006019
  65.3358815  76.9650965  31.2160628  61.3468086  83.5271171  27.0793495
  62.0418991  84.1477863  27.2980809  61.6891236  82.6766522  27.3545872
  46.9635895  75.3488971  40.9390312  46.2217631  75.4971607  41.5254942
  46.6428640  75.6097237  40.0757061  63.2459509  80.9770876  28.6080825
  63.7710833  81.3158149  27.8830145  63.1581862  80.0417891  28.4243960
  54.9079558  84.8904950  40.7370702  55.2166684  84.6454096  41.6093401
  55.7055040  85.0951588  40.2489572  54.9300170  87.0442859  32.9676078
  54.4905160  86.5519238  33.6608935  55.6808287  86.5015827  32.7268154
  47.4092509  83.2354400  32.9700707  48.2350529  82.9358172  32.5899350
  47.0586561  82.4662023  33.4190495  52.3774042  82.5880868  35.0398380
  51.7554051  81.9251573  34.7400608  53.0478909  82.6142000  34.3572028
  45.6101114  81.1540727  33.9289640  44.7733022  80.7262901  33.7473641
  45.5824759  81.3473170  34.8660431  52.4498570  71.0662656  44.6330886
  52.4986725  71.9424779  44.2508656  52.9921084  70.5240049  44.0602529
  62.9353415  81.6103780  43.9132023  62.1448959  81.5927919  43.3736523
  62.6986770  82.1492073  44.6681060  63.0551290  78.4596246  41.2264752
  63.1049295  78.2946253  42.1680275  62.9465214  77.5923505  40.8362633
  51.9387549  81.1384792  28.5156841  52.0875669  81.8220256  27.8623513
  52.7453993  81.1189882  29.0306296  60.3455053  74.4427174  42.5424058
  61.2464916  74.3033639  42.2508056  60.4203027  74.6081629  43.4822236
  54.6797858  71.8194029  41.3877245  53.8101168  72.1127595  41.1159833
  54.9157338  72.4034474  42.1084508  64.5569487  80.8793188  41.4706773
  64.2654296  81.2423168  42.3070234  63.9441619  80.1660196  41.2920105
  65.7565170  78.4446067  33.9909344  66.5912061  78.8835871  34.1546904
  65.8924298  77.9684721  33.1717589  62.8056675  76.0025802  39.9386831
  63.2810797  76.1953448  39.1305683  61.8822241  76.0584988  39.6930215
  49.6940182  77.1649969  29.5217910  49.4486224  76.2612299  29.7198120
  49.8636097  77.1667120  28.5797388  48.9635830  72.8978327  27.0204071
  48.2705075  72.9722682  26.3644107  48.7187582  72.1338671  27.5425588
  55.4382955  83.6332922  25.9868588  54.8656922  84.2523109  25.5339060
  56.0115748  84.1832284  26.5208510  58.6580214  83.9170072  27.1177170
  59.5910888  83.8515634  27.3210046  58.5703427  84.7526339  26.6591703
  61.2868231  83.2335943  24.0781118  61.2081863  82.8995806  24.9716876
  62.1077898  83.7257711  24.0772590  63.9846422  76.0997682  37.2857437
  63.9522742  75.1613683  37.4717120  64.5947046  76.1781719  36.5523261
  55.8229753  74.9693735  23.3284641  56.7688858  74.8399943  23.3973059
  55.4443998  74.2308397  23.8054069  69.8022972  77.1613689  36.4263473
  70.5326361  76.8998977  36.9871177  69.1929918  76.4242411  36.4665541
  55.7068446  79.0211481  44.7885298  56.6271455  79.1990080  44.9825344
  55.6718029  78.0767526  44.6364997  54.0072670  72.8943711  23.2639526
  53.1004126  72.5976824  23.3402239  54.2848651  72.5973529  22.3973812
  44.9250611  74.2150075  33.7138572  44.6053395  73.3615383  33.4212946
  44.3784039  74.4298653  34.4696540  48.7030518  76.9312516  37.4308079
  48.9216528  77.8629624  37.4496113  49.1156292  76.5720490  38.2162883
  55.6234736  67.4380601  29.4183767  54.8135464  67.0927686  29.7939013
  56.3119153  67.1288145  30.0071379  53.5758384  72.5045721  46.8210828
  53.4755110  73.4540078  46.7522919  53.3579926  72.1763960  45.9486898
  52.7771455  69.7530647  23.4051505  53.6390619  70.0785545  23.6647322
  52.9621799  68.9662142  22.8924571  44.7938871  77.8352986  35.6831694
  44.1002342  77.4206939  35.1701648  45.5411862  77.8773523  35.0865113
  53.4389654  75.9342860  45.6375889  52.9556735  76.7343220  45.8439778
  53.5250593  75.9450805  44.6843333  46.7075613  77.7671240  33.5597709
  46.6846301  77.8658927  32.6079592  47.0176250  78.6136391  33.8814875
  49.3662991  79.8247395  37.6744323  50.3206245  79.7931337  37.6074255
  49.1675515  79.3638019  38.4894549  49.9562373  78.3948511  40.2415121
  50.7755262  78.8892590  40.2649958  50.2299181  77.4780479  40.2132688
  47.7213220  85.3667015  34.6914521  47.5867688  84.6067415  34.1252519
  47.3045282  86.0907914  34.2243310  58.8572183  80.5503938  23.6991096
  59.5608033  80.7553941  24.3148752  58.1334832  81.1180700  23.9640180
  59.6869993  76.3013799  29.8193366  59.6305195  76.7582351  28.9800999
  60.2398336  75.5404484  29.6416209  50.8782346  86.2636332  34.9032964
  50.7614730  87.2081764  34.8011654  50.0574792  85.9609893  35.2918763
  60.7658880  80.9886467  25.7489556  61.6004484  80.5567666  25.5667031
  60.6043223  80.8168481  26.6766451  60.4204772  77.4918581  27.1145896
  60.3653576  77.3262852  26.1734340  59.7950828  78.1994613  27.2708085
  45.2097287  72.7286645  40.9407318  45.8556151  72.2185599  41.4294543
  45.0014439  73.4655327  41.5150743  57.7350680  79.7967492  46.4399458
  58.6041839  79.9708145  46.0786093  57.2557431  80.6161909  46.3175188
  53.7300898  66.9926690  26.6931214  53.7179568  67.9368529  26.8499485
  54.6224320  66.8096835  26.3990675  51.9036860  86.9164593  38.1188892
  52.8064107  86.9488204  38.4355387  51.6774230  85.9865044  38.1335228
  53.6590462  85.6695580  34.7798971  52.7086093  85.6697442  34.6663343
  53.9622948  84.9228315  34.2635005  49.5494778  69.8754262  45.0382332
  50.4126240  69.5191067  45.2485657  48.9760189  69.5368157  45.7257736
  69.3943155  91.5056118  35.8444733  70.0321565  91.3862866  35.1408073
  69.2763998  92.4536962  35.9032685  66.2032862  91.4583546  35.7806258
  65.8651373  91.3424611  34.8926793  67.0722630  91.0574712  35.7607264
  62.0619677  93.3119023  31.7703149  61.4984542  93.2208960  31.0019436
  61.9472072  92.4918927  32.2505641  66.6852645  92.6118398  41.7392463
  66.6741285  92.2171196  40.8672967  66.8473284  91.8784471  42.3326235
  59.6084109  94.8070214  34.6087369  60.4005401  94.4661039  34.1933668
  59.8480759  94.9165190  35.5289522  67.6419236  96.9789991  27.0817614
  66.9907216  97.5644071  26.6951627  68.4363599  97.5096186  27.1412651
  61.5674863  94.0679128  27.4804748  62.3405739  93.5208115  27.3417624
  61.9200262  94.9323377  27.6919209  63.4059906  95.3955510  40.6871647
  63.1149772  96.3001141  40.5718314  64.0416890  95.4372038  41.4015717
  64.3316113  92.7732359  37.2773007  64.9279685  92.5488381  36.5629970
  64.3891084  92.0317104  37.8798455  63.9041141  90.2271794  25.1123198
  64.1566662  89.7053315  24.3506661  62.9665700  90.0637939  25.2149881
  68.9484424  89.2307572  32.9197941  69.7347513  88.8126995  32.5688358
  69.2123128  90.1353664  33.0879589  69.1194501  94.6680423  27.6186598
  68.4840334  94.7415049  28.3307503  68.7891908  95.2574021  26.9405677
  74.3492851  89.1682805  33.8230920  75.0818023  88.5982022  34.0568749
  73.5932207  88.7804406  34.2637425  63.6237430  92.1299900  27.3147573
  63.5073688  91.4544803  27.9828657  63.7339690  91.6432274  26.4979726
  65.9668971  91.5910047  31.0194262  65.6027178  91.0640668  31.7307184
  66.8236087  91.2008516  30.8460747  71.8718271  82.8804380  38.2825528
  71.5401596  83.7499790  38.0586743  71.2763885  82.5640664  38.9619559
  65.6074458  86.6199947  26.0155611  65.7748860  87.4880183  26.3826082
  65.4171627  86.7827228  25.0916900  68.3649791  95.0816926  37.6821441
  68.0650514  95.9841964  37.5737248  68.0200850  94.8149109  38.5342594
  61.8162272  91.5330722  33.7158145  60.8912769  91.4006936  33.9235837
  62.0646686  92.3124942  34.2128088  71.7646935  87.5999466  35.3618878
  70.8563812  87.5314874  35.0677639  71.7134530  88.0771411  36.1900704
  65.5863679  89.0757604  27.0002277  65.4663304  89.5214655  27.8387758
  64.8916267  89.4242922  26.4415816  59.1771083  91.1763996  34.5501934
  59.3063465  91.4298475  35.4641346  58.4968535  91.7691704  34.2306590
  63.3470571 101.8461246  30.6492409  63.2694600 102.7969071  30.7280889
  62.7432214 101.5007118  31.3067335  65.8387800  89.0189111  43.3053776
  65.0621134  89.5783031  43.2956640  66.4778363  89.5045894  43.8268646
  73.6308581  85.8015904  37.1396752  72.9882961  86.0948437  36.4936547
  73.1263510  85.6868824  37.9449949  71.2848745  89.5479077  27.8282611
  72.1966601  89.7806464  27.6530309  70.7758392  90.1316122  27.2657690
  64.0934173  91.8274565  42.8671743  64.8348857  92.3659609  42.5906566
  63.3871158  92.4540853  43.0243294  69.5689512  93.9703705  41.4643904
  69.9772868  93.5286116  40.7198536  68.8466774  93.3956333  41.7178097
  65.9220582  88.9076312  38.8377461  66.7681778  89.3315725  38.9812110
  65.8619220  88.2509936  39.5316024  69.8918327  94.5304896  35.2196193
  69.2627189  94.6950610  34.5172261  69.5043989  94.9446505  35.9907157
  73.7707559  95.4659334  32.5740557  73.0858597  95.8458235  32.0237590
  73.8551408  96.0754660  33.3072504  69.0720028  86.5680680  40.4958635
  68.8280960  87.3222741  39.9592910  69.3479958  86.9466028  41.3305882
  71.0258491  93.1119293  39.1735900  71.2375386  93.7551053  38.4970281
  70.9788239  92.2781609  38.7057830  68.6284719  85.7237113  36.0772472
  67.7669199  86.0218367  36.3689210  68.6547154  85.9407512  35.1453505
  65.4446289  94.2679304  32.4846278  65.9084634  94.5467007  31.6950901
  65.1803087  93.3662748  32.3019369  62.3370370  93.8150785  35.4226041
  62.9071727  94.2438054  34.7843526  62.9278482  93.5333370  36.1210227
  64.3815175  90.3902456  29.2935843  65.0839218  90.8423500  29.7609770
  64.0495803  89.7486275  29.9215736  62.8295536  88.9814213  43.6687053
  62.1994197  89.6630494  43.9022449  62.7231624  88.8697294  42.7240191
  58.1240509  88.6486009  34.5952977  57.3339563  88.9043537  34.1193087
  58.6151756  89.4634347  34.7005017  72.1404318  95.9891248  37.3458258
  72.9621762  95.5871435  37.0640939  72.1366721  95.8859482  38.2974373
  60.0755254  89.0130588  31.5536453  59.2786418  89.1249282  32.0719949
  59.8480846  89.3517240  30.6877344  65.9060922  95.5375291  39.5018968
  65.9705354  95.9995699  40.3377140  65.1971846  94.9072656  39.6301278
  56.4078212  88.9016499  37.0267968  56.6586250  89.7863509  37.2925543
  56.9437760  88.7221101  36.2543059  80.2310312  92.3329997  33.6943229
  79.4774020  91.7637395  33.5387233  80.3657853  92.2992661  34.6413864
  65.6208940  97.2043399  29.3697948  65.4854614  98.0494935  29.7982796
  66.1618752  97.4062676  28.6063882  62.1076279  83.2834979  46.0312304
  61.7143225  82.7301177  46.7059948  62.9242420  83.5945557  46.4218821
  59.0738337  94.7218837  29.9425873  59.5862858  95.5162087  30.0931438
  59.7261050  94.0245127  29.8759475  60.8833222  97.8384593  32.0248627
  61.0599850  98.7602558  31.8369611  61.6790055  97.5243012  32.4543006
  65.0244240  84.6992858  43.6232560  65.7653954  85.3000011  43.5437023
  65.2562163  83.9570496  43.0650603  60.1685578  89.8849225  41.9010790
  60.0539093  88.9834482  42.2017889  59.3130096  90.1312922  41.5495606
  67.2477416  97.8266965  43.4998290  66.8041270  97.0403344  43.1819195
  67.9094630  98.0146116  42.8342181  62.0064537  99.3562767  38.0258969
  62.5571962  99.2279830  37.2535963  61.1676013  99.6557656  37.6753862
  69.3458654  98.1069765  41.5279692  69.3277129  98.9278646  41.0359961
  70.2678574  97.9823840  41.7529833  65.8031708  95.6213895  42.3703200
  66.3360045  94.8602183  42.1402508  65.2745789  95.3287547  43.1127355
  68.9701403  80.7273961  37.8996842  68.6265673  81.6175602  37.8235952
  69.3380366  80.5375618  37.0366427  57.0387254  93.0507491  30.7185444
  57.8762476  93.4604500  30.5019152  57.2165521  92.1106933  30.6885638
  68.9351686  90.7182572  26.4069277  68.4198309  91.4887176  26.6457664
  68.6628994  90.0447708  27.0302338  66.5198797  85.5632273  31.4654515
  65.6640393  85.1739123  31.2860154  66.9325749  85.6424233  30.6054301
  68.0497944  83.0978616  35.8646075  67.5462739  83.0608751  35.0513880
  68.3428550  84.0071359  35.9242732  64.2940829  83.1817346  34.8712257
  65.1593826  82.9860154  34.5118146  64.3618338  82.9527697  35.7981614
  73.9085960  93.4714926  28.3422450  73.1315403  93.1326086  27.8977613
  74.5877441  93.4767550  27.6677415  68.7237989  88.5909664  28.2329058
  68.4188125  88.9055813  29.0839201  69.6768431  88.6691084  28.2756391
  67.1684421  94.7499887  29.8822012  66.6405782  94.0152647  29.5695250
  66.6671924  95.5274564  29.6361980  72.1477267  92.9448908  34.9989058
  71.4900941  93.6348169  35.0869187  72.9517666  93.3345340  35.3423045
  61.9003148  85.4119554  32.2428624  62.4746900  85.1894735  31.5101817
  62.4874131  85.4808248  32.9957225  70.9582726  91.2993280  33.0493000
  71.4714607  91.9323272  33.5514710  71.6083950  90.6994476  32.6836360
  62.2272736  87.4424015  26.2624509  61.3910048  87.7798701  26.5833784
  62.0877505  87.3072994  25.3251646  64.2025816  82.2860802  30.9703693
  63.5490229  81.9709820  30.3460308  64.1606290  81.6636543  31.6963516
  65.3137021  92.5680097  22.8856985  64.4064083  92.3369351  23.0848134
  65.8108053  91.7717717  23.0730967  68.2205100 101.2777605  25.8053671
  67.5466799 101.5809301  26.4138629  68.6070922 102.0806685  25.4559128
  67.4363557  88.7742736  35.2951341  66.5186118  88.9957683  35.1373029
  67.8523700  88.8489046  34.4363048  68.2198604  90.1734152  30.4254021
  68.9670423  90.6855549  30.1161143  68.4890194  89.8518204  31.2858415
  66.4925254  92.6692692  27.4080975  65.5836474  92.3851725  27.5053445
  66.5220338  93.0891771  26.5484282  71.7244522  96.2799282  31.1772143
  71.2706849  95.4390192  31.2337333  71.0938489  96.9160680  31.5146923
  70.6677441  87.2091268  32.4072810  69.9300198  86.6968654  32.7383053
  70.9204215  86.7691649  31.5956087  70.1677461  98.1175779  32.1121961
  70.4600436  98.6780836  31.3934327  70.6776082  98.4104340  32.8675120
  70.7689069  79.9867520  33.0014580  71.0747946  79.1264883  32.7140495
  71.4941674  80.5785140  32.8013573  57.0613425  90.3898206  31.3896177
  56.8637825  89.7967567  30.6647244  56.5060089  90.0850417  32.1072116
  65.0410149  90.2821313  33.5090771  65.0958758  89.3295149  33.4333247
  64.2301351  90.4380752  33.9932069  66.1901342  94.2101436  24.7469054
  65.7520772  93.4937295  24.2874691  66.9311783  94.4377551  24.1854145
  62.9802508  88.8998373  31.2681149  62.1670374  89.1992543  31.6746342
  63.4761503  88.5054061  31.9855632  65.1311086  98.8956130  33.2015414
  65.0887265  99.1216976  32.2723946  66.0473785  98.6619504  33.3501215
  68.5776720  89.3640197  40.0996043  68.9326108  89.5911670  40.9590509
  69.2248851  89.6958574  39.4773299  74.3074457  92.4858633  30.8045372
  74.1692356  92.6760229  29.8766562  73.9510676  93.2478016  31.2613424
  62.4716583  86.4716728  36.8842384  63.1115963  86.3305487  36.1865348
  61.6394114  86.1851242  36.5080986  74.3343837  94.5535160  35.8156644
  74.7680343  94.4610449  36.6639698  75.0475417  94.5292661  35.1776660
  63.2476887  95.7719159  32.9977377  64.0417486  95.2769479  32.7959952
  62.5368579  95.2437022  32.6345082  68.0671732  98.1537254  37.3489744
  68.1208754  98.7228190  38.1167460  67.1986513  98.3239139  36.9843782
  59.5559651  89.9162240  29.0737130  58.6257239  89.8546696  29.2907092
  59.6517123  89.3938193  28.2773771  59.4745200  86.4417053  31.6615371
  59.7352017  87.3562386  31.5524532  60.2962372  85.9741496  31.8111984
  60.9470125  87.8554810  38.8314196  61.6193178  87.6472173  38.1826845
  60.1199911  87.6576896  38.3919428  75.1959386  94.5958861  38.3489529
  75.3895276  95.5004671  38.5948804  75.0960004  94.1366280  39.1828114
  66.8495697  84.4816751  40.8479857  66.2023612  85.1806701  40.7544333
  67.6196712  84.9152895  41.2156105  70.2574495  94.7465603  43.9230410
  70.1060001  94.5176155  43.0060494  70.2479174  95.7036205  43.9361755
  67.0259831  92.3197516  38.9076676  67.9551891  92.4708676  38.7345644
  66.6050861  92.4081537  38.0525323  65.8248163  96.3448181  36.6775214
  65.6859249  95.9766965  37.5501152  65.0362759  96.8595820  36.5059172
  66.4196315 101.4457277  28.0200750  66.5948071 100.9745320  28.8346373
  65.7329103 102.0723043  28.2482011  67.3753378  95.7229783  34.0664052
  67.0403211  95.6830553  34.9621702  66.8757324  95.0574499  33.5934462
  61.3497622  91.1297413  39.5916633  61.2117420  90.3977652  40.1928172
  62.2602546  91.0406313  39.3100821  70.3112570  93.0685818  24.3401111
  69.6941741  92.3432646  24.2434164  69.8429058  93.8295178  23.9968186
  63.9779923  90.8417373  39.0800313  64.6879541  90.2010565  39.0386931
  63.9349231  91.0930268  40.0026493  71.9666702  97.7784726  42.0006892
  71.9079248  97.0943946  41.3337475  72.3686220  98.5203716  41.5487518
  62.6908857  87.8282591  40.8995952  62.1546214  87.3773329  41.5517548
  62.1025565  87.9628499  40.1566416  60.9857400 104.5946640  34.7940611
  61.2253999 105.2265164  35.4719629  60.1426597 104.2434680  35.0805970
  62.1011116  87.2871242  23.4622416  61.2240582  87.1660043  23.0984662
  62.5768869  86.4957320  23.2101304  71.9684109  95.7424310  40.2320871
  71.0810888  95.4050232  40.3547270  72.5382660  95.0107341  40.4689637
  53.6213256  92.0748402  33.5563923  54.3084296  91.7610132  32.9684938
  53.4661385  92.9789766  33.2831174  58.4247978  86.9638598  37.9848947
  58.3406167  86.3564268  37.2499356  57.6030684  87.4547617  37.9858443
  65.4985262 100.4025762  37.1982115  65.4255434 101.2080734  37.7101419
  65.0562655 100.6017728  36.3730136  65.2875042  99.6397532  30.7084936
  64.5042564 100.1819213  30.8023161  65.9867787 100.1571512  31.1079177
  68.5971692  85.4492162  33.3519142  69.0940392  84.6962124  33.0320212
  67.8258673  85.4856478  32.7862351  76.4501449  91.1532527  34.9937433
  76.4391326  92.0357243  34.6231366  75.5818829  90.8004078  34.7991970
  67.9583946 100.3012596  39.3540273  68.6711918 100.9360061  39.2816175
  67.4673974 100.3976462  38.5380275  69.6801473  94.2063849  30.9257565
  68.7457751  94.3265311  30.7562269  69.8578141  93.3036316  30.6617575
  65.1806661  87.5909545  33.0790826  64.8104448  87.0380585  33.7671732
  65.6765753  86.9867678  32.5265826  73.0674024  90.0481168  31.4607599
  73.5334476  90.8809160  31.3867902  73.5181525  89.5826150  32.1652858
  63.0095859  98.0507040  40.1745844  63.7105319  98.6843523  40.3275238
  62.5390974  98.3921771  39.4141483  71.1350255  96.3924990  28.4593751
  71.4110099  96.2781584  29.3687625  70.2654754  95.9942474  28.4205924
  71.0390687  82.4161755  35.4998500  70.1253767  82.6465982  35.6680707
  71.4683788  82.5000199  36.3512533  70.8097145  90.6051647  37.9998394
  70.1568595  90.8527555  37.3450847  71.1877525  89.7915785  37.6660872
  67.7704319 100.6411340  32.1026565  67.9526714  99.8232996  32.5654317
  68.5937305 100.8579033  31.6651455  68.1046485  99.5679526  29.3641613
  68.6334251  99.0571980  28.7511775  68.3674704  99.2522056  30.2287146
  66.8584718  91.3471458  44.4864432  66.1825355  91.2465588  45.1566807
  67.6812352  91.1910672  44.9500429  58.6063577  97.5843395  37.1076947
  59.1917014  96.8387083  37.2404851  58.4088416  97.8947352  37.9913611
  61.4602233 100.6194642  32.1239389  60.7912608 101.1040770  31.6403429
  61.3215102 100.8663863  33.0382768  53.1981232  90.1548995  35.8281390
  53.2365332  89.6212586  36.6218508  52.6921525  89.6284201  35.2092367
  65.6007501 102.6538386  38.7222048  66.1525809 102.8170007  39.4871133
  65.9413695 103.2442824  38.0502072  60.5771994  85.0013536  39.3243932
  60.6413321  85.8628366  38.9121330  60.5139115  84.3887537  38.5916291
  60.0524267  87.0736668  42.9716967  60.6796306  86.6913745  43.5854491
  59.1952186  86.8550870  43.3372659  70.4518375  97.4799643  44.5770702
  70.9958279  98.0929602  44.0825657  69.8705220  98.0379222  45.0937715
  56.8289810  88.8813097  28.9035321  57.1243251  87.9723776  28.8502375
  55.9277845  88.8600837  28.5816324  68.7375888 100.6020361  35.7085730
  68.6127028  99.8010101  35.1996675  69.3954980 101.0966555  35.2199700
  60.3584057  86.9569094  34.8862870  59.6370642  87.5705062  34.7470343
  61.1477312  87.4926859  34.8079516  70.8010797  98.4029381  37.3365280
  69.8541132  98.2834733  37.2643607  71.1493570  97.5151879  37.4191541
  63.1610370  84.2923520  41.1603522  63.6844772  84.5385817  41.9229831
  62.9422703  85.1243555  40.7406659  58.5577651  86.5627195  29.0274646
  58.2290357  85.6824574  28.8449752  58.9117022  86.5074864  29.9151036
  67.8057230  98.1982098  33.5369632  67.6582193  97.2698805  33.7177202
  68.6310724  98.2202188  33.0526707  61.6719474  86.8500165  29.3950124
  62.0115547  87.3786086  28.6728733  62.1191595  87.1880571  30.1708691
  71.4091352  99.0210656  34.6234505  72.3337899  98.8153518  34.4858956
  71.2406655  98.7727057  35.5323846  64.3662915  85.2337215  38.8453192
  64.0259736  84.4345028  39.2473872  63.6601921  85.5338926  38.2730025
  65.0179387  82.3186528  37.2980515  65.8405456  81.8447006  37.1759406
  65.2617451  83.0977012  37.7979202  63.6587622  85.3474786  27.5943417
  64.3795984  85.7256039  27.0907134  63.0352926  86.0663663  27.6978395
  67.8018744  86.0519935  28.5301749  68.0182359  86.9344573  28.2290577
  67.3212812  85.6606149  27.8007391  62.5417966  89.0105648  35.1072494
  62.3962547  89.3245952  35.9996775  62.0643169  89.6290549  34.5543392
  64.4014349  86.0008196  35.1553383  64.3875917  85.1049290  34.8185681
  65.1186777  86.0078860  35.7891669  66.2540479  86.4345537  37.2006511
  65.9958257  87.3562607  37.1990841  65.7225520  86.0375971  37.8906975
  71.1986668  99.5396324  29.9796596  71.3723546  98.9742746  29.2270449
  71.6915559 100.3397219  29.7976086  57.0163628  91.5510993  38.0460155
  56.4717096  92.3270801  38.1780429  57.8942978  91.8981797  37.8879276
  63.8051245  84.8822577  30.4240954  63.9267156  83.9539223  30.6231841
  63.5153287  84.8961263  29.5119269  66.6742435  82.5677487  33.5607673
  66.6964132  82.6316820  32.6059653  67.0910494  81.7281996  33.7548180
  77.0526059  92.3032747  31.5986896  77.4957205  91.5540072  31.2006019
  76.1752570  92.2942883  31.2160628  72.1861841  98.8563088  27.0793495
  72.8812745  99.4769781  27.2980809  72.5284991  98.0058439  27.3545872
  57.8029650  90.6780889  40.9390312  57.0611386  90.8263524  41.5254942
  57.4822394  90.9389155  40.0757061  74.0853264  96.3062794  28.6080825
  74.6104588  96.6450066  27.8830145  73.9975616  95.3709809  28.4243960
  65.7473312 100.2196867  40.7370702  66.0560439  99.9746014  41.6093401
  66.5448794 100.4243506  40.2489572  65.7693925 102.3734777  32.9676078
  65.3298915 101.8811156  33.6608935  66.5202041 101.8307745  32.7268154
  58.2486264  98.5646318  32.9700707  59.0744283  98.2650090  32.5899350
  57.8980315  97.7953940  33.4190495  63.2167797  97.9172786  35.0398380
  62.5947806  97.2543491  34.7400608  63.8872664  97.9433918  34.3572028
  56.4494869  96.4832644  33.9289640  55.6126777  96.0554819  33.7473641
  56.4218514  96.6765088  34.8660431  63.2892324  86.3954574  44.6330886
  63.3380480  87.2716697  44.2508656  63.8314838  85.8531967  44.0602529
  73.7747170  96.9395697  43.9132023  72.9842714  96.9219836  43.3736523
  73.5380524  97.4783991  44.6681060  73.8945045  93.7888164  41.2264752
  73.9443050  93.6238171  42.1680275  73.7858968  92.9215423  40.8362633
  62.7781304  96.4676709  28.5156841  62.9269424  97.1512174  27.8623513
  63.5847747  96.4481799  29.0306296  71.1848807  89.7719092  42.5424058
  72.0858670  89.6325557  42.2508056  71.2596782  89.9373547  43.4822236
  65.5191613  87.1485947  41.3877245  64.6494922  87.4419513  41.1159833
  65.7551093  87.7326392  42.1084508  75.3963242  96.2085105  41.4706773
  75.1048050  96.5715086  42.3070234  74.7835373  95.4952114  41.2920105
  76.5958924  93.7737985  33.9909344  77.4305815  94.2127789  34.1546904
  76.7318053  93.2976638  33.1717589  73.6450430  91.3317720  39.9386831
  74.1204552  91.5245366  39.1305683  72.7215995  91.3876906  39.6930215
  60.5333937  92.4941887  29.5217910  60.2879978  91.5904217  29.7198120
  60.7029851  92.4959037  28.5797388  68.2230646  83.3665563  38.9042665
  68.7412590  84.1026590  38.5789154  67.8685779  83.6729557  39.7389424
  59.8029584  88.2270245  27.0204071  59.1098829  88.3014600  26.3644107
  59.5581336  87.4630588  27.5425588  68.4743241  79.7865846  34.4243562
  68.7544994  79.1189035  35.0503988  69.2593848  79.9794942  33.9118226
  66.2776709  98.9624840  25.9868588  65.7050676  99.5815027  25.5339060
  66.8509503  99.5124202  26.5208510  72.3452099  88.2083480  38.1715137
  73.2969522  88.3081578  38.1927361  72.1755549  87.4161749  38.6813221
  70.3666478  85.2939063  38.3574538  69.7716411  85.5744076  37.6621026
  70.0816175  85.7832964  39.1291279  69.4973969  99.2461990  27.1177170
  70.4304642  99.1807552  27.3210046  69.4097182 100.0818257  26.6591703
  72.1261986  98.5627860  24.0781118  72.0475617  98.2287724  24.9716876
  72.9471652  99.0549628  24.0772590  74.8240177  91.4289600  37.2857437
  74.7916497  90.4905600  37.4717120  75.4340800  91.5073636  36.5523261
  66.6623508  90.2985653  23.3284641  67.6082612  90.1691861  23.3973059
  66.2837753  89.5600315  23.8054069  74.9734665  88.2200643  37.3315720
  74.4573714  87.4359100  37.1445649  75.8574614  87.8919360  37.4962239
  72.6345392  81.9641659  33.2911532  72.4370213  81.6556747  34.1754864
  73.2445098  82.6903298  33.4209462  80.6416727  92.4905606  36.4263473
  81.3720115  92.2290895  36.9871177  80.0323672  91.7534328  36.4665541
  78.7232024  90.6313469  37.0237925  77.9965187  90.4969434  36.4154416
  78.3079311  90.9390298  37.8294643  66.5462200  94.3503399  44.7885298
  67.4665210  94.5281998  44.9825344  66.5111783  93.4059444  44.6364997
  64.8466425  88.2235629  23.2639526  63.9397880  87.9268742  23.3402239
  65.1242406  87.9265447  22.3973812  55.7644365  89.5441992  33.7138572
  55.4447149  88.6907301  33.4212946  55.2177793  89.7590571  34.4696540
  59.5424273  92.2604433  37.4308079  59.7610282  93.1921541  37.4496113
  59.9550047  91.9012408  38.2162883  66.4628490  82.7672519  29.4183767
  65.6529219  82.4219604  29.7939013  67.1512907  82.4580062  30.0071379
  68.3919039  81.8450566  31.0408064  68.9450077  82.2646019  31.6998087
  68.6289125  80.9186314  31.0831020  64.4152138  87.8337639  46.8210828
  64.3148865  88.7831996  46.7522919  64.1973680  87.5055878  45.9486898
  63.6165209  85.0822564  23.4051505  64.4784373  85.4077463  23.6647322
  63.8015554  84.2954060  22.8924571  55.6332625  93.1644904  35.6831694
  54.9396097  92.7498857  35.1701648  56.3805616  93.2065440  35.0865113
  71.7697846  83.9551091  30.5486728  71.1896515  84.6135895  30.1664780
  71.5033779  83.1328435  30.1374146  70.2201412  83.3556148  32.7508048
  70.7201191  83.4672683  31.9422367  70.8637020  83.0517201  33.3908857
  64.2783408  91.2634778  45.6375889  63.7950490  92.0635138  45.8439778
  64.3644347  91.2742723  44.6843333  57.5469368  93.0963158  33.5597709
  57.5240056  93.1950845  32.6079592  57.8570004  93.9428308  33.8814875
  60.2056746  95.1539313  37.6744323  61.1599999  95.1223255  37.6074255
  60.0069269  94.6929936  38.4894549  60.7956128  93.7240429  40.2415121
  61.6149017  94.2184507  40.2649958  61.0692935  92.8072397  40.2132688
  70.5522724  86.1151181  29.6043076  69.6648579  86.4000832  29.3863271
  70.9676713  85.9544944  28.7570353  73.9037260  86.1397702  33.3197416
  74.6797650  86.6294154  33.5922032  73.1785394  86.5655756  33.7769285
  76.3409819  86.8525321  34.3771356  76.9354309  86.6121057  33.6664664
  76.4136402  86.1332452  35.0044892  58.5606974 100.6958932  34.6914521
  58.4261442  99.9359333  34.1252519  58.1439037 101.4199832  34.2243310
  69.6965937  95.8795856  23.6991096  70.4001787  96.0845858  24.3148752
  68.9728586  96.4472618  23.9640180  70.5263748  91.6305717  29.8193366
  70.4698949  92.0874268  28.9800999  71.0792090  90.8696402  29.6416209
  74.3368554  87.4195449  30.6443486  74.0805488  87.0192085  31.4751694
  73.7121422  88.1339243  30.5193625  78.6480891  90.1591522  33.1514777
  78.0880449  90.2284711  33.9246339  78.0424395  89.9832507  32.4314274
  61.7176100 101.5928249  34.9032964  61.6008484 102.5373682  34.8011654
  60.8968546 101.2901811  35.2918763  71.6052635  96.3178385  25.7489556
  72.4398239  95.8859583  25.5667031  71.4436978  96.1460399  26.6766451
  71.2598527  92.8210498  27.1145896  71.2047331  92.6554770  26.1734340
  70.6344582  93.5286531  27.2708085  56.0491042  88.0578563  40.9407318
  56.6949906  87.5477517  41.4294543  55.8408193  88.7947244  41.5150743
  68.5744434  95.1259410  46.4399458  69.4435594  95.3000062  46.0786093
  68.0951186  95.9453827  46.3175188  64.5694652  82.3218607  26.6931214
  64.5573322  83.2660447  26.8499485  65.4618074  82.1388753  26.3990675
  62.7430614 102.2456511  38.1188892  63.6457861 102.2780121  38.4355387
  62.5167984 101.3156962  38.1335228  64.4984216 100.9987498  34.7798971
  63.5479847 100.9989359  34.6663343  64.8016702 100.2520232  34.2635005
  68.3846772  78.9161384  30.9477151  67.6179168  78.3619871  31.0933833
  68.7957477  78.9883253  31.8091302  60.3888533  85.2046180  45.0382332
  61.2519994  84.8482985  45.2485657  59.8153944  84.8660075  45.7257736
  80.2336910 106.8348036  35.8444733  80.8715320 106.7154783  35.1408073
  80.1157753 107.7828880  35.9032685  77.0426616 106.7875464  35.7806258
  76.7045128 106.6716529  34.8926793  77.9116384 106.3866629  35.7607264
  72.9013432 108.6410941  31.7703149  72.3378297 108.5500878  31.0019436
  72.7865827 107.8210845  32.2505641  77.5246399 107.9410316  41.7392463
  77.5135040 107.5463114  40.8672967  77.6867039 107.2076388  42.3326235
  70.4477864 110.1362132  34.6087369  71.2399156 109.7952957  34.1933668
  70.6874514 110.2457107  35.5289522  78.4812991 112.3081908  27.0817614
  77.8300970 112.8935989  26.6951627  79.2757353 112.8388103  27.1412651
  72.4068618 109.3971045  27.4804748  73.1799494 108.8500033  27.3417624
  72.7594017 110.2615295  27.6919209  74.2453660 110.7247428  40.6871647
  73.9543526 111.6293059  40.5718314  74.8810645 110.7663955  41.4015717
  75.1709867 108.1024276  37.2773007  75.7673439 107.8780299  36.5629970
  75.2284839 107.3609022  37.8798455  74.7434896 105.5563712  25.1123198
  74.9960416 105.0345233  24.3506661  73.8059455 105.3929857  25.2149881
  79.7878178 104.5599490  32.9197941  80.5741268 104.1418913  32.5688358
  80.0516883 105.4645582  33.0879589  79.9588256 109.9972340  27.6186598
  79.3234089 110.0706967  28.3307503  79.6285662 110.5865939  26.9405677
  85.1886605 104.4974723  33.8230920  85.9211777 103.9273940  34.0568749
  84.4325961 104.1096324  34.2637425  74.4631184 107.4591817  27.3147573
  74.3467442 106.7836721  27.9828657  74.5733444 106.9724191  26.4979726
  76.8062725 106.9201965  31.0194262  76.4420932 106.3932586  31.7307184
  77.6629841 106.5300434  30.8460747  82.7112026  98.2096297  38.2825528
  82.3795351  99.0791708  38.0586743  82.1157639  97.8932581  38.9619559
  76.4468212 101.9491864  26.0155611  76.6142615 102.8172101  26.3826082
  76.2565381 102.1119146  25.0916900  79.2043545 110.4108843  37.6821441
  78.9044268 111.3133882  37.5737248  78.8594605 110.1441026  38.5342594
  72.6556027 106.8622640  33.7158145  71.7306523 106.7298854  33.9235837
  72.9040440 107.6416859  34.2128088  82.6040689 102.9291383  35.3618878
  81.6957566 102.8606792  35.0677639  82.5528285 103.4063328  36.1900704
  76.4257433 104.4049522  27.0002277  76.3057058 104.8506573  27.8387758
  75.7310021 104.7534839  26.4415816  70.0164838 106.5055914  34.5501934
  70.1457219 106.7590393  35.4641346  69.3362289 107.0983622  34.2306590
  74.1864325 117.1753164  30.6492409  74.1088355 118.1260989  30.7280889
  73.5825969 116.8299036  31.3067335  76.6781555 104.3481029  43.3053776
  75.9014889 104.9074949  43.2956640  77.3172118 104.8337812  43.8268646
  84.4702336 101.1307822  37.1396752  83.8276716 101.4240355  36.4936547
  83.9657264 101.0160742  37.9449949  82.1242499 104.8770995  27.8282611
  83.0360355 105.1098382  27.6530309  81.6152146 105.4608039  27.2657690
  74.9327927 107.1566482  42.8671743  75.6742612 107.6951526  42.5906566
  74.2264913 107.7832771  43.0243294  80.4083267 109.2995623  41.4643904
  80.8166623 108.8578033  40.7198536  79.6860528 108.7248250  41.7178097
  76.7614337 104.2368230  38.8377461  77.6075532 104.6607643  38.9812110
  76.7012975 103.5801854  39.5316024  80.7312082 109.8596813  35.2196193
  80.1020944 110.0242528  34.5172261  80.3437744 110.2738423  35.9907157
  84.6101313 110.7951251  32.5740557  83.9252352 111.1750153  32.0237590
  84.6945163 111.4046578  33.3072504  79.9113782 101.8972598  40.4958635
  79.6674714 102.6514658  39.9592910  80.1873713 102.2757946  41.3305882
  81.8652245 108.4411210  39.1735900  82.0769140 109.0842970  38.4970281
  81.8181993 107.6073527  38.7057830  79.4678474 101.0529031  36.0772472
  78.6062953 101.3510285  36.3689210  79.4940909 101.2699430  35.1453505
  76.2840043 109.5971222  32.4846278  76.7478389 109.8758925  31.6950901
  76.0196841 108.6954666  32.3019369  73.1764124 109.1442703  35.4226041
  73.7465482 109.5729971  34.7843526  73.7672236 108.8625288  36.1210227
  75.2208929 105.7194374  29.2935843  75.9232973 106.1715418  29.7609770
  74.8889558 105.0778193  29.9215736  73.6689291 104.3106131  43.6687053
  73.0387952 104.9922411  43.9022449  73.5625379 104.1989212  42.7240191
  68.9634263 103.9777927  34.5952977  68.1733317 104.2335455  34.1193087
  69.4545511 104.7926264  34.7005017  82.9798073 111.3183166  37.3458258
  83.8015517 110.9163353  37.0640939  82.9760476 111.2151400  38.2974373
  70.9149009 104.3422506  31.5536453  70.1180172 104.4541200  32.0719949
  70.6874601 104.6809158  30.6877344  76.7454676 110.8667209  39.5018968
  76.8099109 111.3287616  40.3377140  76.0365600 110.2364574  39.6301278
  67.2471966 104.2308417  37.0267968  67.4980005 105.1155427  37.2925543
  67.7831515 104.0513019  36.2543059  91.0704066 107.6621914  33.6943229
  90.3167774 107.0929312  33.5387233  91.2051607 107.6284579  34.6413864
  76.4602694 112.5335317  29.3697948  76.3248369 113.3786852  29.7982796
  77.0012507 112.7354594  28.6063882  72.9470034  98.6126896  46.0312304
  72.5536979  98.0593095  46.7059948  73.7636174  98.9237475  46.4218821
  69.9132091 110.0510755  29.9425873  70.4256612 110.8454005  30.0931438
  70.5654804 109.3537045  29.8759475  71.7226976 113.1676511  32.0248627
  71.8993604 114.0894476  31.8369611  72.5183810 112.8534930  32.4543006
  75.8637995 100.0284775  43.6232560  76.6047708 100.6291929  43.5437023
  76.0955918  99.2862413  43.0650603  71.0079333 105.2141143  41.9010790
  70.8932848 104.3126400  42.2017889  70.1523850 105.4604839  41.5495606
  78.0871170 113.1558883  43.4998290  77.6435025 112.3695262  43.1819195
  78.7488384 113.3438034  42.8342181  72.8458292 114.6854685  38.0258969
  73.3965717 114.5571748  37.2535963  72.0069768 114.9849574  37.6753862
  80.1852408 113.4361683  41.5279692  80.1670884 114.2570564  41.0359961
  81.1072329 113.3115758  41.7529833  76.6425463 110.9505812  42.3703200
  77.1753799 110.1894101  42.1402508  76.1139544 110.6579464  43.1127355
  79.8095158  96.0565878  37.8996842  79.4659427  96.9467520  37.8235952
  80.1774120  95.8667536  37.0366427  67.8781008 108.3799409  30.7185444
  68.7156230 108.7896417  30.5019152  68.0559276 107.4398851  30.6885638
  79.7745440 106.0474489  26.4069277  79.2592064 106.8179094  26.6457664
  79.5022749 105.3739626  27.0302338  77.3592551 100.8924190  31.4654515
  76.5034148 100.5031041  31.2860154  77.7719503 100.9716151  30.6054301
  78.8891698  98.4270534  35.8646075  78.3856494  98.3900669  35.0513880
  79.1822305  99.3363276  35.9242732  75.1334584  98.5109263  34.8712257
  75.9987581  98.3152072  34.5118146  75.2012093  98.2819615  35.7981614
  84.7479714 108.8006844  28.3422450  83.9709157 108.4618004  27.8977613
  85.4271195 108.8059467  27.6677415  79.5631744 103.9201582  28.2329058
  79.2581879 104.2347731  29.0839201  80.5162186 103.9983001  28.2756391
  78.0078175 110.0791805  29.8822012  77.4799537 109.3444564  29.5695250
  77.5065678 110.8566481  29.6361980  82.9871021 108.2740825  34.9989058
  82.3294696 108.9640087  35.0869187  83.7911421 108.6637257  35.3423045
  72.7396903 100.7411471  32.2428624  73.3140655 100.5186653  31.5101817
  73.3267885 100.8100166  32.9957225  81.7976480 106.6285198  33.0493000
  82.3108362 107.2615190  33.5514710  82.4477704 106.0286394  32.6836360
  73.0666490 102.7715932  26.2624509  72.2303802 103.1090619  26.5833784
  72.9271260 102.6364912  25.3251646  75.0419571  97.6152720  30.9703693
  74.3883983  97.3001737  30.3460308  75.0000045  96.9928461  31.6963516
  76.1530776 107.8972015  22.8856985  75.2457837 107.6661269  23.0848134
  76.6501808 107.1009634  23.0730967  78.2757311 104.1034654  35.2951341
  77.3579872 104.3249601  35.1373029  78.6917455 104.1780964  34.4363048
  79.0592359 105.5026069  30.4254021  79.8064178 106.0147467  30.1161143
  79.3283948 105.1810122  31.2858415  77.3319009 107.9984610  27.4080975
  76.4230228 107.7143643  27.5053445  77.3614093 108.4183689  26.5484282
  82.5638276 111.6091200  31.1772143  82.1100603 110.7682109  31.2337333
  81.9332243 112.2452598  31.5146923  81.5071196 102.5383186  32.4072810
  80.7693953 102.0260572  32.7383053  81.7597969 102.0983567  31.5956087
  81.0071216 113.4467696  32.1121961  81.2994190 114.0072753  31.3934327
  81.5169836 113.7396257  32.8675120  81.6082823  95.3159438  33.0014580
  81.9141700  94.4556801  32.7140495  82.3335428  95.9077058  32.8013573
  67.9007179 105.7190124  31.3896177  67.7031579 105.1259485  30.6647244
  67.3453843 105.4142334  32.1072116  75.8803903 105.6113231  33.5090771
  75.9352513 104.6587067  33.4333247  75.0695105 105.7672670  33.9932069
  77.0295097 109.5393354  24.7469054  76.5914527 108.8229213  24.2874691
  77.7705538 109.7669469  24.1854145  73.8196263 104.2290290  31.2681149
  73.0064128 104.5284461  31.6746342  74.3155257 103.8345979  31.9855632
  75.9704841 114.2248047  33.2015414  75.9281020 114.4508894  32.2723946
  76.8867540 113.9911422  33.3501215  79.4170475 104.6932115  40.0996043
  79.7719862 104.9203588  40.9590509  80.0642606 105.0250492  39.4773299
  85.1468212 107.8150551  30.8045372  85.0086110 108.0052147  29.8766562
  84.7904430 108.5769934  31.2613424  73.3110338 101.8008646  36.8842384
  73.9509717 101.6597405  36.1865348  72.4787868 101.5143159  36.5080986
  85.1737591 109.8827078  35.8156644  85.6074098 109.7902367  36.6639698
  85.8869172 109.8584578  35.1776660  74.0870642 111.1011076  32.9977377
  74.8811240 110.6061396  32.7959952  73.3762334 110.5728939  32.6345082
  78.9065486 113.4829172  37.3489744  78.9602508 114.0520108  38.1167460
  78.0380267 113.6531057  36.9843782  70.3953405 105.2454158  29.0737130
  69.4650993 105.1838614  29.2907092  70.4910877 104.7230111  28.2773771
  70.3138954 101.7708971  31.6615371  70.5745771 102.6854304  31.5524532
  71.1356126 101.3033413  31.8111984  71.7863879 103.1846728  38.8314196
  72.4586933 102.9764090  38.1826845  70.9593666 102.9868814  38.3919428
  86.0353141 109.9250778  38.3489529  86.2289031 110.8296589  38.5948804
  85.9353759 109.4658197  39.1828114  77.6889451  99.8108669  40.8479857
  77.0417367 100.5098619  40.7544333  78.4590467 100.2444813  41.2156105
  81.0968249 110.0757521  43.9230410  80.9453756 109.8468073  43.0060494
  81.0872929 111.0328123  43.9361755  77.8653586 107.6489434  38.9076676
  78.7945646 107.8000594  38.7345644  77.4444616 107.7373455  38.0525323
  76.6641918 111.6740098  36.6775214  76.5253003 111.3058883  37.5501152
  75.8756514 112.1887738  36.5059172  77.2590070 116.7749195  28.0200750
  77.4341825 116.3037238  28.8346373  76.5722858 117.4014961  28.2482011
  78.2147133 111.0521701  34.0664052  77.8796965 111.0122471  34.9621702
  77.7151078 110.3866417  33.5934462  72.1891377 106.4589331  39.5916633
  72.0511175 105.7269570  40.1928172  73.0996300 106.3698231  39.3100821
  81.1506324 108.3977735  24.3401111  80.5335495 107.6724564  24.2434164
  80.6822813 109.1587096  23.9968186  74.8173677 106.1709290  39.0800313
  75.5273296 105.5302483  39.0386931  74.7742986 106.4222185  40.0026493
  82.8060456 113.1076644  42.0006892  82.7473002 112.4235864  41.3337475
  83.2079974 113.8495634  41.5487518  73.5302611 103.1574508  40.8995952
  72.9939968 102.7065247  41.5517548  72.9419320 103.2920417  40.1566416
  71.8251155 119.9238558  34.7940611  72.0647753 120.5557082  35.4719629
  70.9820351 119.5726598  35.0805970  72.9404870 102.6163160  23.4622416
  72.0634337 102.4951960  23.0984662  73.4162623 101.8249238  23.2101304
  82.8077863 111.0716228  40.2320871  81.9204642 110.7342149  40.3547270
  83.3776414 110.3399259  40.4689637  64.4607010 107.4040319  33.5563923
  65.1478050 107.0902049  32.9684938  64.3055139 108.3081684  33.2831174
  69.2641733 102.2930516  37.9848947  69.1799921 101.6856186  37.2499356
  68.4424439 102.7839534  37.9858443  76.3379017 115.7317680  37.1982115
  76.2649188 116.5372651  37.7101419  75.8956410 115.9309646  36.3730136
  76.1268796 114.9689450  30.7084936  75.3436318 115.5111130  30.8023161
  76.8261542 115.4863430  31.1079177  79.4365446 100.7784079  33.3519142
  79.9334146 100.0254042  33.0320212  78.6652428 100.8148396  32.7862351
  87.2895204 106.4824445  34.9937433  87.2785080 107.3649160  34.6231366
  86.4212583 106.1295996  34.7991970  78.7977700 115.6304514  39.3540273
  79.5105672 116.2651979  39.2816175  78.3067729 115.7268380  38.5380275
  80.5195227 109.5355767  30.9257565  79.5851506 109.6557229  30.7562269
  80.6971896 108.6328233  30.6617575  76.0200415 102.9201462  33.0790826
  75.6498203 102.3672503  33.7671732  76.5159508 102.3159596  32.5265826
  83.9067778 105.3773086  31.4607599  84.3728231 106.2101078  31.3867902
  84.3575279 104.9118068  32.1652858  73.8489614 113.3798957  40.1745844
  74.5499073 114.0135440  40.3275238  73.3784729 113.7213689  39.4141483
  81.9744010 111.7216907  28.4593751  82.2503854 111.6073502  29.3687625
  81.1048508 111.3234392  28.4205924  81.8784441  97.7453673  35.4998500
  80.9647521  97.9757900  35.6680707  82.3077543  97.8292117  36.3512533
  81.6490900 105.9343565  37.9998394  80.9962350 106.1819472  37.3450847
  82.0271280 105.1207703  37.6660872  78.6098074 115.9703258  32.1026565
  78.7920468 115.1524914  32.5654317  79.4331060 116.1870950  31.6651455
  78.9440239 114.8971443  29.3641613  79.4728006 114.3863898  28.7511775
  79.2068459 114.5813973  30.2287146  77.6978473 106.6763376  44.4864432
  77.0219110 106.5757505  45.1566807  78.5206107 106.5202590  44.9500429
  69.4457332 112.9135313  37.1076947  70.0310769 112.1679000  37.2404851
  69.2482170 113.2239269  37.9913611  72.2995987 115.9486560  32.1239389
  71.6306362 116.4332688  31.6403429  72.1608857 116.1955780  33.0382768
  64.0374987 105.4840913  35.8281390  64.0759086 104.9504503  36.6218508
  63.5315279 104.9576118  35.2092367  76.4401256 117.9830303  38.7222048
  76.9919564 118.1461925  39.4871133  76.7807449 118.5734741  38.0502072
  71.4165749 100.3305453  39.3243932  71.4807075 101.1920284  38.9121330
  71.3532869  99.7179455  38.5916291  70.8918021 102.4028586  42.9716967
  71.5190060 102.0205663  43.5854491  70.0345940 102.1842788  43.3372659
  81.2912130 112.8091561  44.5770702  81.8352034 113.4221519  44.0825657
  80.7098975 113.3671139  45.0937715  67.6683564 104.2105015  28.9035321
  67.9637005 103.3015693  28.8502375  66.7671600 104.1892754  28.5816324
  79.5769643 115.9312279  35.7085730  79.4520782 115.1302019  35.1996675
  80.2348734 116.4258472  35.2199700  71.1977811 102.2861011  34.8862870
  70.4764397 102.8996979  34.7470343  71.9871067 102.8218776  34.8079516
  81.6404551 113.7321299  37.3365280  80.6934887 113.6126650  37.2643607
  81.9887324 112.8443797  37.4191541  74.0004125  99.6215438  41.1603522
  74.5238526  99.8677735  41.9229831  73.7816458 100.4535473  40.7406659
  69.3971406 101.8919113  29.0274646  69.0684112 101.0116491  28.8449752
  69.7510776 101.8366781  29.9151036  78.6450985 113.5274015  33.5369632
  78.4975947 112.5990723  33.7177202  79.4704478 113.5494106  33.0526707
  72.5113229 102.1792082  29.3950124  72.8509301 102.7078004  28.6728733
  72.9585349 102.5172488  30.1708691  82.2485106 114.3502574  34.6234505
  83.1731654 114.1445435  34.4858956  82.0800410 114.1018975  35.5323846
  75.2056670 100.5629133  38.8453192  74.8653490  99.7636946  39.2473872
  74.4995676 100.8630844  38.2730025  75.8573142  97.6478445  37.2980515
  76.6799211  97.1738924  37.1759406  76.1011205  98.4268929  37.7979202
  74.4981376 100.6766704  27.5943417  75.2189739 101.0547957  27.0907134
  73.8746680 101.3955581  27.6978395  78.6412499 101.3811853  28.5301749
  78.8576113 102.2636491  28.2290577  78.1606566 100.9898066  27.8007391
  73.3811720 104.3397566  35.1072494  73.2356301 104.6537869  35.9996775
  72.9036924 104.9582466  34.5543392  75.2408103 101.3300114  35.1553383
  75.2269672 100.4341207  34.8185681  75.9580531 101.3370778  35.7891669
  77.0934234 101.7637454  37.2006511  76.8352012 102.6854525  37.1990841
  76.5619274 101.3667889  37.8906975  82.0380423 114.8688241  29.9796596
  82.2117300 114.3034664  29.2270449  82.5309314 115.6689136  29.7976086
  67.8557382 106.8802911  38.0460155  67.3110851 107.6562718  38.1780429
  68.7336732 107.2273715  37.8879276  74.6444999 100.2114494  30.4240954
  74.7660910  99.2831141  30.6231841  74.3547041 100.2253180  29.5119269
  77.5136189  97.8969405  33.5607673  77.5357886  97.9608738  32.6059653
  77.9304249  97.0573913  33.7548180  87.8919814 107.6324664  31.5986896
  88.3350960 106.8831990  31.2006019  87.0146324 107.6234801  31.2160628
  83.0255595 114.1855006  27.0793495  83.7206500 114.8061699  27.2980809
  83.3678745 113.3350357  27.3545872  68.6423404 106.0072807  40.9390312
  67.9005140 106.1555442  41.5254942  68.3216149 106.2681072  40.0757061
  84.9247018 111.6354711  28.6080825  85.4498342 111.9741984  27.8830145
  84.8369371 110.7001727  28.4243960  76.5867067 115.5488785  40.7370702
  76.8954193 115.3037932  41.6093401  77.3842549 115.7535423  40.2489572
  76.6087679 117.7026695  32.9676078  76.1692669 117.2103073  33.6608935
  77.3595796 117.1599662  32.7268154  69.0880018 113.8938236  32.9700707
  69.9138038 113.5942007  32.5899350  68.7374070 113.1245858  33.4190495
  74.0561551 113.2464704  35.0398380  73.4341560 112.5835409  34.7400608
  74.7266418 113.2725836  34.3572028  67.2888623 111.8124562  33.9289640
  66.4520531 111.3846736  33.7473641  67.2612268 112.0057005  34.8660431
  74.1286079 101.7246492  44.6330886  74.1774234 102.6008615  44.2508656
  74.6708593 101.1823885  44.0602529  84.6140924 112.2687615  43.9132023
  83.8236468 112.2511754  43.3736523  84.3774279 112.8075909  44.6681060
  84.7338799 109.1180081  41.2264752  84.7836804 108.9530089  42.1680275
  84.6252723 108.2507340  40.8362633  73.6175058 111.7968627  28.5156841
  73.7663178 112.4804091  27.8623513  74.4241502 111.7773717  29.0306296
  82.0242562 105.1011009  42.5424058  82.9252425 104.9617474  42.2508056
  82.0990536 105.2665464  43.4822236  76.3585367 102.4777864  41.3877245
  75.4888677 102.7711430  41.1159833  76.5944847 103.0618309  42.1084508
  86.2356996 111.5377023  41.4706773  85.9441805 111.9007003  42.3070234
  85.6229127 110.8244031  41.2920105  87.4352679 109.1029903  33.9909344
  88.2699570 109.5419707  34.1546904  87.5711807 108.6268556  33.1717589
  84.4844184 106.6609638  39.9386831  84.9598306 106.8537284  39.1305683
  83.5609750 106.7168823  39.6930215  71.3727691 107.8233805  29.5217910
  71.1273733 106.9196135  29.7198120  71.5423606 107.8250955  28.5797388
  79.0624401  98.6957481  38.9042665  79.5806345  99.4318508  38.5789154
  78.7079534  99.0021474  39.7389424  70.6423339 103.5562162  27.0204071
  69.9492584 103.6306517  26.3644107  70.3975090 102.7922506  27.5425588
  79.3136995  95.1157764  34.4243562  79.5938749  94.4480953  35.0503988
  80.0987602  95.3086859  33.9118226  77.1170464 114.2916758  25.9868588
  76.5444431 114.9106945  25.5339060  77.6903257 114.8416119  26.5208510
  83.1845853 103.5375398  38.1715137  84.1363276 103.6373495  38.1927361
  83.0149304 102.7453666  38.6813221  81.2060233 100.6230981  38.3574538
  80.6110165 100.9035994  37.6621026  80.9209930 101.1124882  39.1291279
  80.3367723 114.5753908  27.1177170  81.2698397 114.5099469  27.3210046
  80.2490936 115.4110175  26.6591703  85.6633931 106.7581517  37.2857437
  85.6310251 105.8197518  37.4717120  86.2734555 106.8365554  36.5523261
  77.5017262 105.6277570  23.3284641  78.4476367 105.4983778  23.3973059
  77.1231507 104.8892232  23.8054069  85.8128420 103.5492561  37.3315720
  85.2967468 102.7651017  37.1445649  86.6968368 103.2211277  37.4962239
  83.4739147  97.2933576  33.2911532  83.2763968  96.9848665  34.1754864
  84.0838852  98.0195215  33.4209462  91.4810481 107.8197524  36.4263473
  92.2113870 107.5582812  36.9871177  90.8717427 107.0826246  36.4665541
  89.5625778 105.9605387  37.0237925  88.8358942 105.8261352  36.4154416
  89.1473065 106.2682215  37.8294643  77.3855955 109.6795316  44.7885298
  78.3058964 109.8573915  44.9825344  77.3505538 108.7351362  44.6364997
  75.6860179 103.5527547  23.2639526  74.7791635 103.2560659  23.3402239
  75.9636160 103.2557365  22.3973812  66.6038120 104.8733910  33.7138572
  66.2840904 104.0199218  33.4212946  66.0571548 105.0882488  34.4696540
  70.3818027 107.5896351  37.4308079  70.6004037 108.5213459  37.4496113
  70.7943801 107.2304325  38.2162883  77.3022245  98.0964436  29.4183767
  76.4922973  97.7511521  29.7939013  77.9906662  97.7871980  30.0071379
  79.2312793  97.1742483  31.0408064  79.7843832  97.5937937  31.6998087
  79.4682880  96.2478231  31.0831020  75.2545892 103.1629557  46.8210828
  75.1542619 104.1123914  46.7522919  75.0367435 102.8347796  45.9486898
  74.4558964 100.4114482  23.4051505  75.3178128 100.7369380  23.6647322
  74.6409308  99.6245978  22.8924571  66.4726380 108.4936822  35.6831694
  65.7789851 108.0790774  35.1701648  67.2199371 108.5357358  35.0865113
  82.6091600  99.2843008  30.5486728  82.0290269  99.9427812  30.1664780
  82.3427533  98.4620353  30.1374146  81.0595167  98.6848066  32.7508048
  81.5594945  98.7964601  31.9422367  81.7030775  98.3809119  33.3908857
  75.1177163 106.5926696  45.6375889  74.6344244 107.3927056  45.8439778
  75.2038102 106.6034641  44.6843333  68.3863122 108.4255075  33.5597709
  68.3633810 108.5242763  32.6079592  68.6963759 109.2720226  33.8814875
  71.0450500 110.4831230  37.6744323  71.9993754 110.4515173  37.6074255
  70.8463024 110.0221854  38.4894549  71.6349882 109.0532346  40.2415121
  72.4542771 109.5476425  40.2649958  71.9086690 108.1364315  40.2132688
  81.3916478 101.4443099  29.6043076  80.5042333 101.7292749  29.3863271
  81.8070467 101.2836862  28.7570353  84.7431015 101.4689620  33.3197416
  85.5191405 101.9586072  33.5922032  84.0179149 101.8947674  33.7769285
  87.1803573 102.1817239  34.3771356  87.7748064 101.9412975  33.6664664
  87.2530157 101.4624370  35.0044892  69.4000729 116.0250850  34.6914521
  69.2655197 115.2651251  34.1252519  68.9832791 116.7491750  34.2243310
  81.3657502 106.9597635  29.8193366  81.3092704 107.4166186  28.9800999
  81.9185845 106.1988319  29.6416209  85.1762308 102.7487367  30.6443486
  84.9199242 102.3484002  31.4751694  84.5515176 103.4631160  30.5193625
  89.4874646 105.4883440  33.1514777  88.9274204 105.5576629  33.9246339
  88.8818149 105.3124424  32.4314274  72.5569855 116.9220167  34.9032964
  72.4402239 117.8665599  34.8011654  71.7362301 116.6193728  35.2918763
  82.4446389 111.6470303  25.7489556  83.2791993 111.2151501  25.5667031
  82.2830732 111.4752316  26.6766451  82.0992281 108.1502416  27.1145896
  82.0441085 107.9846687  26.1734340  81.4738337 108.8578449  27.2708085
  66.8884796 103.3870480  40.9407318  67.5343660 102.8769434  41.4294543
  66.6801948 104.1239162  41.5150743  79.4138189 110.4551328  46.4399458
  80.2829348 110.6291980  46.0786093  78.9344940 111.2745745  46.3175188
  75.4088407  97.6510525  26.6931214  75.3967077  98.5952365  26.8499485
  76.3011829  97.4680670  26.3990675  73.5824369 117.5748429  38.1188892
  74.4851616 117.6072039  38.4355387  73.3561739 116.6448880  38.1335228
  75.3377971 116.3279415  34.7798971  74.3873602 116.3281277  34.6663343
  75.6410457 115.5812150  34.2635005  79.2240526  94.2453302  30.9477151
  78.4572922  93.6911788  31.0933833  79.6351231  94.3175170  31.8091302
  71.2282287 100.5338097  45.0382332  72.0913749 100.1774902  45.2485657
  70.6547698 100.1951992  45.7257736  91.0730664 122.1639954  35.8444733
  91.7109074 122.0446701  35.1408073  90.9551507 123.1120798  35.9032685
  87.8820371 122.1167382  35.7806258  87.5438882 122.0008447  34.8926793
  88.7510139 121.7158547  35.7607264  88.3640154 123.2702234  41.7392463
  88.3528794 122.8755032  40.8672967  88.5260793 122.5368306  42.3326235
  81.2871618 125.4654050  34.6087369  82.0792910 125.1244874  34.1933668
  81.5268268 125.5749025  35.5289522  85.0847415 126.0539345  40.6871647
  84.7937281 126.9584976  40.5718314  85.7204399 126.0955873  41.4015717
  86.0103622 123.4316194  37.2773007  86.6067194 123.2072216  36.5629970
  86.0678593 122.6900939  37.8798455  93.5505780 113.5388215  38.2825528
  93.2189105 114.4083626  38.0586743  92.9551394 113.2224499  38.9619559
  83.4949781 122.1914558  33.7158145  82.5700278 122.0590772  33.9235837
  83.7434195 122.9708777  34.2128088  93.4434444 118.2583301  35.3618878
  92.5351321 118.1898709  35.0677639  93.3922039 118.7355246  36.1900704
  80.8558592 121.8347831  34.5501934  80.9850974 122.0882310  35.4641346
  80.1756044 122.4275539  34.2306590  87.5175309 119.6772947  43.3053776
  86.7408643 120.2366867  43.2956640  88.1565872 120.1629730  43.8268646
  95.3096090 116.4599739  37.1396752  94.6670470 116.7532273  36.4936547
  94.8051019 116.3452660  37.9449949  85.7721682 122.4858400  42.8671743
  86.5136366 123.0243444  42.5906566  85.0658667 123.1124689  43.0243294
  91.2477021 124.6287540  41.4643904  91.6560377 124.1869951  40.7198536
  90.5254283 124.0540168  41.7178097  87.6008091 119.5660147  38.8377461
  88.4469287 119.9899561  38.9812110  87.5406729 118.9093772  39.5316024
  90.7507537 117.2264516  40.4958635  90.5068469 117.9806576  39.9592910
  91.0267467 117.6049863  41.3305882  90.3072228 116.3820949  36.0772472
  89.4456707 116.6802202  36.3689210  90.3334663 116.5991348  35.1453505
  84.0157879 124.4734621  35.4226041  84.5859236 124.9021889  34.7843526
  84.6065991 124.1917205  36.1210227  84.5083045 119.6398048  43.6687053
  83.8781706 120.3214329  43.9022449  84.4019133 119.5281130  42.7240191
  79.8028018 119.3069844  34.5952977  79.0127072 119.5627373  34.1193087
  80.2939265 120.1218182  34.7005017  81.7542763 119.6714423  31.5536453
  80.9573927 119.7833118  32.0719949  81.5268355 120.0101076  30.6877344
  87.5848431 126.1959127  39.5018968  87.6492863 126.6579534  40.3377140
  86.8759355 125.5656492  39.6301278  78.0865721 119.5600335  37.0267968
  78.3373759 120.4447345  37.2925543  78.6225269 119.3804936  36.2543059
  83.7863788 113.9418814  46.0312304  83.3930734 113.3885013  46.7059948
  84.6029929 114.2529393  46.4218821  86.7031749 115.3576693  43.6232560
  87.4441463 115.9583846  43.5437023  86.9349672 114.6154331  43.0650603
  81.8473087 120.5433060  41.9010790  81.7326602 119.6418318  42.2017889
  80.9917605 120.7896757  41.5495606  83.6852046 130.0146602  38.0258969
  84.2359471 129.8863666  37.2535963  82.8463522 130.3141491  37.6753862
  87.4819217 126.2797730  42.3703200  88.0147554 125.5186018  42.1402508
  86.9533298 125.9871382  43.1127355  90.6488912 111.3857796  37.8996842
  90.3053182 112.2759438  37.8235952  91.0167875 111.1959454  37.0366427
  88.1986306 116.2216108  31.4654515  87.3427902 115.8322958  31.2860154
  88.6113258 116.3008069  30.6054301  89.7285452 113.7562451  35.8646075
  89.2250248 113.7192586  35.0513880  90.0216059 114.6655194  35.9242732
  85.9728338 113.8401181  34.8712257  86.8381335 113.6443990  34.5118146
  86.0405847 113.6111533  35.7981614  83.5790657 116.0703389  32.2428624
  84.1534409 115.8478570  31.5101817  84.1661640 116.1392083  32.9957225
  85.8813325 112.9444638  30.9703693  85.2277738 112.6293655  30.3460308
  85.8393799 112.3220378  31.6963516  89.1151066 119.4326571  35.2951341
  88.1973627 119.6541518  35.1373029  89.5311209 119.5072882  34.4363048
  92.4476578 110.6451355  33.0014580  92.7535455 109.7848719  32.7140495
  93.1729183 111.2368975  32.8013573  78.7400934 121.0482042  31.3896177
  78.5425334 120.4551403  30.6647244  78.1847598 120.7434252  32.1072116
  86.7197658 120.9405148  33.5090771  86.7746267 119.9878985  33.4333247
  85.9088860 121.0964587  33.9932069  84.6590017 119.5582208  31.2681149
  83.8457883 119.8576379  31.6746342  85.1549012 119.1637897  31.9855632
  90.2564229 120.0224033  40.0996043  90.6113617 120.2495506  40.9590509
  90.9036360 120.3542409  39.4773299  84.1504092 117.1300564  36.8842384
  84.7903472 116.9889323  36.1865348  83.3181623 116.8435077  36.5080986
  81.1532709 117.1000889  31.6615371  81.4139526 118.0146222  31.5524532
  81.9749881 116.6325331  31.8111984  82.6257634 118.5138646  38.8314196
  83.2980687 118.3056008  38.1826845  81.7987420 118.3160732  38.3919428
  88.5283206 115.1400587  40.8479857  87.8811121 115.8390536  40.7544333
  89.2984221 115.5736731  41.2156105  88.7047340 122.9781352  38.9076676
  89.6339400 123.1292511  38.7345644  88.2838370 123.0665372  38.0525323
  87.5035672 127.0032016  36.6775214  87.3646758 126.6350800  37.5501152
  86.7150268 127.5179655  36.5059172  83.0285131 121.7881249  39.5916633
  82.8904929 121.0561488  40.1928172  83.9390055 121.6990149  39.3100821
  85.6567432 121.5001208  39.0800313  86.3667050 120.8594400  39.0386931
  85.6136740 121.7514103  40.0026493  84.3696366 118.4866426  40.8995952
  83.8333723 118.0357164  41.5517548  83.7813074 118.6212335  40.1566416
  75.3000765 122.7332237  33.5563923  75.9871805 122.4193967  32.9684938
  75.1448894 123.6373602  33.2831174  80.1035487 117.6222434  37.9848947
  80.0193676 117.0148103  37.2499356  79.2818193 118.1131452  37.9858443
  90.2759201 116.1075997  33.3519142  90.7727900 115.3545959  33.0320212
  89.5046182 116.1440314  32.7862351  86.8594170 118.2493380  33.0790826
  86.4891957 117.6964421  33.7671732  87.3553262 117.6451514  32.5265826
  84.6883368 128.7090875  40.1745844  85.3892828 129.3427358  40.3275238
  84.2178483 129.0505607  39.4141483  92.7178196 113.0745591  35.4998500
  91.8041276 113.3049817  35.6680707  93.1471297 113.1584035  36.3512533
  92.4884654 121.2635483  37.9998394  91.8356104 121.5111390  37.3450847
  92.8665034 120.4499621  37.6660872  88.5372227 122.0055294  44.4864432
  87.8612864 121.9049423  45.1566807  89.3599861 121.8494507  44.9500429
  80.2851086 128.2427230  37.1076947  80.8704523 127.4970918  37.2404851
  80.0875925 128.5531187  37.9913611  74.8768741 120.8132830  35.8281390
  74.9152841 120.2796421  36.6218508  74.3709034 120.2868036  35.2092367
  82.2559503 115.6597371  39.3243932  82.3200830 116.5212202  38.9121330
  82.1926624 115.0471373  38.5916291  81.7311776 117.7320503  42.9716967
  82.3583815 117.3497581  43.5854491  80.8739695 117.5134705  43.3372659
  78.5077319 119.5396933  28.9035321  78.8030760 118.6307611  28.8502375
  77.6065354 119.5184672  28.5816324  82.0371566 117.6152929  34.8862870
  81.3158151 118.2288897  34.7470343  82.8264821 118.1510694  34.8079516
  84.8397879 114.9507356  41.1603522  85.3632281 115.1969652  41.9229831
  84.6210212 115.7827390  40.7406659  80.2365160 117.2211030  29.0274646
  79.9077866 116.3408409  28.8449752  80.5904531 117.1658699  29.9151036
  86.0450424 115.8921051  38.8453192  85.7047245 115.0928864  39.2473872
  85.3389430 116.1922762  38.2730025  86.6966896 112.9770363  37.2980515
  87.5192965 112.5030841  37.1759406  86.9404960 113.7560847  37.7979202
  84.2205475 119.6689484  35.1072494  84.0750056 119.9829787  35.9996775
  83.7430678 120.2874384  34.5543392  86.0801858 116.6592032  35.1553383
  86.0663426 115.7633125  34.8185681  86.7974286 116.6662696  35.7891669
  87.9327988 117.0929372  37.2006511  87.6745766 118.0146443  37.1990841
  87.4013029 116.6959807  37.8906975  78.6951137 122.2094828  38.0460155
  78.1504605 122.9854636  38.1780429  79.5730487 122.5565633  37.8879276
  85.4838754 115.5406412  30.4240954  85.6054665 114.6123058  30.6231841
  85.1940796 115.5545098  29.5119269  88.3529944 113.2261323  33.5607673
  88.3751641 113.2900656  32.6059653  88.7698003 112.3865831  33.7548180
  79.4817159 121.3364724  40.9390312  78.7398895 121.4847360  41.5254942
  79.1609903 121.5972990  40.0757061  78.1282378 127.1416480  33.9289640
  77.2914286 126.7138654  33.7473641  78.1006023 127.3348923  34.8660431
  84.9679833 117.0538409  44.6330886  85.0167989 117.9300532  44.2508656
  85.5102347 116.5115803  44.0602529  92.8636316 120.4302927  42.5424058
  93.7646179 120.2909392  42.2508056  92.9384291 120.5957382  43.4822236
  87.1979122 117.8069782  41.3877245  86.3282431 118.1003348  41.1159833
  87.4338602 118.3910227  42.1084508  89.9018155 114.0249399  38.9042665
  90.4200099 114.7610426  38.5789154  89.5473288 114.3313392  39.7389424
  90.1530750 110.4449681  34.4243562  90.4332503 109.7772870  35.0503988
  90.9381357 110.6378777  33.9118226  94.0239608 118.8667315  38.1715137
  94.9757031 118.9665413  38.1927361  93.8543058 118.0745584  38.6813221
  92.0453987 115.9522899  38.3574538  91.4503920 116.2327911  37.6621026
  91.7603684 116.4416799  39.1291279  96.6522174 118.8784478  37.3315720
  96.1361223 118.0942935  37.1445649  97.5362123 118.5503195  37.4962239
  94.3132901 112.6225494  33.2911532  94.1157722 112.3140582  34.1754864
  94.9232607 113.3487133  33.4209462  88.2249709 125.0087234  44.7885298
  89.1452719 125.1865833  44.9825344  88.1899292 124.0643279  44.6364997
  77.4431874 120.2025828  33.7138572  77.1234658 119.3491136  33.4212946
  76.8965302 120.4174406  34.4696540  81.2211782 122.9188269  37.4308079
  81.4397791 123.8505377  37.4496113  81.6337555 122.5596243  38.2162883
  88.1415999 113.4256354  29.4183767  87.3316728 113.0803439  29.7939013
  88.8300416 113.1163898  30.0071379  90.0706548 112.5034401  31.0408064
  90.6237586 112.9229854  31.6998087  90.3076634 111.5770149  31.0831020
  86.0939647 118.4921475  46.8210828  85.9936374 119.4415831  46.7522919
  85.8761189 118.1639713  45.9486898  77.3120134 123.8228739  35.6831694
  76.6183606 123.4082692  35.1701648  78.0593125 123.8649276  35.0865113
  91.8988921 114.0139984  32.7508048  92.3988700 114.1256518  31.9422367
  92.5424529 113.7101037  33.3908857  85.9570917 121.9218613  45.6375889
  85.4737999 122.7218973  45.8439778  86.0431856 121.9326558  44.6843333
  79.2256877 123.7546993  33.5597709  79.2027565 123.8534680  32.6079592
  79.5357513 124.6012144  33.8814875  81.8844255 125.8123148  37.6744323
  82.8387508 125.7807090  37.6074255  81.6856778 125.3513772  38.4894549
  82.4743637 124.3824264  40.2415121  83.2936526 124.8768343  40.2649958
  82.7480444 123.4656232  40.2132688  77.7278551 118.7162398  40.9407318
  78.3737414 118.2061352  41.4294543  77.5195702 119.4531080  41.5150743
  90.0634281 109.5745219  30.9477151  89.2966677 109.0203706  31.0933833
  90.4744986 109.6467088  31.8091302  82.0676042 115.8630015  45.0382332
  82.9307503 115.5066820  45.2485657  81.4941453 115.5243910  45.7257736
  28.6091685  13.4679178  28.7252198  28.5504231  12.7838398  28.0582781
  29.0111203  14.2098168  28.2732824  27.0943359  13.1694095  31.3016009
  27.6383263  13.7824053  30.8070963  26.5130204  13.7273674  31.8183022
  30.4172153  12.6290149  30.6377330  29.6267697  12.6114288  30.0981829
  30.1805508  13.1678443  31.3926366  32.0388225  11.8979557  28.1952080
  31.7473033  12.2609538  29.0315541  31.4260356  11.1846565  28.0165412
  25.2169417  10.8153862  33.1644765  26.0860577  10.9894514  32.8031400
  24.7376169  11.6348279  33.0420494  36.8761893  22.5242488  22.5690040
  37.5140303  22.4049235  21.8653380  36.7582736  23.4723332  22.6277992
  33.6851599  22.4769916  22.5051564  33.3470111  22.3610981  21.6172099
  34.5541368  22.0761081  22.4852571  34.1671382  23.6304768  28.4637770
  34.1560023  23.2357566  27.5918274  34.3292022  22.8970840  29.0571541
  27.0902847  25.8256584  21.3332676  27.8824139  25.4847409  20.9178975
  27.3299497  25.9351559  22.2534829  30.8878644  26.4141880  27.4116954
  30.5968510  27.3187510  27.2963620  31.5235628  26.4558407  28.1261023
  31.8134850  23.7918728  24.0018314  32.4098423  23.5674750  23.2875276
  31.8709822  23.0503474  24.6043761  41.8311589  20.1869175  20.5476226
  42.5636761  19.6168392  20.7814056  41.0750944  19.7990775  20.9882732
  39.3537009  13.8990749  25.0070835  39.0220334  14.7686160  24.7832050
  38.7582622  13.5827033  25.6864865  35.8468529  26.1003295  24.4066748
  35.5469252  27.0028334  24.2982555  35.5019588  25.8335478  25.2587900
  39.2465672  18.6185835  22.0864185  38.3382550  18.5501244  21.7922946
  39.1953268  19.0957780  22.9146010  30.8289308  32.8647615  17.3737715
  30.7513338  33.8155441  17.4526196  30.2250952  32.5193488  18.0312642
  33.3206538  20.0375481  30.0299082  32.5439872  20.5969401  30.0201947
  33.9597101  20.5232264  30.5513952  41.1127319  16.8202274  23.8642059
  40.4701699  17.1134807  23.2181853  40.6082247  16.7055194  24.6695255
  31.5752911  22.8460934  29.5917049  32.3167595  23.3845978  29.3151873
  30.8689896  23.4727223  29.7488601  37.0508250  24.9890075  28.1889211
  37.4591606  24.5472485  27.4443843  36.3285512  24.4142702  28.4423404
  33.4039320  19.9262681  25.5622768  34.2500515  20.3502095  25.7057417
  33.3437958  19.2696306  26.2561331  37.3737065  25.5491265  21.9441500
  36.7445927  25.7136979  21.2417567  36.9862727  25.9632875  22.7152464
  41.2526297  26.4845703  19.2985863  40.5677335  26.8644605  18.7482897
  41.3370146  27.0941030  20.0317811  36.5538766  17.5867050  27.2203941
  36.3099697  18.3409110  26.6838217  36.8298696  17.9652397  28.0551188
  38.5077228  24.1305662  25.8981207  38.7194124  24.7737422  25.2215588
  38.4606977  23.2967979  25.4303137  29.8189108  24.8337155  22.1471348
  30.3890465  25.2624423  21.5088832  30.4097220  24.5519740  22.8455534
  30.3114274  20.0000582  30.3932359  29.6812935  20.6816863  30.6267756
  30.2050362  19.8883664  29.4485497  39.6223056  27.0077618  24.0703564
  40.4440500  26.6057805  23.7886246  39.6185459  26.9045852  25.0219680
  33.3879660  26.5561661  26.2264275  33.4524092  27.0182068  27.0622447
  32.6790584  25.9259026  26.3546585  47.7129049  23.3516366  20.4188536
  46.9592758  22.7823764  20.2632540  47.8476591  23.3179031  21.3659170
  29.5895017  14.3021348  32.7557610  29.1961963  13.7487547  33.4305254
  30.4061157  14.6131927  33.1464128  28.3651959  28.8570963  18.7493933
  28.5418588  29.7788927  18.5614917  29.1608793  28.5429382  19.1788313
  32.5062978  15.7179227  30.3477867  33.2472691  16.3186380  30.2682329
  32.7380901  14.9756865  29.7895909  27.6504316  20.9035595  28.6256096
  27.5357831  20.0020852  28.9263195  26.7948834  21.1499291  28.2740913
  34.7296154  28.8453335  30.2243597  34.2860008  28.0589713  29.9064502
  35.3913367  29.0332485  29.5587488  29.4883275  30.3749136  24.7504276
  30.0390700  30.2466200  23.9781270  28.6494751  30.6744026  24.3999168
  36.8277392  29.1256135  28.2524998  36.8095867  29.9465016  27.7605268
  37.7497312  29.0010210  28.4775140  33.2850446  26.6400264  29.0948507
  33.8178783  25.8788552  28.8647815  32.7564527  26.3473916  29.8372661
  39.6296005  23.9635277  21.7234365  38.9719679  24.6534539  21.8114494
  40.4336404  24.3531709  22.0668351  38.4401463  22.3179650  19.7738307
  38.9533345  22.9509642  20.2760017  39.0902687  21.7180845  19.4081667
  34.9182294  19.7929106  22.0196647  34.0004856  20.0144053  21.8618335
  35.3342438  19.8675416  21.1608355  39.2063260  27.2985651  17.9017449
  38.7525587  26.4576561  17.9582640  38.5757226  27.9347050  18.2392230
  37.6496199  29.1362148  18.8367268  37.9419173  29.6967205  18.1179633
  38.1594820  29.4290709  19.5920427  32.6129824  29.9142499  19.9260721
  32.5706003  30.1403346  18.9969253  33.5292523  29.6805874  20.0746522
  36.0595458  20.3826567  26.8241350  36.4144846  20.6098040  27.6835816
  36.7067589  20.7144944  26.2018605  41.7893195  23.5045003  17.5290679
  41.6511093  23.6946599  16.6011868  41.4329414  24.2664385  17.9858730
  41.8162574  25.5721530  22.5401951  42.2499081  25.4796819  23.3885005
  42.5294155  25.5479030  21.9021967  35.5490469  29.1723624  24.0735051
  35.6027492  29.7414560  24.8412767  34.6805251  29.3425509  23.7089088
  28.4288863  18.8741180  25.5559502  29.1011916  18.6658542  24.9072151
  27.6018649  18.6763266  25.1164735  42.6778124  25.6145230  25.0734836
  42.8714014  26.5191041  25.3194111  42.5778742  25.1552649  25.9073421
  34.3314435  15.5003121  27.5725163  33.6842350  16.1993071  27.4789640
  35.1015450  15.9339265  27.9401411  37.7393233  25.7651973  30.6475717
  37.5878739  25.5362525  29.7305800  37.7297912  26.7222574  30.6607062
  34.5078569  23.3383886  25.6321983  35.4370629  23.4895045  25.4590950
  34.0869599  23.4267907  24.7770629  33.3066901  27.3634550  23.4020521
  33.1677987  26.9953335  24.2746459  32.5181497  27.8782190  23.2304478
  33.9015053  32.4643647  14.7446057  34.0766809  31.9931690  15.5591680
  33.2147841  33.0909413  14.9727318  34.8572116  26.7416153  20.7909358
  34.5221949  26.7016923  21.6867008  34.3576062  26.0760869  20.3179769
  28.8316360  22.1483783  26.3161940  28.6936158  21.4164022  26.9173479
  29.7421283  22.0592683  26.0346127  31.4598661  21.8603742  25.8045619
  32.1698279  21.2196934  25.7632238  31.4167969  22.1116637  26.7271800
  39.4485439  28.7971096  28.7252198  39.3897986  28.1130316  28.0582781
  39.8504958  29.5390086  28.2732824  30.1727595  18.8468960  27.6241259
  29.6364952  18.3959699  28.2762855  29.5844303  18.9814869  26.8811723
  28.4676138  35.6133009  21.5185917  28.7072736  36.2451534  22.1964936
  27.6245335  35.2621049  21.8051277  39.4502847  26.7610680  26.9566178
  38.5629625  26.4236601  27.0792577  40.0201398  26.0293711  27.1934943
  32.9804000  31.4212132  23.9227421  32.9074171  32.2267103  24.4346726
  32.5381393  31.6204098  23.0975443  32.7693780  30.6583902  17.4330243
  31.9861302  31.2005582  17.5268467  33.4686525  31.1757882  17.8324484
  43.9320187  22.1718897  21.7182740  43.9210063  23.0543612  21.3476673
  43.0637567  21.8190448  21.5237277  35.4402684  31.3198966  26.0785580
  36.1530656  31.9546431  26.0061481  34.9492712  31.4162832  25.2625582
  30.4914597  29.0693409  26.8991151  31.1924057  29.7029892  27.0520545
  30.0209712  29.4108141  26.1386790  38.2915883  21.6238017  24.7243701
  37.6387333  21.8713924  24.0696154  38.6696263  20.8102155  24.3906178
  35.2523057  31.6597710  18.8271871  35.4345451  30.8419366  19.2899624
  36.0756043  31.8765402  18.3896761  35.5865222  30.5865895  16.0886920
  36.1152989  30.0758350  15.4757082  35.8493442  30.2708425  16.9532453
  34.3403456  22.3657828  31.2109738  33.6644093  22.2651957  31.8812113
  35.1631090  22.2097042  31.6745735  26.0882315  28.6029764  23.8322253
  26.6735752  27.8573452  23.9650158  25.8907154  28.9133721  24.7158917
  28.9420970  31.6381012  18.8484696  28.2731346  32.1227139  18.3648736
  28.8033840  31.8850232  19.7628074  33.0826239  33.6724755  25.4467354
  33.6344547  33.8356377  26.2116439  33.4232432  34.2629193  24.7747379
  27.5343005  18.0923038  29.6962273  28.1615044  17.7100115  30.3099797
  26.6770924  17.8737240  30.0617966  37.9337113  28.4986013  31.3016009
  38.4777017  29.1115971  30.8070963  37.3523958  29.0565591  31.8183022
  36.2194626  31.6206731  22.4331036  36.0945766  30.8196471  21.9241982
  36.8773717  32.1152924  21.9445006  38.2829535  29.4215751  24.0610586
  37.3359870  29.3021102  23.9888913  38.6312308  28.5338249  24.1436848
  30.6429108  15.3109890  27.8848828  31.1663510  15.5572186  28.6475138
  30.4241441  16.1429925  27.4651966  35.2875968  29.2168467  20.2614939
  35.1400930  28.2885175  20.4422509  36.1129461  29.2388558  19.7772014
  38.8910090  30.0397026  21.3479811  39.8156637  29.8339887  21.2104263
  38.7225393  29.7913427  22.2569153  31.8481653  16.2523585  25.5698499
  31.5078473  15.4531398  25.9719179  31.1420659  16.5525296  24.9975332
  33.7359217  17.4531906  23.9251817  33.4776995  18.3748977  23.9236148
  33.2044258  17.0562341  24.6152282  38.6805406  30.5582693  16.7041903
  38.8542283  29.9929116  15.9515755  39.1734297  31.3583588  16.5221393
  24.4982366  22.5697362  24.7705462  23.9535834  23.3457170  24.9025736
  25.3761716  22.9168167  24.6124583  44.5344797  23.3219116  18.3232203
  44.9775943  22.5726441  17.9251326  43.6571307  23.3129253  17.9405935
  39.6680578  29.8749458  13.8038801  40.3631483  30.4956150  14.0226116
  40.0103729  29.0244809  14.0791179  25.2848388  21.6967259  27.6635619
  24.5430124  21.8449894  28.2500249  24.9641132  21.9575524  26.8002368
  41.5672002  27.3249163  15.3326132  42.0923326  27.6636436  14.6075452
  41.4794354  26.3896179  15.1489267  33.2292050  31.2383237  27.4616009
  33.5379177  30.9932384  28.3338708  34.0267532  31.4429875  26.9734879
  33.2512662  33.3921147  19.6921385  32.8117653  32.8997525  20.3854242
  34.0020779  32.8494114  19.4513460  25.7305001  29.5832687  19.6946013
  26.5563021  29.2836459  19.3144657  25.3799053  28.8140310  20.1435802
  30.6986534  28.9359156  21.7643687  30.0766544  28.2729861  21.4645915
  31.3691401  28.9620288  21.0817335  30.7711062  17.4140944  31.3576193
  30.8199217  18.2903066  30.9753962  31.3133576  16.8718337  30.7847836
  41.2565908  27.9582067  30.6377330  40.4661451  27.9406206  30.0981829
  41.0199262  28.4970361  31.3926366  41.3763783  24.8074533  27.9510058
  41.4261788  24.6424541  28.8925581  41.2677706  23.9401792  27.5607939
  38.6667545  20.7905461  29.2669365  39.5677408  20.6511926  28.9753363
  38.7415520  20.9559916  30.2067543  33.0010350  18.1672316  28.1122551
  32.1313660  18.4605882  27.8405140  33.2369831  18.7512761  28.8329815
  42.8781980  27.2271475  28.1952080  42.5866788  27.5901455  29.0315541
  42.2654111  26.5138483  28.0165412  44.0777662  24.7924355  20.7154650
  44.9124553  25.2314159  20.8792211  44.2136791  24.3163008  19.8962896
  41.1269168  22.3504089  26.6632138  41.6023289  22.5431736  25.8550989
  40.2034733  22.4063275  26.4175522  35.7049384  14.3851933  25.6287972
  36.2231328  15.1212960  25.3034460  35.3504517  14.6915926  26.4634731
  39.8270837  19.2269850  24.8960444  40.7788260  19.3267947  24.9172668
  39.6574287  18.4348118  25.4058528  37.8485216  16.3125433  25.0819844
  37.2535148  16.5930445  24.3866333  37.5634913  16.8019334  25.8536586
  42.3058915  22.4475969  24.0102743  42.2735235  21.5091970  24.1962427
  42.9159538  22.5260006  23.2768568  42.4553403  19.2387013  24.0561026
  41.9392452  18.4545469  23.8690955  43.3393352  18.9105729  24.2207546
  48.1235464  23.5091976  23.1508780  48.8538853  23.2477264  23.7116483
  47.5142410  22.7720698  23.1910848  46.2050762  21.6499839  23.7483231
  45.4783925  21.5155804  23.1399723  45.7898048  21.9576667  24.5539949
  34.0280938  25.3689768  31.5130604  34.9483947  25.5468367  31.7070651
  33.9930521  24.4245814  31.3610303  27.0243010  23.2790803  24.1553385
  27.2429020  24.2107911  24.1741419  27.4368784  22.9198777  24.9408189
  31.8970876  18.8524009  33.5456134  31.7967603  19.8018366  33.4768225
  31.6792418  18.5242248  32.6732204  31.7602146  22.2821148  32.3621196
  31.2769228  23.0821508  32.5685085  31.8463085  22.2929092  31.4088640
  27.6875483  26.1725682  24.3989630  28.6418737  26.1409625  24.3319561
  27.4888007  25.7116306  25.2139856  28.2774865  24.7426798  26.9660427
  29.0967754  25.2370877  26.9895265  28.5511673  23.8258766  26.9377995
  43.8228556  17.8711691  21.1016663  44.4173047  17.6307427  20.3909971
  43.8955140  17.1518821  21.7290199  26.0425712  31.7145302  21.4159828
  25.9080180  30.9545703  20.8497826  25.6257774  32.4386202  20.9488616
  46.1299629  21.1777892  19.8760084  45.5699187  21.2471081  20.6491646
  45.5243133  21.0018876  19.1559580  29.1994838  32.6114619  21.6278270
  29.0827222  33.5560051  21.5256961  28.3787284  32.3088180  22.0164069
  23.5309780  19.0764932  27.6652624  24.1768643  18.5663886  28.1539850
  23.3226931  19.8133614  28.2396050  36.0563172  26.1445780  33.1644765
  36.9254332  26.3186432  32.8031400  35.5769923  26.9640197  33.0420494
  30.2249352  33.2642881  24.8434199  31.1276599  33.2966491  25.1600694
  29.9986722  32.3343332  24.8580534  31.9802954  32.0173867  21.5044277
  31.0298585  32.0175729  21.3908650  32.2835440  31.2706602  20.9880312
  27.8707271  16.2232549  31.7627639  28.7338732  15.8669354  31.9730963
  27.2972681  15.8846444  32.4503043  47.7155648  37.8534406  22.5690040
  48.3534058  37.7341153  21.8653380  47.5976491  38.8015250  22.6277992
  44.5245354  37.8061834  22.5051564  44.1863865  37.6902898  21.6172099
  45.3935122  37.4052999  22.4852571  40.3832170  39.6597310  18.4948455
  39.8197035  39.5687247  17.7264743  40.2684565  38.8397215  18.9750948
  45.0065137  38.9596685  28.4637770  44.9953778  38.5649484  27.5918274
  45.1685776  38.2262758  29.0571541  37.9296602  41.1548502  21.3332676
  38.7217893  40.8139326  20.9178975  38.1693252  41.2643477  22.2534829
  45.9631728  43.3268278  13.8062920  45.3119708  43.9122358  13.4196934
  46.7576091  43.8574473  13.8657958  39.8887355  40.4157415  14.2050055
  40.6618231  39.8686402  14.0662930  40.2412754  41.2801664  14.4164516
  41.7272398  41.7433797  27.4116954  41.4362264  42.6479428  27.2963620
  42.3629382  41.7850325  28.1261023  42.6528605  39.1210646  24.0018314
  43.2492177  38.8966668  23.2875276  42.7103576  38.3795391  24.6043761
  42.2253633  36.5750081  11.8368505  42.4779154  36.0531602  11.0751968
  41.2878192  36.4116227  11.9395188  47.2696916  35.5785859  19.6443248
  48.0560005  35.1605283  19.2933665  47.5335620  36.4831952  19.8124896
  47.4406993  41.0158710  14.3431905  46.8052826  41.0893336  15.0552809
  47.1104400  41.6052309  13.6650984  52.6705343  35.5161093  20.5476226
  53.4030515  34.9460309  20.7814056  51.9144699  35.1282693  20.9882732
  41.9449922  38.4778187  14.0392879  41.8286180  37.8023090  14.7073964
  42.0552182  37.9910561  13.2225033  44.2881463  37.9388334  17.7439569
  43.9239670  37.4118955  18.4552490  45.1448579  37.5486803  17.5706054
  50.1930764  29.2282667  25.0070835  49.8614088  30.0978078  24.7832050
  49.5976377  28.9118951  25.6864865  43.9286950  32.9678234  12.7400917
  44.0961352  33.8358470  13.1071388  43.7384119  33.1305516  11.8162206
  46.6862283  41.4295213  24.4066748  46.3863006  42.3320252  24.2982555
  46.3413343  41.1627396  25.2587900  40.1374765  37.8809010  20.4403452
  39.2125261  37.7485224  20.6481144  40.3859178  38.6603229  20.9373394
  50.0859427  33.9477753  22.0864185  49.1776304  33.8793161  21.7922946
  50.0347023  34.4249698  22.9146010  43.9076171  35.4235891  13.7247584
  43.7875796  35.8692942  14.5633064  43.2128759  35.7721209  13.1661122
  37.4983576  37.5242283  21.2747241  37.6275957  37.7776762  22.1886653
  36.8181027  38.1169991  20.9551896  41.6683063  48.1939533  17.3737715
  41.5907093  49.1447358  17.4526196  41.0644707  47.8485406  18.0312642
  44.1600293  35.3667399  30.0299082  43.3833627  35.9261319  30.0201947
  44.7990856  35.8524182  30.5513952  51.9521073  32.1494191  23.8642059
  51.3095454  32.4426725  23.2181853  51.4476002  32.0347112  24.6695255
  49.6061237  35.8957365  14.5527918  50.5179093  36.1284751  14.3775616
  49.0970884  36.4794409  13.9902997  42.4146665  38.1752852  29.5917049
  43.1561349  38.7137896  29.3151873  41.7083650  38.8019141  29.7488601
  47.8902005  40.3181992  28.1889211  48.2985361  39.8764403  27.4443843
  47.1679266  39.7434620  28.4423404  44.2433075  35.2554599  25.5622768
  45.0894270  35.6794013  25.7057417  44.1831712  34.5988223  26.2561331
  48.2130819  40.8783183  21.9441500  47.5839682  41.0428897  21.2417567
  47.8256481  41.2924793  22.7152464  52.0920051  41.8137621  19.2985863
  51.4071089  42.1936522  18.7482897  52.1763900  42.4232947  20.0317811
  47.3932520  32.9158967  27.2203941  47.1493452  33.6701028  26.6838217
  47.6692451  33.2944315  28.0551188  49.3470983  39.4597580  25.8981207
  49.5587878  40.1029340  25.2215588  49.3000731  38.6259896  25.4303137
  46.9497212  32.0715401  22.8017779  46.0881691  32.3696654  23.0934517
  46.9759646  32.2885799  21.8698812  43.7658781  40.6157591  19.2091585
  44.2297127  40.8945294  18.4196207  43.5015579  39.7141036  19.0264675
  40.6582862  40.1629073  22.1471348  41.2284219  40.5916341  21.5088832
  41.2490974  39.8811657  22.8455534  42.7027667  36.7380743  16.0181150
  43.4051711  37.1901787  16.4855076  42.3708296  36.0964562  16.6461043
  41.1508029  35.3292500  30.3932359  40.5206689  36.0108781  30.6267756
  41.0444117  35.2175582  29.4485497  36.4453001  34.9964296  21.3198283
  35.6552055  35.2521825  20.8438394  36.9364249  35.8112634  21.4250324
  50.4616811  42.3369535  24.0703564  51.2834254  41.9349723  23.7886246
  50.4579214  42.2337769  25.0219680  38.3967747  35.3608875  18.2781760
  37.5998910  35.4727570  18.7965256  38.1693339  35.6995528  17.4122651
  44.2273414  41.8853579  26.2264275  44.2917847  42.3473986  27.0622447
  43.5184338  41.2550944  26.3546585  34.7290704  35.2494787  23.7513274
  34.9798743  36.1341796  24.0170850  35.2650253  35.0699388  22.9788366
  58.5522804  38.6808284  20.4188536  57.7986512  38.1115682  20.2632540
  58.6870345  38.6470948  21.3659170  43.9421432  43.5521686  16.0943255
  43.8067107  44.3973222  16.5228103  44.4831244  43.7540964  15.3309189
  40.4288771  29.6313266  32.7557610  40.0355717  29.0779464  33.4305254
  41.2454912  29.9423844  33.1464128  37.3950829  41.0697124  16.6671180
  37.9075350  41.8640374  16.8176745  38.0473542  40.3723415  16.6004782
  39.2045714  44.1862880  18.7493933  39.3812342  45.1080845  18.5614917
  40.0002547  43.8721300  19.1788313  43.3456732  31.0471145  30.3477867
  44.0866446  31.6478298  30.2682329  43.5774655  30.3048783  29.7895909
  38.4898070  36.2327512  28.6256096  38.3751586  35.3312770  28.9263195
  37.6342588  36.4791209  28.2740913  45.5689908  44.1745253  30.2243597
  45.1253762  43.3881631  29.9064502  46.2307122  44.3624403  29.5587488
  40.3277029  45.7041054  24.7504276  40.8784455  45.5758118  23.9781270
  39.4888505  46.0035943  24.3999168  47.6671146  44.4548053  28.2524998
  47.6489622  45.2756934  27.7605268  48.5891066  44.3302128  28.4775140
  44.1244200  41.9692182  29.0948507  44.6572537  41.2080470  28.8647815
  43.5958282  41.6765834  29.8372661  47.2913895  27.0752248  24.6242148
  46.9478165  27.9653890  24.5481259  47.6592858  26.8853906  23.7611733
  35.3599746  39.3985778  17.4430751  36.1974968  39.8082787  17.2264458
  35.5378014  38.4585221  17.4130945  47.2564178  37.0660859  13.1314584
  46.7410802  37.8365464  13.3702971  46.9841487  36.3925995  13.7547645
  44.8411289  31.9110560  18.1899822  43.9852886  31.5217410  18.0105461
  45.2538241  31.9902521  17.3299607  46.3710436  29.4456903  22.5891382
  45.8675231  29.4087038  21.7759187  46.6641043  30.3549646  22.6488038
  42.6153322  29.5295633  21.5957563  43.4806318  29.3338442  21.2363453
  42.6830831  29.3005985  22.5226920  52.2298452  39.8193214  15.0667757
  51.4527895  39.4804373  14.6222919  52.9089933  39.8245837  14.3922722
  47.0450481  34.9387951  14.9574365  46.7400617  35.2534100  15.8084508
  47.9980923  35.0169371  15.0001698  45.4896913  41.0978174  16.6067319
  44.9618275  40.3630934  16.2940556  44.9884416  41.8752851  16.3607287
  50.4689759  39.2927195  21.7234365  49.8113434  39.9826456  21.8114494
  51.2730158  39.6823627  22.0668351  40.2215641  31.7597841  18.9673930
  40.7959393  31.5373022  18.2347123  40.8086623  31.8286535  19.7202532
  49.2795218  37.6471568  19.7738307  49.7927100  38.2801559  20.2760017
  49.9296442  37.0472763  19.4081667  40.5485228  33.7902302  12.9869816
  39.7122540  34.1276988  13.3079090  40.4089998  33.6551282  12.0496953
  42.5238308  28.6339090  17.6949000  41.8702721  28.3188107  17.0705614
  42.4818783  28.0114830  18.4208823  43.6349513  38.9158385   9.6102292
  42.7276575  38.6847638   9.8093441  44.1320545  38.1196004   9.7976273
  46.5417592  47.6255892  12.5298978  45.8679291  47.9287589  13.1383936
  46.9283414  48.4284972  12.1804435  45.7576049  35.1221023  22.0196647
  44.8398610  35.3435970  21.8618335  46.1736192  35.1967334  21.1608355
  46.5411097  36.5212439  17.1499328  47.2882916  37.0333836  16.8406450
  46.8102686  36.1996492  18.0103721  44.8137747  39.0170980  14.1326282
  43.9048966  38.7330012  14.2298752  44.8432831  39.4370058  13.2729589
  50.0457014  42.6277569  17.9017449  49.5919341  41.7868479  17.9582640
  49.4150981  43.2638967  18.2392230  48.9889934  33.5569555  19.1318117
  48.2512691  33.0446941  19.4628359  49.2416707  33.1169937  18.3201394
  48.4889953  44.4654066  18.8367268  48.7812928  45.0259123  18.1179633
  48.9988574  44.7582627  19.5920427  49.0901561  26.3345807  19.7259886
  49.3960438  25.4743171  19.4385801  49.8154166  26.9263427  19.5258880
  35.3825917  36.7376494  18.1141484  35.1850317  36.1445854  17.3892551
  34.8272581  36.4328704  18.8317423  43.3622641  36.6299600  20.2336077
  43.4171251  35.6773437  20.1578554  42.5513843  36.7859039  20.7177376
  44.5113835  40.5579723  11.4714360  44.0733264  39.8415582  11.0119998
  45.2524275  40.7855838  10.9099452  41.3015001  35.2476660  17.9926456
  40.4882866  35.5470831  18.3991648  41.7973995  34.8532349  18.7100938
  43.4523579  45.2434417  19.9260721  43.4099757  45.4695263  18.9969253
  44.3686277  45.0097791  20.0746522  46.8989212  35.7118484  26.8241350
  47.2538600  35.9389958  27.6835816  47.5461344  36.0436861  26.2018605
  52.6286949  38.8336920  17.5290679  52.4904848  39.0238516  16.6011868
  52.2723168  39.5956303  17.9858730  40.7929075  32.8195015  23.6087691
  41.4328455  32.6783775  22.9110654  39.9606606  32.5329529  23.2326293
  52.6556329  40.9013447  22.5401951  53.0892836  40.8088736  23.3885005
  53.3687910  40.8770948  21.9021967  41.5689379  42.1197446  19.7222684
  42.3629978  41.6247766  19.5205258  40.8581072  41.5915309  19.3590389
  46.3884224  44.5015541  24.0735051  46.4421246  45.0706478  24.8412767
  45.5199005  44.6717426  23.7089088  37.8772143  36.2640528  15.7982436
  36.9469731  36.2024983  16.0152398  37.9729615  35.7416480  15.0019077
  37.7957692  32.7895340  18.3860678  38.0564509  33.7040674  18.2769838
  38.6174864  32.3219783  18.5357291  39.2682617  34.2033098  25.5559502
  39.9405671  33.9950460  24.9072151  38.4412404  34.0055184  25.1164735
  53.5171879  40.9437148  25.0734836  53.7107769  41.8482958  25.3194111
  53.4172497  40.4844567  25.9073421  45.1708189  30.8295039  27.5725163
  44.5236104  31.5284988  27.4789640  45.9409205  31.2631182  27.9401411
  48.5786987  41.0943891  30.6475717  48.4272494  40.8654442  29.7305800
  48.5691667  42.0514492  30.6607062  45.3472324  38.6675803  25.6321983
  46.2764384  38.8186963  25.4590950  44.9263354  38.7559824  24.7770629
  44.1460655  42.6926468  23.4020521  44.0071741  42.3245252  24.2746459
  43.3575252  43.2074107  23.2304478  44.7408807  47.7935564  14.7446057
  44.9160563  47.3223608  15.5591680  44.0541595  48.4201331  14.9727318
  45.6965871  42.0708071  20.7909358  45.3615703  42.0308841  21.6867008
  45.1969816  41.4052786  20.3179769  39.6710114  37.4775701  26.3161940
  39.5329912  36.7455939  26.9173479  40.5815038  37.3884601  26.0346127
  48.6325062  39.4164105  11.0646418  48.0154233  38.6910933  10.9679471
  48.1641551  40.1773465  10.7213492  42.2992415  37.1895660  25.8045619
  43.0092034  36.5488852  25.7632238  42.2561723  37.4408555  26.7271800
  50.2879194  44.1263013  28.7252198  50.2291740  43.4422233  28.0582781
  50.6898712  44.8682003  28.2732824  41.0121349  34.1760878  27.6241259
  40.4758706  33.7251616  28.2762855  40.4238058  34.3106787  26.8811723
  39.3069893  50.9424927  21.5185917  39.5466491  51.5743451  22.1964936
  38.4639089  50.5912967  21.8051277  50.2896601  42.0902597  26.9566178
  49.4023380  41.7528519  27.0792577  50.8595152  41.3585628  27.1934943
  31.9425748  38.4226689  20.2809229  32.6296788  38.1088419  19.6930245
  31.7873877  39.3268054  20.0076481  36.7460470  33.3116886  24.7094253
  36.6618659  32.7042555  23.9744663  35.9243177  33.8025904  24.7103749
  43.8197755  46.7504050  23.9227421  43.7467926  47.5559021  24.4346726
  43.3775148  46.9496015  23.0975443  43.6087534  45.9875820  17.4330243
  42.8255056  46.5297500  17.5268467  44.3080279  46.5049799  17.8324484
  46.9184184  31.7970449  20.0764448  47.4152884  31.0440411  19.7565518
  46.1471166  31.8334766  19.5107658  54.7713942  37.5010815  21.7182740
  54.7603818  38.3835530  21.3476673  53.9031321  37.1482365  21.5237277
  46.2796438  46.6490884  26.0785580  46.9924410  47.2838348  26.0061481
  45.7886467  46.7454750  25.2625582  48.0013965  40.5542136  17.6502872
  47.0670244  40.6743599  17.4807576  48.1790633  39.6514603  17.3862881
  43.5019153  33.9387832  19.8036133  43.1316941  33.3858872  20.4917038
  43.9978245  33.3345966  19.2511133  51.3886516  36.3959456  18.1852906
  51.8546968  37.2287447  18.1113208  51.8394017  35.9304437  18.8898164
  41.3308352  44.3985327  26.8991151  42.0317811  45.0321810  27.0520545
  40.8603467  44.7400059  26.1386790  49.4562747  42.7403277  15.1839058
  49.7322591  42.6259871  16.0932932  48.5867246  42.3420762  15.1451231
  49.3603179  28.7640043  22.2243807  48.4466259  28.9944269  22.3926014
  49.7896280  28.8478487  23.0757839  49.1309638  36.9529935  24.7243701
  48.4781088  37.2005842  24.0696154  49.5090017  36.1394073  24.3906178
  46.0916811  46.9889628  18.8271871  46.2739206  46.1711284  19.2899624
  46.9149797  47.2057320  18.3896761  46.4258977  45.9157813  16.0886920
  46.9546743  45.4050267  15.4757082  46.6887196  45.6000343  16.9532453
  45.1797211  37.6949746  31.2109738  44.5037848  37.5943875  31.8812113
  46.0024844  37.5388959  31.6745735  36.9276070  43.9321682  23.8322253
  37.5129506  43.1865370  23.9650158  36.7300908  44.2425639  24.7158917
  39.7814725  46.9672929  18.8484696  39.1125100  47.4519057  18.3648736
  39.6427595  47.2142150  19.7628074  31.5193724  36.5027282  22.5526697
  31.5577824  35.9690873  23.3463815  31.0134017  35.9762488  21.9337674
  43.9219993  49.0016673  25.4467354  44.4738301  49.1648295  26.2116439
  44.2626187  49.5921111  24.7747379  38.8984487  31.3491823  26.0489239
  38.9625813  32.2106654  25.6366637  38.8351607  30.7365824  25.3161597
  38.3736759  33.4214955  29.6962273  39.0008798  33.0392033  30.3099797
  37.5164678  33.2029157  30.0617966  48.7730868  43.8277931  31.3016009
  49.3170772  44.4407889  30.8070963  48.1917713  44.3857509  31.8183022
  35.1502302  35.2291384  15.6280628  35.4455743  34.3202063  15.5747682
  34.2490338  35.2079124  15.3061630  47.0588381  46.9498649  22.4331036
  46.9339520  46.1488388  21.9241982  47.7167472  47.4444842  21.9445006
  38.6796549  33.3047381  21.6108177  37.9583135  33.9183349  21.4715650
  39.4689805  33.8405146  21.5324823  49.1223289  44.7507669  24.0610586
  48.1753625  44.6313020  23.9888913  49.4706062  43.8630167  24.1436848
  41.4822862  30.6401808  27.8848828  42.0057264  30.8864104  28.6475138
  41.2635196  31.4721842  27.4651966  36.8790144  32.9105482  15.7519953
  36.5502850  32.0302861  15.5695059  37.2329514  32.8553151  16.6396342
  46.1269722  44.5460385  20.2614939  45.9794685  43.6177092  20.4422509
  46.9523216  44.5680476  19.7772014  39.9931967  33.1978452  16.1195431
  40.3328039  33.7264373  15.3974039  40.4404087  33.5358858  16.8953997
  49.7303844  45.3688944  21.3479811  50.6550392  45.1631805  21.2104263
  49.5619148  45.1205345  22.2569153  42.6875408  31.5815503  25.5698499
  42.3472228  30.7823316  25.9719179  41.9814414  31.8817213  24.9975332
  43.3391879  28.6664815  24.0225822  44.1617949  28.1925293  23.9004712
  43.5829943  29.4455299  24.5224508  41.9800114  31.6953074  14.3188724
  42.7008476  32.0734326  13.8152440  41.3565418  32.4141950  14.4223702
  46.1231237  32.3998222  15.2547056  46.3394851  33.2822860  14.9535884
  45.6425304  32.0084436  14.5252698  40.8630458  35.3583936  21.8317800
  40.7175039  35.6724239  22.7242082  40.3855662  35.9768836  21.2788699
  42.7226841  32.3486484  21.8798690  42.7088410  31.4527577  21.5430988
  43.4399269  32.3557147  22.5136976  44.5752972  32.7823824  23.9251817
  44.3170750  33.7040895  23.9236148  44.0438012  32.3854258  24.6152282
  49.5199160  45.8874611  16.7041903  49.6936038  45.3221034  15.9515755
  50.0128052  46.6875506  16.5221393  35.3376120  37.8989280  24.7705462
  34.7929588  38.6749088  24.9025736  36.2155470  38.2460085  24.6124583
  42.1263737  31.2300864  17.1486260  42.2479648  30.3017510  17.3477148
  41.8365779  31.2439550  16.2364576  44.9954927  28.9155774  20.2852980
  45.0176624  28.9795107  19.3304960  45.4122986  28.0760283  20.4793486
  55.3738552  38.6511034  18.3232203  55.8169698  37.9018359  17.9251326
  54.4965062  38.6421170  17.9405935  50.5074333  45.2041375  13.8038801
  51.2025238  45.8248068  14.0226116  50.8497483  44.3536727  14.0791179
  36.1242142  37.0259176  27.6635619  35.3823878  37.1741812  28.2500249
  35.8034886  37.2867442  26.8002368  52.4065756  42.6541081  15.3326132
  52.9317080  42.9928354  14.6075452  52.3188109  41.7188096  15.1489267
  44.0685805  46.5675155  27.4616009  44.3772931  46.3224301  28.3338708
  44.8661287  46.7721793  26.9734879  44.0906417  48.7213064  19.6921385
  43.6511407  48.2289443  20.3854242  44.8414534  48.1786032  19.4513460
  36.5698756  44.9124605  19.6946013  37.3956776  44.6128377  19.3144657
  36.2192808  44.1432228  20.1435802  41.5380289  44.2651073  21.7643687
  40.9160298  43.6021778  21.4645915  42.2085156  44.2912205  21.0817335
  34.7707361  42.8310932  20.6534947  33.9339269  42.4033106  20.4718948
  34.7431006  43.0243375  21.5905738  41.6104816  32.7432861  31.3576193
  41.6592972  33.6194984  30.9753962  42.1527331  32.2010254  30.7847836
  52.0959662  43.2873985  30.6377330  51.3055206  43.2698123  30.0981829
  51.8593017  43.8262278  31.3926366  52.2157537  40.1366451  27.9510058
  52.2655542  39.9716458  28.8925581  52.1071461  39.2693710  27.5607939
  41.0993796  42.8154997  15.2402147  41.2481916  43.4990461  14.5868820
  41.9060239  42.7960087  15.7551603  49.5061300  36.1197379  29.2669365
  50.4071162  35.9803844  28.9753363  49.5809274  36.2851834  30.2067543
  43.8404105  33.4964234  28.1122551  42.9707414  33.7897800  27.8405140
  44.0763585  34.0804679  28.8329815  53.7175734  42.5563392  28.1952080
  53.4260542  42.9193373  29.0315541  53.1047865  41.8430401  28.0165412
  54.9171416  40.1216272  20.7154650  55.7518308  40.5606076  20.8792211
  55.0530545  39.6454925  19.8962896  51.9662922  37.6796007  26.6632138
  52.4417044  37.8723653  25.8550989  51.0428488  37.7355193  26.4175522
  38.8546429  38.8420174  16.2463216  38.6092471  37.9382504  16.4443426
  39.0242343  38.8437325  15.3042694  46.5443139  29.7143851  25.6287972
  47.0625083  30.4504878  25.3034460  46.1898271  30.0207844  26.4634731
  38.1242076  34.5748532  13.7449378  37.4311321  34.6492887  13.0889414
  37.8793828  33.8108876  14.2670895  46.7955733  26.1344133  21.1488868
  47.0757487  25.4667322  21.7749295  47.5806340  26.3273229  20.6363532
  44.5989201  45.3103127  12.7113895  44.0263168  45.9293314  12.2584367
  45.1721995  45.8602489  13.2453817  50.6664591  34.5561767  24.8960444
  51.6182014  34.6559865  24.9172668  50.4968042  33.7640036  25.4058528
  48.6878971  31.6417350  25.0819844  48.0928903  31.9222363  24.3866333
  48.4028667  32.1311251  25.8536586  47.8186461  45.5940277  13.8422477
  48.7517134  45.5285839  14.0455353  47.7309674  46.4296544  13.3837010
  50.4474478  44.9106148  10.8026425  50.3688109  44.5766011  11.6962182
  51.2684145  45.4027915  10.8017897  53.1452669  37.7767887  24.0102743
  53.1128989  36.8383888  24.1962427  53.7553293  37.8551924  23.2768568
  44.9836000  36.6463940  10.0529947  45.9295105  36.5170148  10.1218365
  44.6050245  35.9078602  10.5299375  53.2947158  34.5678930  24.0561026
  52.7786206  33.7837387  23.8690955  54.1787106  34.2397647  24.2207546
  50.9557884  28.3119946  20.0156839  50.7582706  28.0035034  20.9000171
  51.5657590  29.0381585  20.1454769  58.9629219  38.8383894  23.1508780
  59.6932607  38.5769182  23.7116483  58.3536164  38.1012616  23.1910848
  57.0444516  36.9791756  23.7483231  56.3177680  36.8447721  23.1399723
  56.6291803  37.2868585  24.5539949  44.8674692  40.6981686  31.5130604
  45.7877702  40.8760285  31.7070651  44.8324275  39.7537731  31.3610303
  34.0856857  35.8920280  20.4383879  33.7659642  35.0385588  20.1458253
  33.5390286  36.1068858  21.1941846  37.8636765  38.6082721  24.1553385
  38.0822775  39.5399828  24.1741419  38.2762539  38.2490695  24.9408189
  44.7840983  29.1150806  16.1429074  43.9741711  28.7697891  16.5184320
  45.4725400  28.8058350  16.7316685  46.7131531  28.1928853  17.7653370
  47.2662570  28.6124306  18.4243393  46.9501617  27.2664601  17.8076326
  42.7364630  34.1815926  33.5456134  42.6361357  35.1310283  33.4768225
  42.5186172  33.8534165  32.6732204  33.9545117  39.5123191  22.4077000
  33.2608589  39.0977144  21.8946955  34.7018108  39.5543728  21.8110419
  50.0910338  30.3029378  17.2732035  49.5109007  30.9614182  16.8910087
  49.8246271  29.4806723  16.8619452  48.5413905  29.7034436  19.4753355
  49.0413683  29.8150970  18.6667674  49.1849512  29.3995488  20.1154163
  42.5995900  37.6113065  32.3621196  42.1162982  38.4113425  32.5685085
  42.6856839  37.6221010  31.4088640  35.8681860  39.4441445  20.2843015
  35.8452548  39.5429132  19.3324898  36.1782496  40.2906596  20.6060181
  38.5269238  41.5017600  24.3989630  39.4812491  41.4701542  24.3319561
  38.3281761  41.0408224  25.2139856  39.1168620  40.0718716  26.9660427
  39.9361509  40.5662795  26.9895265  39.3905428  39.1550684  26.9377995
  48.8735216  32.4629468  16.3288383  47.9861071  32.7479119  16.1108578
  49.2889205  32.3023232  15.4815660  52.2249752  32.4875989  20.0442722
  53.0010142  32.9772442  20.3167339  51.4997886  32.9134043  20.5014592
  54.6622311  33.2003609  21.1016663  55.2566802  32.9599344  20.3909971
  54.7348895  32.4810739  21.7290199  36.8819467  47.0437219  21.4159828
  36.7473935  46.2837620  20.8497826  36.4651529  47.7678119  20.9488616
  48.0178430  42.2274143  10.4236403  48.7214280  42.4324145  11.0394059
  47.2941078  42.7950905  10.6885486  48.8476240  37.9784004  16.5438673
  48.7911441  38.4352556  15.7046305  49.4004582  37.2174689  16.3661516
  52.6581046  33.7673736  17.3688793  52.4017980  33.3670372  18.1997000
  52.0333914  34.4817530  17.2438932  56.9693384  36.5069809  19.8760084
  56.4092942  36.5762999  20.6491646  56.3636887  36.3310794  19.1559580
  40.0388592  47.9406536  21.6278270  39.9220977  48.8851969  21.5256961
  39.2181039  47.6380098  22.0164069  49.9265127  42.6656672  12.4734863
  50.7610731  42.2337871  12.2912338  49.7649470  42.4938686  13.4011757
  49.5811019  39.1688785  13.8391202  49.5259823  39.0033057  12.8979646
  48.9557074  39.8764818  13.9953392  34.3703534  34.4056850  27.6652624
  35.0162398  33.8955804  28.1539850  34.1620685  35.1425532  28.2396050
  46.8956926  41.4737697  33.1644765  47.7648086  41.6478350  32.8031400
  46.4163678  42.2932114  33.0420494  42.8907145  28.6696894  13.4176521
  42.8785814  29.6138734  13.5744792  43.7830567  28.4867040  13.1235982
  41.0643107  48.5934798  24.8434199  41.9670353  48.6258409  25.1600694
  40.8380477  47.6635249  24.8580534  42.8196709  47.3465785  21.5044277
  41.8692340  47.3467647  21.3908650  43.1229195  46.5998519  20.9880312
  46.7059264  25.2639671  17.6722457  45.9391660  24.7098158  17.8179140
  47.1169969  25.3361540  18.5336609  38.7101025  31.5524467  31.7627639
  39.5732487  31.1961272  31.9730963  38.1366436  31.2138362  32.4503043
  58.5549402  53.1826323  22.5690040  59.1927812  53.0633071  21.8653380
  58.4370245  54.1307167  22.6277992  55.3639108  53.1353751  22.5051564
  55.0257620  53.0194816  21.6172099  56.2328877  52.7344916  22.4852571
  51.2225924  54.9889228  18.4948455  50.6590789  54.8979165  17.7264743
  51.1078319  54.1689132  18.9750948  48.7690356  56.4840419  21.3332676
  49.5611648  56.1431244  20.9178975  49.0087006  56.5935394  22.2534829
  56.8025483  58.6560196  13.8062920  56.1513463  59.2414276  13.4196934
  57.5969846  59.1866390  13.8657958  50.7281110  55.7449333  14.2050055
  51.5011986  55.1978320  14.0662930  51.0806509  56.6093582  14.4164516
  53.4922359  54.4502563  24.0018314  54.0885932  54.2258586  23.2875276
  53.5497331  53.7087309  24.6043761  53.0647388  51.9041999  11.8368505
  53.3172908  51.3823520  11.0751968  52.1271947  51.7408144  11.9395188
  58.1090671  50.9077777  19.6443248  58.8953760  50.4897200  19.2933665
  58.3729375  51.8123869  19.8124896  58.2800748  56.3450627  14.3431905
  57.6446581  56.4185254  15.0552809  57.9498154  56.9344226  13.6650984
  63.5099098  50.8453010  20.5476226  64.2424270  50.2752227  20.7814056
  62.7538453  50.4574611  20.9882732  52.7843677  53.8070105  14.0392879
  52.6679935  53.1315008  14.7073964  52.8945936  53.3202479  13.2225033
  55.1275217  53.2680252  17.7439569  54.7633425  52.7410873  18.4552490
  55.9842333  52.8778721  17.5706054  61.0324518  44.5574584  25.0070835
  60.7007843  45.4269995  24.7832050  60.4370131  44.2410868  25.6864865
  54.7680704  48.2970152  12.7400917  54.9355107  49.1650388  13.1071388
  54.5777874  48.4597433  11.8162206  57.5256038  56.7587130  24.4066748
  57.2256761  57.6612169  24.2982555  57.1807097  56.4919314  25.2587900
  50.9768519  53.2100927  20.4403452  50.0519016  53.0777141  20.6481144
  51.2252932  53.9895147  20.9373394  60.9253181  49.2769671  22.0864185
  60.0170059  49.2085079  21.7922946  60.8740777  49.7541616  22.9146010
  54.7469925  50.7527809  13.7247584  54.6269551  51.1984860  14.5633064
  54.0522514  51.1013127  13.1661122  48.3377330  52.8534201  21.2747241
  48.4669711  53.1068680  22.1886653  47.6574781  53.4461909  20.9551896
  52.5076817  63.5231451  17.3737715  52.4300847  64.4739276  17.4526196
  51.9038461  63.1777323  18.0312642  54.9994047  50.6959316  30.0299082
  54.2227381  51.2553236  30.0201947  55.6384610  51.1816099  30.5513952
  62.7914828  47.4786109  23.8642059  62.1489208  47.7718642  23.2181853
  62.2869756  47.3639029  24.6695255  60.4454991  51.2249282  14.5527918
  61.3572848  51.4576669  14.3775616  59.9364639  51.8086326  13.9902997
  53.2540419  53.5044770  29.5917049  53.9955104  54.0429814  29.3151873
  52.5477405  54.1311058  29.7488601  55.0826829  50.5846517  25.5622768
  55.9288024  51.0085930  25.7057417  55.0225467  49.9280141  26.2561331
  59.0524574  56.2075101  21.9441500  58.4233436  56.3720815  21.2417567
  58.6650236  56.6216710  22.7152464  62.9313806  57.1429539  19.2985863
  62.2464844  57.5228440  18.7482897  63.0157655  57.7524865  20.0317811
  58.2326275  48.2450885  27.2203941  57.9887206  48.9992946  26.6838217
  58.5086205  48.6236233  28.0551188  57.7890966  47.4007318  22.8017779
  56.9275445  47.6988572  23.0934517  57.8153401  47.6177717  21.8698812
  54.6052536  55.9449509  19.2091585  55.0690881  56.2237212  18.4196207
  54.3409334  55.0432953  19.0264675  51.4976617  55.4920990  22.1471348
  52.0677974  55.9208259  21.5088832  52.0884729  55.2103575  22.8455534
  53.5421422  52.0672661  16.0181150  54.2445465  52.5193705  16.4855076
  53.2102050  51.4256480  16.6461043  51.9901783  50.6584418  30.3932359
  51.3600444  51.3400699  30.6267756  51.8837871  50.5467499  29.4485497
  47.2846756  50.3256214  21.3198283  46.4945810  50.5813742  20.8438394
  47.7758003  51.1404552  21.4250324  61.3010565  57.6661453  24.0703564
  62.1228009  57.2641640  23.7886246  61.2972968  57.5629687  25.0219680
  49.2361501  50.6900793  18.2781760  48.4392664  50.8019487  18.7965256
  49.0087093  51.0287445  17.4122651  45.5684459  50.5786704  23.7513274
  45.8192497  51.4633714  24.0170850  46.1044007  50.3991306  22.9788366
  69.3916558  54.0100201  20.4188536  68.6380267  53.4407600  20.2632540
  69.5264099  53.9762866  21.3659170  54.7815186  58.8813604  16.0943255
  54.6460861  59.7265139  16.5228103  55.3224999  59.0832881  15.3309189
  51.2682526  44.9605184  32.7557610  50.8749472  44.4071382  33.4305254
  52.0848666  45.2715762  33.1464128  48.2344584  56.3989042  16.6671180
  48.7469104  57.1932292  16.8176745  48.8867297  55.7015332  16.6004782
  50.0439468  59.5154798  18.7493933  50.2206097  60.4372763  18.5614917
  50.8396302  59.2013217  19.1788313  54.1850487  46.3763063  30.3477867
  54.9260200  46.9770216  30.2682329  54.4168410  45.6340700  29.7895909
  49.3291825  51.5619430  28.6256096  49.2145340  50.6604687  28.9263195
  48.4736343  51.8083127  28.2740913  51.1670784  61.0332972  24.7504276
  51.7178209  60.9050035  23.9781270  50.3282260  61.3327861  24.3999168
  58.1307650  42.4044166  24.6242148  57.7871919  43.2945807  24.5481259
  58.4986613  42.2145823  23.7611733  46.1993501  54.7277696  17.4430751
  47.0368723  55.1374704  17.2264458  46.3771768  53.7877138  17.4130945
  58.0957933  52.3952777  13.1314584  57.5804556  53.1657381  13.3702971
  57.8235241  51.7217913  13.7547645  55.6805044  47.2402478  18.1899822
  54.8246640  46.8509328  18.0105461  56.0931995  47.3194438  17.3299607
  57.2104190  44.7748821  22.5891382  56.7068986  44.7378956  21.7759187
  57.5034797  45.6841564  22.6488038  53.4547076  44.8587551  21.5957563
  54.3200073  44.6630359  21.2363453  53.5224585  44.6297902  22.5226920
  63.0692207  55.1485131  15.0667757  62.2921650  54.8096291  14.6222919
  63.7483688  55.1537755  14.3922722  57.8844236  50.2679869  14.9574365
  57.5794371  50.5826018  15.8084508  58.8374678  50.3461289  15.0001698
  56.3290668  56.4270092  16.6067319  55.8012029  55.6922852  16.2940556
  55.8278170  57.2044768  16.3607287  61.3083514  54.6219113  21.7234365
  60.6507188  55.3118374  21.8114494  62.1123913  55.0115545  22.0668351
  51.0609395  47.0889758  18.9673930  51.6353147  46.8664940  18.2347123
  51.6480378  47.1578453  19.7202532  60.1188972  52.9763485  19.7738307
  60.6320854  53.6093477  20.2760017  60.7690196  52.3764681  19.4081667
  51.3878982  49.1194219  12.9869816  50.5516295  49.4568906  13.3079090
  51.2483752  48.9843199  12.0496953  53.3632063  43.9631007  17.6949000
  52.7096475  43.6480025  17.0705614  53.3212537  43.3406748  18.4208823
  54.4743268  54.2450302   9.6102292  53.5670330  54.0139556   9.8093441
  54.9714300  53.4487922   9.7976273  57.3811347  62.9547810  12.5298978
  56.7073045  63.2579506  13.1383936  57.7677169  63.7576890  12.1804435
  56.5969803  50.4512941  22.0196647  55.6792365  50.6727888  21.8618335
  57.0129947  50.5259251  21.1608355  57.3804851  51.8504357  17.1499328
  58.1276670  52.3625754  16.8406450  57.6496441  51.5288409  18.0103721
  55.6531501  54.3462897  14.1326282  54.7442721  54.0621930  14.2298752
  55.6826585  54.7661976  13.2729589  60.8850769  57.9569487  17.9017449
  60.4313096  57.1160397  17.9582640  60.2544735  58.5930885  18.2392230
  59.8283688  48.8861473  19.1318117  59.0906445  48.3738859  19.4628359
  60.0810462  48.4461854  18.3201394  59.3283708  59.7945983  18.8367268
  59.6206682  60.3551041  18.1179633  59.8382328  60.0874544  19.5920427
  59.9295316  41.6637725  19.7259886  60.2354192  40.8035088  19.4385801
  60.6547920  42.2555345  19.5258880  46.2219672  52.0668411  18.1141484
  46.0244071  51.4737772  17.3892551  45.6666336  51.7620622  18.8317423
  54.2016395  51.9591518  20.2336077  54.2565005  51.0065354  20.1578554
  53.3907597  52.1150957  20.7177376  55.3507589  55.8871641  11.4714360
  54.9127019  55.1707500  11.0119998  56.0918030  56.1147756  10.9099452
  52.1408755  50.5768578  17.9926456  51.3276621  50.8762748  18.3991648
  52.6367749  50.1824266  18.7100938  54.2917333  60.5726335  19.9260721
  54.2493512  60.7987181  18.9969253  55.2080032  60.3389709  20.0746522
  57.7382967  51.0410402  26.8241350  58.0932355  51.2681875  27.6835816
  58.3855098  51.3728779  26.2018605  63.4680704  54.1628838  17.5290679
  63.3298602  54.3530434  16.6011868  63.1116923  54.9248221  17.9858730
  51.6322830  48.1486933  23.6087691  52.2722209  48.0075692  22.9110654
  50.8000361  47.8621447  23.2326293  63.4950083  56.2305365  22.5401951
  63.9286590  56.1380654  23.3885005  64.2081664  56.2062865  21.9021967
  52.4083134  57.4489364  19.7222684  53.2023732  56.9539684  19.5205258
  51.6974826  56.9207227  19.3590389  57.2277978  59.8307459  24.0735051
  57.2815001  60.3998395  24.8412767  56.3592760  60.0009344  23.7089088
  48.7165897  51.5932445  15.7982436  47.7863485  51.5316901  16.0152398
  48.8123369  51.0708398  15.0019077  48.6351446  48.1187258  18.3860678
  48.8958264  49.0332591  18.2769838  49.4568619  47.6511701  18.5357291
  50.1076372  49.5325015  25.5559502  50.7799425  49.3242377  24.9072151
  49.2806158  49.3347101  25.1164735  56.0101944  46.1586956  27.5725163
  55.3629859  46.8576906  27.4789640  56.7802959  46.5923100  27.9401411
  56.1866078  53.9967721  25.6321983  57.1158138  54.1478881  25.4590950
  55.7657108  54.0851742  24.7770629  54.9854410  58.0218386  23.4020521
  54.8465496  57.6537170  24.2746459  54.1969006  58.5366025  23.2304478
  55.5802562  63.1227482  14.7446057  55.7554318  62.6515525  15.5591680
  54.8935350  63.7493248  14.9727318  56.5359625  57.3999988  20.7909358
  56.2009458  57.3600758  21.6867008  56.0363571  56.7344704  20.3179769
  50.5103869  52.8067618  26.3161940  50.3723667  52.0747857  26.9173479
  51.4208792  52.7176518  26.0346127  59.4718817  54.7456023  11.0646418
  58.8547987  54.0202851  10.9679471  59.0035305  55.5065383  10.7213492
  53.1386170  52.5187578  25.8045619  53.8485788  51.8780770  25.7632238
  53.0955478  52.7700472  26.7271800  51.8515104  49.5052795  27.6241259
  51.3152461  49.0543534  28.2762855  51.2631812  49.6398704  26.8811723
  50.1463647  66.2716845  21.5185917  50.3860245  66.9035369  22.1964936
  49.3032844  65.9204885  21.8051277  51.2617363  48.9641447  10.1867722
  50.3846829  48.8430248   9.8229969  51.7375116  48.1727525   9.9346611
  42.7819503  53.7518607  20.2809229  43.4690543  53.4380337  19.6930245
  42.6267631  54.6559971  20.0076481  47.5854225  48.6408803  24.7094253
  47.5012414  48.0334473  23.9744663  46.7636931  49.1317822  24.7103749
  54.6591509  62.0795967  23.9227421  54.5861680  62.8850939  24.4346726
  54.2168902  62.2787933  23.0975443  54.4481289  61.3167737  17.4330243
  53.6648811  61.8589417  17.5268467  55.1474034  61.8341717  17.8324484
  57.7577939  47.1262367  20.0764448  58.2546638  46.3732329  19.7565518
  56.9864920  47.1626683  19.5107658  65.6107696  52.8302732  21.7182740
  65.5997572  53.7127448  21.3476673  64.7425076  52.4774283  21.5237277
  57.1190193  61.9782801  26.0785580  57.8318165  62.6130266  26.0061481
  56.6280221  62.0746667  25.2625582  58.8407719  55.8834054  17.6502872
  57.9063998  56.0035516  17.4807576  59.0184388  54.9806521  17.3862881
  54.3412907  49.2679750  19.8036133  53.9710695  48.7150790  20.4917038
  54.8372000  48.6637883  19.2511133  62.2280271  51.7251373  18.1852906
  62.6940723  52.5579365  18.1113208  62.6787771  51.2596355  18.8898164
  52.1702106  59.7277245  26.8991151  52.8711566  60.3613728  27.0520545
  51.6997221  60.0691976  26.1386790  60.2956502  58.0695195  15.1839058
  60.5716346  57.9551789  16.0932932  59.4261001  57.6712679  15.1451231
  60.1996934  44.0931960  22.2243807  59.2860013  44.3236187  22.3926014
  60.6290035  44.1770404  23.0757839  59.9703392  52.2821852  24.7243701
  59.3174842  52.5297760  24.0696154  60.3483772  51.4685990  24.3906178
  56.9310566  62.3181545  18.8271871  57.1132960  61.5003201  19.2899624
  57.7543552  62.5349238  18.3896761  57.2652731  61.2449730  16.0886920
  57.7940498  60.7342185  15.4757082  57.5280951  60.9292261  16.9532453
  47.7669824  59.2613600  23.8322253  48.3523261  58.5157288  23.9650158
  47.5694663  59.5717556  24.7158917  50.6208479  62.2964847  18.8484696
  49.9518855  62.7810975  18.3648736  50.4821349  62.5434068  19.7628074
  42.3587479  51.8319200  22.5526697  42.3971578  51.2982791  23.3463815
  41.8527772  51.3054405  21.9337674  54.7613748  64.3308591  25.4467354
  55.3132056  64.4940212  26.2116439  55.1019941  64.9213029  24.7747379
  49.7378241  46.6783740  26.0489239  49.8019568  47.5398571  25.6366637
  49.6745361  46.0657742  25.3161597  49.2130514  48.7506873  29.6962273
  49.8402552  48.3683950  30.3099797  48.3558433  48.5321075  30.0617966
  45.9896056  50.5583302  15.6280628  46.2849498  49.6493981  15.5747682
  45.0884092  50.5371042  15.3061630  57.8982135  62.2790566  22.4331036
  57.7733275  61.4780306  21.9241982  58.5561226  62.7736760  21.9445006
  49.5190303  48.6339299  21.6108177  48.7976889  49.2475266  21.4715650
  50.3083559  49.1697064  21.5324823  59.9617044  60.0799586  24.0610586
  59.0147379  59.9604937  23.9888913  60.3099817  59.1922084  24.1436848
  52.3216617  45.9693725  27.8848828  52.8451019  46.2156022  28.6475138
  52.1028950  46.8013760  27.4651966  47.7183898  48.2397400  15.7519953
  47.3896604  47.3594779  15.5695059  48.0723269  48.1845068  16.6396342
  56.9663477  59.8752303  20.2614939  56.8188439  58.9469010  20.4422509
  57.7916970  59.8972393  19.7772014  50.8325721  48.5270370  16.1195431
  51.1721794  49.0556291  15.3974039  51.2797842  48.8650776  16.8953997
  60.5697599  60.6980861  21.3479811  61.4944146  60.4923723  21.2104263
  60.4012902  60.4497262  22.2569153  53.5269162  46.9107420  25.5698499
  53.1865982  46.1115233  25.9719179  52.8208168  47.2109131  24.9975332
  54.1785634  43.9956733  24.0225822  55.0011703  43.5217211  23.9004712
  54.4223697  44.7747217  24.5224508  52.8193868  47.0244991  14.3188724
  53.5402231  47.4026244  13.8152440  52.1959172  47.7433868  14.4223702
  56.9624991  47.7290140  15.2547056  57.1788606  48.6114778  14.9535884
  56.4819058  47.3376354  14.5252698  51.7024213  50.6875853  21.8317800
  51.5568793  51.0016156  22.7242082  51.2249416  51.3060754  21.2788699
  53.5620595  47.6778401  21.8798690  53.5482164  46.7819495  21.5430988
  54.2793024  47.6849065  22.5136976  55.4146726  48.1115742  23.9251817
  55.1564504  49.0332812  23.9236148  54.8831767  47.7146176  24.6152282
  60.3592915  61.2166529  16.7041903  60.5329792  60.6512951  15.9515755
  60.8521806  62.0167424  16.5221393  46.1769875  53.2281198  24.7705462
  45.6323343  54.0041006  24.9025736  47.0549225  53.5752002  24.6124583
  52.9657491  46.5592782  17.1486260  53.0873403  45.6309428  17.3477148
  52.6759534  46.5731468  16.2364576  55.8348682  44.2447692  20.2852980
  55.8570379  44.3087025  19.3304960  56.2516741  43.4052201  20.4793486
  66.2132306  53.9802952  18.3232203  66.6563452  53.2310277  17.9251326
  65.3358816  53.9713088  17.9405935  61.3468087  60.5333293  13.8038801
  62.0418992  61.1539986  14.0226116  61.6891238  59.6828644  14.0791179
  46.9635897  52.3551094  27.6635619  46.2217633  52.5033729  28.2500249
  46.6428641  52.6159360  26.8002368  63.2459511  57.9832999  15.3326132
  63.7710835  58.3220271  14.6075452  63.1581863  57.0480014  15.1489267
  54.9300171  64.0504982  19.6921385  54.4905162  63.5581361  20.3854242
  55.6808288  63.5077950  19.4513460  47.4092510  60.2416523  19.6946013
  48.2350530  59.9420295  19.3144657  47.0586562  59.4724145  20.1435802
  52.3774043  59.5942991  21.7643687  51.7554053  58.9313696  21.4645915
  53.0478910  59.6204123  21.0817335  45.6101115  58.1602849  20.6534947
  44.7733024  57.7325024  20.4718948  45.5824761  58.3535293  21.5905738
  52.4498571  48.0724779  31.3576193  52.4986726  48.9486902  30.9753962
  52.9921085  47.5302172  30.7847836  51.9387550  58.1446914  15.2402147
  52.0875671  58.8282379  14.5868820  52.7453994  58.1252004  15.7551603
  54.6797859  48.8256151  28.1122551  53.8101169  49.1189717  27.8405140
  54.9157340  49.4096596  28.8329815  65.7565171  55.4508190  20.7154650
  66.5912062  55.8897994  20.8792211  65.8924300  54.9746843  19.8962896
  49.6940183  54.1712092  16.2463216  49.4486225  53.2674422  16.4443426
  49.8636098  54.1729242  15.3042694  57.3836893  45.0435768  25.6287972
  57.9018837  45.7796795  25.3034460  57.0292026  45.3499762  26.4634731
  48.9635831  49.9040450  13.7449378  48.2705076  49.9784805  13.0889414
  48.7187583  49.1400793  14.2670895  57.6349487  41.4636051  21.1488868
  57.9151241  40.7959240  21.7749295  58.4200094  41.6565146  20.6363532
  55.4382956  60.6395045  12.7113895  54.8656923  61.2585232  12.2584367
  56.0115750  61.1894406  13.2453817  61.5058346  49.8853685  24.8960444
  62.4575769  49.9851783  24.9172668  61.3361796  49.0931953  25.4058528
  59.5272725  46.9709268  25.0819844  58.9322657  47.2514281  24.3866333
  59.2422422  47.4603169  25.8536586  58.6580216  60.9232195  13.8422477
  59.5910889  60.8577757  14.0455353  58.5703428  61.7588462  13.3837010
  61.2868232  60.2398065  10.8026425  61.2081864  59.9057929  11.6962182
  62.1077899  60.7319833  10.8017897  63.9846424  53.1059805  24.0102743
  63.9522744  52.1675805  24.1962427  64.5947047  53.1843841  23.2768568
  55.8229754  51.9755858  10.0529947  56.7688859  51.8462066  10.1218365
  55.4443999  51.2370519  10.5299375  64.1340912  49.8970848  24.0561026
  63.6179961  49.1129305  23.8690955  65.0180861  49.5689565  24.2207546
  61.7951639  43.6411864  20.0156839  61.5976460  43.3326952  20.9000171
  62.4051344  44.3673502  20.1454769  54.0072672  49.9005834   9.9884832
  53.1004127  49.6038947  10.0647546  54.2848653  49.6035652   9.1219119
  44.9250612  51.2212197  20.4383879  44.6053396  50.3677506  20.1458253
  44.3784040  51.4360775  21.1941846  48.7030519  53.9374638  24.1553385
  48.9216529  54.8691746  24.1741419  49.1156293  53.5782613  24.9408189
  55.6234737  44.4442724  16.1429074  54.8135466  44.0989809  16.5184320
  56.3119154  44.1350267  16.7316685  57.5525286  43.5220770  17.7653370
  58.1056324  43.9416224  18.4243393  57.7895372  42.5956519  17.8076326
  53.5758385  49.5107844  33.5456134  53.4755112  50.4602201  33.4768225
  53.3579927  49.1826083  32.6732204  52.7771456  46.7592769  10.1296812
  53.6390620  47.0847667  10.3892629  52.9621800  45.9724265   9.6169877
  44.7938872  54.8415109  22.4077000  44.1002343  54.4269062  21.8946955
  45.5411863  54.8835645  21.8110419  60.9304093  45.6321296  17.2732035
  60.3502762  46.2906100  16.8910087  60.6640025  44.8098640  16.8619452
  59.3807659  45.0326353  19.4753355  59.8807437  45.1442888  18.6667674
  60.0243267  44.7287406  20.1154163  53.4389655  52.9404983  32.3621196
  52.9556737  53.7405343  32.5685085  53.5250594  52.9512928  31.4088640
  46.7075614  54.7733363  20.2843015  46.6846303  54.8721050  19.3324898
  47.0176251  55.6198513  20.6060181  49.3662992  56.8309518  24.3989630
  50.3206246  56.7993460  24.3319561  49.1675516  56.3700141  25.2139856
  49.9562374  55.4010634  26.9660427  50.7755263  55.8954712  26.9895265
  50.2299182  54.4842602  26.9377995  59.7128971  47.7921386  16.3288383
  58.8254826  48.0771037  16.1108578  60.1282960  47.6315149  15.4815660
  63.0643507  47.8167907  20.0442722  63.8403897  48.3064359  20.3167339
  62.3391641  48.2425961  20.5014592  65.5016065  48.5295526  21.1016663
  66.0960556  48.2891262  20.3909971  65.5742649  47.8102657  21.7290199
  47.7213221  62.3729137  21.4159828  47.5867689  61.6129538  20.8497826
  47.3045283  63.0970037  20.9488616  58.8572184  57.5566061  10.4236403
  59.5608034  57.7616063  11.0394059  58.1334833  58.1242823  10.6885486
  59.6869994  53.3075922  16.5438673  59.6305196  53.7644473  15.7046305
  60.2398337  52.5466607  16.3661516  63.4974800  49.0965654  17.3688793
  63.2411735  48.6962289  18.1997000  62.8727668  49.8109448  17.2438932
  67.8087138  51.8361727  19.8760084  67.2486696  51.9054916  20.6491646
  67.2030642  51.6602712  19.1559580  50.8782347  63.2698454  21.6278270
  50.7614731  64.2143887  21.5256961  50.0574793  62.9672016  22.0164069
  60.7658882  57.9948590  12.4734863  61.6004485  57.5629788  12.2912338
  60.6043224  57.8230604  13.4011757  60.4204774  54.4980703  13.8391202
  60.3653577  54.3324975  12.8979646  59.7950829  55.2056736  13.9953392
  45.2097289  49.7348768  27.6652624  45.8556152  49.2247722  28.1539850
  45.0014440  50.4717449  28.2396050  53.7300899  43.9988812  13.4176521
  53.7179569  44.9430652  13.5744792  54.6224321  43.8158958  13.1235982
  51.9036861  63.9226716  24.8434199  52.8064108  63.9550326  25.1600694
  51.6774231  62.9927167  24.8580534  53.6590463  62.6757703  21.5044277
  52.7086094  62.6759564  21.3908650  53.9622949  61.9290437  20.9880312
  57.5453019  40.5931589  17.6722457  56.7785414  40.0390076  17.8179140
  57.9563724  40.6653458  18.5336609  49.5494780  46.8816385  31.7627639
  50.4126241  46.5253189  31.9730963  48.9760190  46.5430279  32.4503043
  69.3943157  68.5118241  22.5690040  70.0321567  68.3924988  21.8653380
  69.2764000  69.4599085  22.6277992  66.2032863  68.4645669  22.5051564
  65.8651374  68.3486734  21.6172099  67.0722631  68.0636834  22.4852571
  62.0619679  70.3181145  18.4948455  61.4984544  70.2271082  17.7264743
  61.9472074  69.4981050  18.9750948  59.6084111  71.8132337  21.3332676
  60.4005402  71.4723162  20.9178975  59.8480761  71.9227312  22.2534829
  67.6419237  73.9852113  13.8062920  66.9907217  74.5706194  13.4196934
  68.4363600  74.5158308  13.8657958  61.5674864  71.0741250  14.2050055
  62.3405740  70.5270237  14.0662930  61.9200263  71.9385500  14.4164516
  64.3316114  69.7794481  24.0018314  64.9279686  69.5550504  23.2875276
  64.3891085  69.0379227  24.6043761  63.9041142  67.2333916  11.8368505
  64.1566663  66.7115438  11.0751968  62.9665701  67.0700062  11.9395188
  68.9484425  66.2369695  19.6443248  69.7347514  65.8189118  19.2933665
  69.2123129  67.1415787  19.8124896  69.1194502  71.6742545  14.3431905
  68.4840335  71.7477172  15.0552809  68.7891909  72.2636144  13.6650984
  74.3492852  66.1744928  20.5476226  75.0818024  65.6044145  20.7814056
  73.5932208  65.7866528  20.9882732  63.6237431  69.1362022  14.0392879
  63.5073689  68.4606926  14.7073964  63.7339691  68.6494396  13.2225033
  65.9668972  68.5972170  17.7439569  65.6027179  68.0702790  18.4552490
  66.8236088  68.2070639  17.5706054  65.6074459  63.6262069  12.7400917
  65.7748861  64.4942306  13.1071388  65.4171628  63.7889351  11.8162206
  68.3649792  72.0879048  24.4066748  68.0650515  72.9904087  24.2982555
  68.0200852  71.8211231  25.2587900  71.7646936  64.6061588  22.0864185
  70.8563813  64.5376997  21.7922946  71.7134532  65.0833533  22.9146010
  65.5863680  66.0819727  13.7247584  65.4663305  66.5276777  14.5633064
  64.8916268  66.4305044  13.1661122  63.3470572  78.8523368  17.3737715
  63.2694602  79.8031194  17.4526196  62.7432215  78.5069241  18.0312642
  73.6308582  62.8078027  23.8642059  72.9882963  63.1010560  23.2181853
  73.1263511  62.6930947  24.6695255  71.2848746  66.5541200  14.5527918
  72.1966602  66.7868587  14.3775616  70.7758393  67.1378244  13.9902997
  69.8918328  71.5367018  21.9441500  69.2627191  71.7012732  21.2417567
  69.5043990  71.9508628  22.7152464  73.7707560  72.4721456  19.2985863
  73.0858598  72.8520358  18.7482897  73.8551409  73.0816783  20.0317811
  71.0258492  70.1181415  25.8981207  71.2375387  70.7613175  25.2215588
  70.9788240  69.2843732  25.4303137  68.6284721  62.7299236  22.8017779
  67.7669200  63.0280489  23.0934517  68.6547155  62.9469635  21.8698812
  65.4446290  71.2741426  19.2091585  65.9084636  71.5529129  18.4196207
  65.1803088  70.3724871  19.0264675  64.3815176  67.3964579  16.0181150
  65.0839220  67.8485622  16.4855076  64.0495805  66.7548398  16.6461043
  58.1240510  65.6548131  21.3198283  57.3339564  65.9105660  20.8438394
  58.6151758  66.4696469  21.4250324  72.1404320  72.9953371  24.0703564
  72.9621763  72.5933558  23.7886246  72.1366723  72.8921605  25.0219680
  60.0755256  66.0192711  18.2781760  59.2786419  66.1311405  18.7965256
  59.8480848  66.3579363  17.4122651  56.4078213  65.9078622  23.7513274
  56.6586252  66.7925632  24.0170850  56.9437762  65.7283223  22.9788366
  80.2310313  69.3392119  20.4188536  79.4774021  68.7699517  20.2632540
  80.3657854  69.3054784  21.3659170  65.6208941  74.2105521  16.0943255
  65.4854616  75.0557057  16.5228103  66.1618753  74.4124799  15.3309189
  59.0738338  71.7280959  16.6671180  59.5862859  72.5224210  16.8176745
  59.7261051  71.0307250  16.6004782  60.8833223  74.8446716  18.7493933
  61.0599851  75.7664680  18.5614917  61.6790056  74.5305135  19.1788313
  62.0064538  76.3624890  24.7504276  62.5571963  76.2341953  23.9781270
  61.1676014  76.6619779  24.3999168  69.3458655  75.1131888  28.2524998
  69.3277131  75.9340769  27.7605268  70.2678575  74.9885963  28.4775140
  57.0387255  70.0569614  17.4430751  57.8762477  70.4666622  17.2264458
  57.2165523  69.1169056  17.4130945  68.9351687  67.7244694  13.1314584
  68.4198311  68.4949299  13.3702971  68.6628996  67.0509831  13.7547645
  66.5198798  62.5694395  18.1899822  65.6640394  62.1801246  18.0105461
  66.9325750  62.6486356  17.3299607  64.2940831  60.1879468  21.5957563
  65.1593827  59.9922277  21.2363453  64.3618340  59.9589820  22.5226920
  73.9085961  70.4777049  15.0667757  73.1315404  70.1388209  14.6222919
  74.5877442  70.4829672  14.3922722  68.7237990  65.5971787  14.9574365
  68.4188126  65.9117936  15.8084508  69.6768432  65.6753206  15.0001698
  67.1684422  71.7562010  16.6067319  66.6405784  71.0214769  16.2940556
  66.6671925  72.5336686  16.3607287  72.1477268  69.9511030  21.7234365
  71.4900943  70.6410292  21.8114494  72.9517667  70.3407462  22.0668351
  61.9003150  62.4181676  18.9673930  62.4746902  62.1956858  18.2347123
  62.4874132  62.4870371  19.7202532  70.9582727  68.3055403  19.7738307
  71.4714609  68.9385395  20.2760017  71.6083951  67.7056599  19.4081667
  62.2272737  64.4486137  12.9869816  61.3910049  64.7860824  13.3079090
  62.0877506  64.3135117  12.0496953  64.2025817  59.2922925  17.6949000
  63.5490230  58.9771942  17.0705614  64.1606292  58.6698665  18.4208823
  65.3137022  69.5742220   9.6102292  64.4064084  69.3431474   9.8093441
  65.8108054  68.7779839   9.7976273  68.2205101  78.2839727  12.5298978
  67.5466800  78.5871424  13.1383936  68.6070923  79.0868808  12.1804435
  67.4363558  65.7804859  22.0196647  66.5186119  66.0019806  21.8618335
  67.8523701  65.8551169  21.1608355  68.2198606  67.1796274  17.1499328
  68.9670425  67.6917671  16.8406450  68.4890195  66.8580327  18.0103721
  66.4925256  69.6754815  14.1326282  65.5836475  69.3913848  14.2298752
  66.5220340  70.0953894  13.2729589  71.7244523  73.2861404  17.9017449
  71.2706850  72.4452314  17.9582640  71.0938490  73.9222803  18.2392230
  70.6677443  64.2153390  19.1318117  69.9300200  63.7030777  19.4628359
  70.9204216  63.7753772  18.3201394  70.1677462  75.1237901  18.8367268
  70.4600437  75.6842958  18.1179633  70.6776083  75.4166462  19.5920427
  70.7689070  56.9929642  19.7259886  71.0747947  56.1327006  19.4385801
  71.4941675  57.5847263  19.5258880  57.0613426  67.3960329  18.1141484
  56.8637826  66.8029690  17.3892551  56.5060090  67.0912539  18.8317423
  65.0410150  67.2883436  20.2336077  65.0958760  66.3357272  20.1578554
  64.2301352  67.4442875  20.7177376  66.1901344  71.2163559  11.4714360
  65.7520773  70.4999418  11.0119998  66.9311784  71.4439673  10.9099452
  62.9802510  65.9060495  17.9926456  62.1670375  66.2054666  18.3991648
  63.4761504  65.5116184  18.7100938  65.1311088  75.9018252  19.9260721
  65.0887266  76.1279099  18.9969253  66.0473786  75.6681627  20.0746522
  74.3074458  69.4920756  17.5290679  74.1692357  69.6822352  16.6011868
  73.9510677  70.2540138  17.9858730  62.4716584  63.4778851  23.6087691
  63.1115964  63.3367610  22.9110654  61.6394115  63.1913364  23.2326293
  74.3343838  71.5597283  22.5401951  74.7680345  71.4672572  23.3885005
  75.0475419  71.5354783  21.9021967  63.2476888  72.7781281  19.7222684
  64.0417487  72.2831601  19.5205258  62.5368581  72.2499144  19.3590389
  68.0671733  75.1599377  24.0735051  68.1208755  75.7290313  24.8412767
  67.1986514  75.3301262  23.7089088  59.5559652  66.9224363  15.7982436
  58.6257240  66.8608818  16.0152398  59.6517124  66.4000316  15.0019077
  59.4745201  63.4479176  18.3860678  59.7352018  64.3624509  18.2769838
  60.2962373  62.9803618  18.5357291  75.1959388  71.6020983  25.0734836
  75.3895278  72.5066794  25.3194111  75.0960006  71.1428402  25.9073421
  67.0259833  69.3259639  25.6321983  67.9551893  69.4770798  25.4590950
  66.6050863  69.4143660  24.7770629  65.8248164  73.3510303  23.4020521
  65.6859250  72.9829088  24.2746459  65.0362761  73.8657943  23.2304478
  66.4196316  78.4519400  14.7446057  66.5948072  77.9807443  15.5591680
  65.7329104  79.0785166  14.9727318  67.3753380  72.7291906  20.7909358
  67.0403212  72.6892676  21.6867008  66.8757325  72.0636622  20.3179769
  70.3112571  70.0747940  11.0646418  69.6941742  69.3494768  10.9679471
  69.8429060  70.8357301  10.7213492  71.9666703  74.7846849  28.7252198
  71.9079249  74.1006069  28.0582781  72.3686221  75.5265839  28.2732824
  60.9857402  81.6008762  21.5185917  61.2254000  82.2327287  22.1964936
  60.1426598  81.2496802  21.8051277  62.1011117  64.2933365  10.1867722
  61.2240583  64.1722165   9.8229969  62.5768870  63.5019443   9.9346611
  71.9684110  72.7486433  26.9566178  71.0810889  72.4112354  27.0792577
  72.5382661  72.0169464  27.1934943  53.6213257  69.0810524  20.2809229
  54.3084297  68.7672254  19.6930245  53.4661386  69.9851889  20.0076481
  65.4985263  77.4087885  23.9227421  65.4255435  78.2142856  24.4346726
  65.0562657  77.6079851  23.0975443  65.2875043  76.6459655  17.4330243
  64.5042565  77.1881335  17.5268467  65.9867788  77.1633635  17.8324484
  68.5971693  62.4554284  20.0764448  69.0940393  61.7024247  19.7565518
  67.8258675  62.4918601  19.5107658  76.4501451  68.1594650  21.7182740
  76.4391327  69.0419365  21.3476673  75.5818830  67.8066201  21.5237277
  67.9583947  77.3074719  26.0785580  68.6711919  77.9422184  26.0061481
  67.4673976  77.4038585  25.2625582  69.6801474  71.2125972  17.6502872
  68.7457753  71.3327434  17.4807576  69.8578142  70.3098438  17.3862881
  65.1806662  64.5971667  19.8036133  64.8104449  64.0442708  20.4917038
  65.6765754  63.9929801  19.2511133  73.0674025  67.0543291  18.1852906
  73.5334477  67.8871282  18.1113208  73.5181526  66.5888272  18.8898164
  63.0095861  75.0569162  26.8991151  63.7105320  75.6905645  27.0520545
  62.5390976  75.3983894  26.1386790  71.1350256  73.3987112  15.1839058
  71.4110100  73.2843707  16.0932932  70.2654755  73.0004597  15.1451231
  71.0390688  59.4223878  22.2243807  70.1253768  59.6528105  22.3926014
  71.4683789  59.5062322  23.0757839  70.8097147  67.6113770  24.7243701
  70.1568597  67.8589677  24.0696154  71.1877526  66.7977908  24.3906178
  67.7704320  77.6473463  18.8271871  67.9526715  76.8295119  19.2899624
  68.5937306  77.8641155  18.3896761  68.1046486  76.5741648  16.0886920
  68.6334252  76.0634103  15.4757082  68.3674705  76.2584178  16.9532453
  58.6063579  74.5905517  23.8322253  59.1917015  73.8449205  23.9650158
  58.4088417  74.9009474  24.7158917  61.4602234  77.6256765  18.8484696
  60.7912609  78.1102892  18.3648736  61.3215104  77.8725985  19.7628074
  53.1981233  67.1611118  22.5526697  53.2365333  66.6274708  23.3463815
  52.6921526  66.6346323  21.9337674  65.6007502  79.6600508  25.4467354
  66.1525810  79.8232130  26.2116439  65.9413696  80.2504946  24.7747379
  56.8289811  65.8875220  15.6280628  57.1243252  64.9785898  15.5747682
  55.9277847  65.8662959  15.3061630  68.7375890  77.6082484  22.4331036
  68.6127029  76.8072224  21.9241982  69.3954981  78.1028677  21.9445006
  60.3584058  63.9631216  21.6108177  59.6370644  64.5767184  21.4715650
  61.1477314  64.4988981  21.5324823  70.8010798  75.4091504  24.0610586
  69.8541134  75.2896855  23.9888913  71.1493571  74.5214002  24.1436848
  58.5577653  63.5689317  15.7519953  58.2290359  62.6886696  15.5695059
  58.9117023  63.5136986  16.6396342  67.8057231  75.2044220  20.2614939
  67.6582194  74.2760928  20.4422509  68.6310725  75.2264311  19.7772014
  61.6719476  63.8562287  16.1195431  62.0115548  64.3848209  15.3974039
  62.1191596  64.1942693  16.8953997  71.4091353  76.0272779  21.3479811
  72.3337901  75.8215640  21.2104263  71.2406657  75.7789180  22.2569153
  63.6587623  62.3536909  14.3188724  64.3795985  62.7318162  13.8152440
  63.0352927  63.0725786  14.4223702  67.8018746  63.0582058  15.2547056
  68.0182360  63.9406696  14.9535884  67.3212813  62.6668271  14.5252698
  64.4014350  63.0070319  21.8798690  64.3875919  62.1111412  21.5430988
  65.1186778  63.0140983  22.5136976  71.1986669  76.5458446  16.7041903
  71.3723547  75.9804869  15.9515755  71.6915561  77.3459341  16.5221393
  63.8051246  61.8884699  17.1486260  63.9267157  60.9601346  17.3477148
  63.5153288  61.9023385  16.2364576  66.6742436  59.5739610  20.2852980
  66.6964133  59.6378943  19.3304960  67.0910495  58.7344118  20.4793486
  77.0526061  69.3094869  18.3232203  77.4957207  68.5602195  17.9251326
  76.1752571  69.3005006  17.9405935  72.1861842  75.8625211  13.8038801
  72.8812747  76.4831903  14.0226116  72.5284992  75.0120562  14.0791179
  74.0853265  73.3124916  15.3326132  74.6104589  73.6512189  14.6075452
  73.9975618  72.3771932  15.1489267  65.7473314  77.2258990  27.4616009
  66.0560440  76.9808137  28.3338708  66.5448796  77.4305628  26.9734879
  65.7693926  79.3796900  19.6921385  65.3298916  78.8873278  20.3854242
  66.5202043  78.8369867  19.4513460  58.2486265  75.5708440  19.6946013
  59.0744285  75.2712212  19.3144657  57.8980317  74.8016063  20.1435802
  63.2167798  74.9234909  21.7643687  62.5947807  74.2605614  21.4645915
  63.8872665  74.9496041  21.0817335  56.4494870  73.4894767  20.6534947
  55.6126778  73.0616941  20.4718948  56.4218515  73.6827210  21.5905738
  73.8945046  70.7950286  27.9510058  73.9443051  70.6300294  28.8925581
  73.7858969  69.9277545  27.5607939  62.7781305  73.4738832  15.2402147
  62.9269425  74.1574296  14.5868820  63.5847748  73.4543922  15.7551603
  75.3963243  73.2147228  28.1952080  75.1048051  73.5777208  29.0315541
  74.7835374  72.5014236  28.0165412  76.5958925  70.7800108  20.7154650
  77.4305817  71.2189912  20.8792211  76.7318054  70.3038761  19.8962896
  73.6450431  68.3379842  26.6632138  74.1204553  68.5307489  25.8550989
  72.7215997  68.3939028  26.4175522  60.5333938  69.5004010  16.2463216
  60.2879980  68.5966340  16.4443426  60.7029852  69.5021160  15.3042694
  59.8029585  65.2332367  13.7449378  59.1098830  65.3076722  13.0889414
  59.5581337  64.4692711  14.2670895  68.4743242  56.7927969  21.1488868
  68.7544996  56.1251158  21.7749295  69.2593849  56.9857064  20.6363532
  66.2776710  75.9686962  12.7113895  65.7050677  76.5877150  12.2584367
  66.8509504  76.5186324  13.2453817  72.3452100  65.2145603  24.8960444
  73.2969523  65.3143700  24.9172668  72.1755551  64.4223871  25.4058528
  69.4973970  76.2524113  13.8422477  70.4304643  76.1869674  14.0455353
  69.4097183  77.0880379  13.3837010  72.1261987  75.5689983  10.8026425
  72.0475618  75.2349847  11.6962182  72.9471654  76.0611751  10.8017897
  74.8240178  68.4351722  24.0102743  74.7916498  67.4967723  24.1962427
  75.4340802  68.5135759  23.2768568  66.6623509  67.3047775  10.0529947
  67.6082614  67.1753983  10.1218365  66.2837754  66.5662437  10.5299375
  74.9734666  65.2262766  24.0561026  74.4573715  64.4421222  23.8690955
  75.8574615  64.8981482  24.2207546  72.6345393  58.9703781  20.0156839
  72.4370215  58.6618869  20.9000171  73.2445099  59.6965420  20.1454769
  80.6416728  69.4967729  23.1508780  81.3720116  69.2353017  23.7116483
  80.0323673  68.7596451  23.1910848  78.7232025  67.6375592  23.7483231
  77.9965189  67.5031557  23.1399723  78.3079312  67.9452420  24.5539949
  64.8466426  65.2297752   9.9884832  63.9397881  64.9330864  10.0647546
  65.1242407  64.9327570   9.1219119  55.7644366  66.5504115  20.4383879
  55.4447151  65.6969423  20.1458253  55.2177795  66.7652693  21.1941846
  66.4628492  59.7734641  16.1429074  65.6529220  59.4281726  16.5184320
  67.1512909  59.4642185  16.7316685  68.3919040  58.8512688  17.7653370
  68.9450079  59.2708142  18.4243393  68.6289126  57.9248436  17.8076326
  63.6165211  62.0884687  10.1296812  64.4784375  62.4139585  10.3892629
  63.8015555  61.3016183   9.6169877  55.6332626  70.1707026  22.4077000
  54.9396098  69.7560979  21.8946955  56.3805617  70.2127563  21.8110419
  71.7697847  60.9613213  17.2732035  71.1896516  61.6198017  16.8910087
  71.5033780  60.1390558  16.8619452  70.2201413  60.3618271  19.4753355
  70.7201192  60.4734806  18.6667674  70.8637021  60.0579324  20.1154163
  57.5469369  70.1025280  20.2843015  57.5240057  70.2012968  19.3324898
  57.8570005  70.9490431  20.6060181  70.5522725  63.1213304  16.3288383
  69.6648580  63.4062954  16.1108578  70.9676714  62.9607067  15.4815660
  73.9037261  63.1459825  20.0442722  74.6797651  63.6356277  20.3167339
  73.1785395  63.5717879  20.5014592  76.3409820  63.8587444  21.1016663
  76.9354311  63.6183180  20.3909971  76.4136404  63.1394574  21.7290199
  58.5606976  77.7021055  21.4159828  58.4261444  76.9421456  20.8497826
  58.1439038  78.4261955  20.9488616  69.6965939  72.8857978  10.4236403
  70.4001789  73.0907981  11.0394059  68.9728587  73.4534740  10.6885486
  70.5263749  68.6367840  16.5438673  70.4698950  69.0936391  15.7046305
  71.0792091  67.8758524  16.3661516  74.3368555  64.4257571  17.3688793
  74.0805489  64.0254207  18.1997000  73.7121423  65.1401365  17.2438932
  78.6480893  67.1653645  19.8760084  78.0880451  67.2346834  20.6491646
  78.0424396  66.9894629  19.1559580  61.7176101  78.5990372  21.6278270
  61.6008486  79.5435804  21.5256961  60.8968548  78.2963933  22.0164069
  71.6052636  73.3240508  12.4734863  72.4398240  72.8921706  12.2912338
  71.4436979  73.1522521  13.4011757  71.2598528  69.8272621  13.8391202
  71.2047332  69.6616892  12.8979646  70.6344583  70.5348654  13.9953392
  64.5694654  59.3280730  13.4176521  64.5573323  60.2722570  13.5744792
  65.4618076  59.1450875  13.1235982  62.7430616  79.2518634  24.8434199
  63.6457862  79.2842244  25.1600694  62.5167986  78.3219085  24.8580534
  64.4984218  78.0049620  21.5044277  63.5479849  78.0051482  21.3908650
  64.8016704  77.2582355  20.9880312  68.3846773  55.9223506  17.6722457
  67.6179169  55.3681993  17.8179140  68.7957478  55.9945375  18.5336609
  80.2336911  83.8410159  22.5690040  80.8715321  83.7216906  21.8653380
  80.1157754  84.7891003  22.6277992  77.0426617  83.7937587  22.5051564
  76.7045129  83.6778651  21.6172099  77.9116386  83.3928752  22.4852571
  72.9013433  85.6473063  18.4948455  72.3378298  85.5563000  17.7264743
  72.7865828  84.8272968  18.9750948  77.5246400  84.9472438  28.4637770
  77.5135041  84.5525237  27.5918274  77.6867040  84.2138511  29.0571541
  70.4477865  87.1424255  21.3332676  71.2399157  86.8015079  20.9178975
  70.6874515  87.2519230  22.2534829  78.4812992  89.3144031  13.8062920
  77.8300972  89.8998111  13.4196934  79.2757355  89.8450226  13.8657958
  72.4068619  86.4033168  14.2050055  73.1799495  85.8562155  14.0662930
  72.7594018  87.2677417  14.4164516  74.2453662  87.7309550  27.4116954
  73.9543527  88.6355181  27.2963620  74.8810646  87.7726078  28.1261023
  75.1709868  85.1086399  24.0018314  75.7673441  84.8842421  23.2875276
  75.2284840  84.3671144  24.6043761  74.7434897  82.5625834  11.8368505
  74.9960417  82.0407355  11.0751968  73.8059456  82.3991980  11.9395188
  79.7878180  81.5661612  19.6443248  80.5741269  81.1481036  19.2933665
  80.0516884  82.4707705  19.8124896  79.9588257  87.0034463  14.3431905
  79.3234090  87.0769089  15.0552809  79.6285663  87.5928062  13.6650984
  85.1886607  81.5036846  20.5476226  85.9211779  80.9336063  20.7814056
  84.4325962  81.1158446  20.9882732  74.4631186  84.4653940  14.0392879
  74.3467444  83.7898843  14.7073964  74.5733445  83.9786314  13.2225033
  76.8062726  83.9264087  17.7439569  76.4420934  83.3994708  18.4552490
  77.6629842  83.5362556  17.5706054  82.7112027  75.2158420  25.0070835
  82.3795352  76.0853831  24.7832050  82.1157640  74.8994704  25.6864865
  76.4468213  78.9553987  12.7400917  76.6142616  79.8234223  13.1071388
  76.2565382  79.1181269  11.8162206  79.2043547  87.4170966  24.4066748
  78.9044270  88.3196005  24.2982555  78.8594606  87.1503149  25.2587900
  72.6556028  83.8684763  20.4403452  71.7306525  83.7360977  20.6481144
  72.9040441  84.6478982  20.9373394  82.6040690  79.9353506  22.0864185
  81.6957568  79.8668914  21.7922946  82.5528286  80.4125451  22.9146010
  76.4257434  81.4111644  13.7247584  76.3057059  81.8568695  14.5633064
  75.7310023  81.7596962  13.1661122  70.0164839  83.5118036  21.2747241
  70.1457220  83.7652515  22.1886653  69.3362290  84.1045744  20.9551896
  74.1864326  94.1815286  17.3737715  74.1088356  95.1323111  17.4526196
  73.5825970  93.8361159  18.0312642  76.6781556  81.3543152  30.0299082
  75.9014890  81.9137072  30.0201947  77.3172119  81.8399935  30.5513952
  84.4702337  78.1369944  23.8642059  83.8276717  78.4302478  23.2181853
  83.9657265  78.0222865  24.6695255  82.1242500  81.8833118  14.5527918
  83.0360357  82.1160504  14.3775616  81.6152148  82.4670162  13.9902997
  74.9327928  84.1628605  29.5917049  75.6742613  84.7013649  29.3151873
  74.2264914  84.7894894  29.7488601  80.4083268  86.3057745  28.1889211
  80.8166624  85.8640156  27.4443843  79.6860530  85.7310373  28.4423404
  76.7614338  81.2430352  25.5622768  77.6075533  81.6669766  25.7057417
  76.7012976  80.5863976  26.2561331  80.7312083  86.8658936  21.9441500
  80.1020945  87.0304650  21.2417567  80.3437745  87.2800546  22.7152464
  84.6101315  87.8013374  19.2985863  83.9252353  88.1812275  18.7482897
  84.6945164  88.4108701  20.0317811  79.9113783  78.9034721  27.2203941
  79.6674715  79.6576781  26.6838217  80.1873714  79.2820068  28.0551188
  81.8652246  85.4473333  25.8981207  82.0769142  86.0905093  25.2215588
  81.8181995  84.6135649  25.4303137  79.4678475  78.0591154  22.8017779
  78.6062954  78.3572407  23.0934517  79.4940910  78.2761552  21.8698812
  76.2840045  86.6033344  19.2091585  76.7478390  86.8821047  18.4196207
  76.0196843  85.7016789  19.0264675  73.1764126  86.1504826  22.1471348
  73.7465483  86.5792094  21.5088832  73.7672238  85.8687410  22.8455534
  75.2208931  82.7256496  16.0181150  75.9232974  83.1777540  16.4855076
  74.8889559  82.0840315  16.6461043  73.6689292  81.3168253  30.3932359
  73.0387953  81.9984534  30.6267756  73.5625380  81.2051335  29.4485497
  68.9634265  80.9840049  21.3198283  68.1733319  81.2397578  20.8438394
  69.4545512  81.7988387  21.4250324  82.9798074  88.3245288  24.0703564
  83.8015518  87.9225476  23.7886246  82.9760477  88.2213522  25.0219680
  70.9149010  81.3484628  18.2781760  70.1180173  81.4603323  18.7965256
  70.6874602  81.6871281  17.4122651  76.7454678  87.8729332  26.2264275
  76.8099110  88.3349739  27.0622447  76.0365602  87.2426697  26.3546585
  67.2471968  81.2370540  23.7513274  67.4980006  82.1217550  24.0170850
  67.7831516  81.0575141  22.9788366  91.0704067  84.6684037  20.4188536
  90.3167776  84.0991435  20.2632540  91.2051608  84.6346701  21.3659170
  76.4602695  89.5397439  16.0943255  76.3248370  90.3848975  16.5228103
  77.0012508  89.7416717  15.3309189  69.9132093  87.0572877  16.6671180
  70.4256613  87.8516127  16.8176745  70.5654806  86.3599168  16.6004782
  71.7226977  90.1738633  18.7493933  71.8993606  91.0956598  18.5614917
  72.5183811  89.8597053  19.1788313  71.0079334  82.2203265  28.6256096
  70.8932849  81.3188523  28.9263195  70.1523852  82.4666962  28.2740913
  78.0871172  90.1621006  30.2243597  77.6435026  89.3757384  29.9064502
  78.7488385  90.3500156  29.5587488  72.8458293  91.6916807  24.7504276
  73.3965718  91.5633871  23.9781270  72.0069769  91.9911696  24.3999168
  80.1852410  90.4423806  28.2524998  80.1670885  91.2632687  27.7605268
  81.1072330  90.3177881  28.4775140  76.6425464  87.9567935  29.0948507
  77.1753801  87.1956223  28.8647815  76.1139545  87.6641587  29.8372661
  79.8095159  73.0628001  24.6242148  79.4659428  73.9529643  24.5481259
  80.1774121  72.8729659  23.7611733  67.8781009  85.3861531  17.4430751
  68.7156231  85.7958540  17.2264458  68.0559277  84.4460974  17.4130945
  79.7745442  83.0536612  13.1314584  79.2592065  83.8241217  13.3702971
  79.5022750  82.3801748  13.7547645  77.3592553  77.8986313  18.1899822
  76.5034149  77.5093163  18.0105461  77.7719504  77.9778274  17.3299607
  78.8891699  75.4332656  22.5891382  78.3856495  75.3962791  21.7759187
  79.1822306  76.3425399  22.6488038  75.1334585  75.5171386  21.5957563
  75.9987582  75.3214195  21.2363453  75.2012094  75.2881738  22.5226920
  84.7479716  85.8068967  15.0667757  83.9709159  85.4680126  14.6222919
  85.4271197  85.8121590  14.3922722  79.5631745  80.9263704  14.9574365
  79.2581880  81.2409853  15.8084508  80.5162187  81.0045124  15.0001698
  78.0078177  87.0853928  16.6067319  77.4799538  86.3506687  16.2940556
  77.5065679  87.8628604  16.3607287  82.9871023  85.2802948  21.7234365
  82.3294697  85.9702209  21.8114494  83.7911422  85.6699380  22.0668351
  72.7396904  77.7473594  18.9673930  73.3140656  77.5248775  18.2347123
  73.3267887  77.8162288  19.7202532  81.7976481  83.6347321  19.7738307
  82.3108363  84.2677313  20.2760017  82.4477705  83.0348516  19.4081667
  73.0666491  79.7778055  12.9869816  72.2303804  80.1152741  13.3079090
  72.9271261  79.6427035  12.0496953  75.0419572  74.6214843  17.6949000
  74.3883984  74.3063860  17.0705614  75.0000046  73.9990583  18.4208823
  76.1530777  84.9034138   9.6102292  75.2457839  84.6723391   9.8093441
  76.6501809  84.1071757   9.7976273  78.2757312  81.1096776  22.0196647
  77.3579874  81.3311723  21.8618335  78.6917456  81.1843087  21.1608355
  79.0592360  82.5088192  17.1499328  79.8064179  83.0209589  16.8406450
  79.3283950  82.1872245  18.0103721  77.3319010  85.0046733  14.1326282
  76.4230229  84.7205765  14.2298752  77.3614094  85.4245811  13.2729589
  82.5638278  88.6153322  17.9017449  82.1100605  87.7744232  17.9582640
  81.9332244  89.2514721  18.2392230  81.5071197  79.5445308  19.1318117
  80.7693954  79.0322694  19.4628359  81.7597971  79.1045690  18.3201394
  81.0071217  90.4529819  18.8367268  81.2994191  91.0134876  18.1179633
  81.5169837  90.7458380  19.5920427  81.6082825  72.3221560  19.7259886
  81.9141701  71.4618924  19.4385801  82.3335429  72.9139180  19.5258880
  67.9007181  82.7252247  18.1141484  67.7031580  82.1321607  17.3892551
  67.3453845  82.4204457  18.8317423  75.8803904  82.6175353  20.2336077
  75.9352514  81.6649190  20.1578554  75.0695106  82.7734792  20.7177376
  77.0295098  86.5455476  11.4714360  76.5914528  85.8291335  11.0119998
  77.7705539  86.7731591  10.9099452  73.8196264  81.2352413  17.9926456
  73.0064130  81.5346584  18.3991648  74.3155258  80.8408102  18.7100938
  75.9704842  91.2310170  19.9260721  75.9281021  91.4571016  18.9969253
  76.8867541  90.9973544  20.0746522  79.4170476  81.6994237  26.8241350
  79.7719864  81.9265711  27.6835816  80.0642607  82.0312614  26.2018605
  85.1468213  84.8212673  17.5290679  85.0086111  85.0114269  16.6011868
  84.7904432  85.5832056  17.9858730  73.3110339  78.8070769  23.6087691
  73.9509718  78.6659528  22.9110654  72.4787870  78.5205282  23.2326293
  85.1737592  86.8889200  22.5401951  85.6074099  86.7964489  23.3885005
  85.8869173  86.8646701  21.9021967  74.0870643  88.1073199  19.7222684
  74.8811241  87.6123519  19.5205258  73.3762335  87.5791062  19.3590389
  78.9065487  90.4891294  24.0735051  78.9602510  91.0582231  24.8412767
  78.0380269  90.6593179  23.7089088  70.3953406  82.2516281  15.7982436
  69.4650994  82.1900736  16.0152398  70.4910878  81.7292233  15.0019077
  70.3138955  78.7771093  18.3860678  70.5745773  79.6916427  18.2769838
  71.1356128  78.3095536  18.5357291  71.7863881  80.1908851  25.5559502
  72.4586934  79.9826213  24.9072151  70.9593667  79.9930937  25.1164735
  86.0353142  86.9312901  25.0734836  86.2289032  87.8358712  25.3194111
  85.9353760  86.4720320  25.9073421  77.6889453  76.8170792  27.5725163
  77.0417368  77.5160741  27.4789640  78.4590468  77.2506936  27.9401411
  81.0968251  87.0819644  30.6475717  80.9453757  86.8530195  29.7305800
  81.0872930  88.0390245  30.6607062  77.8653587  84.6551556  25.6321983
  78.7945647  84.8062716  25.4590950  77.4444617  84.7435577  24.7770629
  76.6641919  88.6802221  23.4020521  76.5253005  88.3121005  24.2746459
  75.8756515  89.1949860  23.2304478  77.2590071  93.7811317  14.7446057
  77.4341827  93.3099361  15.5591680  76.5722859  94.4077084  14.9727318
  78.2147134  88.0583824  20.7909358  77.8796967  88.0184594  21.6867008
  77.7151080  87.3928540  20.3179769  72.1891378  83.4651454  26.3161940
  72.0511176  82.7331692  26.9173479  73.0996301  83.3760354  26.0346127
  81.1506326  85.4039858  11.0646418  80.5335496  84.6786686  10.9679471
  80.6822814  86.1649218  10.7213492  74.8173679  83.1771413  25.8045619
  75.5273297  82.5364605  25.7632238  74.7742987  83.4284308  26.7271800
  82.8060457  90.1138766  28.7252198  82.7473003  89.4297986  28.0582781
  83.2079976  90.8557756  28.2732824  73.5302613  80.1636631  27.6241259
  72.9939970  79.7127369  28.2762855  72.9419321  80.2982540  26.8811723
  71.8251156  96.9300680  21.5185917  72.0647754  97.5619204  22.1964936
  70.9820353  96.5788720  21.8051277  72.9404872  79.6225282  10.1867722
  72.0634338  79.5014083   9.8229969  73.4162625  78.8311361   9.9346611
  82.8077865  88.0778350  26.9566178  81.9204643  87.7404272  27.0792577
  83.3776416  87.3461381  27.1934943  64.4607012  84.4102442  20.2809229
  65.1478052  84.0964172  19.6930245  64.3055140  85.3143807  20.0076481
  69.2641734  79.2992639  24.7094253  69.1799923  78.6918308  23.9744663
  68.4424440  79.7901657  24.7103749  76.3379018  92.7379803  23.9227421
  76.2649189  93.5434774  24.4346726  75.8956411  92.9371768  23.0975443
  76.1268798  91.9751573  17.4330243  75.3436319  92.5173253  17.5268467
  76.8261543  92.4925552  17.8324484  79.4365448  77.7846202  20.0764448
  79.9334147  77.0316164  19.7565518  78.6652429  77.8210519  19.5107658
  87.2895205  83.4886568  21.7182740  87.2785081  84.3711283  21.3476673
  86.4212585  83.1358118  21.5237277  78.7977701  92.6366637  26.0785580
  79.5105674  93.2714101  26.0061481  78.3067730  92.7330503  25.2625582
  80.5195228  86.5417889  17.6502872  79.5851507  86.6619352  17.4807576
  80.6971897  85.6390356  17.3862881  76.0200416  79.9263585  19.8036133
  75.6498204  79.3734625  20.4917038  76.5159509  79.3221719  19.2511133
  83.9067780  82.3835209  18.1852906  84.3728232  83.2163200  18.1113208
  84.3575280  81.9180190  18.8898164  73.8489615  90.3861080  26.8991151
  74.5499075  91.0197563  27.0520545  73.3784730  90.7275812  26.1386790
  81.9744011  88.7279030  15.1839058  82.2503855  88.6135624  16.0932932
  81.1048510  88.3296515  15.1451231  81.8784442  74.7515796  22.2243807
  80.9647522  74.9820022  22.3926014  82.3077544  74.8354240  23.0757839
  81.6490901  82.9405688  24.7243701  80.9962351  83.1881595  24.0696154
  82.0271281  82.1269826  24.3906178  78.6098075  92.9765381  18.8271871
  78.7920469  92.1587037  19.2899624  79.4331061  93.1933073  18.3896761
  78.9440240  91.9033566  16.0886920  79.4728007  91.3926020  15.4757082
  79.2068460  91.5876096  16.9532453  77.6978474  83.6825499  31.2109738
  77.0219111  83.5819628  31.8812113  78.5206108  83.5264712  31.6745735
  69.4457333  89.9197435  23.8322253  70.0310770  89.1741123  23.9650158
  69.2482172  90.2301392  24.7158917  72.2995988  92.9548683  18.8484696
  71.6306364  93.4394810  18.3648736  72.1608858  93.2017903  19.7628074
  64.0374988  82.4903035  22.5526697  64.0759087  81.9566626  23.3463815
  63.5315281  81.9638241  21.9337674  76.4401257  94.9892426  25.4467354
  76.9919565  95.1524048  26.2116439  76.7807450  95.5796864  24.7747379
  71.4165750  77.3367576  26.0489239  71.4807077  78.1982407  25.6366637
  71.3532870  76.7241577  25.3161597  70.8918023  79.4090708  29.6962273
  71.5190061  79.0267786  30.3099797  70.0345942  79.1904910  30.0617966
  81.2912131  89.8153684  31.3016009  81.8352035  90.4283642  30.8070963
  80.7098976  90.3733262  31.8183022  67.6683565  81.2167137  15.6280628
  67.9637006  80.3077816  15.5747682  66.7671601  81.1954877  15.3061630
  79.5769644  92.9374402  22.4331036  79.4520784  92.1364141  21.9241982
  80.2348735  93.4320595  21.9445006  71.1977812  79.2923134  21.6108177
  70.4764398  79.9059102  21.4715650  71.9871068  79.8280899  21.5324823
  81.6404553  90.7383422  24.0610586  80.6934888  90.6188773  23.9888913
  81.9887326  89.8505920  24.1436848  74.0004126  76.6277561  27.8848828
  74.5238528  76.8739857  28.6475138  73.7816459  77.4597595  27.4651966
  69.3971407  78.8981235  15.7519953  69.0684113  78.0178614  15.5695059
  69.7510778  78.8428904  16.6396342  78.6450986  90.5336138  20.2614939
  78.4975948  89.6052845  20.4422509  79.4704479  90.5556229  19.7772014
  72.5113230  79.1854205  16.1195431  72.8509303  79.7140126  15.3974039
  72.9585351  79.5234611  16.8953997  82.2485108  91.3564697  21.3479811
  83.1731655  91.1507558  21.2104263  82.0800411  91.1081098  22.2569153
  75.2056671  77.5691256  25.5698499  74.8653491  76.7699069  25.9719179
  74.4995677  77.8692967  24.9975332  75.8573143  74.6540568  24.0225822
  76.6799212  74.1801046  23.9004712  76.1011206  75.4331052  24.5224508
  74.4981377  77.6828827  14.3188724  75.2189740  78.0610079  13.8152440
  73.8746681  78.4017703  14.4223702  78.6412500  78.3873976  15.2547056
  78.8576115  79.2698613  14.9535884  78.1606567  77.9960189  14.5252698
  73.3811722  81.3459689  21.8317800  73.2356302  81.6599992  22.7242082
  72.9036925  81.9644589  21.2788699  75.2408104  78.3362237  21.8798690
  75.2269673  77.4403330  21.5430988  75.9580533  78.3432900  22.5136976
  77.0934235  78.7699577  23.9251817  76.8352013  79.6916648  23.9236148
  76.5619276  78.3730011  24.6152282  82.0380424  91.8750364  16.7041903
  82.2117301  91.3096787  15.9515755  82.5309315  92.6751259  16.5221393
  67.8557384  83.8865033  24.7705462  67.3110852  84.6624841  24.9025736
  68.7336734  84.2335838  24.6124583  74.6445000  77.2176617  17.1486260
  74.7660912  76.2893263  17.3477148  74.3547043  77.2315303  16.2364576
  77.5136191  74.9031527  20.2852980  77.5357888  74.9670861  19.3304960
  77.9304250  74.0636036  20.4793486  87.8919815  84.6386787  18.3232203
  88.3350961  83.8894112  17.9251326  87.0146325  84.6296923  17.9405935
  83.0255596  91.1917128  13.8038801  83.7206501  91.8123821  14.0226116
  83.3678747  90.3412480  14.0791179  68.6423406  83.0134929  27.6635619
  67.9005142  83.1617565  28.2500249  68.3216150  83.2743195  26.8002368
  84.9247020  88.6416834  15.3326132  85.4498344  88.9804107  14.6075452
  84.8369372  87.7063849  15.1489267  76.5867068  92.5550908  27.4616009
  76.8954195  92.3100054  28.3338708  77.3842550  92.7597546  26.9734879
  76.6087680  94.7088817  19.6921385  76.1692671  94.2165196  20.3854242
  77.3595797  94.1661785  19.4513460  69.0880019  90.9000358  19.6946013
  69.9138039  90.6004130  19.3144657  68.7374071  90.1307981  20.1435802
  74.0561552  90.2526826  21.7643687  73.4341562  89.5897531  21.4645915
  74.7266419  90.2787958  21.0817335  67.2888624  88.8186685  20.6534947
  66.4520533  88.3908859  20.4718948  67.2612270  89.0119128  21.5905738
  84.6140926  89.2749738  30.6377330  83.8236469  89.2573876  30.0981829
  84.3774280  89.8138031  31.3926366  84.7338801  86.1242204  27.9510058
  84.7836806  85.9592211  28.8925581  84.6252724  85.2569463  27.5607939
  73.6175059  88.8030750  15.2402147  73.7663180  89.4866214  14.5868820
  74.4241503  88.7835840  15.7551603  82.0242563  82.1073132  29.2669365
  82.9252426  81.9679597  28.9753363  82.0990538  82.2727587  30.2067543
  76.3585368  79.4839987  28.1122551  75.4888678  79.7773553  27.8405140
  76.5944849  80.0680432  28.8329815  86.2356997  88.5439146  28.1952080
  85.9441806  88.9069126  29.0315541  85.6229129  87.8306154  28.0165412
  87.4352680  86.1092025  20.7154650  88.2699571  86.5481829  20.8792211
  87.5711809  85.6330679  19.8962896  84.4844186  83.6671760  26.6632138
  84.9598307  83.8599406  25.8550989  83.5609751  83.7230946  26.4175522
  71.3727692  84.8295927  16.2463216  71.1273734  83.9258257  16.4443426
  71.5423607  84.8313078  15.3042694  79.0624402  75.7019604  25.6287972
  79.5806346  76.4380631  25.3034460  78.7079535  76.0083597  26.4634731
  70.6423340  80.5624285  13.7449378  69.9492585  80.6368640  13.0889414
  70.3975092  79.7984629  14.2670895  79.3136996  72.1219886  21.1488868
  79.5938750  71.4543075  21.7749295  80.0987603  72.3148982  20.6363532
  77.1170465  91.2978880  12.7113895  76.5444432  91.9169067  12.2584367
  77.6903259  91.8478242  13.2453817  83.1845855  80.5437520  24.8960444
  84.1363278  80.6435618  24.9172668  83.0149305  79.7515789  25.4058528
  81.2060234  77.6293103  25.0819844  80.6110166  77.9098116  24.3866333
  80.9209931  78.1187004  25.8536586  80.3367725  91.5816030  13.8422477
  81.2698398  91.5161592  14.0455353  80.2490937  92.4172297  13.3837010
  85.6633932  83.7643640  24.0102743  85.6310253  82.8259641  24.1962427
  86.2734556  83.8427677  23.2768568  77.5017263  82.6339693  10.0529947
  78.4476368  82.5045901  10.1218365  77.1231508  81.8954355  10.5299375
  85.8128421  80.5554683  24.0561026  85.2967470  79.7713140  23.8690955
  86.6968370  80.2273400  24.2207546  83.4739148  74.2995699  20.0156839
  83.2763969  73.9910787  20.9000171  84.0838853  75.0257338  20.1454769
  91.4810482  84.8259647  23.1508780  92.2113871  84.5644935  23.7116483
  90.8717428  84.0888369  23.1910848  89.5625779  82.9667509  23.7483231
  88.8358943  82.8323474  23.1399723  89.1473066  83.2744338  24.5539949
  77.3855956  86.6857439  31.5130604  78.3058965  86.8636038  31.7070651
  77.3505539  85.7413484  31.3610303  75.6860181  80.5589669   9.9884832
  74.7791636  80.2622782  10.0647546  75.9636162  80.2619487   9.1219119
  66.6038121  81.8796033  20.4383879  66.2840905  81.0261341  20.1458253
  66.0571549  82.0944611  21.1941846  70.3818028  84.5958474  24.1553385
  70.6004038  85.5275581  24.1741419  70.7943802  84.2366448  24.9408189
  77.3022246  75.1026559  16.1429074  76.4922975  74.7573644  16.5184320
  77.9906663  74.7934103  16.7316685  79.2312795  74.1804606  17.7653370
  79.7843833  74.6000059  18.4243393  79.4682881  73.2540354  17.8076326
  74.4558965  77.4176604  10.1296812  75.3178129  77.7431503  10.3892629
  74.6409309  76.6308100   9.6169877  66.4726381  85.4998944  22.4077000
  65.7789852  85.0852897  21.8946955  67.2199372  85.5419481  21.8110419
  82.6091602  76.2905131  17.2732035  82.0290271  76.9489935  16.8910087
  82.3427534  75.4682476  16.8619452  81.0595168  75.6910189  19.4753355
  81.5594946  75.8026723  18.6667674  81.7030776  75.3871242  20.1154163
  75.1177164  83.5988818  32.3621196  74.6344246  84.3989178  32.5685085
  75.2038103  83.6096763  31.4088640  68.3863123  85.4317198  20.2843015
  68.3633812  85.5304885  19.3324898  68.6963760  86.2782349  20.6060181
  71.0450501  87.4893353  24.3989630  71.9993755  87.4577295  24.3319561
  70.8463025  87.0283977  25.2139856  71.6349883  86.0594469  26.9660427
  72.4542772  86.5538548  26.9895265  71.9086691  85.1426437  26.9377995
  81.3916480  78.4505221  16.3288383  80.5042335  78.7354872  16.1108578
  81.8070469  78.2898985  15.4815660  84.7431016  78.4751742  20.0442722
  85.5191406  78.9648195  20.3167339  84.0179150  78.9009797  20.5014592
  87.1803574  79.1879362  21.1016663  87.7748065  78.9475097  20.3909971
  87.2530158  78.4686492  21.7290199  69.4000730  93.0312972  21.4159828
  69.2655198  92.2713373  20.8497826  68.9832792  93.7553872  20.9488616
  81.3657503  83.9659757  16.5438673  81.3092705  84.4228309  15.7046305
  81.9185846  83.2050442  16.3661516  85.1762309  79.7549489  17.3688793
  84.9199244  79.3546125  18.1997000  84.5515177  80.4693283  17.2438932
  89.4874647  82.4945562  19.8760084  88.9274205  82.5638752  20.6491646
  88.8818151  82.3186547  19.1559580  72.5569856  93.9282289  21.6278270
  72.4402240  94.8727722  21.5256961  71.7362302  93.6255851  22.0164069
  82.4446390  88.6532425  12.4734863  83.2791994  88.2213624  12.2912338
  82.2830733  88.4814439  13.4011757  82.0992283  85.1564539  13.8391202
  82.0441086  84.9908810  12.8979646  81.4738338  85.8640571  13.9953392
  66.8884798  80.3932603  27.6652624  67.5343661  79.8831557  28.1539850
  66.6801949  81.1301285  28.2396050  79.4138190  87.4613450  33.1644765
  80.2829349  87.6354103  32.8031400  78.9344941  88.2807867  33.0420494
  75.4088408  74.6572648  13.4176521  75.3967078  75.6014487  13.5744792
  76.3011830  74.4742793  13.1235982  73.5824370  94.5810551  24.8434199
  74.4851617  94.6134162  25.1600694  73.3561740  93.6511002  24.8580534
  75.3377972  93.3341538  21.5044277  74.3873603  93.3343400  21.3908650
  75.6410458  92.5874273  20.9880312  79.2240528  71.2515424  17.6722457
  78.4572923  70.6973911  17.8179140  79.6351233  71.3237293  18.5336609
  71.2282289  77.5400220  31.7627639  72.0913750  77.1837025  31.9730963
  70.6547699  77.2014115  32.4503043  91.0730666  99.1702076  22.5690040
  91.7109076  99.0508824  21.8653380  90.9551508 100.1182920  22.6277992
  87.8820372  99.1229504  22.5051564  87.5438883  99.0070569  21.6172099
  88.7510140  98.7220670  22.4852571  88.3640155 100.2764356  28.4637770
  88.3528796  99.8817154  27.5918274  88.5260794  99.5430429  29.0571541
  81.2871619 102.4716172  21.3332676  82.0792911 102.1306997  20.9178975
  81.5268270 102.5811147  22.2534829  85.0847416 103.0601468  27.4116954
  84.7937282 103.9647099  27.2963620  85.7204400 103.1017996  28.1261023
  86.0103623 100.4378316  24.0018314  86.6067195 100.2134339  23.2875276
  86.0678594  99.6963062  24.6043761  93.5505782  90.5450337  25.0070835
  93.2189106  91.4145748  24.7832050  92.9551395  90.2286621  25.6864865
  90.0437301 102.7462883  24.4066748  89.7438024 103.6487922  24.2982555
  89.6988361 102.4795067  25.2587900  83.4949783  99.1976680  20.4403452
  82.5700279  99.0652894  20.6481144  83.7434196  99.9770900  20.9373394
  93.4434445  95.2645424  22.0864185  92.5351322  95.1960832  21.7922946
  93.3922041  95.7417369  22.9146010  80.8558594  98.8409954  21.2747241
  80.9850975  99.0944433  22.1886653  80.1756045  99.4337662  20.9551896
  87.5175311  96.6835069  30.0299082  86.7408645  97.2428989  30.0201947
  88.1565874  97.1691852  30.5513952  95.3096091  93.4661862  23.8642059
  94.6670472  93.7594395  23.2181853  94.8051020  93.3514782  24.6695255
  85.7721683  99.4920523  29.5917049  86.5136367 100.0305567  29.3151873
  85.0658668 100.1186811  29.7488601  91.2477023 101.6349663  28.1889211
  91.6560379 101.1932074  27.4443843  90.5254284 101.0602291  28.4423404
  87.6008093  96.5722270  25.5622768  88.4469288  96.9961683  25.7057417
  87.5406730  95.9155894  26.2561331  90.7507538  94.2326638  27.2203941
  90.5068470  94.9868699  26.6838217  91.0267468  94.6111986  28.0551188
  92.7046001 100.7765251  25.8981207  92.9162896 101.4197010  25.2215588
  92.6575749  99.9427567  25.4303137  90.3072230  93.3883071  22.8017779
  89.4456709  93.6864325  23.0934517  90.3334664  93.6053470  21.8698812
  84.0157880 101.4796743  22.1471348  84.5859237 101.9084012  21.5088832
  84.6065992 101.1979328  22.8455534  84.5083047  96.6460171  30.3932359
  83.8781707  97.3276452  30.6267756  84.4019135  96.5343252  29.4485497
  79.8028019  96.3131967  21.3198283  79.0127073  96.5689495  20.8438394
  80.2939267  97.1280305  21.4250324  81.7542765  96.6776546  18.2781760
  80.9573928  96.7895240  18.7965256  81.5268357  97.0163198  17.4122651
  87.5848432 103.2021249  26.2264275  87.6492865 103.6641657  27.0622447
  86.8759356 102.5718614  26.3546585  78.0865722  96.5662457  23.7513274
  78.3373761  97.4509467  24.0170850  78.6225271  96.3867059  22.9788366
  83.7863789  90.9480937  32.7557610  83.3930735  90.3947135  33.4305254
  84.6029930  91.2591515  33.1464128  86.7031750  92.3638816  30.3477867
  87.4441464  92.9645969  30.2682329  86.9349673  91.6216454  29.7895909
  81.8473088  97.5495183  28.6256096  81.7326604  96.6480440  28.9263195
  80.9917606  97.7958880  28.2740913  88.9264926 105.4912923  30.2243597
  88.4828780 104.7049302  29.9064502  89.5882140 105.6792074  29.5587488
  83.6852047 107.0208725  24.7504276  84.2359472 106.8925788  23.9781270
  82.8463523 107.3203614  24.3999168  91.0246164 105.7715723  28.2524998
  91.0064640 106.5924604  27.7605268  91.9466084 105.6469798  28.4775140
  87.4819218 103.2859853  29.0948507  88.0147555 102.5248141  28.8647815
  86.9533300 102.9933505  29.8372661  90.6488913  88.3919919  24.6242148
  90.3053183  89.2821560  24.5481259  91.0167876  88.2021576  23.7611733
  88.1986307  93.2278231  18.1899822  87.3427903  92.8385081  18.0105461
  88.6113259  93.3070191  17.3299607  89.7285454  90.7624574  22.5891382
  89.2250249  90.7254709  21.7759187  90.0216061  91.6717317  22.6488038
  85.9728340  90.8463304  21.5957563  86.8381336  90.6506112  21.2363453
  86.0405849  90.6173655  22.5226920  83.5790659  93.0765511  18.9673930
  84.1534411  92.8540693  18.2347123  84.1661641  93.1454206  19.7202532
  85.8813326  89.9506760  17.6949000  85.2277739  89.6355778  17.0705614
  85.8393801  89.3282501  18.4208823  89.1151067  96.4388694  22.0196647
  88.1973628  96.6603641  21.8618335  89.5311210  96.5135004  21.1608355
  92.4476579  87.6513478  19.7259886  92.7535456  86.7910841  19.4385801
  93.1729184  88.2431098  19.5258880  78.7400935  98.0544164  18.1141484
  78.5425335  97.4613525  17.3892551  78.1847599  97.7496375  18.8317423
  86.7197659  97.9467271  20.2336077  86.7746269  96.9941107  20.1578554
  85.9088861  98.1026710  20.7177376  84.6590019  96.5644331  17.9926456
  83.8457884  96.8638501  18.3991648  85.1549013  96.1700019  18.7100938
  90.2564230  97.0286155  26.8241350  90.6113618  97.2557628  27.6835816
  90.9036362  97.3604532  26.2018605  84.1504093  94.1362686  23.6087691
  84.7903473  93.9951445  22.9110654  83.3181624  93.8497200  23.2326293
  81.1532710  94.1063011  18.3860678  81.4139527  95.0208344  18.2769838
  81.9749882  93.6387454  18.5357291  82.6257635  95.5200768  25.5559502
  83.2980689  95.3118130  24.9072151  81.7987422  95.3222854  25.1164735
  88.5283207  92.1462709  27.5725163  87.8811122  92.8452659  27.4789640
  89.2984223  92.5798853  27.9401411  91.9362005 102.4111561  30.6475717
  91.7847512 102.1822113  29.7305800  91.9266685 103.3682163  30.6607062
  88.7047342  99.9843474  25.6321983  89.6339402 100.1354634  25.4590950
  88.2838372 100.0727495  24.7770629  87.5035673 104.0094139  23.4020521
  87.3646759 103.6412923  24.2746459  86.7150270 104.5241778  23.2304478
  83.0285132  98.7943371  26.3161940  82.8904930  98.0623610  26.9173479
  83.9390056  98.7052271  26.0346127  85.6567433  98.5063331  25.8045619
  86.3667052  97.8656523  25.7632238  85.6136741  98.7576225  26.7271800
  93.6454212 105.4430684  28.7252198  93.5866758 104.7589904  28.0582781
  94.0473730 106.1849674  28.2732824  84.3696367  95.4928549  27.6241259
  83.8333724  95.0419287  28.2762855  83.7813076  95.6274457  26.8811723
  93.6471619 103.4070268  26.9566178  92.7598398 103.0696190  27.0792577
  94.2170170 102.6753299  27.1934943  75.3000766  99.7394360  20.2809229
  75.9871806  99.4256090  19.6930245  75.1448895 100.6435724  20.0076481
  80.1035488  94.6284556  24.7094253  80.0193677  94.0210226  23.9744663
  79.2818195  95.1193575  24.7103749  90.2759202  93.1138120  20.0764448
  90.7727902  92.3608082  19.7565518  89.5046184  93.1502436  19.5107658
  86.8594171  95.2555503  19.8036133  86.4891958  94.7026543  20.4917038
  87.3553263  94.6513636  19.2511133  84.6883370 105.7152998  26.8991151
  85.3892829 106.3489481  27.0520545  84.2178485 106.0567729  26.1386790
  92.7178197  90.0807713  22.2243807  91.8041277  90.3111940  22.3926014
  93.1471298  90.1646157  23.0757839  92.4884655  98.2697605  24.7243701
  91.8356106  98.5173513  24.0696154  92.8665035  97.4561743  24.3906178
  88.5372229  99.0117416  31.2109738  87.8612866  98.9111546  31.8812113
  89.3599862  98.8556630  31.6745735  80.2851088 105.2489353  23.8322253
  80.8704524 104.5033041  23.9650158  80.0875926 105.5593310  24.7158917
  74.8768742  97.8194953  22.5526697  74.9152842  97.2858544  23.3463815
  74.3709035  97.2930159  21.9337674  82.2559505  92.6659494  26.0489239
  82.3200831  93.5274324  25.6366637  82.1926625  92.0533495  25.3161597
  81.7311777  94.7382626  29.6962273  82.3583816  94.3559703  30.3099797
  80.8739696  94.5196828  30.0617966  92.1305886 105.1445601  31.3016009
  92.6745790 105.7575559  30.8070963  91.5492731 105.7025180  31.8183022
  78.5077320  96.5459055  15.6280628  78.8030761  95.6369734  15.5747682
  77.6065356  96.5246795  15.3061630  82.0371567  94.6215052  21.6108177
  81.3158153  95.2351019  21.4715650  82.8264823  95.1572817  21.5324823
  84.8397880  91.9569478  27.8848828  85.3632282  92.2031775  28.6475138
  84.6210214  92.7889513  27.4651966  80.2365161  94.2273153  15.7519953
  79.9077868  93.3470532  15.5695059  80.5904532  94.1720822  16.6396342
  86.0450425  92.8983173  25.5698499  85.7047246  92.0990986  25.9719179
  85.3389432  93.1984884  24.9975332  86.6966897  89.9832486  24.0225822
  87.5192967  89.5092964  23.9004712  86.9404961  90.7622970  24.5224508
  84.2205476  96.6751606  21.8317800  84.0750057  96.9891909  22.7242082
  83.7430680  97.2936507  21.2788699  86.0801859  93.6654154  21.8798690
  86.0663428  92.7695248  21.5430988  86.7974287  93.6724818  22.5136976
  87.9327990  94.0991495  23.9251817  87.6745767  95.0208565  23.9236148
  87.4013030  93.7021929  24.6152282  78.6951138  99.2156951  24.7705462
  78.1504606  99.9916759  24.9025736  79.5730488  99.5627755  24.6124583
  85.4838755  92.5468535  17.1486260  85.6054666  91.6185181  17.3477148
  85.1940797  92.5607221  16.2364576  88.3529945  90.2323445  20.2852980
  88.3751642  90.2962778  19.3304960  88.7698004  89.3927954  20.4793486
  79.4817160  98.3426847  27.6635619  78.7398896  98.4909482  28.2500249
  79.1609904  98.6035113  26.8002368  87.4260823 107.8842825  27.4616009
  87.7347949 107.6391972  28.3338708  88.2236305 108.0889464  26.9734879
  78.1282379 104.1478602  20.6534947  77.2914287 103.7200777  20.4718948
  78.1006024 104.3411046  21.5905738  84.9679834  94.0600532  31.3576193
  85.0167990  94.9362655  30.9753962  85.5102349  93.5177925  30.7847836
  95.4534680 104.6041655  30.6377330  94.6630224 104.5865794  30.0981829
  95.2168035 105.1429949  31.3926366  95.5732555 101.4534122  27.9510058
  95.6230560 101.2884129  28.8925581  95.4646478 100.5861381  27.5607939
  92.8636318  97.4365050  29.2669365  93.7646180  97.2971515  28.9753363
  92.9384292  97.6019505  30.2067543  87.1979123  94.8131904  28.1122551
  86.3282432  95.1065471  27.8405140  87.4338603  95.3972349  28.8329815
  97.0750752 103.8731063  28.1952080  96.7835560 104.2361044  29.0315541
  96.4622883 103.1598071  28.0165412  95.3237940  98.9963678  26.6632138
  95.7992062  99.1891324  25.8550989  94.4003506  99.0522864  26.4175522
  89.9018157  91.0311521  25.6287972  90.4200101  91.7672548  25.3034460
  89.5473289  91.3375515  26.4634731  90.1530751  87.4511804  21.1488868
  90.4332505  86.7834993  21.7749295  90.9381358  87.6440900  20.6363532
  94.0239609  95.8729438  24.8960444  94.9757032  95.9727536  24.9172668
  93.8543060  95.0807706  25.4058528  92.0453989  92.9585021  25.0819844
  91.4503921  93.2390034  24.3866333  91.7603685  93.4478922  25.8536586
  96.6522175  95.8846601  24.0561026  96.1361224  95.1005058  23.8690955
  97.5362124  95.5565318  24.2207546  94.3132902  89.6287617  20.0156839
  94.1157724  89.3202705  20.9000171  94.9232608  90.3549256  20.1454769
  88.2249710 102.0149357  31.5130604  89.1452720 102.1927956  31.7070651
  88.1899293 101.0705402  31.3610303  77.4431875  97.2087950  20.4383879
  77.1234660  96.3553259  20.1458253  76.8965304  97.4236529  21.1941846
  81.2211783  99.9250391  24.1553385  81.4397793 100.8567499  24.1741419
  81.6337557  99.5658366  24.9408189  88.1416001  90.4318477  16.1429074
  87.3316729  90.0865562  16.5184320  88.8300418  90.1226020  16.7316685
  90.0706549  89.5096523  17.7653370  90.6237588  89.9291977  18.4243393
  90.3076635  88.5832272  17.8076326  86.0939648  95.4983597  33.5456134
  85.9936375  96.4477954  33.4768225  85.8761190  95.1701836  32.6732204
  77.3120135 100.8290862  22.4077000  76.6183607 100.4144815  21.8946955
  78.0593126 100.8711398  21.8110419  91.8988922  91.0202106  19.4753355
  92.3988701  91.1318641  18.6667674  92.5424530  90.7163159  20.1154163
  85.9570918  98.9280736  32.3621196  85.4738000  99.7281096  32.5685085
  86.0431857  98.9388681  31.4088640  79.2256878 100.7609116  20.2843015
  79.2027566 100.8596803  19.3324898  79.5357514 101.6074266  20.6060181
  81.8844256 102.8185271  24.3989630  82.8387509 102.7869213  24.3319561
  81.6856779 102.3575894  25.2139856  82.4743638 101.3886387  26.9660427
  83.2936527 101.8830465  26.9895265  82.7480446 100.4718355  26.9377995
  77.7278552  95.7224521  27.6652624  78.3737416  95.2123475  28.1539850
  77.5195703  96.4593202  28.2396050  90.2531944 102.7905368  33.1644765
  91.1223104 102.9646020  32.8031400  89.7738696 103.6099785  33.0420494
  84.4218125 109.9102469  24.8434199  85.3245371 109.9426079  25.1600694
  84.1955495 108.9802920  24.8580534  90.0634282  86.5807342  17.6722457
  89.2966678  86.0265829  17.8179140  90.4744987  86.6529211  18.5336609
  82.0676043  92.8692138  31.7627639  82.9307505  92.5128942  31.9730963
  81.4941454  92.5306032  32.4503043  94.6257544 106.2772854  32.7557610
  94.2324489 105.7239053  33.4305254  95.4423684 106.5883433  33.1464128
  97.5425505 107.6930733  30.3477867  98.2835218 108.2937887  30.2682329
  97.7743428 106.9508371  29.7895909  92.5705532 110.0674544  29.6962273
  93.1977570 109.6851621  30.3099797  91.7133450 109.8488746  30.0617966
  95.8073589 109.3892450  31.3576193  95.8561744 110.2654573  30.9753962
  96.3496103 108.8469843  30.7847836  96.9333403 110.8275515  33.5456134
  96.8330130 111.7769872  33.4768225  96.7154945 110.4993754  32.6732204
  88.5672307 111.0516438  27.6652624  89.2131170 110.5415392  28.1539850
  88.3589458 111.7885120  28.2396050  92.9069798 108.1984055  31.7627639
  93.7701259 107.8420860  31.9730963  92.3335208 107.8597950  32.4503043
  50.2879195  21.1325136  15.4497505  50.2291741  20.4484356  14.7828088
  50.6898713  21.8744126  14.9978131  48.7730869  20.8340053  18.0261315
  49.3170773  21.4470011  17.5316270  48.1917714  21.3919632  18.5428328
  52.0959663  20.2936107  17.3622637  51.3055207  20.2760246  16.8227136
  51.8593018  20.8324401  18.1171673  53.7175735  19.5625515  14.9197387
  53.4260544  19.9255496  15.7560848  53.1047867  18.8492523  14.7410719
  46.8956928  18.4799820  19.8890072  47.7648087  18.6540472  19.5276707
  46.4163679  19.2994237  19.7665801  58.5549403  30.1888446   9.2935346
  59.1927813  30.0695193   8.5898686  58.4370246  31.1369290   9.3523298
  55.3639110  30.1415874   9.2296871  55.0257621  30.0256939   8.3417406
  56.2328878  29.7407039   9.2097877  55.8458893  31.2950726  15.1883077
  55.8347533  30.9003524  14.3163580  56.0079532  30.5616798  15.7816848
  48.7690357  33.4902542   8.0577982  49.5611649  33.1493367   7.6424282
  49.0087007  33.5997517   8.9780136  52.5666154  34.0787838  14.1362261
  52.2756020  34.9833468  14.0208927  53.2023138  34.1204365  14.8506330
  53.4922361  31.4564686  10.7263620  54.0885933  31.2320708  10.0120583
  53.5497332  30.7149432  11.3289068  63.5099099  27.8515133   7.2721533
  64.2424271  27.2814350   7.5059362  62.7538455  27.4636733   7.7128038
  61.0324519  21.5636707  11.7316141  60.7007844  22.4332118  11.5077356
  60.4370133  21.2472991  12.4110172  57.5256039  33.7649253  11.1312054
  57.2256762  34.6674292  11.0227861  57.1807098  33.4981436  11.9833207
  60.9253183  26.2831793   8.8109492  60.0170060  26.2147202   8.5168253
  60.8740778  26.7603738   9.6391317  52.5076819  40.5293573   4.0983022
  52.4300848  41.4801398   4.1771502  51.9038462  40.1839446   4.7557948
  54.9994048  27.7021439  16.7544389  54.2227383  28.2615359  16.7447253
  55.6384612  28.1878222  17.2759259  62.7914829  24.4848232  10.5887365
  62.1489209  24.7780765   9.9427160  62.2869758  24.3701152  11.3940562
  53.2540421  30.5106892  16.3162356  53.9955105  31.0491936  16.0397179
  52.5477406  31.1373181  16.4733908  58.7295760  32.6536033  14.9134517
  59.1379116  32.2118443  14.1689150  58.0073022  32.0788660  15.1668710
  55.0826830  27.5908639  12.2868074  55.9288026  28.0148053  12.4302723
  55.0225468  26.9342264  12.9806637  59.0524575  33.2137223   8.6686806
  58.4233437  33.3782937   7.9662874  58.6650237  33.6278833   9.4397770
  62.9313807  34.1491661   6.0231170  62.2464845  34.5290562   5.4728203
  63.0157656  34.7586988   6.7563118  58.2326276  25.2513008  13.9449248
  57.9887208  26.0055068  13.4083524  58.5086206  25.6298355  14.7796495
  60.1864739  31.7951620  12.6226513  60.3981634  32.4383380  11.9460895
  60.1394487  30.9613937  12.1548444  51.4976618  32.4983113   8.8716655
  52.0677975  32.9270381   8.2334139  52.0884730  32.2165698   9.5700840
  51.9901784  27.6646540  17.1177666  51.3600445  28.3462821  17.3513063
  51.8837872  27.5529622  16.1730804  61.3010566  34.6723576  10.7948871
  62.1228010  34.2703763  10.5131552  61.2972969  34.5691810  11.7464987
  55.0667170  34.2207619  12.9509581  55.1311602  34.6828026  13.7867753
  54.3578094  33.5904984  13.0791891  69.3916560  31.0162324   7.1433842
  68.6380268  30.4469722   6.9877847  69.5264101  30.9824989   8.0904477
  51.2682527  21.9667306  19.4802917  50.8749473  21.4133505  20.1550561
  52.0848668  22.2777885  19.8709434  50.0439470  36.5216921   5.4739240
  50.2206098  37.4434885   5.2860224  50.8396303  36.2075340   5.9033620
  54.1850488  23.3825185  17.0723173  54.9260202  23.9832338  16.9927636
  54.4168411  22.6402823  16.5141216  49.3291826  28.5681553  15.3501403
  49.2145341  27.6666810  15.6508502  48.4736344  28.8145249  14.9986220
  56.4083664  36.5099293  16.9488904  55.9647518  35.7235671  16.6309808
  57.0700878  36.6978443  16.2832795  51.1670785  38.0395094  11.4749582
  51.7178210  37.9112158  10.7026576  50.3282261  38.3389983  11.1244475
  58.5064902  36.7902093  14.9770305  58.4883377  37.6110974  14.4850574
  59.4284822  36.6656168  15.2020446  54.9637956  34.3046222  15.8193813
  55.4966293  33.5434510  15.5893121  54.4352037  34.0119874  16.5617968
  61.3083515  31.6281235   8.4479672  60.6507189  32.3180497   8.5359800
  62.1123914  32.0177667   8.7913658  60.1188974  29.9825608   6.4983613
  60.6320855  30.6155600   7.0005323  60.7690198  29.3826803   6.1326973
  56.5969805  27.4575063   8.7441954  55.6792366  27.6790010   8.5863642
  57.0129948  27.5321374   7.8853661  60.8850770  34.9631609   4.6262756
  60.4313097  34.1222519   4.6827947  60.2544737  35.5993008   4.9637536
  59.3283709  36.8008106   5.5612574  59.6206684  37.3613163   4.8424940
  59.8382330  37.0936667   6.3165733  54.2917334  37.5788457   6.6506027
  54.2493513  37.8049303   5.7214559  55.2080033  37.3451832   6.7991829
  57.7382968  28.0472525  13.5486657  58.0932356  28.2743998  14.4081122
  58.3855099  28.3790901  12.9263912  63.4680705  31.1690961   4.2535986
  63.3298604  31.3592557   3.3257175  63.1116924  31.9310343   4.7104037
  63.4950085  33.2367488   9.2647257  63.9286591  33.1442777  10.1130311
  64.2081665  33.2124988   8.6267273  57.2277980  36.8369582  10.7980358
  57.2815002  37.4060518  11.5658074  56.3592761  37.0071467  10.4334395
  50.1076373  26.5387138  12.2804809  50.7799426  26.3304500  11.6317458
  49.2806160  26.3409224  11.8410041  64.3565634  33.2791188  11.7980143
  64.5501524  34.1836999  12.0439417  64.2566252  32.8198607  12.6318728
  56.0101945  23.1649079  14.2970470  55.3629860  23.8639028  14.2034946
  56.7802960  23.5985223  14.6646718  59.4180743  33.4297931  17.3721023
  59.2666249  33.2008483  16.4551107  59.4085422  34.3868532  17.3852368
  56.1866079  31.0029844  12.3567290  57.1158139  31.1541003  12.1836257
  55.7657109  31.0913865  11.5015936  54.9854411  35.0280508  10.1265827
  54.8465497  34.6599293  10.9991765  54.1969007  35.5428148   9.9549785
  55.5802563  40.1289605   1.4691364  55.7554319  39.6577648   2.2836986
  54.8935351  40.7555371   1.6972624  56.5359626  34.4062111   7.5154665
  56.2009459  34.3662881   8.4112315  56.0363572  33.7406827   7.0425075
  50.5103870  29.8129741  13.0407246  50.3723668  29.0809980  13.6418785
  51.4208794  29.7238641  12.7591434  53.1386171  29.5249700  12.5290926
  53.8485789  28.8842892  12.4877544  53.0955479  29.7762595  13.4517107
  61.1272950  36.4617054  15.4497505  61.0685496  35.7776274  14.7828088
  61.5292468  37.2036044  14.9978131  51.8515105  26.5114918  14.3486565
  51.3152462  26.0605657  15.0008162  51.2631813  26.6460827  13.6057030
  50.1463648  43.2778967   8.2431224  50.3860247  43.9097492   8.9210242
  49.3032845  42.9267007   8.5296583  61.1290357  34.4256637  13.6811485
  60.2417136  34.0882559  13.8037884  61.6988908  33.6939669  13.9180250
  54.6591510  39.0858090  10.6472728  54.5861682  39.8913061  11.1592032
  54.2168903  39.2850056   9.8220749  54.4481290  38.3229860   4.1575549
  53.6648812  38.8651540   4.2513774  55.1474035  38.8403839   4.5569791
  65.6107697  29.8364855   8.4428046  65.5997574  30.7189570   8.0721979
  64.7425077  29.4836406   8.2482583  57.1190194  38.9844924  12.8030887
  57.8318166  39.6192389  12.7306788  56.6280222  39.0808790  11.9870888
  52.1702107  36.7339367  13.6236457  52.8711567  37.3675850  13.7765852
  51.6997222  37.0754099  12.8632097  59.9703393  29.2883975  11.4489008
  59.3174844  29.5359882  10.7941461  60.3483773  28.4748113  11.1151485
  56.9310567  39.3243668   5.5517178  57.1132962  38.5065324   6.0144930
  57.7543553  39.5411360   5.1142068  57.2652733  38.2511853   2.8132227
  57.7940499  37.7404308   2.2002389  57.5280952  37.9354383   3.6777760
  56.0190966  30.0303786  17.9355045  55.3431603  29.9297915  18.6057420
  56.8418600  29.8743000  18.3991042  47.7669825  36.2675722  10.5567560
  48.3523262  35.5219410  10.6895464  47.5694664  36.5779679  11.4404224
  50.6208481  39.3026970   5.5730002  49.9518856  39.7873097   5.0894043
  50.4821350  39.5496190   6.4873381  54.7613749  41.3370713  12.1712661
  55.3132057  41.5002335  12.9361746  55.1019943  41.9275151  11.4992686
  49.2130515  25.7568996  16.4207580  49.8402554  25.3746073  17.0345104
  48.3558434  25.5383198  16.7863272  59.6124624  36.1631971  18.0261315
  60.1564527  36.7761929  17.5316270  59.0311468  36.7211549  18.5428328
  57.8982136  39.2852689   9.1576343  57.7733276  38.4842429   8.6487288
  58.5561228  39.7798882   8.6690313  59.9617045  37.0861709  10.7855893
  59.0147380  36.9667060  10.7134220  60.3099818  36.1984207  10.8682155
  52.3216618  22.9755848  14.6094135  52.8451020  23.2218144  15.3720444
  52.1028951  23.8075883  14.1897272  56.9663478  36.8814425   6.9860245
  56.8188441  35.9531133   7.1667815  57.7916972  36.9034516   6.5017321
  60.5697600  37.7042984   8.0725118  61.4944147  37.4985845   7.9349569
  60.4012903  37.4559385   8.9814460  53.5269163  23.9169543  12.2943805
  53.1865984  23.1177356  12.6964485  52.8208170  24.2171254  11.7220639
  55.4146727  25.1177864  10.6497124  55.1564505  26.0394935  10.6481455
  54.8831768  24.7208299  11.3397588  60.3592916  38.2228651   3.4287210
  60.5329794  37.6575074   2.6761062  60.8521807  39.0229546   3.2466699
  46.1769876  30.2343320  11.4950768  45.6323344  31.0103128  11.6271043
  47.0549226  30.5814125  11.3369890  66.2132307  30.9865074   5.0477509
  66.6563453  30.2372399   4.6496633  65.3358818  30.9775211   4.6651241
  61.3468089  37.5395416   0.5284108  62.0418993  38.1602108   0.7471422
  61.6891239  36.6890767   0.8036486  46.9635898  29.3613217  14.3880925
  46.2217634  29.5095852  14.9745556  46.6428642  29.6221482  13.5247675
  63.2459512  34.9895121   2.0571439  63.7710836  35.3282394   1.3320759
  63.1581864  34.0542137   1.8734573  54.9079560  38.9029195  14.1861315
  55.2166687  38.6578342  15.0584015  55.7055043  39.1075833  13.6980185
  54.9300173  41.0567105   6.4166692  54.4905163  40.5643483   7.1099548
  55.6808290  40.5140072   6.1758767  47.4092512  37.2478645   6.4191320
  48.2350531  36.9482417   6.0389963  47.0586564  36.4786268   6.8681108
  52.3774045  36.6005114   8.4888993  51.7554054  35.9375819   8.1891221
  53.0478912  36.6266245   7.8062641  52.4498572  25.0786902  18.0821499
  52.4986728  25.9549024  17.6999269  52.9921086  24.5364295  17.5093143
  62.9353418  35.6228025  17.3622637  62.1448962  35.6052164  16.8227136
  62.6986772  36.1616319  18.1171673  63.0551293  32.4720491  14.6755365
  63.1049298  32.3070499  15.6170888  62.9465216  31.6047750  14.2853246
  60.3455055  28.4551419  15.9914672  61.2464918  28.3157884  15.6998670
  60.4203030  28.6205874  16.9312849  54.6797861  25.8318274  14.8367858
  53.8101170  26.1251840  14.5650447  54.9157341  26.4158719  15.5575122
  64.5569490  34.8917433  14.9197387  64.2654298  35.2547413  15.7560848
  63.9441621  34.1784441  14.7410719  65.7565172  32.4570313   7.4399957
  66.5912063  32.8960117   7.6037517  65.8924301  31.9808966   6.6208203
  62.8056678  30.0150047  13.3877445  63.2810800  30.2077694  12.5796296
  61.8822243  30.0709233  13.1420828  57.3836894  22.0497891  12.3533278
  57.9018838  22.7858918  12.0279767  57.0292027  22.3561884  13.1880038
  61.5058347  26.8915807  11.6205750  62.4575770  26.9913905  11.6417974
  61.3361797  26.0994076  12.1303835  59.5272726  23.9771391  11.8065151
  58.9322659  24.2576403  11.1111640  59.2422423  24.4665292  12.5781892
  63.9846425  30.1121927  10.7348050  63.9522745  29.1737928  10.9207734
  64.5947048  30.1905964  10.0013875  64.1340913  26.9032971  10.7806333
  63.6179962  26.1191427  10.5936262  65.0180862  26.5751687  10.9452852
  69.8022975  31.1737934   9.8754087  70.5326363  30.9123222  10.4361790
  69.1929920  30.4366656   9.9156155  67.8838272  29.3145797  10.4728538
  67.1571435  29.1801762   9.8645029  67.4685559  29.6222625  11.2785256
  55.7068448  33.0335726  18.2375911  56.6271458  33.2114325  18.4315957
  55.6718031  32.0891772  18.0855610  48.7030521  30.9436761  10.8798692
  48.9216530  31.8753869  10.8986726  49.1156295  30.5844735  11.6653496
  53.5758386  26.5169967  20.2701441  53.4755113  27.4664324  20.2013532
  53.3579928  26.1888206  19.3977511  53.4389656  29.9467106  19.0866503
  52.9556738  30.7467466  19.2930392  53.5250595  29.9575050  18.1333947
  49.3662994  33.8371640  11.1234936  50.3206247  33.8055583  11.0564868
  49.1675517  33.3762264  11.9385162  49.9562376  32.4072756  13.6905734
  50.7755265  32.9016835  13.7140571  50.2299183  31.4904724  13.6623302
  65.5016067  25.5357649   7.8261969  66.0960557  25.2953385   7.1155278
  65.5742650  24.8164779   8.4535506  47.7213222  39.3791260   8.1405134
  47.5867690  38.6191661   7.5743132  47.3045285  40.1032160   7.6733923
  67.8087139  28.8423850   6.6005391  67.2486697  28.9117039   7.3736953
  67.2030643  28.6664834   5.8804887  50.8782348  40.2760577   8.3523577
  50.7614732  41.2206009   8.2502267  50.0574795  39.9734138   8.7409376
  45.2097290  26.7410890  14.3897931  45.8556154  26.2309844  14.8785156
  45.0014441  27.4779572  14.9641356  57.7350682  33.8091738  19.8890072
  58.6041842  33.9832390  19.5276707  57.2557434  34.6286154  19.7665801
  51.9036862  40.9288839  11.5679505  52.8064109  40.9612449  11.8846000
  51.6774232  39.9989290  11.5825841  53.6590464  39.6819825   8.2289584
  52.7086095  39.6821687   8.1153956  53.9622951  38.9352560   7.7125619
  49.5494781  23.8878507  18.4872945  50.4126242  23.5315312  18.6976270
  48.9760192  23.5492402  19.1748350  69.3943158  45.5180364   9.2935346
  70.0321568  45.3987111   8.5898686  69.2764001  46.4661208   9.3523298
  66.2032864  45.4707792   9.2296871  65.8651376  45.3548856   8.3417406
  67.0722632  45.0698957   9.2097877  62.0619680  47.3243268   5.2193762
  61.4984545  47.2333205   4.4510050  61.9472075  46.5043173   5.6996255
  66.6852647  46.6242643  15.1883077  66.6741288  46.2295442  14.3163580
  66.8473287  45.8908716  15.7816848  59.6084112  48.8194460   8.0577982
  60.4005404  48.4785284   7.6424282  59.8480762  48.9289435   8.9780136
  67.6419239  50.9914236   0.5308227  66.9907218  51.5768316   0.1442241
  68.4363601  51.5220431   0.5903264  61.5674866  48.0803373   0.9295361
  62.3405742  47.5332360   0.7908237  61.9200265  48.9447622   1.1409823
  63.4059908  49.4079755  14.1362261  63.1149774  50.3125386  14.0208927
  64.0416893  49.4496283  14.8506330  64.3316115  46.7856604  10.7263620
  64.9279687  46.5612626  10.0120583  64.3891087  46.0441349  11.3289068
  63.9041144  44.2396039  -1.4386189  64.1566664  43.7177560  -2.2002726
  62.9665703  44.0762184  -1.3359505  68.9484426  43.2431817   6.3688554
  69.7347516  42.8251241   6.0178971  69.2123131  44.1477910   6.5370203
  69.1194504  48.6804668   1.0677211  68.4840337  48.7539294   1.7798116
  68.7891910  49.2698267   0.3896290  74.3492853  43.1807051   7.2721533
  75.0818025  42.6106267   7.5059362  73.5932209  42.7928651   7.7128038
  63.6237432  46.1424145   0.7638186  63.5073690  45.4669048   1.4319270
  63.7339692  45.6556519  -0.0529661  65.9668973  45.6034292   4.4684875
  65.6027180  45.0764913   5.1797797  66.8236089  45.2132761   4.2951361
  71.8718274  36.8928625  11.7316141  71.5401599  37.7624036  11.5077356
  71.2763887  36.5764909  12.4110172  65.6074460  40.6324192  -0.5353776
  65.7748863  41.5004428  -0.1683305  65.4171629  40.7951474  -1.4592487
  68.3649793  49.0941171  11.1312054  68.0650516  49.9966210  11.0227861
  68.0200853  48.8273354  11.9833207  61.8162275  45.5454968   7.1648759
  60.8912771  45.4131182   7.3726450  62.0646688  46.3249187   7.6618701
  71.7646937  41.6123711   8.8109492  70.8563814  41.5439119   8.5168253
  71.7134533  42.0895656   9.6391317  65.5863681  43.0881849   0.4492891
  65.4663306  43.5338900   1.2878371  64.8916269  43.4367167  -0.1093571
  59.1771086  45.1888241   7.9992548  59.3063467  45.4422720   8.9131959
  58.4968537  45.7815949   7.6797203  63.3470573  55.8585491   4.0983022
  63.2694603  56.8093316   4.1771502  62.7432217  55.5131364   4.7557948
  65.8387803  43.0313356  16.7544389  65.0621137  43.5907277  16.7447253
  66.4778366  43.5170139  17.2759259  73.6308584  39.8140149  10.5887365
  72.9882964  40.1072682   9.9427160  73.1263512  39.6993070  11.3940562
  71.2848747  43.5603322   1.2773225  72.1966603  43.7930709   1.1020922
  70.7758394  44.1440367   0.7148303  64.0934175  45.8398810  16.3162356
  64.8348860  46.3783854  16.0397179  63.3871161  46.4665099  16.4733908
  69.5689515  47.9827950  14.9134517  69.9772871  47.5410361  14.1689150
  68.8466776  47.4080578  15.1668710  65.9220585  42.9200557  12.2868074
  66.7681780  43.3439971  12.4302723  65.8619223  42.2634181  12.9806637
  69.8918330  48.5429141   8.6686806  69.2627192  48.7074855   7.9662874
  69.5043992  48.9570750   9.4397770  73.7707561  49.4783579   6.0231170
  73.0858600  49.8582480   5.4728203  73.8551411  50.0878905   6.7563118
  69.0720030  40.5804925  13.9449248  68.8280962  41.3346986  13.4083524
  69.3479961  40.9590273  14.7796495  71.0258493  47.1243538  12.6226513
  71.2375388  47.7675298  11.9460895  70.9788241  46.2905854  12.1548444
  68.6284722  39.7361358   9.5263086  67.7669201  40.0342612   9.8179823
  68.6547157  39.9531757   8.5944118  65.4446291  48.2803549   5.9336891
  65.9084637  48.5591252   5.1441514  65.1803090  47.3786994   5.7509982
  62.3370372  47.8275031   8.8716655  62.9071730  48.2562299   8.2334139
  62.9278484  47.5457615   9.5700840  64.3815177  44.4026701   2.7426456
  65.0839221  44.8547745   3.2100383  64.0495806  43.7610520   3.3706350
  62.8295539  42.9938458  17.1177666  62.1994200  43.6754739  17.3513063
  62.7231627  42.8821540  16.1730804  58.1240511  42.6610254   8.0443590
  57.3339565  42.9167783   7.5683701  58.6151759  43.4758592   8.1495631
  72.1404321  50.0015493  10.7948871  72.9621765  49.5995681  10.5131552
  72.1366724  49.8983727  11.7464987  60.0755257  43.0254833   5.0027067
  59.2786420  43.1373528   5.5210562  59.8480849  43.3641486   4.1367957
  65.9060924  49.5499537  12.9509581  65.9705357  50.0119944  13.7867753
  65.1971848  48.9196901  13.0791891  56.4078214  42.9140745  10.4758581
  56.6586253  43.7987754  10.7416157  56.9437763  42.7345346   9.7033673
  80.2310314  46.3454242   7.1433842  79.4774022  45.7761640   6.9877847
  80.3657855  46.3116906   8.0904477  65.6208942  51.2167644   2.8188562
  65.4854617  52.0619180   3.2473409  66.1618755  51.4186922   2.0554495
  62.1076282  37.2959224  19.4802917  61.7143227  36.7425422  20.1550561
  62.9242422  37.6069802  19.8709434  59.0738339  48.7343082   3.3916487
  59.5862860  49.5286332   3.5422051  59.7261052  48.0369373   3.3250088
  60.8833224  51.8508838   5.4739240  61.0599853  52.7726803   5.2860224
  61.6790058  51.5367258   5.9033620  65.0244243  38.7117103  17.0723173
  65.7653956  39.3124256  16.9927636  65.2562166  37.9694741  16.5141216
  60.1685581  43.8973470  15.3501403  60.0539096  42.9958727  15.6508502
  59.3130098  44.1437167  14.9986220  67.2477418  51.8391211  16.9488904
  66.8041273  51.0527589  16.6309808  67.9094632  52.0270361  16.2832795
  62.0064540  53.3687012  11.4749582  62.5571965  53.2404075  10.7026576
  61.1676016  53.6681901  11.1244475  69.3458657  52.1194010  14.9770305
  69.3277132  52.9402892  14.4850574  70.2678577  51.9948086  15.2020446
  65.8031711  49.6338140  15.8193813  66.3360047  48.8726428  15.5893121
  65.2745792  49.3411792  16.5617968  68.9701406  34.7398206  11.3487455
  68.6265675  35.6299848  11.2726566  69.3380368  34.5499864  10.4857040
  57.0387256  47.0631736   4.1676057  57.8762478  47.4728745   3.9509765
  57.2165524  46.1231179   4.1376251  68.9351688  44.7306817  -0.1440110
  68.4198312  45.5011422   0.0948278  68.6628997  44.0571953   0.4792952
  66.5198799  39.5756518   4.9145129  65.6640396  39.1863368   4.7350767
  66.9325751  39.6548479   4.0544914  68.0497946  37.1102861   9.3136688
  67.5462742  37.0732996   8.5004494  68.3428553  38.0195604   9.3733345
  64.2940832  37.1941591   8.3202870  65.1593829  36.9984399   7.9608760
  64.3618341  36.9651943   9.2472227  73.9085962  47.4839172   1.7913064
  73.1315405  47.1450331   1.3468226  74.5877443  47.4891795   1.1168029
  68.7237992  42.6033909   1.6819671  68.4188127  42.9180058   2.5329815
  69.6768434  42.6815329   1.7247004  67.1684423  48.7624132   3.3312625
  66.6405785  48.0276892   3.0185863  66.6671926  49.5398809   3.0852594
  72.1477269  46.9573153   8.4479672  71.4900944  47.6472414   8.5359800
  72.9517669  47.3469585   8.7913658  61.9003151  39.4243799   5.6919237
  62.4746903  39.2018980   4.9592430  62.4874133  39.4932493   6.4447838
  70.9582728  45.3117526   6.4983613  71.4714610  45.9447517   7.0005323
  71.6083952  44.7118721   6.1326973  62.2272738  41.4548260  -0.2884878
  61.3910050  41.7922946   0.0324397  62.0877508  41.3197240  -1.2257741
  64.2025819  36.2985048   4.4194306  63.5490231  35.9834065   3.7950921
  64.1606293  35.6760788   5.1454129  65.3137024  46.5804343  -3.6652402
  64.4064085  46.3493596  -3.4661253  65.8108056  45.7841962  -3.4778420
  68.2205102  55.2901850  -0.7455715  67.5466801  55.5933547  -0.1370758
  68.6070924  56.0930930  -1.0950258  67.4363559  42.7866981   8.7441954
  66.5186120  43.0081928   8.5863642  67.8523703  42.8613292   7.8853661
  68.2198607  44.1858397   3.8744634  68.9670426  44.6979794   3.5651756
  68.4890196  43.8642450   4.7349028  66.4925257  46.6816938   0.8571589
  65.5836476  46.3975970   0.9544058  66.5220341  47.1016016  -0.0025105
  71.7244524  50.2923527   4.6262756  71.2706852  49.4514437   4.6827947
  71.0938491  50.9284925   4.9637536  70.6677444  41.2215513   5.8563424
  69.9300201  40.7092899   6.1873666  70.9204218  40.7815895   5.0446700
  70.1677464  52.1300024   5.5612574  70.4600438  52.6905081   4.8424940
  70.6776084  52.4228585   6.3165733  70.7689071  33.9991765   6.4505193
  71.0747948  33.1389129   6.1631108  71.4941676  34.5909385   6.2504187
  57.0613427  44.4022452   4.8386791  56.8637827  43.8091812   4.1137857
  56.5060091  44.0974662   5.5562730  65.0410151  44.2945558   6.9581384
  65.0958761  43.3419395   6.8823860  64.2301353  44.4504997   7.4422682
  66.1901345  48.2225681  -1.8040333  65.7520775  47.5061540  -2.2634696
  66.9311786  48.4501796  -2.3655242  62.9802511  42.9122618   4.7171763
  62.1670377  43.2116788   5.1236955  63.4761505  42.5178307   5.4346245
  65.1311089  52.9080375   6.6506027  65.0887268  53.1341221   5.7214559
  66.0473788  52.6743749   6.7991829  68.5776723  43.3764442  13.5486657
  68.9326110  43.6035916  14.4081122  69.2248854  43.7082819  12.9263912
  74.3074460  46.4982878   4.2535986  74.1692358  46.6884474   3.3257175
  73.9510678  47.2602261   4.7104037  62.4716586  40.4840973  10.3332998
  63.1115965  40.3429733   9.6355961  61.6394116  40.1975487   9.9571600
  74.3343839  48.5659405   9.2647257  74.7680346  48.4734694  10.1130311
  75.0475420  48.5416906   8.6267273  63.2476890  49.7843404   6.4467990
  64.0417488  49.2893724   6.2450565  62.5368582  49.2561267   6.0835696
  68.0671734  52.1661499  10.7980358  68.1208756  52.7352436  11.5658074
  67.1986515  52.3363384  10.4334395  59.5559653  43.9286486   2.5227743
  58.6257241  43.8670941   2.7397705  59.6517125  43.4062438   1.7264384
  59.4745202  40.4541298   5.1105984  59.7352019  41.3686632   5.0015145
  60.2962374  39.9865741   5.2602597  60.9470127  41.8679056  12.2804809
  61.6193181  41.6596418  11.6317458  60.1199914  41.6701142  11.8410041
  75.1959389  48.6083106  11.7980143  75.3895279  49.5128916  12.0439417
  75.0960007  48.1490525  12.6318728  66.8495699  38.4940996  14.2970470
  66.2023615  39.1930946  14.2034946  67.6196715  38.9277140  14.6646718
  70.2574497  48.7589849  17.3721023  70.1060004  48.5300400  16.4551107
  70.2479177  49.7160450  17.3852368  67.0259834  46.3321761  12.3567290
  67.9551894  46.4832921  12.1836257  66.6050864  46.4205782  11.5015936
  65.8248166  50.3572426  10.1265827  65.6859251  49.9891210  10.9991765
  65.0362762  50.8720065   9.9549785  66.4196318  55.4581522   1.4691364
  66.5948073  54.9869565   2.2836986  65.7329106  56.0847288   1.6972624
  67.3753381  49.7354029   7.5154665  67.0403213  49.6954798   8.4112315
  66.8757326  49.0698744   7.0425075  61.3497625  45.1421659  13.0407246
  61.2117423  44.4101897  13.6418785  62.2602548  45.0530559  12.7591434
  70.3112572  47.0810063  -2.2108275  69.6941743  46.3556891  -2.3075223
  69.8429061  47.8419423  -2.5541201  63.9779925  44.8541618  12.5290926
  64.6879544  44.2134810  12.4877544  63.9349234  45.1054513  13.4517107
  71.9666704  51.7908971  15.4497505  71.9079250  51.1068191  14.7828088
  72.3686222  52.5327961  14.9978131  62.6908859  41.8406836  14.3486565
  62.1546216  41.3897574  15.0008162  62.1025568  41.9752745  13.6057030
  60.9857403  58.6070885   8.2431224  61.2254001  59.2389409   8.9210242
  60.1426599  58.2558925   8.5296583  71.9684111  49.7548555  13.6811485
  71.0810890  49.4174477  13.8037884  72.5382662  49.0231586  13.9180250
  53.6213258  46.0872647   7.0054536  54.3084298  45.7734377   6.4175551
  53.4661387  46.9914012   6.7321788  58.4247981  40.9762843  11.4339560
  58.3406169  40.3688513  10.6989970  57.6030687  41.4671862  11.4349056
  65.4985265  54.4150007  10.6472728  65.4255436  55.2204979  11.1592032
  65.0562658  54.6141973   9.8220749  65.2875044  53.6521778   4.1575549
  64.5042566  54.1943458   4.2513774  65.9867790  54.1695757   4.5569791
  68.5971694  39.4616407   6.8009755  69.0940394  38.7086369   6.4810825
  67.8258676  39.4980724   6.2352964  76.4501452  45.1656773   8.4428046
  76.4391328  46.0481488   8.0721979  75.5818831  44.8128323   8.2482583
  67.9583948  54.3136842  12.8030887  68.6711920  54.9484306  12.7306788
  67.4673977  54.4100708  11.9870888  69.6801475  48.2188094   4.3748178
  68.7457754  48.3389557   4.2052883  69.8578144  47.3160561   4.1108188
  65.1806663  41.6033790   6.5281439  64.8104451  41.0504830   7.2162345
  65.6765756  40.9991923   5.9756439  73.0674027  44.0605413   4.9098212
  73.5334479  44.8933405   4.8358515  73.5181527  43.5950395   5.6143471
  63.0095862  52.0631285  13.6236457  63.7105321  52.6967768  13.7765852
  62.5390977  52.4046017  12.8632097  71.1350258  50.4049235   1.9084364
  71.4110102  50.2905829   2.8178238  70.2654756  50.0066720   1.8696538
  71.0390689  36.4286000   8.9489114  70.1253769  36.6590227   9.1171321
  71.4683791  36.5124445   9.8003146  70.8097148  44.6175892  11.4489008
  70.1568598  44.8651800  10.7941461  71.1877528  43.8040031  11.1151485
  67.7704322  54.6535586   5.5517178  67.9526716  53.8357242   6.0144930
  68.5937308  54.8703278   5.1142068  68.1046487  53.5803771   2.8132227
  68.6334254  53.0696225   2.2002389  68.3674707  53.2646301   3.6777760
  66.8584721  45.3595704  17.9355045  66.1825358  45.2589833  18.6057420
  67.6812355  45.2034917  18.3991042  58.6063580  51.5967640  10.5567560
  59.1917017  50.8511328  10.6895464  58.4088418  51.9071597  11.4404224
  61.4602235  54.6318887   5.5730002  60.7912610  55.1165015   5.0894043
  61.3215105  54.8788108   6.4873381  53.1981235  44.1673240   9.2772003
  53.2365334  43.6336831  10.0709121  52.6921527  43.6408446   8.6582980
  65.6007504  56.6662631  12.1712661  66.1525812  56.8294252  12.9361746
  65.9413697  57.2567069  11.4992686  60.5771997  39.0137781  12.7734546
  60.6413323  39.8752612  12.3611943  60.5139117  38.4011782  12.0406904
  60.0524269  41.0860913  16.4207580  60.6796308  40.7037991  17.0345104
  59.1952188  40.8675115  16.7863272  70.4518378  51.4923888  18.0261315
  70.9958282  52.1053847  17.5316270  69.8705223  52.0503467  18.5428328
  56.8289812  42.8937342   2.3525935  57.1243253  41.9848021   2.2992988
  55.9277848  42.8725082   2.0306937  68.7375891  54.6144606   9.1576343
  68.6127030  53.8134346   8.6487288  69.3954982  55.1090800   8.6690313
  60.3584059  40.9693339   8.3353483  59.6370645  41.5829307   8.1960957
  61.1477315  41.5051104   8.2570129  70.8010799  52.4153627  10.7855893
  69.8541135  52.2958978  10.7134220  71.1493572  51.5276125  10.8682155
  63.1610373  38.3047765  14.6094135  63.6844775  38.5510062  15.3720444
  62.9422706  39.1367800  14.1897272  58.5577654  40.5751440   2.4765260
  58.2290360  39.6948819   2.2940366  58.9117024  40.5199109   3.3641649
  67.8057233  52.2106343   6.9860245  67.6582195  51.2823050   7.1667815
  68.6310726  52.2326433   6.5017321  61.6719477  40.8624410   2.8440737
  62.0115549  41.3910331   2.1219346  62.1191597  41.2004816   3.6199304
  71.4091354  53.0334902   8.0725118  72.3337902  52.8277763   7.9349569
  71.2406658  52.7851303   8.9814460  64.3662918  39.2461461  12.2943805
  64.0259738  38.4469274  12.6964485  63.6601924  39.5463171  11.7220639
  65.0179390  36.3310773  10.7471129  65.8405459  35.8571251  10.6250019
  65.2617453  37.1101257  11.2469815  63.6587624  39.3599031   1.0434030
  64.3795987  39.7380284   0.5397747  63.0352928  40.0787908   1.1469008
  67.8018747  40.0644180   1.9792363  68.0182361  40.9468818   1.6781191
  67.3212814  39.6730394   1.2498005  62.5417968  43.0229894   8.5563107
  62.3962549  43.3370197   9.4487389  62.0643172  43.6414794   8.0034006
  64.4014351  40.0132442   8.6043997  64.3875920  39.1173535   8.2676295
  65.1186779  40.0203105   9.2382283  66.2540482  40.4469782  10.6497124
  65.9958260  41.3686852  10.6481455  65.7225522  40.0500216  11.3397588
  71.1986671  53.5520569   3.4287210  71.3723548  52.9866991   2.6761062
  71.6915562  54.3521464   3.2466699  57.0163630  45.5635238  11.4950768
  56.4717099  46.3395046  11.6271043  57.8942980  45.9106043  11.3369890
  63.8051247  38.8946822   3.8731567  63.9267158  37.9663468   4.0722454
  63.5153290  38.9085508   2.9609882  66.6742438  36.5801732   7.0098287
  66.6964134  36.6441065   6.0550266  67.0910497  35.7406241   7.2038793
  77.0526062  46.3156992   5.0477509  77.4957208  45.5664317   4.6496633
  76.1752572  46.3067128   4.6651241  72.1861843  52.8687333   0.5284108
  72.8812748  53.4894026   0.7471422  72.5284993  52.0182685   0.8036486
  57.8029652  44.6905134  14.3880925  57.0611388  44.8387770  14.9745556
  57.4822397  44.9513400  13.5247675  74.0853266  50.3187039   2.0571439
  74.6104590  50.6574312   1.3320759  73.9975619  49.3834054   1.8734573
  65.7473315  54.2321113  14.1861315  66.0560441  53.9870259  15.0584015
  66.5448797  54.4367751  13.6980185  65.7693927  56.3859022   6.4166692
  65.3298917  55.8935401   7.1099548  66.5202044  55.8431990   6.1758767
  58.2486266  52.5770563   6.4191320  59.0744286  52.2774335   6.0389963
  57.8980318  51.8078185   6.8681108  63.2167799  51.9297031   8.4888993
  62.5947808  51.2667736   8.1891221  63.8872666  51.9558163   7.8062641
  56.4494871  50.4956889   7.3780253  55.6126779  50.0679064   7.1964255
  56.4218516  50.6889333   8.3151045  63.2892327  40.4078819  18.0821499
  63.3380482  41.2840942  17.6999269  63.8314841  39.8656212  17.5093143
  73.7747172  50.9519943  17.3622637  72.9842716  50.9344081  16.8227136
  73.5380527  51.4908236  18.1171673  73.8945047  47.8012409  14.6755365
  73.9443052  47.6362416  15.6170888  73.7858971  46.9339668  14.2853246
  62.7781306  50.4800955   1.9647454  62.9269426  51.1636419   1.3114127
  63.5847750  50.4606045   2.4796910  71.1848810  43.7843337  15.9914672
  72.0858673  43.6449802  15.6998670  71.2596784  43.9497792  16.9312849
  65.5191615  41.1610192  14.8367858  64.6494925  41.4543758  14.5650447
  65.7551095  41.7450637  15.5575122  75.3963244  50.2209350  14.9197387
  75.1048053  50.5839331  15.7560848  74.7835376  49.5076359  14.7410719
  76.5958927  47.7862230   7.4399957  77.4305818  48.2252034   7.6037517
  76.7318055  47.3100883   6.6208203  73.6450432  45.3441965  13.3877445
  74.1204554  45.5369611  12.5796296  72.7215998  45.4001151  13.1420828
  60.5333939  46.5066132   2.9708523  60.2879981  45.6028462   3.1688733
  60.7029854  46.5083283   2.0288001  68.2230649  37.3789809  12.3533278
  68.7412593  38.1150836  12.0279767  67.8685782  37.6853802  13.1880038
  59.8029587  42.2394490   0.4694684  59.1098832  42.3138845  -0.1865280
  59.5581339  41.4754833   0.9916201  68.4743243  33.7990091   7.8734175
  68.7544997  33.1313280   8.4994602  69.2593850  33.9919187   7.3608839
  66.2776712  52.9749085  -0.5640799  65.7050679  53.5939272  -1.0170327
  66.8509505  53.5248447  -0.0300877  72.3452101  42.2207725  11.6205750
  73.2969524  42.3205823  11.6417974  72.1755552  41.4285994  12.1303835
  70.3666481  39.3063308  11.8065151  69.7716413  39.5868321  11.1111640
  70.0816178  39.7957209  12.5781892  69.4973971  53.2586235   0.5667784
  70.4304645  53.1931797   0.7700659  69.4097184  54.0942502   0.1082316
  72.1261988  52.5752106  -2.4728269  72.0475620  52.2411969  -1.5792511
  72.9471655  53.0673873  -2.4736796  74.8240179  45.4413845  10.7348050
  74.7916499  44.5029846  10.9207734  75.4340803  45.5197882  10.0013875
  66.6623510  44.3109898  -3.2224746  67.6082615  44.1816106  -3.1536328
  66.2837755  43.5724560  -2.7455318  74.9734668  42.2324888  10.7806333
  74.4573716  41.4483345  10.5936262  75.8574616  41.9043605  10.9452852
  72.6345395  35.9765904   6.7402146  72.4370216  35.6680992   7.6245478
  73.2445100  36.7027543   6.8700076  80.6416729  46.5029852   9.8754087
  81.3720118  46.2415140  10.4361790  80.0323675  45.7658574   9.9156155
  78.7232026  44.6437714  10.4728538  77.9965190  44.5093679   9.8645029
  78.3079313  44.9514543  11.2785256  66.5462203  48.3627644  18.2375911
  67.4665212  48.5406243  18.4315957  66.5111786  47.4183689  18.0855610
  55.7644368  43.5566238   7.1629185  55.4447152  42.7031546   6.8703559
  55.2177796  43.7714816   7.9187153  59.5424275  46.2728679  10.8798692
  59.7610285  47.2045786  10.8986726  59.9550049  45.9136653  11.6653496
  66.4628493  36.7796764   2.8674380  65.6529221  36.4343849   3.2429626
  67.1512910  36.4704308   3.4561992  68.3919041  35.8574811   4.4898677
  68.9450080  36.2770264   5.1488700  68.6289128  34.9310559   4.5321633
  64.4152141  41.8461884  20.2701441  64.3148867  42.7956241  20.2013532
  64.1973683  41.5180123  19.3977511  55.6332628  47.1769149   9.1322307
  54.9396099  46.7623102   8.6192261  56.3805619  47.2189686   8.5355726
  71.7697848  37.9675336   3.9977341  71.1896517  38.6260140   3.6155394
  71.5033781  37.1452680   3.5864759  70.2201415  37.3680394   6.1998662
  70.7201193  37.4796928   5.3912980  70.8637023  37.0641446   6.8399470
  64.2783411  45.2759023  19.0866503  63.7950492  46.0759383  19.2930392
  64.3644350  45.2866968  18.1333947  57.5469370  47.1087403   7.0088322
  57.5240058  47.2075090   6.0570205  57.8570007  47.9552554   7.3305488
  60.2056748  49.1663558  11.1234936  61.1600002  49.1347500  11.0564868
  60.0069272  48.7054182  11.9385162  60.7956130  47.7364674  13.6905734
  61.6149019  48.2308753  13.7140571  61.0692938  46.8196642  13.6623302
  70.5522726  40.1275426   3.0533690  69.6648581  40.4125077   2.8353884
  70.9676715  39.9669190   2.2060966  73.9037263  40.1521947   6.7688029
  74.6797653  40.6418400   7.0412646  73.1785397  40.5780001   7.2259898
  76.3409821  40.8649566   7.8261969  76.9354312  40.6245302   7.1155278
  76.4136405  40.1456697   8.4535506  58.5606977  54.7083177   8.1405134
  58.4261445  53.9483578   7.5743132  58.1439039  55.4324077   7.6733923
  69.6965940  49.8920101  -2.8518290  70.4001790  50.0970103  -2.2360635
  68.9728589  50.4596863  -2.5869207  70.5263750  45.6429962   3.2683980
  70.4698952  46.0998514   2.4291612  71.0792093  44.8820647   3.0906822
  74.3368556  41.4319694   4.0934099  74.0805490  41.0316330   4.9242307
  73.7121424  42.1463488   3.9684238  78.6480894  44.1715767   6.6005391
  78.0880452  44.2408957   7.3736953  78.0424397  43.9956752   5.8804887
  61.7176103  55.6052494   8.3523577  61.6008487  56.5497927   8.2502267
  60.8968549  55.3026056   8.7409376  71.6052637  50.3302630  -0.8019830
  72.4398241  49.8983829  -0.9842356  71.4436980  50.1584644   0.1257064
  71.2598529  46.8334743   0.5636509  71.2047333  46.6679015  -0.3775047
  70.6344585  47.5410776   0.7198699  56.0491044  42.0702808  14.3897931
  56.6949908  41.5601762  14.8785156  55.8408196  42.8071489  14.9641356
  68.5744437  49.1383655  19.8890072  69.4435596  49.3124308  19.5276707
  68.0951188  49.9578072  19.7665801  64.5694655  36.3342852   0.1421827
  64.5573325  37.2784692   0.2990098  65.4618077  36.1512998  -0.1518712
  62.7430617  56.2580756  11.5679505  63.6457864  56.2904367  11.8846000
  62.5167987  55.3281207  11.5825841  64.4984219  55.0111743   8.2289584
  63.5479850  55.0113604   8.1153956  64.8016705  54.2644477   7.7125619
  68.3846774  32.9285629   4.3967764  67.6179170  32.3744116   4.5424446
  68.7957479  33.0007498   5.2581916  60.3888535  39.2170425  18.4872945
  61.2519997  38.8607230  18.6976270  59.8153946  38.8784320  19.1748350
  80.2336912  60.8472281   9.2935346  80.8715322  60.7279029   8.5898686
  80.1157755  61.7953125   9.3523298  77.0426619  60.7999709   9.2296871
  76.7045130  60.6840774   8.3417406  77.9116387  60.3990874   9.2097877
  72.9013434  62.6535186   5.2193762  72.3378299  62.5625123   4.4510050
  72.7865829  61.8335090   5.6996255  77.5246402  61.9534561  15.1883077
  77.5135042  61.5587359  14.3163580  77.6867041  61.2200634  15.7816848
  70.4477866  64.1486377   8.0577982  71.2399158  63.8077202   7.6424282
  70.6874516  64.2581352   8.9780136  78.4812993  66.3206153   0.5308227
  77.8300973  66.9060234   0.1442241  79.2757356  66.8512348   0.5903264
  72.4068620  63.4095291   0.9295361  73.1799496  62.8624278   0.7908237
  72.7594019  64.2739540   1.1409823  74.2453663  64.7371673  14.1362261
  73.9543529  65.6417304  14.0208927  74.8810647  64.7788200  14.8506330
  75.1709870  62.1148521  10.7263620  75.7673442  61.8904544  10.0120583
  75.2284841  61.3733267  11.3289068  74.7434898  59.5687957  -1.4386189
  74.9960419  59.0469478  -2.2002726  73.8059457  59.4054102  -1.3359505
  79.7878181  58.5723735   6.3688554  80.5741270  58.1543158   6.0178971
  80.0516885  59.4769827   6.5370203  79.9588258  64.0096585   1.0677211
  79.3234091  64.0831212   1.7798116  79.6285665  64.5990184   0.3896290
  85.1886608  58.5098968   7.2721533  85.9211780  57.9398185   7.5059362
  84.4325964  58.1220569   7.7128038  74.4631187  61.4716063   0.7638186
  74.3467445  60.7960966   1.4319270  74.5733447  60.9848437  -0.0529661
  76.8062728  60.9326210   4.4684875  76.4420935  60.4056831   5.1797797
  77.6629844  60.5424679   4.2951361  82.7112028  52.2220542  11.7316141
  82.3795353  53.0915953  11.5077356  82.1157642  51.9056826  12.4110172
  76.4468215  55.9616109  -0.5353776  76.6142617  56.8296346  -0.1683305
  76.2565384  56.1243391  -1.4592487  79.2043548  64.4233088  11.1312054
  78.9044271  65.3258127  11.0227861  78.8594607  64.1565272  11.9833207
  72.6556029  60.8746885   7.1648759  71.7306526  60.7423099   7.3726450
  72.9040443  61.6541104   7.6618701  82.6040692  56.9415629   8.8109492
  81.6957569  56.8731037   8.5168253  82.5528287  57.4187574   9.6391317
  76.4257436  58.4173767   0.4492891  76.3057061  58.8630818   1.2878371
  75.7310024  58.7659085  -0.1093571  70.0164840  60.5180159   7.9992548
  70.1457222  60.7714638   8.9131959  69.3362292  61.1107867   7.6797203
  74.1864328  71.1877409   4.0983022  74.1088357  72.1385234   4.1771502
  73.5825971  70.8423281   4.7557948  76.6781557  58.3605274  16.7544389
  75.9014891  58.9199194  16.7447253  77.3172120  58.8462057  17.2759259
  84.4702338  55.1432067  10.5887365  83.8276718  55.4364600   9.9427160
  83.9657267  55.0284987  11.3940562  82.1242502  58.8895240   1.2773225
  83.0360358  59.1222627   1.1020922  81.6152149  59.4732284   0.7148303
  74.9327930  61.1690728  16.3162356  75.6742614  61.7075771  16.0397179
  74.2264915  61.7957016  16.4733908  80.4083269  63.3119868  14.9134517
  80.8166625  62.8702279  14.1689150  79.6860531  62.7372496  15.1668710
  76.7614339  58.2492475  12.2868074  77.6075535  58.6731888  12.4302723
  76.7012977  57.5926099  12.9806637  80.7312084  63.8721059   8.6686806
  80.1020946  64.0366773   7.9662874  80.3437746  64.2862668   9.4397770
  84.6101316  64.8075496   6.0231170  83.9252354  65.1874398   5.4728203
  84.6945165  65.4170823   6.7563118  79.9113785  55.9096843  13.9449248
  79.6674717  56.6638904  13.4083524  80.1873715  56.2882191  14.7796495
  81.8652248  62.4535455  12.6226513  82.0769143  63.0967215  11.9460895
  81.8181996  61.6197772  12.1548444  79.4678476  55.0653276   9.5263086
  78.6062956  55.3634530   9.8179823  79.4940911  55.2823675   8.5944118
  76.2840046  63.6095467   5.9336891  76.7478391  63.8883170   5.1441514
  76.0196844  62.7078911   5.7509982  73.1764127  63.1566948   8.8716655
  73.7465484  63.5854217   8.2334139  73.7672239  62.8749533   9.5700840
  75.2208932  59.7318619   2.7426456  75.9232975  60.1839663   3.2100383
  74.8889560  59.0902438   3.3706350  73.6689293  58.3230376  17.1177666
  73.0387954  59.0046657  17.3513063  73.5625381  58.2113457  16.1730804
  68.9634266  57.9902172   8.0443590  68.1733320  58.2459700   7.5683701
  69.4545513  58.8050510   8.1495631  82.9798075  65.3307411  10.7948871
  83.8015519  64.9287598  10.5131552  82.9760478  65.2275645  11.7464987
  70.9149011  58.3546751   5.0027067  70.1180175  58.4665445   5.5210562
  70.6874603  58.6933403   4.1367957  76.7454679  64.8791454  12.9509581
  76.8099111  65.3411861  13.7867753  76.0365603  64.2488819  13.0791891
  67.2471969  58.2432662  10.4758581  67.4980007  59.1279672  10.7416157
  67.7831517  58.0637264   9.7033673  91.0704069  61.6746159   7.1433842
  90.3167777  61.1053557   6.9877847  91.2051610  61.6408824   8.0904477
  76.4602697  66.5459562   2.8188562  76.3248371  67.3911097   3.2473409
  77.0012509  66.7478839   2.0554495  72.9470036  52.6251142  19.4802917
  72.5536982  52.0717340  20.1550561  73.7636177  52.9361720  19.8709434
  69.9132094  64.0635000   3.3916487  70.4256615  64.8578250   3.5422051
  70.5654807  63.3661290   3.3250088  71.7226979  67.1800756   5.4739240
  71.8993607  68.1018721   5.2860224  72.5183812  66.8659175   5.9033620
  75.8637997  54.0409021  17.0723173  76.6047711  54.6416174  16.9927636
  76.0955920  53.2986658  16.5141216  71.0079335  59.2265388  15.3501403
  70.8932850  58.3250645  15.6508502  70.1523853  59.4729085  14.9986220
  78.0871173  67.1683128  16.9488904  77.6435027  66.3819507  16.6309808
  78.7488387  67.3562279  16.2832795  72.8458294  68.6978930  11.4749582
  73.3965719  68.5695993  10.7026576  72.0069770  68.9973819  11.1244475
  80.1852411  67.4485928  14.9770305  80.1670886  68.2694809  14.4850574
  81.1072331  67.3240003  15.2020446  76.6425465  64.9630058  15.8193813
  77.1753802  64.2018346  15.5893121  76.1139546  64.6703709  16.5617968
  79.8095160  50.0690124  11.3487455  79.4659430  50.9591765  11.2726566
  80.1774123  49.8791781  10.4857040  67.8781011  62.3923654   4.1676057
  68.7156233  62.8020662   3.9509765  68.0559278  61.4523096   4.1376251
  79.7745443  60.0598735  -0.1440110  79.2592066  60.8303339   0.0948278
  79.5022751  59.3863871   0.4792952  77.3592554  54.9048435   4.9145129
  76.5034150  54.5155286   4.7350767  77.7719506  54.9840396   4.0544914
  78.8891701  52.4394779   9.3136688  78.3856496  52.4024914   8.5004494
  79.1822307  53.3487521   9.3733345  75.1334586  52.5233508   8.3202870
  75.9987583  52.3276317   7.9608760  75.2012095  52.2943860   9.2472227
  84.7479717  62.8131089   1.7913064  83.9709160  62.4742249   1.3468226
  85.4271198  62.8183712   1.1168029  79.5631746  57.9325827   1.6819671
  79.2581882  58.2471976   2.5329815  80.5162188  58.0107247   1.7247004
  78.0078178  64.0916050   3.3312625  77.4799539  63.3568810   3.0185863
  77.5065681  64.8690726   3.0852594  82.9871024  62.2865071   8.4479672
  82.3294698  62.9764332   8.5359800  83.7911423  62.6761503   8.7913658
  72.7396905  54.7535716   5.6919237  73.3140657  54.5310898   4.9592430
  73.3267888  54.8224411   6.4447838  81.7976483  60.6409443   6.4983613
  82.3108364  61.2739435   7.0005323  82.4477707  60.0410639   6.1326973
  73.0666493  56.7840177  -0.2884878  72.2303805  57.1214864   0.0324397
  72.9271262  56.6489157  -1.2257741  75.0419573  51.6276965   4.4194306
  74.3883986  51.3125982   3.7950921  75.0000047  51.0052706   5.1454129
  76.1530778  61.9096260  -3.6652402  75.2457840  61.6785514  -3.4661253
  76.6501810  61.1133880  -3.4778420  78.2757314  58.1158899   8.7441954
  77.3579875  58.3373846   8.5863642  78.6917457  58.1905209   7.8853661
  79.0592361  59.5150315   3.8744634  79.8064180  60.0271712   3.5651756
  79.3283951  59.1934367   4.7349028  77.3319011  62.0108855   0.8571589
  76.4230231  61.7267888   0.9544058  77.3614095  62.4307934  -0.0025105
  82.5638279  65.6215445   4.6262756  82.1100606  64.7806355   4.6827947
  81.9332246  66.2576843   4.9637536  81.5071198  56.5507431   5.8563424
  80.7693955  56.0384817   6.1873666  81.7597972  56.1107812   5.0446700
  81.0071218  67.4591941   5.5612574  81.2994193  68.0196999   4.8424940
  81.5169839  67.7520502   6.3165733  81.6082826  49.3283683   6.4505193
  81.9141703  48.4681046   6.1631108  82.3335431  49.9201303   6.2504187
  67.9007182  59.7314369   4.8386791  67.7031582  59.1383730   4.1137857
  67.3453846  59.4266580   5.5562730  75.8803906  59.6237476   6.9581384
  75.9352515  58.6711312   6.8823860  75.0695108  59.7796915   7.4422682
  77.0295099  63.5517599  -1.8040333  76.5914529  62.8353458  -2.2634696
  77.7705540  63.7793714  -2.3655242  73.8196265  58.2414536   4.7171763
  73.0064131  58.5408706   5.1236955  74.3155260  57.8470224   5.4346245
  75.9704843  68.2372293   6.6506027  75.9281022  68.4633139   5.7214559
  76.8867542  68.0035667   6.7991829  79.4170477  58.7056360  13.5486657
  79.7719865  58.9327833  14.4081122  80.0642608  59.0374737  12.9263912
  85.1468214  61.8274796   4.2535986  85.0086113  62.0176392   3.3257175
  84.7904433  62.5894179   4.7104037  73.3110340  55.8132891  10.3332998
  73.9509720  55.6721650   9.6355961  72.4787871  55.5267404   9.9571600
  85.1737594  63.8951323   9.2647257  85.6074100  63.8026612  10.1130311
  85.8869174  63.8708823   8.6267273  74.0870644  65.1135322   6.4467990
  74.8811243  64.6185642   6.2450565  73.3762337  64.5853185   6.0835696
  78.9065489  67.4953417  10.7980358  78.9602511  68.0644353  11.5658074
  78.0380270  67.6655302  10.4334395  70.3953408  59.2578403   2.5227743
  69.4650996  59.1962859   2.7397705  70.4910880  58.7354356   1.7264384
  70.3138957  55.7833216   5.1105984  70.5745774  56.6978549   5.0015145
  71.1356129  55.3157659   5.2602597  71.7863882  57.1970973  12.2804809
  72.4586935  56.9888335  11.6317458  70.9593668  56.9993059  11.8410041
  86.0353143  63.9375024  11.7980143  86.2289033  64.8420834  12.0439417
  85.9353761  63.4782443  12.6318728  77.6889454  53.8232914  14.2970470
  77.0417369  54.5222864  14.2034946  78.4590469  54.2569058  14.6646718
  81.0968252  64.0881766  17.3721023  80.9453758  63.8592318  16.4551107
  81.0872931  65.0452368  17.3852368  77.8653588  61.6613679  12.3567290
  78.7945648  61.8124839  12.1836257  77.4444618  61.7497700  11.5015936
  76.6641920  65.6864344  10.1265827  76.5253006  65.3183128  10.9991765
  75.8756516  66.2011983   9.9549785  77.2590072  70.7873440   1.4691364
  77.4341828  70.3161483   2.2836986  76.5722860  71.4139206   1.6972624
  78.2147135  65.0645946   7.5154665  77.8796968  65.0246716   8.4112315
  77.7151081  64.3990662   7.0425075  72.1891379  60.4713576  13.0407246
  72.0511177  59.7393815  13.6418785  73.0996303  60.3822476  12.7591434
  81.1506327  62.4101981  -2.2108275  80.5335498  61.6848809  -2.3075223
  80.6822815  63.1711341  -2.5541201  74.8173680  60.1833536  12.5290926
  75.5273298  59.5426728  12.4877544  74.7742988  60.4346430  13.4517107
  82.8060459  67.1200889  15.4497505  82.7473005  66.4360109  14.7828088
  83.2079977  67.8619879  14.9978131  73.5302614  57.1698753  14.3486565
  72.9939971  56.7189492  15.0008162  72.9419322  57.3044662  13.6057030
  71.8251157  73.9362803   8.2431224  72.0647756  74.5681327   8.9210242
  70.9820354  73.5850843   8.5296583  72.9404873  56.6287405  -3.0886971
  72.0634339  56.5076206  -3.4524724  73.4162626  55.8373483  -3.3408082
  82.8077866  65.0840473  13.6811485  81.9204645  64.7466395  13.8037884
  83.3776417  64.3523504  13.9180250  64.4607013  61.4164565   7.0054536
  65.1478053  61.1026295   6.4175551  64.3055142  62.3205929   6.7321788
  69.2641735  56.3054761  11.4339560  69.1799924  55.6980431  10.6989970
  68.4424442  56.7963779  11.4349056  76.3379019  69.7441925  10.6472728
  76.2649191  70.5496897  11.1592032  75.8956412  69.9433891   9.8220749
  76.1268799  68.9813695   4.1575549  75.3436321  69.5235375   4.2513774
  76.8261544  69.4987675   4.5569791  79.4365449  54.7908325   6.8009755
  79.9334149  54.0378287   6.4810825  78.6652430  54.8272641   6.2352964
  87.2895206  60.4948690   8.4428046  87.2785083  61.3773406   8.0721979
  86.4212586  60.1420241   8.2482583  78.7977703  69.6428759  12.8030887
  79.5105675  70.2776224  12.7306788  78.3067731  69.7392625  11.9870888
  80.5195230  63.5480012   4.3748178  79.5851508  63.6681474   4.2052883
  80.6971898  62.6452479   4.1108188  76.0200418  56.9325708   6.5281439
  75.6498205  56.3796748   7.2162345  76.5159510  56.3283841   5.9756439
  83.9067781  59.3897331   4.9098212  84.3728233  60.2225323   4.8358515
  84.3575282  58.9242313   5.6143471  73.8489616  67.3923203  13.6236457
  74.5499076  68.0259686  13.7765852  73.3784731  67.7337934  12.8632097
  81.9744012  65.7341152   1.9084364  82.2503856  65.6197747   2.8178238
  81.1048511  65.3358637   1.8696538  81.8784444  51.7577918   8.9489114
  80.9647524  51.9882145   9.1171321  82.3077545  51.8416362   9.8003146
  81.6490902  59.9467810  11.4489008  80.9962352  60.1943718  10.7941461
  82.0271282  59.1331948  11.1151485  78.6098076  69.9827503   5.5517178
  78.7920471  69.1649159   6.0144930  79.4331062  70.1995196   5.1142068
  78.9440242  68.9095688   2.8132227  79.4728008  68.3988143   2.2002389
  79.2068461  68.5938219   3.6777760  77.6978475  60.6887621  17.9355045
  77.0219112  60.5881751  18.6057420  78.5206109  60.5326835  18.3991042
  69.4457334  66.9259558  10.5567560  70.0310771  66.1803246  10.6895464
  69.2482173  67.2363514  11.4404224  72.2995990  69.9610805   5.5730002
  71.6306365  70.4456933   5.0894043  72.1608859  70.2080026   6.4873381
  64.0374989  59.4965158   9.2772003  64.0759089  58.9628749  10.0709121
  63.5315282  58.9700363   8.6582980  76.4401258  71.9954549  12.1712661
  76.9919566  72.1586170  12.9361746  76.7807452  72.5858986  11.4992686
  71.4165751  54.3429698  12.7734546  71.4807078  55.2044529  12.3611943
  71.3532872  53.7303700  12.0406904  70.8918024  56.4152831  16.4207580
  71.5190063  56.0329908  17.0345104  70.0345943  56.1967033  16.7863272
  81.2912132  66.8215806  18.0261315  81.8352036  67.4345764  17.5316270
  80.7098977  67.3795385  18.5428328  67.6683567  58.2229260   2.3525935
  67.9637008  57.3139938   2.2992988  66.7671602  58.2017000   2.0306937
  79.5769645  69.9436524   9.1576343  79.4520785  69.1426264   8.6487288
  80.2348737  70.4382718   8.6690313  71.1977814  56.2985257   8.3353483
  70.4764399  56.9121224   8.1960957  71.9871069  56.8343021   8.2570129
  81.6404554  67.7445544  10.7855893  80.6934889  67.6250895  10.7134220
  81.9887327  66.8568042  10.8682155  74.0004127  53.6339683  14.6094135
  74.5238529  53.8801980  15.3720444  73.7816460  54.4659718  14.1897272
  69.3971408  55.9043358   2.4765260  69.0684114  55.0240737   2.2940366
  69.7510779  55.8491026   3.3641649  78.6450987  67.5398260   6.9860245
  78.4975950  66.6114968   7.1667815  79.4704481  67.5618351   6.5017321
  72.5113231  56.1916328   2.8440737  72.8509304  56.7202249   2.1219346
  72.9585352  56.5296734   3.6199304  82.2485109  68.3626819   8.0725118
  83.1731656  68.1569681   7.9349569  82.0800412  68.1143220   8.9814460
  75.2056672  54.5753378  12.2943805  74.8653493  53.7761191  12.6964485
  74.4995678  54.8755089  11.7220639  75.8573144  51.6602691  10.7471129
  76.6799213  51.1863169  10.6250019  76.1011208  52.4393174  11.2469815
  74.4981379  54.6890949   1.0434030  75.2189741  55.0672202   0.5397747
  73.8746683  55.4079826   1.1469008  78.6412501  55.3936098   1.9792363
  78.8576116  56.2760736   1.6781191  78.1606569  55.0022312   1.2498005
  73.3811723  58.3521811   8.5563107  73.2356304  58.6662114   9.4487389
  72.9036926  58.9706712   8.0034006  75.2408106  55.3424359   8.6043997
  75.2269674  54.4465453   8.2676295  75.9580534  55.3495023   9.2382283
  77.0934236  55.7761700  10.6497124  76.8352014  56.6978770  10.6481455
  76.5619277  55.3792134  11.3397588  82.0380425  68.8812487   3.4287210
  82.2117303  68.3158909   2.6761062  82.5309316  69.6813382   3.2466699
  67.8557385  60.8927156  11.4950768  67.3110853  61.6686964  11.6271043
  68.7336735  61.2397960  11.3369890  74.6445002  54.2238740   3.8731567
  74.7660913  53.2955386   4.0722454  74.3547044  54.2377426   2.9609882
  77.5136192  51.9093650   7.0098287  77.5357889  51.9732983   6.0550266
  77.9304251  51.0698159   7.2038793  87.8919816  61.6448910   5.0477509
  88.3350962  60.8956235   4.6496633  87.0146327  61.6359046   4.6651241
  83.0255598  68.1979251   0.5284108  83.7206502  68.8185944   0.7471422
  83.3678748  67.3474602   0.8036486  68.6423407  60.0197052  14.3880925
  67.9005143  60.1679687  14.9745556  68.3216151  60.2805318  13.5247675
  84.9247021  65.6478957   2.0571439  85.4498345  65.9866229   1.3320759
  84.8369373  64.7125972   1.8734573  76.5867069  69.5613030  14.1861315
  76.8954196  69.3162177  15.0584015  77.3842551  69.7659669  13.6980185
  76.6087682  71.7150940   6.4166692  76.1692672  71.2227319   7.1099548
  77.3595798  71.1723908   6.1758767  69.0880021  67.9062481   6.4191320
  69.9138040  67.6066253   6.0389963  68.7374073  67.1370103   6.8681108
  74.0561554  67.2588949   8.4888993  73.4341563  66.5959654   8.1891221
  74.7266421  67.2850081   7.8062641  67.2888626  65.8248807   7.3780253
  66.4520534  65.3970982   7.1964255  67.2612271  66.0181251   8.3151045
  74.1286081  55.7370737  18.0821499  74.1774237  56.6132860  17.6999269
  74.6708595  55.1948130  17.5093143  84.6140927  66.2811860  17.3622637
  83.8236471  66.2635999  16.8227136  84.3774281  66.8200154  18.1171673
  84.7338802  63.1304327  14.6755365  84.7836807  62.9654334  15.6170888
  84.6252725  62.2631586  14.2853246  73.6175061  65.8092872   1.9647454
  73.7663181  66.4928337   1.3114127  74.4241504  65.7897962   2.4796910
  82.0242564  59.1135255  15.9914672  82.9252427  58.9741719  15.6998670
  82.0990539  59.2789709  16.9312849  76.3585370  56.4902109  14.8367858
  75.4888679  56.7835675  14.5650447  76.5944850  57.0742554  15.5575122
  86.2356999  65.5501268  14.9197387  85.9441807  65.9131249  15.7560848
  85.6229130  64.8368276  14.7410719  87.4352681  63.1154148   7.4399957
  88.2699572  63.5543952   7.6037517  87.5711810  62.6392801   6.6208203
  84.4844187  60.6733883  13.3877445  84.9598309  60.8661529  12.5796296
  83.5609752  60.7293069  13.1420828  71.3727694  61.8358050   2.9708523
  71.1273736  60.9320380   3.1688733  71.5423608  61.8375200   2.0288001
  79.0624403  52.7081726  12.3533278  79.5806347  53.4442753  12.0279767
  78.7079536  53.0145720  13.1880038  70.6423341  57.5686408   0.4694684
  69.9492586  57.6430762  -0.1865280  70.3975093  56.8046751   0.9916201
  79.3136998  49.1282009   7.8734175  79.5938751  48.4605198   8.4994602
  80.0987605  49.3211104   7.3608839  77.1170466  68.3041003  -0.5640799
  76.5444433  68.9231190  -1.0170327  77.6903260  68.8540364  -0.0300877
  83.1845856  57.5499643  11.6205750  84.1363279  57.6497740  11.6417974
  83.0149306  56.7577911  12.1303835  81.2060235  54.6355226  11.8065151
  80.6110168  54.9160239  11.1111640  80.9209932  55.1249127  12.5781892
  80.3367726  68.5878153   0.5667784  81.2698399  68.5223715   0.7700659
  80.2490939  69.4234420   0.1082316  85.6633934  60.7705763  10.7348050
  85.6310254  59.8321763  10.9207734  86.2734557  60.8489799  10.0013875
  77.5017265  59.6401815  -3.2224746  78.4476369  59.5108024  -3.1536328
  77.1231510  58.9016477  -2.7455318  85.8128422  57.5616806  10.7806333
  85.2967471  56.7775263  10.5936262  86.6968371  57.2335523  10.9452852
  83.4739149  51.3057822   6.7402146  83.2763970  50.9972910   7.6245478
  84.0838855  52.0319460   6.8700076  91.4810484  61.8321769   9.8754087
  92.2113872  61.5707057  10.4361790  90.8717429  61.0950491   9.9156155
  89.5625781  59.9729632  10.4728538  88.8358944  59.8385597   9.8645029
  89.1473068  60.2806461  11.2785256  77.3855957  63.6919562  18.2375911
  78.3058967  63.8698161  18.4315957  77.3505540  62.7475607  18.0855610
  75.6860182  57.5651792  -3.2869861  74.7791637  57.2684905  -3.2107147
  75.9636163  57.2681610  -4.1535575  66.6038122  58.8858155   7.1629185
  66.2840906  58.0323463   6.8703559  66.0571550  59.1006733   7.9187153
  70.3818030  61.6020596  10.8798692  70.6004039  62.5337704  10.8986726
  70.7943804  61.2428571  11.6653496  77.3022247  52.1088682   2.8674380
  76.4922976  51.7635767   3.2429626  77.9906664  51.7996225   3.4561992
  79.2312796  51.1866728   4.4898677  79.7843834  51.6062182   5.1488700
  79.4682882  50.2602477   4.5321633  75.2545895  57.1753802  20.2701441
  75.1542622  58.1248159  20.2013532  75.0367437  56.8472041  19.3977511
  74.4558966  54.4238727  -3.1457882  75.3178130  54.7493625  -2.8862064
  74.6409311  53.6370223  -3.6584816  66.4726382  62.5061067   9.1322307
  65.7789854  62.0915020   8.6192261  67.2199373  62.5481603   8.5355726
  82.6091603  53.2967254   3.9977341  82.0290272  53.9552058   3.6155394
  82.3427536  52.4744598   3.5864759  81.0595169  52.6972311   6.1998662
  81.5594948  52.8088846   5.3912980  81.7030777  52.3933364   6.8399470
  75.1177165  60.6050941  19.0866503  74.6344247  61.4051301  19.2930392
  75.2038104  60.6158886  18.1333947  68.3863125  62.4379321   7.0088322
  68.3633813  62.5367008   6.0570205  68.6963761  63.2844471   7.3305488
  71.0450503  64.4955476  11.1234936  71.9993756  64.4639418  11.0564868
  70.8463026  64.0346099  11.9385162  71.6349885  63.0656592  13.6905734
  72.4542774  63.5600670  13.7140571  71.9086692  62.1488560  13.6623302
  81.3916481  55.4567344   3.0533690  80.5042336  55.7416995   2.8353884
  81.8070470  55.2961107   2.2060966  84.7431017  55.4813865   6.7688029
  85.5191407  55.9710317   7.0412646  84.0179151  55.9071919   7.2259898
  87.1803576  56.1941484   7.8261969  87.7748066  55.9537220   7.1155278
  87.2530159  55.4748615   8.4535506  69.4000731  70.0375095   8.1405134
  69.2655199  69.2775496   7.5743132  68.9832794  70.7615995   7.6733923
  81.3657505  60.9721880   3.2683980  81.3092706  61.4290431   2.4291612
  81.9185847  60.2112564   3.0906822  85.1762311  56.7611612   4.0934099
  84.9199245  56.3608247   4.9242307  84.5515179  57.4755406   3.9684238
  89.4874648  59.5007685   6.6005391  88.9274206  59.5700874   7.3736953
  88.8818152  59.3248670   5.8804887  72.5569857  70.9344412   8.3523577
  72.4402241  71.8789845   8.2502267  71.7362303  70.6317974   8.7409376
  82.4446392  65.6594548  -0.8019830  83.2791996  65.2275746  -0.9842356
  82.2830735  65.4876561   0.1257064  82.0992284  62.1626661   0.5636509
  82.0441088  61.9970933  -0.3775047  81.4738339  62.8702694   0.7198699
  66.8884799  57.3994725  14.3897931  67.5343663  56.8893679  14.8785156
  66.6801950  58.1363407  14.9641356  79.4138191  64.4675573  19.8890072
  80.2829351  64.6416225  19.5276707  78.9344943  65.2869990  19.7665801
  75.4088409  51.6634770   0.1421827  75.3967079  52.6076610   0.2990098
  76.3011831  51.4804916  -0.1518712  73.5824371  71.5872674  11.5679505
  74.4851618  71.6196284  11.8846000  73.3561741  70.6573125  11.5825841
  75.3377973  70.3403661   8.2289584  74.3873604  70.3405522   8.1153956
  75.6410460  69.5936395   7.7125619  79.2240529  48.2577547   4.3967764
  78.4572925  47.7036033   4.5424446  79.6351234  48.3299416   5.2581916
  71.2282290  54.5462343  18.4872945  72.0913751  54.1899147  18.6976270
  70.6547701  54.2076237  19.1748350  91.0730667  76.1764199   9.2935346
  91.7109077  76.0570946   8.5898686  90.9551510  77.1245043   9.3523298
  87.8820373  76.1291627   9.2296871  87.5438885  76.0132692   8.3417406
  88.7510141  75.7282792   9.2097877  88.3640156  77.2826479  15.1883077
  88.3528797  76.8879277  14.3163580  88.5260796  76.5492551  15.7816848
  81.2871621  79.4778295   8.0577982  82.0792913  79.1369120   7.6424282
  81.5268271  79.5873270   8.9780136  85.0847417  80.0663591  14.1362261
  84.7937283  80.9709221  14.0208927  85.7204402  80.1080118  14.8506330
  86.0103624  77.4440439  10.7263620  86.6067196  77.2196461  10.0120583
  86.0678596  76.7025185  11.3289068  93.5505783  67.5512460  11.7316141
  93.2189108  68.4207871  11.5077356  92.9551396  67.2348744  12.4110172
  90.0437302  79.7525006  11.1312054  89.7438025  80.6550045  11.0227861
  89.6988362  79.4857189  11.9833207  83.4949784  76.2038803   7.1648759
  82.5700280  76.0715017   7.3726450  83.7434197  76.9833022   7.6618701
  93.4434446  72.2707546   8.8109492  92.5351323  72.2022955   8.5168253
  93.3922042  72.7479491   9.6391317  80.8558595  75.8472076   7.9992548
  80.9850976  76.1006555   8.9131959  80.1756046  76.4399784   7.6797203
  87.5175312  73.6897192  16.7544389  86.7408646  74.2491112  16.7447253
  88.1565875  74.1753975  17.2759259  95.3096093  70.4723985  10.5887365
  94.6670473  70.7656518   9.9427160  94.8051021  70.3576905  11.3940562
  85.7721684  76.4982645  16.3162356  86.5136369  77.0367689  16.0397179
  85.0658670  77.1248934  16.4733908  91.2477024  78.6411786  14.9134517
  91.6560380  78.1994196  14.1689150  90.5254285  78.0664413  15.1668710
  87.6008094  73.5784392  12.2868074  88.4469289  74.0023806  12.4302723
  87.5406732  72.9218017  12.9806637  90.7507539  71.2388761  13.9449248
  90.5068471  71.9930821  13.4083524  91.0267470  71.6174108  14.7796495
  92.7046002  77.7827373  12.6226513  92.9162897  78.4259133  11.9460895
  92.6575750  76.9489690  12.1548444  90.3072231  70.3945194   9.5263086
  89.4456710  70.6926447   9.8179823  90.3334666  70.6115593   8.5944118
  84.0157881  78.4858866   8.8716655  84.5859239  78.9146134   8.2334139
  84.6065993  78.2041451   9.5700840  84.5083048  73.6522293  17.1177666
  83.8781709  74.3338574  17.3513063  84.4019136  73.5405375  16.1730804
  79.8028020  73.3194089   8.0443590  79.0127074  73.5751618   7.5683701
  80.2939268  74.1342427   8.1495631  81.7542766  73.6838669   5.0027067
  80.9573929  73.7957363   5.5210562  81.5268358  74.0225321   4.1367957
  87.5848433  80.2083372  12.9509581  87.6492866  80.6703779  13.7867753
  86.8759357  79.5780737  13.0791891  78.0865723  73.5724580  10.4758581
  78.3373762  74.4571590  10.7416157  78.6225272  73.3929181   9.7033673
  83.7863791  67.9543059  19.4802917  83.3930736  67.4009258  20.1550561
  84.6029931  68.2653638  19.8709434  86.7031752  69.3700938  17.0723173
  87.4441465  69.9708091  16.9927636  86.9349675  68.6278576  16.5141216
  81.8473090  74.5557306  15.3501403  81.7326605  73.6542563  15.6508502
  80.9917607  74.8021002  14.9986220  88.9264927  82.4975046  16.9488904
  88.4828782  81.7111424  16.6309808  89.5882141  82.6854196  16.2832795
  83.6852049  84.0270847  11.4749582  84.2359474  83.8987911  10.7026576
  82.8463525  84.3265736  11.1244475  91.0246166  82.7777846  14.9770305
  91.0064641  83.5986727  14.4850574  91.9466086  82.6531921  15.2020446
  87.4819220  80.2921975  15.8193813  88.0147556  79.5310263  15.5893121
  86.9533301  79.9995627  16.5617968  90.6488915  65.3982041  11.3487455
  90.3053184  66.2883683  11.2726566  91.0167877  65.2083699  10.4857040
  88.1986308  70.2340353   4.9145129  87.3427905  69.8447204   4.7350767
  88.6113260  70.3132314   4.0544914  89.7285455  67.7686696   9.3136688
  89.2250251  67.7316832   8.5004494  90.0216062  68.6779439   9.3733345
  85.9728341  67.8525426   8.3202870  86.8381338  67.6568235   7.9608760
  86.0405850  67.6235778   9.2472227  83.5790660  70.0827634   5.6919237
  84.1534412  69.8602816   4.9592430  84.1661642  70.1516329   6.4447838
  85.8813328  66.9568883   4.4194306  85.2277740  66.6417900   3.7950921
  85.8393802  66.3344623   5.1454129  89.1151068  73.4450816   8.7441954
  88.1973629  73.6665764   8.5863642  89.5311212  73.5197127   7.8853661
  92.4476580  64.6575600   6.4505193  92.7535457  63.7972964   6.1631108
  93.1729185  65.2493221   6.2504187  78.7400936  75.0606287   4.8386791
  78.5425336  74.4675648   4.1137857  78.1847600  74.7558497   5.5562730
  86.7197660  74.9529394   6.9581384  86.7746270  74.0003230   6.8823860
  85.9088862  75.1088833   7.4422682  84.6590020  73.5706453   4.7171763
  83.8457885  73.8700624   5.1236955  85.1549014  73.1762142   5.4346245
  90.2564232  74.0348278  13.5486657  90.6113619  74.2619751  14.4081122
  90.9036363  74.3666655  12.9263912  84.1504095  71.1424809  10.3332998
  84.7903474  71.0013568   9.6355961  83.3181625  70.8559322   9.9571600
  81.1532711  71.1125134   5.1105984  81.4139528  72.0270467   5.0015145
  81.9749883  70.6449576   5.2602597  82.6257636  72.5262891  12.2804809
  83.2980690  72.3180253  11.6317458  81.7987423  72.3284977  11.8410041
  88.5283208  69.1524832  14.2970470  87.8811124  69.8514782  14.2034946
  89.2984224  69.5860976  14.6646718  91.9362006  79.4173684  17.3721023
  91.7847513  79.1884236  16.4551107  91.9266686  80.3744285  17.3852368
  88.7047343  76.9905597  12.3567290  89.6339403  77.1416756  12.1836257
  88.2838373  77.0789618  11.5015936  87.5035675  81.0156261  10.1265827
  87.3646760  80.6475046  10.9991765  86.7150271  81.5303901   9.9549785
  83.0285134  75.8005494  13.0407246  82.8904932  75.0685733  13.6418785
  83.9390057  75.7114394  12.7591434  85.6567434  75.5125453  12.5290926
  86.3667053  74.8718645  12.4877544  85.6136743  75.7638348  13.4517107
  93.6454213  82.4492807  15.4497505  93.5866759  81.7652027  14.7828088
  94.0473731  83.1911797  14.9978131  84.3696368  72.4990671  14.3486565
  83.8333725  72.0481410  15.0008162  83.7813077  72.6336580  13.6057030
  93.6471620  80.4132391  13.6811485  92.7598399  80.0758312  13.8037884
  94.2170171  79.6815422  13.9180250  75.3000767  76.7456482   7.0054536
  75.9871807  76.4318212   6.4175551  75.1448896  77.6497847   6.7321788
  80.1035490  71.6346679  11.4339560  80.0193678  71.0272348  10.6989970
  79.2818196  72.1255697  11.4349056  90.2759203  70.1200242   6.8009755
  90.7727903  69.3670205   6.4810825  89.5046185  70.1564559   6.2352964
  86.8594172  72.2617625   6.5281439  86.4891960  71.7088666   7.2162345
  87.3553265  71.6575759   5.9756439  84.6883371  82.7215120  13.6236457
  85.3892830  83.3551603  13.7765852  84.2178486  83.0629852  12.8632097
  92.7178198  67.0869836   8.9489114  91.8041278  67.3174063   9.1171321
  93.1471300  67.1708280   9.8003146  92.4884657  75.2759728  11.4489008
  91.8356107  75.5235635  10.7941461  92.8665037  74.4623866  11.1151485
  88.5372230  76.0179539  17.9355045  87.8612867  75.9173668  18.6057420
  89.3599864  75.8618753  18.3991042  80.2851089  82.2551475  10.5567560
  80.8704526  81.5095163  10.6895464  80.0875927  82.5655432  11.4404224
  74.8768744  74.8257076   9.2772003  74.9152843  74.2920666  10.0709121
  74.3709036  74.2992281   8.6582980  82.2559506  69.6721616  12.7734546
  82.3200832  70.5336447  12.3611943  82.1926626  69.0595618  12.0406904
  81.7311778  71.7444749  16.4207580  82.3583817  71.3621826  17.0345104
  80.8739697  71.5258951  16.7863272  92.1305887  82.1507724  18.0261315
  92.6745791  82.7637682  17.5316270  91.5492732  82.7087302  18.5428328
  78.5077321  73.5521178   2.3525935  78.8030762  72.6431856   2.2992988
  77.6065357  73.5308917   2.0306937  82.0371568  71.6277174   8.3353483
  81.3158154  72.2413142   8.1960957  82.8264824  72.1634939   8.2570129
  84.8397882  68.9631601  14.6094135  85.3632283  69.2093897  15.3720444
  84.6210215  69.7951636  14.1897272  80.2365163  71.2335275   2.4765260
  79.9077869  70.3532654   2.2940366  80.5904533  71.1782944   3.3641649
  86.0450427  69.9045296  12.2943805  85.7047247  69.1053109  12.6964485
  85.3389433  70.2047007  11.7220639  86.6966899  66.9894608  10.7471129
  87.5192968  66.5155087  10.6250019  86.9404962  67.7685092  11.2469815
  84.2205477  73.6813729   8.5563107  84.0750058  73.9954032   9.4487389
  83.7430681  74.2998629   8.0034006  86.0801860  70.6716277   8.6043997
  86.0663429  69.7757370   8.2676295  86.7974288  70.6786941   9.2382283
  87.9327991  71.1053617  10.6497124  87.6745769  72.0270688  10.6481455
  87.4013031  70.7084052  11.3397588  78.6951139  76.2219073  11.4950768
  78.1504608  76.9978881  11.6271043  79.5730489  76.5689878  11.3369890
  85.4838756  69.5530657   3.8731567  85.6054667  68.6247303   4.0722454
  85.1940798  69.5669343   2.9609882  88.3529947  67.2385568   7.0098287
  88.3751643  67.3024901   6.0550266  88.7698006  66.3990076   7.2038793
  79.4817161  75.3488970  14.3880925  78.7398897  75.4971605  14.9745556
  79.1609906  75.6097235  13.5247675  87.4260824  84.8904948  14.1861315
  87.7347950  84.6454095  15.0584015  88.2236306  85.0951586  13.6980185
  78.1282380  81.1540725   7.3780253  77.2914288  80.7262899   7.1964255
  78.1006025  81.3473168   8.3151045  84.9679836  71.0662655  18.0821499
  85.0167991  71.9424777  17.6999269  85.5102350  70.5240048  17.5093143
  95.4534681  81.6103778  17.3622637  94.6630225  81.5927917  16.8227136
  95.2168036  82.1492072  18.1171673  95.5732556  78.4596244  14.6755365
  95.6230561  78.2946252  15.6170888  95.4646480  77.5923503  14.2853246
  92.8636319  74.4427172  15.9914672  93.7646182  74.3033637  15.6998670
  92.9384293  74.6081627  16.9312849  87.1979124  71.8194027  14.8367858
  86.3282434  72.1127593  14.5650447  87.4338604  72.4034472  15.5575122
  97.0750753  80.8793186  14.9197387  96.7835562  81.2423166  15.7560848
  96.4622884  80.1660194  14.7410719  95.3237941  76.0025800  13.3877445
  95.7992063  76.1953447  12.5796296  94.4003507  76.0584986  13.1420828
  89.9018158  68.0373644  12.3533278  90.4200102  68.7734671  12.0279767
  89.5473291  68.3437637  13.1880038  90.1530752  64.4573927   7.8734175
  90.4332506  63.7897116   8.4994602  90.9381359  64.6503022   7.3608839
  94.0239610  72.8791560  11.6205750  94.9757033  72.9789658  11.6417974
  93.8543061  72.0869829  12.1303835  92.0453990  69.9647144  11.8065151
  91.4503922  70.2452156  11.1111640  91.7603687  70.4541045  12.5781892
  96.6522177  72.8908724  10.7806333  96.1361225  72.1067180  10.5936262
  97.5362125  72.5627440  10.9452852  94.3132904  66.6349739   6.7402146
  94.1157725  66.3264827   7.6245478  94.9232609  67.3611378   6.8700076
  88.2249712  79.0211479  18.2375911  89.1452721  79.1990078  18.4315957
  88.1899295  78.0767525  18.0855610  77.4431877  74.2150073   7.1629185
  77.1234661  73.3615381   6.8703559  76.8965305  74.4298651   7.9187153
  81.2211784  76.9312514  10.8798692  81.4397794  77.8629622  10.8986726
  81.6337558  76.5720488  11.6653496  88.1416002  67.4380599   2.8674380
  87.3316730  67.0927684   3.2429626  88.8300419  67.1288143   3.4561992
  90.0706550  66.5158646   4.4898677  90.6237589  66.9354099   5.1488700
  90.3076637  65.5894394   4.5321633  86.0939649  72.5045720  20.2701441
  85.9936376  73.4540077  20.2013532  85.8761192  72.1763959  19.3977511
  77.3120137  77.8352984   9.1322307  76.6183608  77.4206937   8.6192261
  78.0593128  77.8773521   8.5355726  91.8988924  68.0264229   6.1998662
  92.3988702  68.1380763   5.3912980  92.5424532  67.7225282   6.8399470
  85.9570920  75.9342859  19.0866503  85.4738001  76.7343219  19.2930392
  86.0431859  75.9450803  18.1333947  79.2256879  77.7671238   7.0088322
  79.2027567  77.8658926   6.0570205  79.5357516  78.6136389   7.3305488
  81.8844257  79.8247393  11.1234936  82.8387511  79.7931336  11.0564868
  81.6856781  79.3638017  11.9385162  82.4743639  78.3948509  13.6905734
  83.2936528  78.8892588  13.7140571  82.7480447  77.4780477  13.6623302
  77.7278553  72.7286643  14.3897931  78.3737417  72.2185597  14.8785156
  77.5195705  73.4655325  14.9641356  90.2531946  79.7967491  19.8890072
  91.1223105  79.9708143  19.5276707  89.7738697  80.6161907  19.7665801
  84.4218126  86.9164592  11.5679505  85.3245373  86.9488202  11.8846000
  84.1955496  85.9865043  11.5825841  90.0634283  63.5869464   4.3967764
  89.2966679  63.0327951   4.5424446  90.4744988  63.6591333   5.2581916
  82.0676044  69.8754260  18.4872945  82.9307506  69.5191065  18.6976270
  81.4941455  69.5368155  19.1748350  94.6257545  83.2834977  19.4802917
  94.2324491  82.7301175  20.1550561  95.4423686  83.5945555  19.8709434
  97.5425506  84.6992856  17.0723173  98.2835220  85.3000009  16.9927636
  97.7743429  83.9570494  16.5141216  92.5705533  87.0736666  16.4207580
  93.1977572  86.6913744  17.0345104  91.7133452  86.8550868  16.7863272
  95.8073590  86.3954572  18.0821499  95.8561746  87.2716695  17.6999269
  96.3496104  85.8531965  17.5093143  96.9333404  87.8337637  20.2701441
  96.8330131  88.7831994  20.2013532  96.7154946  87.5055876  19.3977511
  88.5672308  88.0578561  14.3897931  89.2131172  87.5477515  14.8785156
  88.3589459  88.7947242  14.9641356  92.9069799  85.2046178  18.4872945
  93.7701260  84.8482983  18.6976270  92.3335210  84.8660073  19.1748350
  71.9666705  28.7971094   2.1742812  71.9079251  28.1130314   1.5073395
  72.3686224  29.5390084   1.7223438  70.4518379  28.4986011   4.7506622
  70.9958283  29.1115969   4.2561577  69.8705224  29.0565589   5.2673635
  73.7747174  27.9582065   4.0867943  72.9842717  27.9406204   3.5472443
  73.5380528  28.4970359   4.8416980  75.3963245  27.2271473   1.6442693
  75.1048054  27.5901454   2.4806154  74.7835377  26.5138481   1.4656025
  68.5744438  26.1445778   6.6135378  69.4435598  26.3186430   6.2522013
  68.0951189  26.9640195   6.4911108  80.2336914  37.8534404  -3.9819347
  80.8715324  37.7341151  -4.6856007  80.1157757  38.8015248  -3.9231395
  77.0426620  37.8061832  -4.0457822  76.7045131  37.6902897  -4.9337287
  77.9116388  37.4052997  -4.0656816  77.5246403  38.9596684   1.9128383
  77.5135044  38.5649482   1.0408887  77.6867042  38.2262756   2.5062155
  70.4477868  41.1548500  -5.2176711  71.2399159  40.8139325  -5.6330412
  70.6874518  41.2643475  -4.2974558  74.2453664  41.7433795   0.8607567
  73.9543530  42.6479426   0.7454233  74.8810648  41.7850323   1.5751637
  75.1709871  39.1210644  -2.5491073  75.7673443  38.8966666  -3.2634110
  75.2284842  38.3795389  -1.9465625  82.7112030  29.2282665  -1.5438552
  82.3795354  30.0978076  -1.7677337  82.1157643  28.9118949  -0.8644521
  79.2043549  41.4295211  -2.1442639  78.9044272  42.3320250  -2.2526832
  78.8594609  41.1627394  -1.2921486  82.6040693  33.9477751  -4.4645202
  81.6957570  33.8793160  -4.7586441  82.5528289  34.4249696  -3.6363376
  74.1864329  48.1939531  -9.1771671  74.1088359  49.1447356  -9.0983191
  73.5825973  47.8485404  -8.5196745  76.6781559  35.3667397   3.4789695
  75.9014893  35.9261317   3.4692560  77.3172122  35.8524180   4.0004566
  74.9327931  38.1752850   3.0407662  75.6742615  38.7137894   2.7642486
  74.2264916  38.8019139   3.1979214  80.4083271  40.3181991   1.6379824
  80.8166627  39.8764401   0.8934456  79.6860532  39.7434618   1.8914017
  76.7614341  35.2554597  -0.9886619  77.6075536  35.6794011  -0.8451970
  76.7012978  34.5988222  -0.2948056  80.7312085  40.8783181  -4.6067887
  80.1020948  41.0428895  -5.3091819  80.3437747  41.2924791  -3.8356923
  84.6101317  41.8137619  -7.2523523  83.9252355  42.1936520  -7.8026490
  84.6945166  42.4232946  -6.5191576  79.9113786  32.9158966   0.6694555
  79.6674718  33.6701026   0.1328830  80.1873717  33.2944313   1.5041802
  81.8652249  39.4597578  -0.6528180  82.0769144  40.1029338  -1.3293799
  81.8181997  38.6259895  -1.1206250  73.1764128  40.1629071  -4.4038039
  73.7465485  40.5916339  -5.0420554  73.7672240  39.8811656  -3.7053853
  73.6689295  35.3292498   3.8422972  73.0387955  36.0108779   4.0758369
  73.5625383  35.2175580   2.8976111  82.9798077  42.3369534  -2.4805823
  83.8015520  41.9349721  -2.7623141  82.9760480  42.2337768  -1.5289707
  76.7454680  41.8853577  -0.3245112  76.8099113  42.3473984   0.5113060
  76.0365604  41.2550942  -0.1962802  72.9470037  29.6313264   6.2048224
  72.5536983  29.0779463   6.8795868  73.7636178  29.9423843   6.5954741
  71.7226980  44.1862879  -7.8015453  71.8993608  45.1080843  -7.9894470
  72.5183813  43.8721298  -7.3721074  75.8637998  31.0471143   3.7968480
  76.6047712  31.6478296   3.7172943  76.0955921  30.3048781   3.2386523
  71.0079336  36.2327510   2.0746710  70.8932852  35.3312768   2.3753809
  70.1523854  36.4791207   1.7231526  78.0871174  44.1745251   3.6734210
  77.6435028  43.3881629   3.3555115  78.7488388  44.3624401   3.0078101
  72.8458295  45.7041052  -1.8005111  73.3965721  45.5758116  -2.5728117
  72.0069771  46.0035941  -2.1510218  80.1852412  44.4548051   1.7015612
  80.1670888  45.2756932   1.2095881  81.1072332  44.3302126   1.9265753
  76.6425466  41.9692180   2.5439120  77.1753803  41.2080468   2.3138428
  76.1139548  41.6765832   3.2863274  82.9871025  39.2927193  -4.8275022
  82.3294700  39.9826455  -4.7394893  83.7911424  39.6823625  -4.4841035
  78.2757315  35.1221021  -4.5312739  77.3579876  35.3435968  -4.6891051
  78.6917458  35.1967332  -5.3901032  82.5638280  42.6277567  -8.6491937
  82.1100607  41.7868477  -8.5926747  81.9332247  43.2638966  -8.3117157
  81.0071219  44.4654064  -7.7142119  81.2994194  45.0259121  -8.4329754
  81.5169840  44.7582625  -6.9588960  75.9704845  45.2434415  -6.6248666
  75.9281023  45.4695261  -7.5540134  76.8867543  45.0097790  -6.4762865
  79.4170478  35.7118483   0.2731963  79.7719866  35.9389956   1.1326429
  80.0642610  36.0436859  -0.3490781  85.1737595  40.9013446  -4.0107436
  85.6074102  40.8088735  -3.1624382  85.8869176  40.8770946  -4.6487420
  78.9065490  44.5015540  -2.4774336  78.9602512  45.0706476  -1.7096620
  78.0380271  44.6717425  -2.8420298  71.7863883  34.2033096  -0.9949884
  72.4586937  33.9950458  -1.6437235  70.9593670  34.0055182  -1.4344652
  86.0353145  40.9437146  -1.4774551  86.2289035  41.8482957  -1.2315276
  85.9353763  40.4844565  -0.6435966  77.6889455  30.8295037   1.0215777
  77.0417370  31.5284986   0.9280253  78.4590471  31.2631181   1.3892025
  81.0968253  41.0943889   4.0966330  80.9453760  40.8654441   3.1796414
  81.0872933  42.0514490   4.1097675  77.8653590  38.6675802  -0.9187404
  78.7945650  38.8186961  -1.0918436  77.4444620  38.7559822  -1.7738757
  76.6641921  42.6926466  -3.1488866  76.5253007  42.3245251  -2.2762928
  75.8756518  43.2074106  -3.3204908  77.2590073  47.7935563 -11.8063330
  77.4341829  47.3223606 -10.9917707  76.5722861  48.4201329 -11.5782069
  78.2147137  42.0708069  -5.7600028  77.8796969  42.0308839  -4.8642378
  77.7151082  41.4052785  -6.2329618  72.1891380  37.4775699  -0.2347447
  72.0511178  36.7455938   0.3664092  73.0996304  37.3884599  -0.5163259
  74.8173681  37.1895658  -0.7463768  75.5273300  36.5488850  -0.7877149
  74.7742989  37.4408553   0.1762413  82.8060460  44.1263011   2.1742812
  82.7473006  43.4422232   1.5073395  83.2079978  44.8682001   1.7223438
  73.5302615  34.1760876   1.0731872  72.9939972  33.7251614   1.7253468
  72.9419324  34.3106785   0.3302336  71.8251159  50.9424925  -5.0323469
  72.0647757  51.5743449  -4.3544451  70.9820355  50.5912965  -4.7458110
  82.8077867  42.0902595   0.4056791  81.9204646  41.7528517   0.5283190
  83.3776418  41.3585627   0.6425557  76.3379020  46.7504048  -2.6281965
  76.2649192  47.5559019  -2.1162661  75.8956414  46.9496014  -3.4533944
  76.1268800  45.9875818  -9.1179144  75.3436322  46.5297498  -9.0240919
  76.8261545  46.5049797  -8.7184903  78.7977704  46.6490882  -0.4723807
  79.5105676  47.2838347  -0.5447905  78.3067733  46.7454748  -1.2883805
  73.8489618  44.3985325   0.3481764  74.5499077  45.0321808   0.5011158
  73.3784733  44.7400057  -0.4122597  81.6490904  36.9529933  -1.8265686
  80.9962354  37.2005840  -2.4813233  82.0271283  36.1394071  -2.1603208
  78.6098077  46.9889626  -7.7237515  78.7920472  46.1711282  -7.2609763
  79.4331063  47.2057318  -8.1612625  78.9440243  45.9157811 -10.4622467
  79.4728009  45.4050266 -11.0752305  79.2068462  45.6000341  -9.5976934
  77.6978477  37.6949744   4.6600351  77.0219114  37.5943873   5.3302727
  78.5206110  37.5388958   5.1236349  69.4457336  43.9321680  -2.7187133
  70.0310772  43.1865368  -2.5859229  69.2482174  44.2425637  -1.8350469
  72.2995991  46.9672928  -7.7024691  71.6306366  47.4519055  -8.1860651
  72.1608861  47.2142148  -6.7881312  76.4401259  49.0016671  -1.1042033
  76.9919567  49.1648293  -0.3392947  76.7807453  49.5921109  -1.7762008
  70.8918025  33.4214954   3.1452886  71.5190064  33.0392031   3.7590411
  70.0345944  33.2029156   3.5108579  81.2912134  43.8277929   4.7506622
  81.8352038  44.4407887   4.2561577  80.7098979  44.3857507   5.2673635
  79.5769647  46.9498647  -4.1178350  79.4520786  46.1488387  -4.6267405
  80.2348738  47.4444840  -4.6064380  81.6404555  44.7507667  -2.4898800
  80.6934891  44.6313018  -2.5620474  81.9887328  43.8630165  -2.4072539
  74.0004128  30.6401806   1.3339442  74.5238530  30.8864102   2.0965751
  73.7816462  31.4721841   0.9142579  78.6450988  44.5460383  -6.2894448
  78.4975951  43.6177090  -6.1086878  79.4704482  44.5680474  -6.7737373
  82.2485110  45.3688942  -5.2029575  83.1731658  45.1631803  -5.3405124
  82.0800414  45.1205343  -4.2940234  75.2056673  31.5815501  -0.9810888
  74.8653494  30.7823314  -0.5790208  74.4995680  31.8817212  -1.5534055
  77.0934238  32.7823822  -2.6257569  76.8352015  33.7040893  -2.6273239
  76.5619278  32.3854257  -1.9357105  82.0380426  45.8874609  -9.8467484
  82.2117304  45.3221032 -10.5993631  82.5309318  46.6875504 -10.0287994
  67.8557386  37.8989278  -1.7803925  67.3110854  38.6749086  -1.6483651
  68.7336736  38.2460083  -1.9384804  68.6423408  37.0259175   1.1126232
  67.9005144  37.1741810   1.6990862  68.3216152  37.2867440   0.2492981
  76.5867071  46.5675153   0.9106622  76.8954197  46.3224300   1.7829321
  77.3842553  46.7721791   0.4225492  76.6087683  48.7213062  -6.8588002
  76.1692673  48.2289441  -6.1655145  77.3595800  48.1786030  -7.0995926
  69.0880022  44.9124603  -6.8563374  69.9138042  44.6128375  -7.2364730
  68.7374074  44.1432226  -6.4073585  74.0561555  44.2651072  -4.7865700
  73.4341564  43.6021777  -5.0863472  74.7266422  44.2912203  -5.4692052
  74.1286082  32.7432860   4.8066806  74.1774238  33.6194982   4.4244576
  74.6708597  32.2010253   4.2338449  84.6140928  43.2873983   4.0867943
  83.8236472  43.2698122   3.5472443  84.3774283  43.8262277   4.8416980
  84.7338803  40.1366449   1.4000672  84.7836808  39.9716457   2.3416194
  84.6252726  39.2693708   1.0098552  82.0242566  36.1197377   2.7159978
  82.9252428  35.9803842   2.4243976  82.0990540  36.2851832   3.6558156
  76.3585371  33.4964232   1.5613165  75.4888680  33.7897798   1.2895753
  76.5944851  34.0804677   2.2820428  86.2357000  42.5563391   1.6442693
  85.9441808  42.9193371   2.4806154  85.6229131  41.8430399   1.4656025
  84.4844188  37.6796005   0.1122751  84.9598310  37.8723652  -0.6958397
  83.5609754  37.7355191  -0.1333865  79.0624405  29.7143849  -0.9221415
  79.5806349  30.4504876  -1.2474926  78.7079537  30.0207842  -0.0874656
  83.1845857  34.5561765  -1.6548943  84.1363280  34.6559863  -1.6336719
  83.0149308  33.7640034  -1.1450859  81.2060237  31.6417349  -1.4689542
  80.6110169  31.9222361  -2.1643054  80.9209933  32.1311250  -0.6972801
  85.6633935  37.7767885  -2.5406644  85.6310255  36.8383886  -2.3546960
  86.2734559  37.8551922  -3.2740819  77.3855958  40.6981684   4.9621217
  78.3058968  40.8760283   5.1561264  77.3505541  39.7537730   4.8100917
  70.3818031  38.6082719  -2.3956001  70.6004041  39.5399827  -2.3767968
  70.7943805  38.2490693  -1.6101198  75.2545896  34.1815925   6.9946748
  75.1542623  35.1310282   6.9258839  75.0367438  33.8534164   6.1222818
  75.1177166  37.6113063   5.8111809  74.6344248  38.4113424   6.0175698
  75.2038105  37.6221008   4.8579253  71.0450504  41.5017598  -2.1519757
  71.9993757  41.4701541  -2.2189825  70.8463027  41.0408222  -1.3369531
  71.6349886  40.0718714   0.4151041  72.4542775  40.5662793   0.4385878
  71.9086694  39.1550682   0.3868608  69.4000733  47.0437218  -5.1349559
  69.2655201  46.2837619  -5.7011561  68.9832795  47.7678118  -5.6020770
  72.5569858  47.9406535  -4.9231116  72.4402243  48.8851967  -5.0252426
  71.7362305  47.6380096  -4.5345317  66.8884800  34.4056848   1.1143238
  67.5343664  33.8955802   1.6030463  66.6801951  35.1425530   1.6886663
  79.4138192  41.4737696   6.6135378  80.2829352  41.6478348   6.2522013
  78.9344944  42.2932112   6.4911108  73.5824373  48.5934797  -1.7075188
  74.4851619  48.6258407  -1.3908693  73.3561743  47.6635248  -1.6928852
  75.3377975  47.3465783  -5.0465109  74.3873606  47.3467645  -5.1600737
  75.6410461  46.5998518  -5.5629075  71.2282291  31.5524465   5.2118252
  72.0913753  31.1961270   5.4221577  70.6547702  31.2138360   5.8993656
  91.0730668  53.1826322  -3.9819347  91.7109078  53.0633069  -4.6856007
  90.9551511  54.1307165  -3.9231395  87.8820374  53.1353750  -4.0457822
  87.5438886  53.0194814  -4.9337287  88.7510143  52.7344915  -4.0656816
  88.3640157  54.2888601   1.9128383  88.3528798  53.8941400   1.0408887
  88.5260797  53.5554674   2.5062155  81.2871622  56.4840418  -5.2176711
  82.0792914  56.1431242  -5.6330412  81.5268272  56.5935393  -4.2974558
  85.0847419  57.0725713   0.8607567  84.7937284  57.9771344   0.7454233
  85.7204403  57.1142241   1.5751637  86.0103625  54.4502562  -2.5491073
  86.6067198  54.2258584  -3.2634110  86.0678597  53.7087307  -1.9465625
  93.5505784  44.5574583  -1.5438552  93.2189109  45.4269994  -1.7677337
  92.9551397  44.2410867  -0.8644521  90.0437304  56.7587129  -2.1442639
  89.7438027  57.6612167  -2.2526832  89.6988363  56.4919312  -1.2921486
  83.4949785  53.2100926  -6.1105935  82.5700282  53.0777140  -5.9028243
  83.7434198  53.9895145  -5.6135992  93.4434447  49.2769669  -4.4645202
  92.5351325  49.2085077  -4.7586441  93.3922043  49.7541614  -3.6363376
  80.8558596  52.8534199  -5.2762146  80.9850977  53.1068678  -4.3622734
  80.1756047  53.4461907  -5.5957491  87.5175313  50.6959314   3.4789695
  86.7408647  51.2553235   3.4692560  88.1565876  51.1816097   4.0004566
  85.7721685  53.5044768   3.0407662  86.5136370  54.0429812   2.7642486
  85.0658671  54.1311057   3.1979214  91.2477025  55.6473908   1.6379824
  91.6560381  55.2056319   0.8934456  90.5254287  55.0726536   1.8914017
  87.6008095  50.5846515  -0.9886619  88.4469290  51.0085929  -0.8451970
  87.5406733  49.9280139  -0.2948056  90.7507540  48.2450883   0.6694555
  90.5068472  48.9992944   0.1328830  91.0267471  48.6236231   1.5041802
  92.7046003  54.7889496  -0.6528180  92.9162899  55.4321256  -1.3293799
  92.6575752  53.9551812  -1.1206250  90.3072232  47.4007316  -3.7491608
  89.4456711  47.6988570  -3.4574870  90.3334667  47.6177715  -4.6810575
  84.0157883  55.4920989  -4.4038039  84.5859240  55.9208257  -5.0420554
  84.6065995  55.2103573  -3.7053853  84.5083049  50.6584416   3.8422972
  83.8781710  51.3400697   4.0758369  84.4019137  50.5467498   2.8976111
  79.8028022  50.3256212  -5.2311103  79.0127076  50.5813741  -5.7070993
  80.2939269  51.1404550  -5.1259063  81.7542767  50.6900791  -8.2727627
  80.9573930  50.8019486  -7.7544131  81.5268359  51.0287443  -9.1386736
  87.5848435  57.2145494  -0.3245112  87.6492867  57.6765902   0.5113060
  86.8759359  56.5842859  -0.1962802  78.0865725  50.5786702  -2.7996113
  78.3373763  51.4633712  -2.5338537  78.6225273  50.3991304  -3.5721021
  83.7863792  44.9605182   6.2048224  83.3930738  44.4071380   6.8795868
  84.6029932  45.2715760   6.5954741  86.7031753  46.3763061   3.7968480
  87.4441466  46.9770214   3.7172943  86.9349676  45.6340699   3.2386523
  81.8473091  51.5619428   2.0746710  81.7326606  50.6604685   2.3753809
  80.9917609  51.8083125   1.7231526  88.9264929  59.5037168   3.6734210
  88.4828783  58.7173547   3.3555115  89.5882142  59.6916319   3.0078101
  83.6852050  61.0332970  -1.8005111  84.2359475  60.9050033  -2.5728117
  82.8463526  61.3327859  -2.1510218  91.0246167  59.7839968   1.7015612
  91.0064642  60.6048849   1.2095881  91.9466087  59.6594044   1.9265753
  87.4819221  57.2984098   2.5439120  88.0147558  56.5372386   2.3138428
  86.9533302  57.0057750   3.2863274  89.7285456  44.7748819  -3.9618005
  89.2250252  44.7378954  -4.7750200  90.0216063  45.6841562  -3.9021348
  85.9728342  44.8587549  -4.9551823  86.8381339  44.6630357  -5.3145934
  86.0405851  44.6297900  -4.0282467  83.5790661  47.0889757  -7.5835456
  84.1534413  46.8664938  -8.3162264  84.1661644  47.1578451  -6.8306855
  89.1151069  50.4512939  -4.5312739  88.1973631  50.6727886  -4.6891051
  89.5311213  50.5259250  -5.3901032  78.7400938  52.0668410  -8.4367903
  78.5425337  51.4737770  -9.1616836  78.1847602  51.7620620  -7.7191964
  86.7197661  51.9591516  -6.3173309  86.7746271  51.0065353  -6.3930833
  85.9088863  52.1150955  -5.8332011  84.6590021  50.5768576  -8.5582931
  83.8457887  50.8762746  -8.1517738  85.1549015  50.1824265  -7.8408448
  90.2564233  51.0410400   0.2731963  90.6113621  51.2681873   1.1326429
  90.9036364  51.3728777  -0.3490781  84.1504096  48.1486931  -2.9421696
  84.7903475  48.0075690  -3.6398732  83.3181627  47.8621445  -3.3183094
  81.1532712  48.1187256  -8.1648709  81.4139530  49.0332590  -8.2739548
  81.9749885  47.6511699  -8.0152096  82.6257638  49.5325014  -0.9949884
  83.2980691  49.3242376  -1.6437235  81.7987424  49.3347100  -1.4344652
  88.5283210  46.1586954   1.0215777  87.8811125  46.8576904   0.9280253
  89.2984225  46.5923098   1.3892025  91.9362008  56.4235807   4.0966330
  91.7847514  56.1946358   3.1796414  91.9266687  57.3806408   4.1097675
  88.7047344  53.9967719  -0.9187404  89.6339404  54.1478879  -1.0918436
  88.2838374  54.0851740  -1.7738757  87.5035676  58.0218384  -3.1488866
  87.3646762  57.6537168  -2.2762928  86.7150272  58.5366023  -3.3204908
  83.0285135  52.8067617  -0.2347447  82.8904933  52.0747855   0.3664092
  83.9390058  52.7176517  -0.5163259  85.6567436  52.5187576  -0.7463768
  86.3667054  51.8780768  -0.7877149  85.6136744  52.7700471   0.1762413
  93.6454214  59.4554929   2.1742812  93.5866760  58.7714149   1.5073395
  94.0473733  60.1973919   1.7223438  84.3696370  49.5052794   1.0731872
  83.8333727  49.0543532   1.7253468  83.7813078  49.6398703   0.3302336
  93.6471622  57.4194513   0.4056791  92.7598400  57.0820435   0.5283190
  94.2170173  56.6877544   0.6425557  75.3000769  53.7518605  -6.2700157
  75.9871809  53.4380335  -6.8579142  75.1448897  54.6559969  -6.5432906
  80.1035491  48.6408801  -1.8415134  80.0193680  48.0334471  -2.5764724
  79.2818197  49.1317820  -1.8405637  86.8594173  49.2679748  -6.7473254
  86.4891961  48.7150788  -6.0592348  87.3553266  48.6637881  -7.2998254
  84.6883372  59.7277243   0.3481764  85.3892832  60.3613726   0.5011158
  84.2178487  60.0691974  -0.4122597  92.4884658  52.2821850  -1.8265686
  91.8356108  52.5297758  -2.4813233  92.8665038  51.4685989  -2.1603208
  88.5372231  53.0241661   4.6600351  87.8612868  52.9235791   5.3302727
  89.3599865  52.8680875   5.1236349  80.2851090  59.2613598  -2.7187133
  80.8704527  58.5157286  -2.5859229  80.0875929  59.5717555  -1.8350469
  74.8768745  51.8319198  -3.9982690  74.9152844  51.2982789  -3.2045572
  74.3709038  51.3054404  -4.6171713  82.2559507  46.6783739  -0.5020148
  82.3200834  47.5398570  -0.9142750  82.1926627  46.0657740  -1.2347789
  81.7311780  48.7506871   3.1452886  82.3583818  48.3683949   3.7590411
  80.8739699  48.5321073   3.5108579  92.1305888  59.1569846   4.7506622
  92.6745792  59.7699805   4.2561577  91.5492733  59.7149425   5.2673635
  78.5077322  50.5583300 -10.9228759  78.8030763  49.6493979 -10.9761705
  77.6065358  50.5371040 -11.2447756  82.0371569  48.6339297  -4.9401210
  81.3158155  49.2475265  -5.0793737  82.8264825  49.1697062  -5.0184564
  84.8397883  45.9693723   1.3339442  85.3632285  46.2156020   2.0965751
  84.6210216  46.8013758   0.9142579  80.2365164  48.2397398 -10.7989434
  79.9077870  47.3594777 -10.9814328  80.5904535  48.1845067  -9.9113044
  86.0450428  46.9107419  -0.9810888  85.7047248  46.1115232  -0.5790208
  85.3389434  47.2109129  -1.5534055  86.6966900  43.9956731  -2.5283565
  87.5192969  43.5217209  -2.6504675  86.9404963  44.7747215  -2.0284879
  84.2205479  50.6875852  -4.7191586  84.0750059  51.0016155  -3.8267305
  83.7430682  51.3060752  -5.2720688  86.0801861  47.6778400  -4.6710697
  86.0663430  46.7819493  -5.0078399  86.7974290  47.6849063  -4.0372411
  87.9327992  48.1115740  -2.6257569  87.6745770  49.0332810  -2.6273239
  87.4013033  47.7146174  -1.9357105  78.6951141  53.2281196  -1.7803925
  78.1504609  54.0041004  -1.6483651  79.5730491  53.5752000  -1.9384804
  79.4817163  52.3551092   1.1126232  78.7398899  52.5033728   1.6990862
  79.1609907  52.6159358   0.2492981  87.4260825  61.8967070   0.9106622
  87.7347952  61.6516217   1.7829321  88.2236307  62.1013709   0.4225492
  78.1282381  58.1602847  -5.8974440  77.2914290  57.7325022  -6.0790439
  78.1006027  58.3535291  -4.9603649  84.9679837  48.0724777   4.8066806
  85.0167992  48.9486900   4.4244576  85.5102351  47.5302170   4.2338449
  95.4534683  58.6165900   4.0867943  94.6630226  58.5990039   3.5472443
  95.2168037  59.1554194   4.8416980  95.5732558  55.4658367   1.4000672
  95.6230563  55.3008374   2.3416194  95.4646481  54.5985626   1.0098552
  92.8636320  51.4489295   2.7159978  93.7646183  51.3095760   2.4243976
  92.9384295  51.6143750   3.6558156  87.1979125  48.8256150   1.5613165
  86.3282435  49.1189716   1.2895753  87.4338606  49.4096595   2.2820428
  97.0750754  57.8855308   1.6442693  96.7835563  58.2485289   2.4806154
  96.4622886  57.1722317   1.4656025  95.3237943  53.0087923   0.1122751
  95.7992064  53.2015569  -0.6958397  94.4003508  53.0647109  -0.1333865
  89.9018159  45.0435767  -0.9221415  90.4200103  45.7796793  -1.2474926
  89.5473292  45.3499760  -0.0874656  94.0239612  49.8853683  -1.6548943
  94.9757035  49.9851781  -1.6336719  93.8543062  49.0931952  -1.1450859
  92.0453991  46.9709266  -1.4689542  91.4503923  47.2514279  -2.1643054
  91.7603688  47.4603167  -0.6972801  88.2249713  56.0273602   4.9621217
  89.1452722  56.2052201   5.1561264  88.1899296  55.0829647   4.8100917
  77.4431878  51.2212196  -6.1125508  77.1234662  50.3677504  -6.4051134
  76.8965306  51.4360774  -5.3567541  81.2211785  53.9374637  -2.3956001
  81.4397795  54.8691744  -2.3767968  81.6337559  53.5782611  -1.6101198
  86.0939651  49.5107842   6.9946748  85.9936378  50.4602199   6.9258839
  85.8761193  49.1826081   6.1222818  77.3120138  54.8415107  -4.1432386
  76.6183609  54.4269060  -4.6562432  78.0593129  54.8835644  -4.7398967
  85.9570921  52.9404981   5.8111809  85.4738003  53.7405341   6.0175698
  86.0431860  52.9512926   4.8579253  79.2256880  54.7733361  -6.2666371
  79.2027569  54.8721048  -7.2184488  79.5357517  55.6198512  -5.9449205
  81.8844258  56.8309516  -2.1519757  82.8387512  56.7993458  -2.2189825
  81.6856782  56.3700140  -1.3369531  82.4743640  55.4010632   0.4151041
  83.2936529  55.8954711   0.4385878  82.7480448  54.4842600   0.3868608
  77.7278555  49.7348766   1.1143238  78.3737418  49.2247720   1.6030463
  77.5195706  50.4717447   1.6886663  90.2531947  56.8029613   6.6135378
  91.1223106  56.9770266   6.2522013  89.7738698  57.6224030   6.4911108
  84.4218127  63.9226714  -1.7075188  85.3245374  63.9550325  -1.3908693
  84.1955497  62.9927165  -1.6928852  82.0676046  46.8816383   5.2118252
  82.9307507  46.5253188   5.4221577  81.4941456  46.5430278   5.8993656
  94.6257546  60.2897099   6.2048224  94.2324492  59.7363298   6.8795868
  95.4423687  60.6007678   6.5954741  97.5425507  61.7054979   3.7968480
  98.2835221  62.3062132   3.7172943  97.7743430  60.9632616   3.2386523
  92.5705534  64.0798789   3.1452886  93.1977573  63.6975866   3.7590411
  91.7133453  63.8612991   3.5108579  95.8073591  63.4016695   4.8066806
  95.8561747  64.2778818   4.4244576  96.3496106  62.8594088   4.2338449
  96.9333405  64.8399760   6.9946748  96.8330132  65.7894117   6.9258839
  96.7154947  64.5117999   6.1222818  88.5672309  65.0640683   1.1143238
  89.2131173  64.5539637   1.6030463  88.3589460  65.8009365   1.6886663
  92.9069800  62.2108301   5.2118252  93.7701262  61.8545105   5.4221577
  92.3335211  61.8722195   5.8993656   4.3554026  99.9975958  73.5207306
   3.6017735  99.4283356  73.3651310   4.4901568  99.9638623  74.4677941
   0.7202639 101.4383947  73.8173421   1.5549530 101.8773751  73.9810981
   0.8561768 100.9622600  72.9981666   4.7660441 100.1551568  76.2527550
   5.4963830  99.8936856  76.8135254   4.1567387  99.4180290  76.2929618
   2.8475739  98.2959431  76.8502002   2.1208902  98.1615396  76.2418493
   2.4323025  98.6036259  77.6558720   0.4653533  94.5171283  74.2035433
   1.0598024  94.2767019  73.4928741   0.5380117  93.7978413  74.8308969
   2.7724606  97.8237484  72.9778854   2.2124164  97.8930673  73.7510416
   2.1668110  97.6478468  72.2578351   3.9338872 103.7211840  77.7260919
   3.5903142 104.6113482  77.6500029   4.3017835 103.5313498  76.8630504
   5.7326538 102.9805399  72.8278657   6.0385415 102.1202763  72.5404572
   6.4579143 103.5723019  72.6277650   3.4380710 102.7803725  74.2507639
   3.7182464 102.1126914  74.8768065   4.2231317 102.9732821  73.7382303
   7.5982861 104.9579538  73.1175609   7.4007683 104.6494626  74.0018941
   8.2082567 105.6841177  73.2473539   3.3484241 101.9099263  70.7741228
   2.5816637 101.3557750  70.9197910   3.7594946 101.9821132  71.6355379
   4.3554028  77.0038081  60.2452613   3.6017736  76.4345479  60.0896617
   4.4901569  76.9700745  61.1923247   0.7202640  78.4446069  60.5418727
   1.5549531  78.8835873  60.7056288   0.8561769  77.9684722  59.7226973
   4.7660443  77.1613691  62.9772857   5.4963831  76.8998979  63.5380560
   4.1567388  76.4242413  63.0174925   2.8475740  75.3021553  63.5747308
   2.1208903  75.1677518  62.9663800   2.4323027  75.6098382  64.3804026
   0.4653535  71.5233405  60.9280740   1.0598025  71.2829141  60.2174048
   0.5380118  70.8040536  61.5554276   2.7724607  74.8299606  59.7024161
   2.2124165  74.8992796  60.4755723   2.1668111  74.6540591  58.9823657
   4.3580626  91.5056120  62.3954117   4.9959036  91.3862868  61.6917457
   4.2401469  92.4536964  62.4542069   1.1670332  91.4583548  62.3315641
   0.8288844  91.3424613  61.4436176   2.0360100  91.0574713  62.3116648
   1.6490115  92.6118400  68.2901847   1.6378756  92.2171198  67.4182351
   1.8110755  91.8784473  68.8835618   2.6056707  96.9789992  53.6326997
   1.9544686  97.5644073  53.2461011   3.4001069  97.5096187  53.6922035
   3.9121894  89.2307574  59.4707325   4.6984984  88.8126997  59.1197742
   4.1760599  90.1353666  59.6388973   4.0831972  94.6680424  54.1695982
   3.4477805  94.7415051  54.8816886   3.7529378  95.2574023  53.4915061
   9.3130322  89.1682807  60.3740303  10.0455493  88.5982024  60.6078133
   8.5569677  88.7804408  60.8146809   0.9306441  91.5910049  57.5703646
   0.5664648  91.0640670  58.2816567   1.7873557  91.2008518  57.3970131
   6.8355742  82.8804381  64.8334912   6.5039067  83.7499792  64.6096127
   6.2401355  82.5640665  65.5128942   3.3287261  95.0816927  64.2330825
   3.0287984  95.9841966  64.1246632   2.9838321  94.8149111  65.0851977
   6.7284405  87.5999467  61.9128262   5.8201283  87.5314876  61.6187023
   6.6772001  88.0771412  62.7410087   8.5946052  85.8015906  63.6906136
   7.9520432  86.0948439  63.0445930   8.0900980  85.6868826  64.4959333
   6.2486215  89.5479079  54.3791995   7.1604071  89.7806466  54.2039693
   5.7395862  90.1316123  53.8167074   4.5326983  93.9703707  68.0153288
   4.9410339  93.5286117  67.2707920   3.8104244  93.3956334  68.2687481
   0.8858053  88.9076314  65.3886845   1.7319248  89.3315727  65.5321494
   0.8256691  88.2509938  66.0825408   4.8555798  94.5304898  61.7705577
   4.2264660  94.6950612  61.0681644   4.4681460  94.9446507  62.5416541
   8.7345029  95.4659335  59.1249940   8.0496068  95.8458237  58.5746974
   8.8188879  96.0754662  59.8581888   4.0357498  86.5680682  67.0468018
   3.7918430  87.3222743  66.5102294   4.3117429  86.9466030  67.8815265
   5.9895961  93.1119294  65.7245284   6.2012856  93.7551054  65.0479665
   5.9425709  92.2781611  65.2567214   3.5922190  85.7237115  62.6281856
   2.7306669  86.0218369  62.9198594   3.6184625  85.9407514  61.6962889
   7.1041789  95.9891250  63.8967641   7.9259233  95.5871437  63.6150323
   7.1004192  95.8859484  64.8483757  15.1947782  92.3329998  60.2452613
  14.4411490  91.7637396  60.0896617  15.3295323  92.2992663  61.1923247
   0.5846410  97.2043401  55.9207332   0.4492085  98.0494936  56.3492180
   1.1256223  97.4062678  55.1573266   2.2114886  97.8266967  70.0507674
   1.7678741  97.0403346  69.7328579   2.8732100  98.0146118  69.3851565
   4.3096125  98.1069767  68.0789075   4.2914600  98.9278648  67.5869345
   5.2316045  97.9823842  68.3039217   3.9338874  80.7273962  64.4506225
   3.5903143  81.6175604  64.3745336   4.3017836  80.5375620  63.5875810
   3.8989156  90.7182574  52.9578661   3.3835780  91.4887178  53.1967048
   3.6266465  90.0447710  53.5811722   1.4836267  85.5632274  58.0163899
   0.6277864  85.1739125  57.8369538   1.8963219  85.6424235  57.1563684
   3.0135414  83.0978618  62.4155459   2.5100210  83.0608753  61.6023264
   3.3066021  84.0071360  62.4752115   8.8723431  93.4714928  54.8931834
   8.0952873  93.1326088  54.4486996   9.5514912  93.4767551  54.2186799
   3.6875460  88.5909666  54.7838442   3.3825595  88.9055815  55.6348585
   4.6405902  88.6691086  54.8265775   2.1321891  94.7499889  56.4331396
   1.6043253  94.0152649  56.1204633   1.6309394  95.5274565  56.1871364
   7.1114737  92.9448909  61.5498442   6.4538412  93.6348171  61.6378571
   7.9155137  93.3345341  61.8932428   5.9220196  91.2993282  59.6002384
   6.4352078  91.9323274  60.1024094   6.5721420  90.6994478  59.2345744
   3.1842570 101.2777606  52.3563055   2.5104269 101.5809303  52.9648013
   3.5708392 102.0806687  52.0068512   2.4001027  88.7742738  61.8460724
   1.4823588  88.9957685  61.6882412   2.8161171  88.8489048  60.9872432
   3.1836075  90.1734153  56.9763405   3.9307894  90.6855551  56.6670527
   3.4527664  89.8518206  57.8367798   1.4562725  92.6692694  53.9590359
   0.5473944  92.3851727  54.0562829   1.4857809  93.0891773  53.0993666
   6.6881992  96.2799284  57.7281526   6.2344320  95.4390194  57.7846717
   6.0575959  96.9160682  58.0656307   5.6314912  87.2091270  58.9582194
   4.8937669  86.6968656  59.2892436   5.8841686  86.7691651  58.1465471
   5.1314932  98.1175780  58.6631345   5.4237906  98.6780837  57.9443710
   5.6413552  98.4104341  59.4184504   5.7326539  79.9867522  59.5523963
   6.0385416  79.1264885  59.2649878   6.4579144  80.5785142  59.3522957
   1.1538813  94.2101438  51.2978437   0.7158243  93.4937297  50.8384075
   1.8949254  94.4377553  50.7363529   3.5414191  89.3640199  66.6505427
   3.8963578  89.5911672  67.5099893   4.1886322  89.6958576  66.0282682
   9.2711928  92.4858635  57.3554756   9.1329826  92.6760231  56.4275945
   8.9148146  93.2478018  57.8122807   9.2981307  94.5535162  62.3666028
   9.7317814  94.4610451  63.2149082  10.0112888  94.5292662  61.7286044
   3.0309202  98.1537256  63.8999128   3.0846224  98.7228192  64.6676844
   2.1623983  98.3239141  63.5353165  10.1596857  94.5958863  64.8998913
  10.3532747  95.5004673  65.1458188  10.0597475  94.1366282  65.7337498
   1.8133168  84.4816753  67.3989240   1.1661083  85.1806703  67.3053717
   2.5834183  84.9152897  67.7665488   5.2211965  94.7465605  70.4739794
   5.0697472  94.5176157  69.5569877   5.2116645  95.7036207  70.4871139
   1.9897302  92.3197518  65.4586060   2.9189362  92.4708678  65.2855027
   1.5688332  92.4081539  64.6034706   1.3833786 101.4457279  54.5710134
   1.5585541 100.9745322  55.3855757   0.6966574 102.0723045  54.7991395
   2.3390849  95.7229785  60.6173435   2.0040681  95.6830555  61.5131085
   1.8394794  95.0574501  60.1443846   5.2750040  93.0685819  50.8910495
   4.6579211  92.3432648  50.7943548   4.8066529  93.8295180  50.5477569
   6.9304172  97.7784728  68.5516275   6.8716718  97.0943948  67.8846858
   7.3323690  98.5203718  68.0996901   6.9321579  95.7424312  66.7830255
   6.0448358  95.4050234  66.9056654   7.5020130  95.0107343  67.0199020
   3.5609163  85.4492164  59.9028525   4.0577862  84.6962126  59.5829595
   2.7896144  85.4856480  59.3371735  11.4138920  91.1532529  61.5446817
  11.4028796  92.0357245  61.1740750  10.5456299  90.8004080  61.3501354
   2.9221416 100.3012598  65.9049657   3.6349388 100.9360063  65.8325558
   2.4311445 100.3976464  65.0889659   4.6438943  94.2063851  57.4766949
   3.7095222  94.3265313  57.3071653   4.8215612  93.3036318  57.2126958
   8.0311495  90.0481170  58.0116983   8.4971947  90.8809162  57.9377285
   8.4818995  89.5826152  58.7162241   6.0987726  96.3924991  55.0103135
   6.3747570  96.2781586  55.9197009   5.2292224  95.9942476  54.9715308
   6.0028157  82.4161757  62.0507884   5.0891237  82.6465984  62.2190091
   6.4321259  82.5000201  62.9021916   5.7734616  90.6051649  64.5507778
   5.1206066  90.8527556  63.8960231   6.1514996  89.7915787  64.2170255
   2.7341790 100.6411342  58.6535948   2.9164184  99.8232998  59.1163701
   3.5574776 100.8579034  58.2160838   3.0683955  99.5679527  55.9150997
   3.5971722  99.0571982  55.3021159   3.3312175  99.2522058  56.7796530
   1.8222189  91.3471460  71.0373815   1.1462826  91.2465589  71.7076190
   2.6449823  91.1910674  71.5009812   0.5644972 102.6538388  65.2731431
   1.1163280 102.8170009  66.0380516   0.9051165 103.2442825  64.6011456
   5.4155846  97.4799645  71.1280086   5.9595750  98.0929603  70.6335040
   4.8342691  98.0379223  71.6447099   3.7013359 100.6020363  62.2595113
   3.5764498  99.8010103  61.7506059   4.3592450 101.0966556  61.7709083
   5.7648267  98.4029383  63.8874663   4.8178603  98.2834734  63.8152990
   6.1131040  97.5151881  63.9700925   2.7694701  98.1982099  60.0879016
   2.6219663  97.2698807  60.2686586   3.5948194  98.2202190  59.6036091
   6.3728822  99.0210658  61.1743888   7.2975370  98.8153519  61.0368340
   6.2044126  98.7727059  62.0833230   2.7656215  86.0519937  55.0811133
   2.9819829  86.9344575  54.7799961   2.2850282  85.6606150  54.3516775
   1.2177950  86.4345538  63.7515894   0.9595728  87.3562609  63.7500225
   0.6862990  86.0375973  64.4416359   6.1624139  99.5396326  56.5305980
   6.3361016  98.9742748  55.7779832   6.6553030 100.3397220  56.3485470
   1.6379906  82.5677489  60.1117057   1.6601602  82.6316822  59.1569037
   2.0547965  81.7281998  60.3057563  12.0163530  92.3032748  58.1496280
  12.4594676  91.5540074  57.7515403  11.1390040  92.2942885  57.7670012
   7.1499311  98.8563090  53.6302878   7.8450216  99.4769783  53.8490193
   7.4922461  98.0058441  53.9055256   9.0490734  96.3062795  55.1590209
   9.5742058  96.6450068  54.4339529   8.9613087  95.3709811  54.9753344
   0.7110783 100.2196869  67.2880086   1.0197909  99.9746016  68.1602785
   1.5086265 100.4243508  66.7998956   8.7384640  96.9395699  70.4641407
   7.9480184  96.9219838  69.9245906   8.5017995  97.4783993  71.2190443
   8.8582515  93.7888166  67.7774135   8.9080520  93.6238173  68.7189658
   8.7496439  92.9215425  67.3872016   6.1486278  89.7719094  69.0933442
   7.0496141  89.6325558  68.8017440   6.2234252  89.9373548  70.0331620
  10.3600712  96.2085107  68.0216157  10.0685521  96.5715088  68.8579618
   9.7472844  95.4952115  67.8429489  11.5596395  93.7737987  60.5418727
  12.3943286  94.2127791  60.7056288  11.6955523  93.2976640  59.7226973
   8.6087901  91.3317722  66.4896215   9.0842022  91.5245368  65.6815066
   7.6853466  91.3876907  66.2439599   3.1868117  83.3665565  65.4552049
   3.7050061  84.1026592  65.1298537   2.8323250  83.6729559  66.2898808
   3.4380711  79.7865848  60.9752945   3.7182465  79.1189037  61.6013372
   4.2231318  79.9794943  60.4627609   1.2414180  98.9624842  52.5377972
   0.6688147  99.5815029  52.0848444   1.8146973  99.5124203  53.0717894
   7.3089570  88.2083482  64.7224521   8.2606992  88.3081579  64.7436745
   7.1393020  87.4161750  65.2322605   5.3303949  85.2939065  64.9083921
   4.7353881  85.5744078  64.2130410   5.0453646  85.7832966  65.6800663
   4.4611439  99.2461992  53.6686554   5.3942113  99.1807553  53.8719430
   4.3734652 100.0818259  53.2101087   7.0899456  98.5627862  50.6290502
   7.0113088  98.2287726  51.5226259   7.9109123  99.0549630  50.6281974
   9.7877647  91.4289601  63.8366820   9.7553967  90.4905602  64.0226504
  10.3978271  91.5073638  63.1032645   1.6260978  90.2985654  49.8794024
   2.5720083  90.1691863  49.9482442   1.2475223  89.5600316  50.3563452
   9.9372136  88.2200645  63.8825103   9.4211184  87.4359101  63.6955032
  10.8212084  87.8919361  64.0471623   7.5982863  81.9641660  59.8420916
   7.4007684  81.6556749  60.7264248   8.2082568  82.6903299  59.9718846
  15.6054197  92.4905608  62.9772857  16.3357586  92.2290896  63.5380560
  14.9961143  91.7534330  63.0174925  13.6869494  90.6313471  63.5747308
  12.9602658  90.4969436  62.9663800  13.2716781  90.9390299  64.3804026
   1.5099671  94.3503401  71.3394681   2.4302680  94.5282000  71.5334728
   1.4749254  93.4059446  71.1874380   1.4265961  82.7672520  55.9693151
   0.6166689  82.4219605  56.3448397   2.1150378  82.4580064  56.5580762
   3.3556509  81.8450567  57.5917447   3.9087548  82.2646021  58.2507471
   3.5926596  80.9186315  57.6340403   6.7335316  83.9551092  57.0996112
   6.1533985  84.6135896  56.7174164   6.4671249  83.1328437  56.6883529
   5.1838883  83.3556150  59.3017432   5.6838661  83.4672685  58.4931751
   5.8274491  83.0517203  59.9418240   5.5160194  86.1151183  56.1552460
   4.6286049  86.4000833  55.9372655   5.9314183  85.9544946  55.3079737
   8.8674731  86.1397704  59.8706799   9.6435121  86.6294156  60.1431416
   8.1422865  86.5655758  60.3278669  11.3047289  86.8525323  60.9280740
  11.8991780  86.6121059  60.2174048  11.3773873  86.1332454  61.5554276
   4.6603408  95.8795858  50.2500480   5.3639258  96.0845860  50.8658136
   3.9366057  96.4472619  50.5149563   5.4901218  91.6305719  56.3702750
   5.4336420  92.0874270  55.5310382   6.0429561  90.8696403  56.1925593
   9.3006024  87.4195451  57.1952870   9.0442958  87.0192086  58.0261077
   8.6758892  88.1339245  57.0703009  13.6118362  90.1591524  59.7024161
  13.0517920  90.2284713  60.4755723  13.0061865  89.9832509  58.9823657
   6.5690105  96.3178387  52.2998940   7.4035709  95.8859585  52.1176415
   6.4074448  96.1460400  53.2275834   6.2235997  92.8210500  53.6655279
   6.1684801  92.6554771  52.7243723   5.5982053  93.5286533  53.8217469
   3.5381905  95.1259412  72.9908842   4.4073064  95.3000064  72.6295477
   3.0588656  95.9453829  72.8684571   3.3484242  78.9161386  57.4986534
   2.5816638  78.3619872  57.6443217   3.7594947  78.9883254  58.3600686
  15.1974380 106.8348038  62.3954117  15.8352790 106.7154785  61.6917457
  15.0795223 107.7828882  62.4542069  12.0064087 106.7875466  62.3315641
  11.6682598 106.6716531  61.4436176  12.8753855 106.3866631  62.3116648
  12.4883870 107.9410318  68.2901847  12.4772510 107.5463116  67.4182351
  12.6504509 107.2076390  68.8835618   9.7072366 105.5563713  51.6632582
   9.9597887 105.0345235  50.9016045   8.7696925 105.3929859  51.7659265
  14.7515649 104.5599492  59.4707325  15.5378738 104.1418915  59.1197742
  15.0154353 105.4645584  59.6388973  20.1524076 104.4974725  60.3740303
  20.8849248 103.9273942  60.6078133  19.3963432 104.1096325  60.8146809
  11.7700196 106.9201966  57.5703646  11.4058403 106.3932587  58.2816567
  12.6267312 106.5300435  57.3970131  17.6749496  98.2096299  64.8334912
  17.3432821  99.0791710  64.6096127  17.0795110  97.8932583  65.5128942
  11.4105683 101.9491866  52.5664994  11.5780085 102.8172102  52.9335465
  11.2202852 102.1119148  51.6426283  17.5678160 102.9291385  61.9128262
  16.6595037 102.8606794  61.6187023  17.5165755 103.4063330  62.7410087
  11.3894904 104.4049524  53.5511661  11.2694529 104.8506574  54.3897141
  10.6947492 104.7534841  52.9925199  11.6419025 104.3481031  69.8563159
  10.8652360 104.9074951  69.8466024  12.2809589 104.8337814  70.3778029
  19.4339806 101.1307824  63.6906136  18.7914186 101.4240357  63.0445930
  18.9294735 101.0160744  64.4959333  17.0879970 104.8770997  54.3791995
  17.9997826 105.1098384  54.2039693  16.5789617 105.4608041  53.8167074
  11.7251807 104.2368231  65.3886845  12.5713003 104.6607645  65.5321494
  11.6650445 103.5801856  66.0825408  14.8751253 101.8972600  67.0468018
  14.6312185 102.6514660  66.5102294  15.1511183 102.2757947  67.8815265
  16.8289716 108.4411212  65.7245284  17.0406611 109.0842972  65.0479665
  16.7819464 107.6073529  65.2567214  14.4315945 101.0529033  62.6281856
  13.5700424 101.3510286  62.9198594  14.4578379 101.2699432  61.6962889
  10.1846400 105.7194376  55.8445227  10.8870443 106.1715419  56.3119153
   9.8527028 105.0778195  56.4725120   8.6326762 104.3106132  70.2196436
   8.0025422 104.9922413  70.4531833   8.5262849 104.1989214  69.2749574
   3.9271734 103.9777928  61.1462360   3.1370788 104.2335457  60.6702471
   4.4182981 104.7926266  61.2514401   5.8786479 104.3422508  58.1045837
   5.0817643 104.4541202  58.6229333   5.6512072 104.6809160  57.2386728
  26.0341537 107.6621916  60.2452613  25.2805245 107.0929314  60.0896617
  26.1689078 107.6284580  61.1923247   7.9107504  98.6126898  72.5821687
   7.5174450  98.0593097  73.2569331   8.7273645  98.9237477  72.9728205
  10.8275465 100.0284777  70.1741944  11.5685179 100.6291930  70.0946406
  11.0593388  99.2862415  69.6159986  14.7732628  96.0565880  64.4506225
  14.4296898  96.9467522  64.3745336  15.1411591  95.8667538  63.5875810
  14.7382911 106.0474491  52.9578661  14.2229534 106.8179096  53.1967048
  14.4660219 105.3739627  53.5811722  12.3230022 100.8924192  58.0163899
  11.4671618 100.5031042  57.8369538  12.7356974 100.9716153  57.1563684
  13.8529169  98.4270535  62.4155459  13.3493964  98.3900670  61.6023264
  14.1459775  99.3363278  62.4752115  10.0972054  98.5109265  61.4221640
  10.9625051  98.3152074  61.0627530  10.1649563  98.2819617  62.3490997
  19.7117185 108.8006846  54.8931834  18.9346628 108.4618005  54.4486996
  20.3908666 108.8059469  54.2186799  14.5269214 103.9201583  54.7838442
  14.2219350 104.2347733  55.6348585  15.4799656 103.9983003  54.8265775
  17.9508492 108.2740827  61.5498442  17.2932166 108.9640089  61.6378571
  18.7548891 108.6637259  61.8932428   7.7034374 100.7411473  58.7938007
   8.2778125 100.5186654  58.0611200   8.2905356 100.8100167  59.5466609
  16.7613951 106.6285200  59.6002384  17.2745832 107.2615192  60.1024094
  17.4115175 106.0286395  59.2345744   8.0303961 102.7715934  52.8133893
   7.1941273 103.1090621  53.1343167   7.8908730 102.6364914  51.8761030
  10.0057041  97.6152722  57.5213077   9.3521454  97.3001739  56.8969691
   9.9637515  96.9928462  58.2472900  13.2394782 104.1034655  61.8460724
  12.3217343 104.3249602  61.6882412  13.6554925 104.1780966  60.9872432
  14.0229829 105.5026071  56.9763405  14.7701648 106.0147468  56.6670527
  14.2921419 105.1810124  57.8367798  16.4708667 102.5383187  58.9582194
  15.7331423 102.0260574  59.2892436  16.7235440 102.0983569  58.1465471
  16.5720294  95.3159439  59.5523963  16.8779171  94.4556803  59.2649878
  17.2972899  95.9077060  59.3522957  10.8441374 105.6113232  60.0600154
  10.8989983 104.6587069  59.9842631  10.0332576 105.7672672  60.5441453
   8.7833733 104.2290292  57.8190533   7.9701599 104.5284463  58.2255725
   9.2792728 103.8345981  58.5365015  14.3807945 104.6932117  66.6505427
  14.7357333 104.9203590  67.5099893  15.0280076 105.0250493  66.0282682
  20.1105682 107.8150553  57.3554756  19.9723581 108.0052148  56.4275945
  19.7541901 108.5769935  57.8122807   8.2747808 101.8008648  63.4351768
   8.9147188 101.6597407  62.7374731   7.4425339 101.5143161  63.0590370
  20.1375062 109.8827080  62.3666028  20.5711568 109.7902369  63.2149082
  20.8506642 109.8584580  61.7286044   5.3590876 105.2454160  55.6246513
   4.4288464 105.1838615  55.8416475   5.4548348 104.7230113  54.8283154
   5.2776425 101.7708973  58.2124755   5.5383242 102.6854306  58.1033915
   6.0993597 101.3033415  58.3621368   6.7501350 103.1846730  65.3823579
   7.4224403 102.9764092  64.7336228   5.9231137 102.9868816  64.9428812
  20.9990611 109.9250780  64.8998913  21.1926501 110.8296591  65.1458188
  20.8991229 109.4658199  65.7337498  12.6526922  99.8108671  67.3989240
  12.0054837 100.5098620  67.3053717  13.4227937 100.2444815  67.7665488
  12.8291056 107.6489436  65.4586060  13.7583116 107.8000595  65.2855027
  12.4082086 107.7373456  64.6034706  16.1143795 108.3977737  50.8910495
  15.4972966 107.6724565  50.7943548  15.6460283 109.1587097  50.5477569
   9.7811148 106.1709292  65.6309696  10.4910766 105.5302484  65.5896315
   9.7380456 106.4222187  66.5535877   8.4940082 103.1574510  67.4505336
   7.9577439 102.7065248  68.1026932   7.9056790 103.2920419  66.7075800
   7.9042341 102.6163161  50.0131799   7.0271807 102.4951962  49.6494046
   8.3800094 101.8249240  49.7610688   4.2279203 102.2930518  64.5358330
   4.1437392 101.6856187  63.8008740   3.4061910 102.7839536  64.5367826
  14.4002917 100.7784081  59.9028525  14.8971617 100.0254044  59.5829595
  13.6289899 100.8148398  59.3371735  22.2532674 106.4824447  61.5446817
  22.2422551 107.3649162  61.1740750  21.3850054 106.1295998  61.3501354
  10.9837886 102.9201464  59.6300210  10.6135673 102.3672505  60.3181115
  11.4796978 102.3159598  59.0775210  18.8705249 105.3773088  58.0116983
  19.3365701 106.2101079  57.9377285  19.3212750 104.9118069  58.7162241
  16.8421912  97.7453675  62.0507884  15.9284992  97.9757902  62.2190091
  17.2715013  97.8292119  62.9021916  16.6128370 105.9343567  64.5507778
  15.9599821 106.1819474  63.8960231  16.9908750 105.1207705  64.2170255
  12.6615943 106.6763378  71.0373815  11.9856580 106.5757507  71.7076190
  13.4843577 106.5202592  71.5009812   6.3803219 100.3305455  65.8753316
   6.4444546 101.1920286  65.4630714   6.3170340  99.7179457  65.1425674
   5.8555492 102.4028588  69.5226350   6.4827531 102.0205665  70.1363874
   4.9983411 102.1842790  69.8882043   2.6321035 104.2105017  55.4544705
   2.9274476 103.3015695  55.4011759   1.7309070 104.1892756  55.1325707
   6.1615282 102.2861013  61.4372254   5.4401867 102.8996981  61.2979727
   6.9508537 102.8218778  61.3588900   8.9641595  99.6215440  67.7112905
   9.4875997  99.8677736  68.4739215   8.7453928 100.4535475  67.2916043
   4.3608876 101.8919114  55.5784030   4.0321582 101.0116493  55.3959136
   4.7148247 101.8366783  56.4660419   7.4750699 102.1792084  55.9459508
   7.8146772 102.7078005  55.2238116   7.9222820 102.5172490  56.7218074
  10.1694140 100.5629135  65.3962576   9.8290961  99.7636948  65.7983256
   9.4633147 100.8630846  64.8239409  10.8210612  97.6478447  63.8489899
  11.6436681  97.1738925  63.7268789  11.0648676  98.4268931  64.3488585
   9.4618847 100.6766706  54.1452801  10.1827209 101.0547959  53.6416517
   8.8384151 101.3955583  54.2487779  13.6049969 101.3811855  55.0811133
  13.8213584 102.2636493  54.7799961  13.1244037 100.9898068  54.3516775
   8.3449191 104.3397568  61.6581877   8.1993772 104.6537871  62.5506159
   7.8674394 104.9582468  61.1052776  10.2045574 101.3300116  61.7062767
  10.1907142 100.4341209  61.3695065  10.9218002 101.3370780  62.3401053
  12.0571704 101.7637456  63.7515894  11.7989482 102.6854527  63.7500225
  11.5256745 101.3667891  64.4416359   9.6082470 100.2114496  56.9750337
   9.7298381  99.2831142  57.1741225   9.3184512 100.2253182  56.0628653
  12.4773660  97.8969407  60.1117057  12.4995357  97.9608740  59.1569037
  12.8941719  97.0573915  60.3057563  22.8557284 107.6324666  58.1496280
  23.2988430 106.8831991  57.7515403  21.9783795 107.6234803  57.7670012
   9.0923549 101.7246494  71.1840270   9.1411705 102.6008616  70.8018039
   9.6346063 101.1823887  70.6111913  19.6976270 109.1180083  67.7774135
  19.7474275 108.9530091  68.7189658  19.5890193 108.2507342  67.3872016
  16.9880032 105.1011011  69.0933442  17.8889895 104.9617476  68.8017440
  17.0628007 105.2665466  70.0331620  11.3222838 102.4777866  67.9386628
  10.4526147 102.7711432  67.6669217  11.5582318 103.0618311  68.6593892
  22.3990149 109.1029904  60.5418727  23.2337040 109.5419709  60.7056288
  22.5349278 108.6268558  59.7226973  19.4481655 106.6609639  66.4896215
  19.9235777 106.8537286  65.6815066  18.5247220 106.7168825  66.2439599
  14.0261871  98.6957483  65.4552049  14.5443815  99.4318510  65.1298537
  13.6717004  99.0021476  66.2898808   5.6060809 103.5562164  53.5713455
   4.9130054 103.6306519  52.9153491   5.3612561 102.7922508  54.0934972
  14.2774466  95.1157765  60.9752945  14.5576219  94.4480954  61.6013372
  15.0625073  95.3086861  60.4627609  18.1483324 103.5375399  64.7224521
  19.1000747 103.6373497  64.7436745  17.9786774 102.7453668  65.2322605
  16.1697703 100.6230983  64.9083921  15.5747636 100.9035995  64.2130410
  15.8847400 101.1124884  65.6800663  20.6271402 106.7581519  63.8366820
  20.5947722 105.8197520  64.0226504  21.2372025 106.8365556  63.1032645
  12.4654733 105.6277572  49.8794024  13.4113837 105.4983780  49.9482442
  12.0868978 104.8892234  50.3563452  20.7765890 103.5492563  63.8825103
  20.2604939 102.7651019  63.6955032  21.6605839 103.2211279  64.0471623
  18.4376617  97.2933578  59.8420916  18.2401438  96.9848666  60.7264248
  19.0476323  98.0195217  59.9718846  26.4447952 107.8197526  62.9772857
  27.1751340 107.5582814  63.5380560  25.8354897 107.0826248  63.0174925
  24.5263249 105.9605389  63.5747308  23.7996412 105.8261353  62.9663800
  24.1110536 106.2682217  64.3804026  10.6497650 103.5527548  49.8148909
   9.7429105 103.2560661  49.8911623  10.9273631 103.2557367  48.9483196
  12.2659716  98.0964438  55.9693151  11.4560444  97.7511523  56.3448397
  12.9544132  97.7871982  56.5580762  14.1950264  97.1742485  57.5917447
  14.7481302  97.5937938  58.2507471  14.4320350  96.2478233  57.6340403
  10.2183363 103.1629559  73.3720211  10.1180090 104.1123916  73.3032302
  10.0004905 102.8347798  72.4996281   9.4196434 100.4114484  49.9560889
  10.2815598 100.7369382  50.2156706   9.6046779  99.6245980  49.4433954
  17.5729071  99.2843010  57.0996112  16.9927740  99.9427814  56.7174164
  17.3065004  98.4620355  56.6883529  16.0232637  98.6848068  59.3017432
  16.5232416  98.7964602  58.4931751  16.6668245  98.3809121  59.9418240
  16.3553949 101.4443101  56.1552460  15.4679804 101.7292751  55.9372655
  16.7707938 101.2836864  55.3079737  19.7068485 101.4689622  59.8706799
  20.4828875 101.9586074  60.1431416  18.9816619 101.8947676  60.3278669
  22.1441044 102.1817241  60.9280740  22.7385534 101.9412977  60.2174048
  22.2167627 101.4624371  61.5554276  16.3294973 106.9597636  56.3702750
  16.2730174 107.4166188  55.5310382  16.8823315 106.1988321  56.1925593
  20.1399779 102.7487368  57.1952870  19.8836713 102.3484004  58.0261077
  19.5152647 103.4631162  57.0703009  24.4512116 105.4883442  59.7024161
  23.8911674 105.5576631  60.4755723  23.8455620 105.3124426  58.9823657
  17.0629752 108.1502418  53.6655279  17.0078556 107.9846689  52.7243723
  16.4375807 108.8578451  53.8217469   1.8522267 103.3870482  67.4916701
   2.4981131 102.8769436  67.9803927   1.6439418 104.1239164  68.0660127
  10.3725877  97.6510527  53.2440598  10.3604547  98.5952367  53.4008869
  11.2649299  97.4680672  52.9500059  14.1877997  94.2453303  57.4986534
  13.4210393  93.6911790  57.6443217  14.5988702  94.3175172  58.3600686
   6.1919758 100.5338099  71.5891716   7.0551220 100.1774904  71.7995040
   5.6185169 100.1951994  72.2767120  25.6126383 111.3857798  64.4506225
  25.2690652 112.2759440  64.3745336  25.9805345 111.1959455  63.5875810
  27.4114048 110.6451357  59.5523963  27.7172925 109.7848720  59.2649878
  28.1366653 111.2368977  59.3522957  25.1168220 110.4449683  60.9752945
  25.3969974 109.7772872  61.6013372  25.9018827 110.6378779  60.4627609
  29.2770372 112.6225496  59.8420916  29.0795193 112.3140584  60.7264248
  29.8870077 113.3487135  59.9718846  25.0271751 109.5745221  57.4986534
  24.2604147 109.0203708  57.6443217  25.4382456 109.6467090  58.3600686
   4.3554029  54.0100203  46.9697919   3.6017737  53.4407601  46.8141924
   4.4901570  53.9762868  47.9168554   0.7202641  55.4508192  47.2664034
   1.5549533  55.8897996  47.4301594   0.8561770  54.9746845  46.4472280
   4.7660444  54.1675813  49.7018164   5.4963832  53.9061101  50.2625867
   4.1567389  53.4304535  49.7420232   2.8475741  52.3083676  50.2992615
   2.1208905  52.1739641  49.6909106   2.4323028  52.6160504  51.1049333
   0.4653536  48.5295528  47.6526046   1.0598027  48.2891264  46.9419355
   0.5380120  47.8102659  48.2799583   2.7724609  51.8361729  46.4269468
   2.2124167  51.9054918  47.2001030   2.1668112  51.6602713  45.7068964
   4.3580627  68.5118243  49.1199423   4.9959037  68.3924990  48.4162763
   4.2401470  69.4599087  49.1787375   1.1670333  68.4645671  49.0560948
   0.8288845  68.3486736  48.1681483   2.0360102  68.0636836  49.0361954
   1.6490116  69.6180523  55.0147154   1.6378757  69.2233321  54.1427657
   1.8110756  68.8846595  55.6080925   2.6056708  73.9852115  40.3572304
   1.9544688  74.5706195  39.9706318   3.4001071  74.5158310  40.4167341
   3.9121896  66.2369697  46.1952631   4.6984985  65.8189120  45.8443048
   4.1760600  67.1415789  46.3634280   4.0831973  71.6742547  40.8941288
   3.4477806  71.7477173  41.6062193   3.7529379  72.2636146  40.2160367
   9.3130323  66.1744930  47.0985610  10.0455495  65.6044147  47.3323439
   8.5569678  65.7866530  47.5392115   0.9306442  68.5972171  44.2948952
   0.5664650  68.0702792  45.0061874   1.7873558  68.2070640  44.1215438
   6.8355743  59.8866504  51.5580218   6.5039068  60.7561915  51.3341433
   6.2401357  59.5702788  52.2374249   3.3287263  72.0879050  50.9576131
   3.0287986  72.9904089  50.8491938   2.9838322  71.8211233  51.8097284
   6.7284406  64.6061590  48.6373569   5.8201284  64.5376999  48.3432330
   6.6772002  65.0833535  49.4655394   8.5946053  62.8078028  50.4151442
   7.9520433  63.1010562  49.7691237   8.0900981  62.6930949  51.2204639
   6.2486217  66.5541202  41.1037302   7.1604073  66.7868588  40.9284999
   5.7395864  67.1378246  40.5412380   4.5326984  70.9765830  54.7398594
   4.9410340  70.5348240  53.9953227   3.8104246  70.4018457  54.9932787
   0.8858054  65.9138436  52.1132151   1.7319249  66.3377850  52.2566800
   0.8256692  65.2572061  52.8070714   4.8555799  71.5367020  48.4950883
   4.2264661  71.7012734  47.7926951   4.4681461  71.9508630  49.2661847
   8.7345031  72.4721458  45.8495247   8.0496069  72.8520359  45.2992280
   8.8188880  73.0816785  46.5827195   4.0357500  63.5742805  53.7713325
   3.7918431  64.3284865  53.2347601   4.3117430  63.9528152  54.6060572
   5.9895962  70.1181417  52.4490590   6.2012858  70.7613177  51.7724972
   5.9425711  69.2843734  51.9812521   3.5922191  62.7299238  49.3527163
   2.7306670  63.0280491  49.6443900   3.6184626  62.9469637  48.4208195
   7.1041790  72.9953372  50.6212948   7.9259234  72.5933560  50.3395629
   7.1004193  72.8921607  51.5729064  15.1947783  69.3392121  46.9697919
  14.4411492  68.7699519  46.8141924  15.3295325  69.3054785  47.9168554
   0.5846411  74.2105523  42.6452639   0.4492086  75.0557059  43.0737486
   1.1256224  74.4124801  41.8818572   2.2114888  74.8329090  56.7752981
   1.7678742  74.0465468  56.4573885   2.8732101  75.0208240  56.1096872
   4.3096126  75.1131890  54.8034382   4.2914601  75.9340771  54.3114651
   5.2316046  74.9885965  55.0284523   3.9338875  57.7336085  51.1751532
   3.5903144  58.6237727  51.0990643   4.3017838  57.5437743  50.3121117
   3.8989158  67.7244696  39.6823967   3.3835781  68.4949301  39.9212355
   3.6266466  67.0509832  40.3057029   1.4836269  62.5694397  44.7409206
   0.6277865  62.1801247  44.5614844   1.8963220  62.6486358  43.8808991
   3.0135415  60.1040740  49.1400765   2.5100211  60.0670875  48.3268571
   3.3066022  61.0133483  49.1997422   8.8723432  70.4777051  41.6177141
   8.0952875  70.1388210  41.1732303   9.5514913  70.4829674  40.9432106
   3.6875461  65.5971788  41.5083748   3.3825596  65.9117937  42.3593892
   4.6405903  65.6753208  41.5511081   2.1321893  71.7562012  43.1576702
   1.6043254  71.0214771  42.8449940   1.6309395  72.5336688  42.9116671
   7.1114739  69.9511032  48.2743749   6.4538413  70.6410293  48.3623877
   7.9155138  70.3407464  48.6177735   5.9220197  68.3055405  46.3247690
   6.4352079  68.9385397  46.8269400   6.5721421  67.7056600  45.9591050
   3.1842572  78.2839729  39.0808362   2.5104270  78.5871426  39.6893319
   3.5708394  79.0868809  38.7313819   2.4001028  65.7804860  48.5706031
   1.4823590  66.0019807  48.4127719   2.8161172  65.8551171  47.7117738
   3.1836076  67.1796276  43.7008711   3.9307895  67.6917673  43.3915833
   3.4527666  66.8580329  44.5613105   1.4562726  69.6754817  40.6835666
   0.5473946  69.3913850  40.7808135   1.4857810  70.0953895  39.8238972
   6.6881994  73.2861406  44.4526833   6.2344321  72.4452316  44.5092024
   6.0575960  73.9222805  44.7901613   5.6314913  64.2153392  45.6827501
   4.8937670  63.7030778  46.0137743   5.8841687  63.7753774  44.8710777
   5.1314933  75.1237903  45.3876651   5.4237907  75.6842960  44.6689017
   5.6413554  75.4166464  46.1429810   5.7326541  56.9929644  46.2769270
   6.0385417  56.1327008  45.9895185   6.4579145  57.5847264  46.0768264
   1.1538814  71.2163560  38.0223744   0.7158244  70.4999419  37.5629381
   1.8949255  71.4439675  37.4608835   3.5414192  66.3702322  53.3750734
   3.8963580  66.5973795  54.2345199   4.1886323  66.7020698  52.7527989
   9.2711929  69.4920757  44.0800063   9.1329827  69.6822353  43.1521252
   8.9148148  70.2540140  44.5368114   9.2981308  71.5597284  49.0911334
   9.7317815  71.4672574  49.9394388  10.0112889  71.5354785  48.4531350
   3.0309203  75.1599379  50.6244435   3.0846226  75.7290315  51.3922151
   2.1623985  75.3301264  50.2598472  10.1596858  71.6020985  51.6244220
  10.3532748  72.5066796  51.8703494  10.0597476  71.1428404  52.4582805
   1.8133169  61.4878876  54.1234547   1.1661084  62.1868825  54.0299023
   2.5834184  61.9215020  54.4910795   5.2211967  71.7527728  57.1985100
   5.0697473  71.5238280  56.2815184   5.2116646  72.7098329  57.2116445
   1.9897303  69.3259641  52.1831367   2.9189363  69.4770800  52.0100334
   1.5688333  69.4143661  51.3280013   1.3833787  78.4519401  41.2955441
   1.5585543  77.9807445  42.1101063   0.6966575  79.0785168  41.5236701
   2.3390850  72.7291908  47.3418742   2.0040683  72.6892678  48.2376392
   1.8394796  72.0636624  46.8689152   5.2750042  70.0747942  37.6155802
   4.6579212  69.3494770  37.5188854   4.8066530  70.8357302  37.2722876
   6.9304173  74.7846850  55.2761582   6.8716720  74.1006071  54.6092165
   7.3323692  75.5265840  54.8242208   6.9321581  72.7486434  53.5075562
   6.0448359  72.4112356  53.6301961   7.5020132  72.0169466  53.7444327
   3.5609164  62.4554286  46.6273832   4.0577863  61.7024249  46.3074902
   2.7896145  62.4918603  46.0617041  11.4138921  68.1594652  48.2692123
  11.4028797  69.0419367  47.8986056  10.5456301  67.8066203  48.0746660
   2.9221418  77.3074721  52.6294964   3.6349390  77.9422186  52.5570865
   2.4311446  77.4038587  51.8134965   4.6438944  71.2125973  44.2012255
   3.7095223  71.3327436  44.0316960   4.8215613  70.3098440  43.9372265
   8.0311496  67.0543293  44.7362289   8.4971948  67.8871284  44.6622592
   8.4818996  66.5888274  45.4407548   6.0987727  73.3987114  41.7348441
   6.3747571  73.2843709  42.6442315   5.2292226  73.0004599  41.6960615
   6.0028159  59.4223880  48.7753191   5.0891238  59.6528107  48.9435398
   6.4321260  59.5062324  49.6267223   5.7734617  67.6113772  51.2753085
   5.1206067  67.8589679  50.6205538   6.1514997  66.7977910  50.9415562
   2.7341791  77.6473465  45.3781255   2.9164185  76.8295121  45.8409007
   3.5574777  77.8641157  44.9406145   3.0683956  76.5741650  42.6396304
   3.5971723  76.0634105  42.0266466   3.3312176  76.2584180  43.5041837
   1.8222190  68.3533583  57.7619122   1.1462827  68.2527712  58.4321497
   2.6449824  68.1972796  58.2255119   0.5644973  79.6600510  51.9976738
   1.1163281  79.8232132  52.7625823   0.9051166  80.2504948  51.3256763
   5.4155847  74.4861768  57.8525392   5.9595751  75.0991726  57.3580347
   4.8342692  75.0441346  58.3692405   3.7013360  77.6082486  48.9840420
   3.5764500  76.8072226  48.4751365   4.3592451  78.1028679  48.4954390
   5.7648269  75.4091506  50.6119970   4.8178604  75.2896857  50.5398297
   6.1131042  74.5214004  50.6946232   2.7694702  75.2044222  46.8124322
   2.6219664  74.2760929  46.9931892   3.5948195  75.2264313  46.3281398
   6.3728824  76.0272781  47.8989195   7.2975371  75.8215642  47.7613646
   6.2044127  75.7789182  48.8078537   2.7656216  63.0582060  41.8056440
   2.9819831  63.9406697  41.5045268   2.2850283  62.6668273  41.0762082
   1.2177951  63.4407661  50.4761201   0.9595729  64.3624732  50.4745532
   0.6862992  63.0438096  51.1661665   6.1624140  76.5458448  43.2551287
   6.3361018  75.9804871  42.5025139   6.6553031  77.3459343  43.0730776
   1.6379907  59.5739612  46.8362364   1.6601604  59.6378945  45.8814343
   2.0547966  58.7344120  47.0302870  12.0163531  69.3094871  44.8741586
  12.4594677  68.5602196  44.4760710  11.1390041  69.3005007  44.4915318
   7.1499312  75.8625213  40.3548185   7.8450217  76.4831905  40.5735499
   7.4922463  75.0120564  40.6300563   9.0490736  73.3124918  41.8835516
   9.5742060  73.6512191  41.1584836   8.9613088  72.3771933  41.6998650
   0.7110784  77.2258992  54.0125392   1.0197911  76.9808138  54.8848092
   1.5086266  77.4305630  53.5244262   8.7384642  73.9457822  57.1886714
   7.9480185  73.9281961  56.6491213   8.5017996  74.4846115  57.9435750
   8.8582517  70.7950288  54.5019442   8.9080522  70.6300296  55.4434965
   8.7496440  69.9277547  54.1117323   6.1486279  66.7781216  55.8178749
   7.0496142  66.6387681  55.5262747   6.2234254  66.9435671  56.7576926
  10.3600714  73.2147230  54.7461464  10.0685522  73.5777210  55.5824925
   9.7472845  72.5014238  54.5674796  11.5596396  70.7800109  47.2664034
  12.3943287  71.2189913  47.4301594  11.6955525  70.3038763  46.4472280
   8.6087902  68.3379844  53.2141522   9.0842023  68.5307491  52.4060373
   7.6853467  68.3939030  52.9684905   3.1868118  60.3727688  52.1797355
   3.7050062  61.1088715  51.8543844   2.8323251  60.6791681  53.0144115
   3.4380712  56.7927970  47.6998252   3.7182466  56.1251159  48.3258679
   4.2231319  56.9857066  47.1872916   1.2414181  75.9686964  39.2623278
   0.6688148  76.5877151  38.8093750   1.8146975  76.5186326  39.7963200
   7.3089571  65.2145604  51.4469827   8.2606994  65.3143702  51.4682051
   7.1393021  64.4223873  51.9567912   5.3303950  62.3001188  51.6329228
   4.7353882  62.5806200  50.9375717   5.0453647  62.7895088  52.4045969
   4.4611441  76.2524114  40.3931861   5.3942114  76.1869676  40.5964736
   4.3734654  77.0880381  39.9346393   7.0899457  75.5689985  37.3535808
   7.0113089  75.2349848  38.2471566   7.9109124  76.0611753  37.3527281
   9.7877649  68.4351724  50.5612127   9.7553969  67.4967725  50.7471811
  10.3978272  68.5135761  49.8277952   1.6260979  67.3047777  36.6039331
   2.5720084  67.1753985  36.6727749   1.2475224  66.5662439  37.0808759
   9.9372137  65.2262767  50.6070410   9.4211186  64.4421224  50.4200339
  10.8212086  64.8981484  50.7716929   7.5982864  58.9703783  46.5666223
   7.4007685  58.6618871  47.4509555   8.2082570  59.6965422  46.6964153
  15.6054198  69.4967731  49.7018164  16.3357587  69.2353019  50.2625867
  14.9961144  68.7596453  49.7420232  13.6869496  67.6375593  50.2992615
  12.9602659  67.5031558  49.6909106  13.2716782  67.9452422  51.1049333
   1.5099672  71.3565523  58.0639988   2.4302681  71.5344122  58.2580034
   1.4749255  70.4121568  57.9119687   1.4265962  59.7734643  42.6938457
   0.6166691  59.4281728  43.0693703   2.1150379  59.4642187  43.2826069
   3.3556511  58.8512690  44.3162754   3.9087549  59.2708143  44.9752777
   3.5926597  57.9248438  44.3585710   6.7335318  60.9613215  43.8241418
   6.1533987  61.6198019  43.4419471   6.4671250  60.1390560  43.4128836
   5.1838884  60.3618273  46.0262739   5.6838662  60.4734807  45.2177057
   5.8274492  60.0579326  46.6663547   5.5160196  63.1213305  42.8797767
   4.6286051  63.4062956  42.6617961   5.9314185  62.9607069  42.0325043
   8.8674732  63.1459826  46.5952106   9.6435122  63.6356279  46.8676723
   8.1422866  63.5717881  47.0523975  11.3047290  63.8587446  47.6526046
  11.8991781  63.6183182  46.9419355  11.3773874  63.1394576  48.2799583
   4.6603409  72.8857980  36.9745787   5.3639259  73.0907983  37.5903442
   3.9366058  73.4534742  37.2394870   5.4901219  68.6367841  43.0948057
   5.4336421  69.0936393  42.2555689   6.0429562  67.8758526  42.9170899
   9.3006025  64.4257573  43.9198176   9.0442960  64.0254209  44.7506384
   8.6758893  65.1401367  43.7948315  13.6118363  67.1653646  46.4269468
  13.0517921  67.2346836  47.2001030  13.0061867  66.9894631  45.7068964
   6.5690107  73.3240509  39.0244247   7.4035710  72.8921708  38.8421721
   6.4074449  73.1522523  39.9521141   6.2235999  69.8272623  40.3900586
   6.1684803  69.6616894  39.4489030   5.5982054  70.5348656  40.5462776
   3.5381906  72.1321534  59.7154149   4.4073066  72.3062187  59.3540784
   3.0588657  72.9515951  59.5929878   3.3484244  55.9223508  44.2231841
   2.5816639  55.3681995  44.3688523   3.7594949  55.9945377  45.0845993
  15.1974382  83.8410160  49.1199423  15.8352792  83.7216908  48.4162763
  15.0795225  84.7891004  49.1787375  12.0064088  83.7937589  49.0560948
  11.6682599  83.6778653  48.1681483  12.8753856  83.3928754  49.0361954
   7.8650904  85.6473065  45.0457839   7.3015769  85.5563002  44.2774127
   7.7503299  84.8272969  45.5260332  12.4883871  84.9472440  55.0147154
  12.4772512  84.5525239  54.1427657  12.6504510  84.2138513  55.6080925
   5.4115336  87.1424257  47.8842059   6.2036627  86.8015081  47.4688359
   5.6511986  87.2519232  48.8044213  13.4450462  89.3144033  40.3572304
  12.7938442  89.8998113  39.9706318  14.2394825  89.8450228  40.4167341
   7.3706089  86.4033170  40.7559438   8.1436965  85.8562157  40.6172314
   7.7231488  87.2677419  40.9673900   9.2091132  87.7309552  53.9626338
   8.9180998  88.6355183  53.8473004   9.8448116  87.7726080  54.6770407
  10.1347339  85.1086401  50.5527697  10.7310911  84.8842423  49.8384660
  10.1922310  84.3671146  51.1553145   9.7072367  82.5625836  38.3877888
   9.9597888  82.0407357  37.6261351   8.7696926  82.3991981  38.4904572
  14.7515650  81.5661614  46.1952631  15.5378739  81.1481037  45.8443048
  15.0154354  82.4707706  46.3634280  14.9225727  87.0034465  40.8941288
  14.2871560  87.0769091  41.6062193  14.5923134  87.5928063  40.2160367
  20.1524077  81.5036847  47.0985610  20.8849249  80.9336064  47.3323439
  19.3963433  81.1158448  47.5392115   9.4268656  84.4653942  40.5902263
   9.3104914  83.7898845  41.2583347   9.5370916  83.9786316  39.7734416
  11.7700197  83.9264089  44.2948952  11.4058404  83.3994710  45.0061874
  12.6267313  83.5362558  44.1215438  17.6749498  75.2158422  51.5580218
  17.3432822  76.0853833  51.3341433  17.0795111  74.8994706  52.2374249
  11.4105684  78.9553989  39.2910301  11.5780086  79.8234225  39.6580772
  11.2202853  79.1181270  38.3671590  14.1681017  87.4170968  50.9576131
  13.8681740  88.3196006  50.8491938  13.8232077  87.1503151  51.8097284
   7.6193499  83.8684764  46.9912836   6.6943995  83.7360979  47.1990527
   7.8677912  84.6478984  47.4882778  17.5678161  79.9353508  48.6373569
  16.6595038  79.8668916  48.3432330  17.5165757  80.4125453  49.4655394
  11.3894905  81.4111646  40.2756968  11.2694530  81.8568697  41.1142448
  10.6947493  81.7596964  39.7170506   4.9802310  83.5118038  47.8256625
   5.1094691  83.7652517  48.7396036   4.2999761  84.1045746  47.5061280
   9.1501797  94.1815288  43.9247099   9.0725827  95.1323113  44.0035579
   8.5463441  93.8361160  44.5822025  11.6419027  81.3543153  56.5808466
  10.8652361  81.9137073  56.5711330  12.2809590  81.8399936  57.1023336
  19.4339807  78.1369946  50.4151442  18.7914188  78.4302479  49.7691237
  18.9294736  78.0222866  51.2204639  17.0879971  81.8833119  41.1037302
  17.9997827  82.1160506  40.9284999  16.5789618  82.4670164  40.5412380
   9.8965399  84.1628607  56.1426433  10.6380083  84.7013651  55.8661256
   9.1902384  84.7894895  56.2997985  15.3720739  86.3057747  54.7398594
  15.7804095  85.8640158  53.9953227  14.6498000  85.7310375  54.9932787
  11.7251809  81.2430354  52.1132151  12.5713004  81.6669767  52.2566800
  11.6650446  80.5863978  52.8070714  15.6949553  86.8658938  48.4950883
  15.0658416  87.0304652  47.7926951  15.3075215  87.2800547  49.2661847
  19.5738785  87.8013376  45.8495247  18.8889823  88.1812277  45.2992280
  19.6582635  88.4108702  46.5827195  14.8751254  78.9034722  53.7713325
  14.6312186  79.6576783  53.2347601  15.1511185  79.2820070  54.6060572
  16.8289717  85.4473335  52.4490590  17.0406612  86.0905095  51.7724972
  16.7819465  84.6135651  51.9812521  14.4315946  78.0591155  49.3527163
  13.5700425  78.3572409  49.6443900  14.4578380  78.2761554  48.4208195
  11.2477515  86.6033346  45.7600968  11.7115861  86.8821049  44.9705591
  10.9834313  85.7016790  45.5774059   8.1401596  86.1504827  48.6980732
   8.7102953  86.5792096  48.0598216   8.7309708  85.8687412  49.3964917
  10.1846401  82.7256498  42.5690533  10.8870445  83.1777542  43.0364460
   9.8527030  82.0840317  43.1970427   8.6326763  81.3168255  56.9441743
   8.0025423  81.9984536  57.1777140   8.5262851  81.2051336  55.9994881
   3.9271735  80.9840051  47.8707667   3.1370789  81.2397579  47.3947778
   4.4182983  81.7988389  47.9759708  17.9435545  88.3245290  50.6212948
  18.7652988  87.9225477  50.3395629  17.9397948  88.2213524  51.5729064
   5.8786481  81.3484630  44.8291144   5.0817644  81.4603324  45.3474639
   5.6512073  81.6871282  43.9632034  11.7092148  87.8729333  52.7773658
  11.7736581  88.3349741  53.6131830  11.0003072  87.2426698  52.9055968
   2.2109438  81.2370541  50.3022658   2.4617477  82.1217551  50.5680234
   2.7468987  81.0575143  49.5297750  26.0341538  84.6684039  46.9697919
  25.2805246  84.0991437  46.8141924  26.1689079  84.6346703  47.9168554
  11.4240166  89.5397441  42.6452639  11.2885841  90.3848977  43.0737486
  11.9649978  89.7416719  41.8818572   7.9107505  75.6189021  59.3066994
   7.5174451  75.0655219  59.9814638   8.7273646  75.9299599  59.6973511
   4.8769563  87.0572879  43.2180564   5.3894084  87.8516129  43.3686128
   5.5292276  86.3599169  43.1514165   6.6864448  90.1738635  45.3003317
   6.8631076  91.0956600  45.1124301   7.4821281  89.8597054  45.7297697
  10.8275466  77.0346900  56.8987250  11.5685180  77.6354053  56.8191713
  11.0593389  76.2924538  56.3405293   5.9716804  82.2203267  55.1765480
   5.8570320  81.3188524  55.4772579   5.1161322  82.4666964  54.8250297
  13.0508642  90.1621007  56.7752981  12.6072496  89.3757386  56.4573885
  13.7125856  90.3500158  56.1096872   7.8095763  91.6916809  51.3013659
   8.3603189  91.5633872  50.5290653   6.9707239  91.9911698  50.9508552
  15.1489880  90.4423807  54.8034382  15.1308356  91.2632688  54.3114651
  16.0709800  90.3177883  55.0284523  11.6062934  87.9567937  55.6457890
  12.1391271  87.1956225  55.4157198  11.0777016  87.6641589  56.3882045
  14.7732629  73.0628003  51.1751532  14.4296899  73.9529644  51.0990643
  15.1411592  72.8729660  50.3121117   2.8418480  85.3861533  43.9940134
   3.6793702  85.7958542  43.7773842   3.0196748  84.4460975  43.9640328
  14.7382912  83.0536614  39.6823967  14.2229536  83.8241219  39.9212355
  14.4660221  82.3801750  40.3057029  12.3230023  77.8986315  44.7409206
  11.4671620  77.5093165  44.5614844  12.7356975  77.9778275  43.8808991
  13.8529170  75.4332658  49.1400765  13.3493965  75.3962793  48.3268571
  14.1459777  76.3425401  49.1997422  10.0972056  75.5171388  48.1466947
  10.9625052  75.3214196  47.7872837  10.1649565  75.2881739  49.0736304
  19.7117186  85.8068969  41.6177141  18.9346629  85.4680128  41.1732303
  20.3908667  85.8121592  40.9432106  14.5269215  80.9263706  41.5083748
  14.2219351  81.2409855  42.3593892  15.4799657  81.0045126  41.5511081
  12.9715647  87.0853929  43.1576702  12.4437009  86.3506689  42.8449940
  12.4703150  87.8628606  42.9116671  17.9508493  85.2802950  48.2743749
  17.2932168  85.9702211  48.3623877  18.7548892  85.6699382  48.6177735
   7.7034375  77.7473596  45.5183314   8.2778127  77.5248777  44.7856507
   8.2905357  77.8162290  46.2711915  16.7613952  83.6347322  46.3247690
  17.2745834  84.2677314  46.8269400  17.4115176  83.0348518  45.9591050
   8.0303962  79.7778057  39.5379199   7.1941274  80.1152743  39.8588474
   7.8908732  79.6427036  38.6006336  10.0057042  74.6214844  44.2458383
   9.3521455  74.3063862  43.6214998   9.9637517  73.9990585  44.9718206
  11.1168247  84.9034140  36.1611675  10.2095309  84.6723393  36.3602824
  11.6139279  84.1071759  36.3485657  14.0236326  93.6131647  39.0808362
  13.3498025  93.9163343  39.6893319  14.4102148  94.4160727  38.7313819
  13.2394783  81.1096778  48.5706031  12.3217344  81.3311725  48.4127719
  13.6554926  81.1843088  47.7117738  14.0229831  82.5088194  43.7008711
  14.7701650  83.0209591  43.3915833  14.2921420  82.1872246  44.5613105
  12.2956481  85.0046734  40.6835666  11.3867700  84.7205767  40.7808135
  12.3251565  85.4245813  39.8238972  17.5275748  88.6153324  44.4526833
  17.0738075  87.7744234  44.5092024  16.8969715  89.2514722  44.7901613
  16.4708668  79.5445310  45.6827501  15.7331425  79.0322696  46.0137743
  16.7235441  79.1045692  44.8710777  15.9708687  90.4529821  45.3876651
  16.2631662  91.0134878  44.6689017  16.4807308  90.7458382  46.1429810
  16.5720295  72.3221562  46.2769270  16.8779172  71.4618925  45.9895185
  17.2972900  72.9139182  46.0768264   2.8644651  82.7252249  44.6650868
   2.6669051  82.1321609  43.9401934   2.3091315  82.4204459  45.3826807
  10.8441375  82.6175355  46.7845461  10.8989985  81.6649191  46.7087937
  10.0332577  82.7734794  47.2686759  11.9932569  86.5455478  38.0223744
  11.5551999  85.8291337  37.5629381  12.7343009  86.7731593  37.4608835
   8.7833735  81.2352415  44.5435840   7.9701600  81.5346585  44.9501032
   9.2792729  80.8408104  45.2610322  10.9342313  91.2310172  46.4770104
  10.8918491  91.4571018  45.5478636  11.8505011  90.9973546  46.6255906
  14.3807946  81.6994239  53.3750734  14.7357334  81.9265712  54.2345199
  15.0280078  82.0312616  52.7527989  20.1105683  84.8212675  44.0800063
  19.9723582  85.0114271  43.1521252  19.7541902  85.5832058  44.5368114
   8.2747810  78.8070770  50.1597075   8.9147189  78.6659529  49.4620038
   7.4425340  78.5205284  49.7835677  20.1375063  86.8889202  49.0911334
  20.5711570  86.7964491  49.9394388  20.8506644  86.8646703  48.4531350
   9.0508113  88.1073201  46.2732067   9.8448712  87.6123521  46.0714642
   8.3399806  87.5791064  45.9099773  13.8702958  90.4891296  50.6244435
  13.9239980  91.0582233  51.3922151  13.0017739  90.6593181  50.2598472
   5.3590877  82.2516282  42.3491820   4.4288465  82.1900738  42.5661782
   5.4548349  81.7292235  41.5528461   5.2776426  78.7771095  44.9370061
   5.5383243  79.6916429  44.8279222   6.0993598  78.3095538  45.0866674
   6.7501351  80.1908852  52.1068886   7.4224405  79.9826215  51.4581535
   5.9231138  79.9930938  51.6674118  20.9990613  86.9312903  51.6244220
  21.1926503  87.8358713  51.8703494  20.8991231  86.4720322  52.4582805
  12.6526923  76.8170793  54.1234547  12.0054838  77.5160743  54.0299023
  13.4227939  77.2506937  54.4910795  16.0605721  87.0819646  57.1985100
  15.9091228  86.8530197  56.2815184  16.0510401  88.0390247  57.2116445
  12.8291058  84.6551558  52.1831367  13.7583118  84.8062718  52.0100334
  12.4082088  84.7435579  51.3280013  11.6279389  88.6802223  49.9529904
  11.4890475  88.3121007  50.8255842  10.8393986  89.1949862  49.7813862
  12.2227541  93.7811319  41.2955441  12.3979297  93.3099362  42.1101063
  11.5360329  94.4077085  41.5236701  13.1784605  88.0583825  47.3418742
  12.8434437  88.0184595  48.2376392  12.6788550  87.3928541  46.8689152
   7.1528849  83.4651455  52.8671323   7.0148646  82.7331694  53.4682862
   8.0633772  83.3760356  52.5855511  16.1143796  85.4039860  37.6155802
  15.4972967  84.6786688  37.5188854  15.6460285  86.1649220  37.2722876
   9.7811149  83.1771415  52.3555003  10.4910768  82.5364607  52.3141621
   9.7380457  83.4284310  53.2781184  17.7697928  90.1138768  55.2761582
  17.7110474  89.4297988  54.6092165  18.1717446  90.8557758  54.8242208
   8.4940083  80.1636633  54.1750642   7.9577440  79.7127371  54.8272239
   7.9056792  80.2982541  53.4321107   6.7888627  96.9300682  48.0695301
   7.0285225  97.5619206  48.7474319   5.9457823  96.5788722  48.3560660
   7.9042342  79.6225284  36.7377106   7.0271808  79.5014085  36.3739353
   8.3800095  78.8311362  36.4855995  17.7715335  88.0778352  53.5075562
  16.8842114  87.7404274  53.6301961  18.3413886  87.3461383  53.7444327
   4.2279204  79.2992640  51.2603637   4.1437393  78.6918310  50.5254047
   3.4061911  79.7901659  51.2613133  11.3016489  92.7379804  50.4736805
  11.2286660  93.5434776  50.9856109  10.8593882  92.9371770  49.6484826
  11.0906268  91.9751574  43.9839626  10.3073790  92.5173255  44.0777851
  11.7899013  92.4925554  44.3833868  14.4002918  77.7846204  46.6273832
  14.8971618  77.0316166  46.3074902  13.6289900  77.8210521  46.0617041
  22.2532676  83.4886569  48.2692123  22.2422552  84.3711285  47.8986056
  21.3850055  83.1358120  48.0746660  13.7615172  92.6366638  52.6294964
  14.4743144  93.2714103  52.5570865  13.2705201  92.7330504  51.8134965
  15.4832699  86.5417891  44.2012255  14.5488978  86.6619354  44.0316960
  15.6609367  85.6390358  43.9372265  10.9837887  79.9263587  46.3545516
  10.6135675  79.3734627  47.0426422  11.4796979  79.3221720  45.8020516
  18.8705250  82.3835210  44.7362289  19.3365703  83.2163202  44.6622592
  19.3212751  81.9180192  45.4407548   8.8127086  90.3861082  53.4500534
   9.5136545  91.0197565  53.6029929   8.3422201  90.7275813  52.6896174
  16.9381481  88.7279032  41.7348441  17.2141325  88.6135626  42.6442315
  16.0685980  88.3296516  41.6960615  16.8421913  74.7515797  48.7753191
  15.9284993  74.9820024  48.9435398  17.2715015  74.8354241  49.6267223
  16.6128372  82.9405689  51.2753085  15.9599822  83.1881597  50.6205538
  16.9908751  82.1269827  50.9415562  13.5735545  92.9765382  45.3781255
  13.7557940  92.1587038  45.8409007  14.3968531  93.1933075  44.9406145
  13.9077711  91.9033568  42.6396304  14.4365477  91.3926022  42.0266466
  14.1705931  91.5876098  43.5041837  12.6615945  83.6825500  57.7619122
  11.9856582  83.5819630  58.4321497  13.4843578  83.5264714  58.2255119
   4.4094804  89.9197437  50.3831637   4.9948240  89.1741125  50.5159541
   4.2119642  90.2301394  51.2668301   7.2633459  92.9548684  45.3994079
   6.5943834  93.4394812  44.9158120   7.1246329  93.2017905  46.3137458
  11.4038727  94.9892428  51.9976738  11.9557035  95.1524049  52.7625823
  11.7444921  95.5796866  51.3256763   6.3803221  77.3367578  52.5998623
   6.4444547  78.1982409  52.1876020   6.3170341  76.7241579  51.8670981
   5.8555493  79.4090710  56.2471657   6.4827532  79.0267787  56.8609181
   4.9983412  79.1904912  56.6127349  16.2549602  89.8153685  57.8525392
  16.7989506  90.4283644  57.3580347  15.6736447  90.3733264  58.3692405
   2.6321036  81.2167139  42.1790012   2.9274477  80.3077818  42.1257065
   1.7309072  81.1954879  41.8571014  14.5407115  92.9374403  48.9840420
  14.4158254  92.1364143  48.4751365  15.1986206  93.4320597  48.4954390
   6.1615283  79.2923136  48.1617560   5.4401869  79.9059104  48.0225034
   6.9508539  79.8280901  48.0834206  16.6042023  90.7383423  50.6119970
  15.6572359  90.6188775  50.5398297  16.9524796  89.8505921  50.6946232
   8.9641596  76.6277562  54.4358212   9.4875998  76.8739859  55.1984521
   8.7453930  77.4597597  54.0161349   4.3608878  78.8981237  42.3029337
   4.0321584  78.0178616  42.1204443   4.7148248  78.8428906  43.1905726
  13.6088456  90.5336140  46.8124322  13.4613419  89.6052847  46.9931892
  14.4341950  90.5556230  46.3281398   7.4750701  79.1854207  42.6704814
   7.8146773  79.7140128  41.9483423   7.9222821  79.5234613  43.4463381
  17.2122578  91.3564698  47.8989195  18.1369126  91.1507560  47.7613646
  17.0437882  91.1081100  48.8078537  10.1694142  77.5691257  52.1207883
   9.8290962  76.7699071  52.5228562   9.4633148  77.8692968  51.5484716
  10.8210613  74.6540570  50.5735206  11.6436683  74.1801048  50.4514096
  11.0648677  75.4331054  51.0733892   9.4618848  77.6828828  40.8698107
  10.1827210  78.0610081  40.3661824   8.8384152  78.4017705  40.9733085
  13.6049971  78.3873977  41.8056440  13.8213585  79.2698615  41.5045268
  13.1244038  77.9960191  41.0762082   8.3449192  81.3459691  48.3827184
   8.1993773  81.6599994  49.2751466   7.8674396  81.9644591  47.8298083
  10.2045575  78.3362239  48.4308074  10.1907144  77.4403332  48.0940372
  10.9218003  78.3432902  49.0646360  12.0571706  78.7699579  50.4761201
  11.7989484  79.6916649  50.4745532  11.5256746  78.3730013  51.1661665
  17.0017894  91.8750366  43.2551287  17.1754772  91.3096788  42.5025139
  17.4946786  92.6751261  43.0730776   2.8194854  83.8865035  51.3214845
   2.2748322  84.6624843  51.4535120   3.6974204  84.2335839  51.1633967
   9.6082471  77.2176619  43.6995644   9.7298382  76.2893265  43.8986531
   9.3184513  77.2315305  42.7873959  12.4773661  74.9031529  46.8362364
  12.4995358  74.9670862  45.8814343  12.8941720  74.0636038  47.0302870
  22.8557286  84.6386789  44.8741586  23.2988432  83.8894114  44.4760710
  21.9783796  84.6296925  44.4915318  17.9893067  91.1917130  40.3548185
  18.6843972  91.8123823  40.5735499  18.3316217  90.3412481  40.6300563
   3.6060876  83.0134931  54.2145002   2.8642612  83.1617567  54.8009633
   3.2853620  83.2743197  53.3511752  19.8884490  88.6416836  41.8835516
  20.4135814  88.9804109  41.1584836  19.8006843  87.7063851  41.6998650
  11.5504539  92.5550909  54.0125392  11.8591665  92.3100056  54.8848092
  12.3480021  92.7597548  53.5244262  11.5725151  94.7088819  46.2430769
  11.1330141  94.2165198  46.9363625  12.3233268  94.1661787  46.0022844
   4.0517490  90.9000360  46.2455397   4.8775510  90.6004132  45.8654040
   3.7011542  90.1307982  46.6945185   9.0199023  90.2526828  48.3153070
   8.3979032  89.5897533  48.0155298   9.6903890  90.2787960  47.6326718
   2.2526095  88.8186686  47.2044330   1.4158003  88.3908861  47.0228332
   2.2249740  89.0119130  48.1415122   9.0923550  78.7308616  57.9085576
   9.1411706  79.6070739  57.5263346   9.6346065  78.1886009  57.3357220
  19.5778396  89.2749739  57.1886714  18.7873940  89.2573878  56.6491213
  19.3411751  89.8138033  57.9435750  19.6976271  86.1242206  54.5019442
  19.7474276  85.9592213  55.4434965  19.5890195  85.2569465  54.1117323
   8.5812530  88.8030751  41.7911531   8.7300650  89.4866216  41.1378204
   9.3878973  88.7835842  42.3060987  16.9880034  82.1073134  55.8178749
  17.8889896  81.9679599  55.5262747  17.0628008  82.2727589  56.7576926
  11.3222839  79.4839989  54.6631935  10.4526148  79.7773555  54.3914524
  11.5582319  80.0680434  55.3839199  21.1994468  88.5439147  54.7461464
  20.9079276  88.9069128  55.5824925  20.5866599  87.8306156  54.5674796
  22.3990150  86.1092027  47.2664034  23.2337042  86.5481831  47.4301594
  22.5349279  85.6330680  46.4472280  19.4481656  83.6671762  53.2141522
  19.9235778  83.8599408  52.4060373  18.5247222  83.7230948  52.9684905
   6.3365163  84.8295929  42.7972600   6.0911205  83.9258259  42.9952810
   6.5061077  84.8313080  41.8552078  14.0261873  75.7019605  52.1797355
  14.5443817  76.4380632  51.8543844  13.6717006  76.0083599  53.0144115
   5.6060810  80.5624287  40.2958761   4.9130055  80.6368642  39.6398797
   5.3612562  79.7984630  40.8180278  14.2774467  72.1219888  47.6998252
  14.5576221  71.4543077  48.3258679  15.0625074  72.3148984  47.1872916
  12.0807935  91.2978882  39.2623278  11.5081902  91.9169069  38.8093750
  12.6540729  91.8478244  39.7963200  18.1483325  80.5437522  51.4469827
  19.1000748  80.6435620  51.4682051  17.9786776  79.7515791  51.9567912
  16.1697705  77.6293105  51.6329228  15.5747637  77.9098118  50.9375717
  15.8847401  78.1187006  52.4045969  15.3005195  91.5816032  40.3931861
  16.2335868  91.5161594  40.5964736  15.2128408  92.4172299  39.9346393
  17.9293212  90.8981902  37.3535808  17.8506843  90.5641766  38.2471566
  18.7502879  91.3903670  37.3527281  20.6271403  83.7643642  50.5612127
  20.5947723  82.8259642  50.7471811  21.2372027  83.8427678  49.8277952
  12.4654734  82.6339695  36.6039331  13.4113839  82.5045903  36.6727749
  12.0868979  81.8954357  37.0808759  20.7765892  80.5554685  50.6070410
  20.2604940  79.7713142  50.4200339  21.6605840  80.2273402  50.7716929
  18.4376618  74.2995701  46.5666223  18.2401440  73.9910789  47.4509555
  19.0476324  75.0257340  46.6964153  26.4447953  84.8259649  49.7018164
  27.1751341  84.5644937  50.2625867  25.8354898  84.0888370  49.7420232
  24.5263250  82.9667511  50.2992615  23.7996414  82.8323476  49.6909106
  24.1110537  83.2744340  51.1049333  12.3493426  86.6857441  58.0639988
  13.2696436  86.8636040  58.2580034  12.3143009  85.7413486  57.9119687
  10.6497651  80.5589671  36.5394216   9.7429106  80.2622784  36.6156930
  10.9273632  80.2619489  35.6728502   1.5675591  81.8796034  46.9893262
   1.2478376  81.0261343  46.6967636   1.0209020  82.0944613  47.7451230
   5.3455499  84.5958475  50.7062769   5.5641509  85.5275583  50.7250803
   5.7581273  84.2366450  51.4917573  12.2659717  75.1026561  42.6938457
  11.4560445  74.7573646  43.0693703  12.9544134  74.7934105  43.2826069
  14.1950265  74.1804608  44.3162754  14.7481304  74.6000061  44.9752777
  14.4320351  73.2540356  44.3585710  10.2183364  80.1691681  60.0965518
  10.1180091  81.1186038  60.0277609  10.0004906  79.8409920  59.2241588
   9.4196436  77.4176606  36.6806195  10.2815600  77.7431505  36.9402013
   9.6046780  76.6308102  36.1679261   1.4363851  85.4998946  48.9586384
   0.7427323  85.0852899  48.4456338   2.1836842  85.5419482  48.3619803
  17.5729072  76.2905133  43.8241418  16.9927741  76.9489937  43.4419471
  17.3065005  75.4682477  43.4128836  16.0232639  75.6910190  46.0262739
  16.5232417  75.8026725  45.2177057  16.6668246  75.3871243  46.6663547
  10.0814634  83.5988820  58.9130580   9.5981716  84.3989180  59.1194469
  10.1675573  83.6096765  57.9598024   3.3500594  85.4317200  46.8352399
   3.3271282  85.5304887  45.8834282   3.6601230  86.2782351  47.1569565
   6.0087972  87.4893355  50.9499013   6.9631225  87.4577297  50.8828945
   5.8100495  87.0283979  51.7649239   6.5987354  86.0594471  53.5169811
   7.4180243  86.5538549  53.5404648   6.8724162  85.1426439  53.4887379
  16.3553950  78.4505223  42.8797767  15.4679805  78.7354874  42.6617961
  16.7707939  78.2898986  42.0325043  19.7068486  78.4751744  46.5952106
  20.4828876  78.9648197  46.8676723  18.9816620  78.9009798  47.0523975
  22.1441045  79.1879363  47.6526046  22.7385536  78.9475099  46.9419355
  22.2167629  78.4686494  48.2799583   4.3638201  93.0312974  47.9669211
   4.2292669  92.2713375  47.4007209   3.9470263  93.7553874  47.4998000
  15.4997164  88.2149898  36.9745787  16.2033014  88.4199900  37.5903442
  14.7759812  88.7826660  37.2394870  16.3294974  83.9659759  43.0948057
  16.2730175  84.4228310  42.2555689  16.8823316  83.2050444  42.9170899
  20.1399780  79.7549491  43.9198176  19.8836714  79.3546127  44.7506384
  19.5152648  80.4693285  43.7948315  24.4512118  82.4945564  46.4269468
  23.8911676  82.5638753  47.2001030  23.8455621  82.3186549  45.7068964
   7.5207326  93.9282291  48.1787654   7.4039711  94.8727724  48.0766344
   6.6999773  93.6255853  48.5673453  17.4083861  88.6532427  39.0244247
  18.2429465  88.2213625  38.8421721  17.2468204  88.4814441  39.9521141
  17.0629753  85.1564540  40.3900586  17.0078557  84.9908812  39.4489030
  16.4375808  85.8640573  40.5462776   1.8522268  80.3932605  54.2162008
   2.4981132  79.8831559  54.7049233   1.6439419  81.1301286  54.7905433
  14.3775660  87.4613452  59.7154149  15.2466820  87.6354104  59.3540784
  13.8982412  88.2807869  59.5929878  10.3725879  74.6572649  39.9685904
  10.3604549  75.6014489  40.1254175  11.2649301  74.4742795  39.6745365
   8.5461841  94.5810553  51.3943582   9.4489087  94.6134163  51.7110077
   8.3199211  93.6511004  51.4089918  10.3015443  93.3341540  48.0553661
   9.3511074  93.3343401  47.9418033  10.6047929  92.5874274  47.5389696
  14.1877998  71.2515426  44.2231841  13.4210394  70.6973913  44.3688523
  14.5988703  71.3237295  45.0845993   6.1919759  77.5400222  58.3137022
   7.0551221  77.1837027  58.5240347   5.6185170  77.2014117  59.0012427
  26.0368136  99.1702078  49.1199423  26.6746546  99.0508825  48.4162763
  25.9188979 100.1182922  49.1787375  22.8457842  99.1229506  49.0560948
  22.5076354  99.0070571  48.1681483  23.7147611  98.7220671  49.0361954
  18.7044658 100.9764983  45.0457839  18.1409523 100.8854920  44.2774127
  18.5897053 100.1564887  45.5260332  23.3277625 100.2764358  55.0147154
  23.3166266  99.8817156  54.1427657  23.4898265  99.5430431  55.6080925
  16.2509090 102.4716174  47.8842059  17.0430382 102.1306999  47.4688359
  16.4905740 102.5811149  48.8044213  24.2844217 104.6435950  40.3572304
  23.6332197 105.2290031  39.9706318  25.0788580 105.1742145  40.4167341
  18.2099844 101.7325087  40.7559438  18.9830720 101.1854075  40.6172314
  18.5625243 102.5969337  40.9673900  20.0484887 103.0601470  53.9626338
  19.7574753 103.9647101  53.8473004  20.6841871 103.1017997  54.6770407
  20.9741093 100.4378318  50.5527697  21.5704666 100.2134341  49.8384660
  21.0316065  99.6963064  51.1553145  20.5466122  97.8917754  38.3877888
  20.7991642  97.3699275  37.6261351  19.6090681  97.7283899  38.4904572
  25.5909405  96.8953532  46.1952631  26.3772494  96.4772955  45.8443048
  25.8548109  97.7999624  46.3634280  25.7619482 102.3326382  40.8941288
  25.1265315 102.4061009  41.6062193  25.4316888 102.9219981  40.2160367
  30.9917832  96.8328765  47.0985610  31.7243004  96.2627982  47.3323439
  30.2357187  96.4450366  47.5392115  20.2662411  99.7945860  40.5902263
  20.1498669  99.1190763  41.2583347  20.3764670  99.3078233  39.7734416
  22.6093951  99.2556007  44.2948952  22.2452159  98.7286628  45.0061874
  23.4661067  98.8654476  44.1215438  28.5143252  90.5450339  51.5580218
  28.1826577  91.4145750  51.3341433  27.9188865  90.2286623  52.2374249
  22.2499438  94.2845906  39.2910301  22.4173841  95.1526143  39.6580772
  22.0596608  94.4473188  38.3671590  25.0074772 102.7462885  50.9576131
  24.7075495 103.6487924  50.8491938  24.6625831 102.4795068  51.8097284
  18.4587253  99.1976682  46.9912836  17.5337750  99.0652896  47.1990527
  18.7071666  99.9770901  47.4882778  28.4071915  95.2645425  48.6373569
  27.4988793  95.1960834  48.3432330  28.3559511  95.7417370  49.4655394
  22.2288659  96.7403564  40.2756968  22.1088285  97.1860615  41.1142448
  21.5341248  97.0888882  39.7170506  15.8196064  98.8409956  47.8256625
  15.9488445  99.0944435  48.7396036  15.1393515  99.4337664  47.5061280
  19.9895551 109.5107206  43.9247099  19.9119581 110.4615031  44.0035579
  19.3857195 109.1653078  44.5822025  22.4812781  96.6835071  56.5808466
  21.7046115  97.2428991  56.5711330  23.1203344  97.1691854  57.1023336
  30.2733562  93.4661864  50.4151442  29.6307942  93.7594397  49.7691237
  29.7688490  93.3514784  51.2204639  27.9273725  97.2125037  41.1037302
  28.8391582  97.4452424  40.9284999  27.4183373  97.7962081  40.5412380
  20.7359154  99.4920524  56.1426433  21.4773838 100.0305568  55.8661256
  20.0296139 100.1186813  56.2997985  26.2114493 101.6349665  54.7398594
  26.6197849 101.1932075  53.9953227  25.4891755 101.0602292  54.9932787
  22.5645563  96.5722272  52.1132151  23.4106758  96.9961685  52.2566800
  22.5044201  95.9155896  52.8070714  26.5343308 102.1950855  48.4950883
  25.9052170 102.3596570  47.7926951  26.1468970 102.6092465  49.2661847
  30.4132540 103.1305293  45.8495247  29.7283578 103.5104195  45.2992280
  30.4976389 103.7400620  46.5827195  25.7145009  94.2326640  53.7713325
  25.4705940  94.9868701  53.2347601  25.9904939  94.6111988  54.6060572
  27.6683471 100.7765252  52.4490590  27.8800367 101.4197012  51.7724972
  27.6213220  99.9427569  51.9812521  25.2709700  93.3883073  49.3527163
  24.4094179  93.6864327  49.6443900  25.2972135  93.6053472  48.4208195
  22.0871270 101.9325264  45.7600968  22.5509615 102.2112967  44.9705591
  21.8228068 101.0308708  45.5774059  18.9795351 101.4796745  48.6980732
  19.5496708 101.9084013  48.0598216  19.5703463 101.1979330  49.3964917
  21.0240156  98.0548416  42.5690533  21.7264199  98.5069460  43.0364460
  20.6920784  97.4132235  43.1970427  19.4720517  96.6460173  56.9441743
  18.8419178  97.3276453  57.1777140  19.3656605  96.5343254  55.9994881
  14.7665490  96.3131969  47.8707667  13.9764544  96.5689497  47.3947778
  15.2576737  97.1280306  47.9759708  28.7829299 103.6537208  50.6212948
  29.6046743 103.2517395  50.3395629  28.7791702 103.5505442  51.5729064
  16.7180235  96.6776548  44.8291144  15.9211398  96.7895242  45.3474639
  16.4905827  97.0163200  43.9632034  22.5485903 103.2021251  52.7773658
  22.6130335 103.6641658  53.6131830  21.8396827 102.5718616  52.9055968
  13.0503193  96.5662459  50.3022658  13.3011231  97.4509469  50.5680234
  13.5862741  96.3867061  49.5297750  36.8735292  99.9975956  46.9697919
  36.1199001  99.4283354  46.8141924  37.0082834  99.9638621  47.9168554
  22.2633920 104.8689359  42.6452639  22.1279595 105.7140894  43.0737486
  22.8043733 105.0708636  41.8818572  18.7501260  90.9480938  59.3066994
  18.3568206  90.3947137  59.9814638  19.5667400  91.2591517  59.6973511
  15.7163318 102.3864797  43.2180564  16.2287838 103.1808047  43.3686128
  16.3686031 101.6891087  43.1514165  17.5258202 105.5030553  45.3003317
  17.7024831 106.4248518  45.1124301  18.3215036 105.1888972  45.7297697
  21.6669221  92.3638817  56.8987250  22.4078934  92.9645971  56.8191713
  21.8987144  91.6216455  56.3405293  16.8110559  97.5495185  55.1765480
  16.6964074  96.6480442  55.4772579  15.9555077  97.7958882  54.8250297
  23.8902397 105.4912925  56.7752981  23.4466251 104.7049304  56.4573885
  24.5519610 105.6792076  56.1096872  18.6489518 107.0208727  51.3013659
  19.1996943 106.8925790  50.5290653  17.8100994 107.3203616  50.9508552
  25.9883635 105.7715725  54.8034382  25.9702110 106.5924606  54.3114651
  26.9103555 105.6469800  55.0284523  22.4456689 103.2859854  55.6457890
  22.9785026 102.5248143  55.4157198  21.9170770 102.9933506  56.3882045
  25.6126384  88.3919920  51.1751532  25.2690653  89.2821562  51.0990643
  25.9805347  88.2021578  50.3121117  13.6812235 100.7153451  43.9940134
  14.5187457 101.1250459  43.7773842  13.8590502  99.7752893  43.9640328
  25.5776667  98.3828532  39.6823967  25.0623290  99.1533136  39.9212355
  25.3053975  97.7093668  40.3057029  23.1623778  93.2278232  44.7409206
  22.3065374  92.8385083  44.5614844  23.5750729  93.3070193  43.8808991
  24.6922924  90.7624576  49.1400765  24.1887720  90.7254711  48.3268571
  24.9853531  91.6717318  49.1997422  20.9365810  90.8463305  48.1466947
  21.8018807  90.6506114  47.7872837  21.0043319  90.6173657  49.0736304
  30.5510941 101.1360886  41.6177141  29.7740384 100.7972046  41.1732303
  31.2302422 101.1413509  40.9432106  25.3662970  96.2555624  41.5083748
  25.0613105  96.5701773  42.3593892  26.3193412  96.3337044  41.5511081
  23.8109402 102.4145847  43.1576702  23.2830763 101.6798607  42.8449940
  23.3096904 103.1920523  42.9116671  28.7902248 100.6094867  48.2743749
  28.1325922 101.2994129  48.3623877  29.5942647 100.9991299  48.6177735
  18.5428129  93.0765513  45.5183314  19.1171881  92.8540695  44.7856507
  19.1299112  93.1454208  46.2711915  27.6007706  98.9639240  46.3247690
  28.1139588  99.5969232  46.8269400  28.2508930  98.3640436  45.9591050
  18.8697716  95.1069974  39.5379199  18.0335029  95.4444661  39.8588474
  18.7302486  94.9718954  38.6006336  20.8450797  89.9506762  44.2458383
  20.1915209  89.6355779  43.6214998  20.8031271  89.3282503  44.9718206
  21.9562002 100.2326057  36.1611675  21.0489064 100.0015311  36.3602824
  22.4533034  99.4363676  36.3485657  24.8630081 108.9423564  39.0808362
  24.1891779 109.2455261  39.6893319  25.2495903 109.7452645  38.7313819
  24.0788537  96.4388696  48.5706031  23.1611099  96.6603643  48.4127719
  24.4948681  96.5135006  47.7117738  24.8623585  97.8380111  43.7008711
  25.6095404  98.3501509  43.3915833  25.1315175  97.5164164  44.5613105
  23.1350235 100.3338652  40.6835666  22.2261455 100.0497685  40.7808135
  23.1645319 100.7537731  39.8238972  28.3669503 103.9445242  44.4526833
  27.9131830 103.1036151  44.5092024  27.7363469 104.5806640  44.7901613
  27.3102422  94.8737228  45.6827501  26.5725179  94.3614614  46.0137743
  27.5629196  94.4337609  44.8710777  26.8102442 105.7821738  45.3876651
  27.1025416 106.3426795  44.6689017  27.3201063 106.0750299  46.1429810
  27.4114050  87.6513480  46.2769270  27.7172926  86.7910843  45.9895185
  28.1366654  88.2431100  46.0768264  13.7038406  98.0544166  44.6650868
  13.5062805  97.4613527  43.9401934  13.1485070  97.7496376  45.3826807
  21.6835129  97.9467273  46.7845461  21.7383739  96.9941109  46.7087937
  20.8726331  98.1026712  47.2686759  22.8326323 101.8747396  38.0223744
  22.3945753 101.1583255  37.5629381  23.5736764 102.1023511  37.4608835
  19.6227489  96.5644332  44.5435840  18.8095355  96.8638503  44.9501032
  20.1186483  96.1700021  45.2610322  21.7736067 106.5602089  46.4770104
  21.7312246 106.7862936  45.5478636  22.6898766 106.3265464  46.6255906
  25.2201701  97.0286157  53.3750734  25.5751089  97.2557630  54.2345199
  25.8673832  97.3604534  52.7527989  30.9499438 100.1504593  44.0800063
  30.8117336 100.3406189  43.1521252  30.5935657 100.9123976  44.5368114
  19.1141564  94.1362688  50.1597075  19.7540943  93.9951447  49.4620038
  18.2819095  93.8497201  49.7835677  30.9768817 102.2181120  49.0911334
  31.4105324 102.1256409  49.9394388  31.6900398 102.1938620  48.4531350
  19.8901868 103.4365118  46.2732067  20.6842466 102.9415439  46.0714642
  19.1793560 102.9082982  45.9099773  24.7096712 105.8183214  50.6244435
  24.7633735 106.3874150  51.3922151  23.8411494 105.9885099  50.2598472
  16.1984631  97.5808200  42.3491820  15.2682219  97.5192656  42.5661782
  16.2942103  97.0584153  41.5528461  16.1170180  94.1063013  44.9370061
  16.3776998  95.0208346  44.8279222  16.9387353  93.6387456  45.0866674
  17.5895106  95.5200770  52.1068886  18.2618159  95.3118132  51.4581535
  16.7624892  95.3222856  51.6674118  31.8384367 102.2604820  51.6244220
  32.0320257 103.1650631  51.8703494  31.7384985 101.8012240  52.4582805
  23.4920678  92.1462711  54.1234547  22.8448593  92.8452661  54.0299023
  24.2621693  92.5798855  54.4910795  26.8999476 102.4111563  57.1985100
  26.7484982 102.1822115  56.2815184  26.8904155 103.3682165  57.2116445
  23.6684812  99.9843476  52.1831367  24.5976872 100.1354636  52.0100334
  23.2475842 100.0727497  51.3280013  22.4673144 104.0094140  49.9529904
  22.3284230 103.6412925  50.8255842  21.6787740 104.5241780  49.7813862
  23.0621296 109.1103237  41.2955441  23.2373052 108.6391280  42.1101063
  22.3754084 109.7369003  41.5236701  24.0178359 103.3875743  47.3418742
  23.6828192 103.3476513  48.2376392  23.5182305 102.7220459  46.8689152
  17.9922603  98.7943373  52.8671323  17.8542401  98.0623612  53.4682862
  18.9027526  98.7052273  52.5855511  26.9537551 100.7331777  37.6155802
  26.3366721 100.0078606  37.5188854  26.4854039 101.4941138  37.2722876
  20.6204904  98.5063332  52.3555003  21.3304522  97.8656525  52.3141621
  20.5774212  98.7576227  53.2781184  28.6091682 105.4430686  55.2761582
  28.5504229 104.7589906  54.6092165  29.0111201 106.1849676  54.8242208
  19.3333838  95.4928550  54.1750642  18.7971195  95.0419289  54.8272239
  18.7450546  95.6274459  53.4321107  18.7436097  94.9517202  36.7377106
  17.8665563  94.8306002  36.3739353  19.2193850  94.1603280  36.4855995
  28.6109090 103.4070270  53.5075562  27.7235868 103.0696191  53.6301961
  29.1807641 102.6753301  53.7444327  10.2638237  99.7394361  46.8318613
  10.9509277  99.4256091  46.2439628  10.1086365 100.6435726  46.5585865
  15.0672959  94.6284558  51.2603637  14.9831148  94.0210228  50.5254047
  14.2455665  95.1193576  51.2613133  22.1410243 108.0671722  50.4736805
  22.0680414 108.8726694  50.9856109  21.6987636 108.2663688  49.6484826
  21.9300023 107.3043492  43.9839626  21.1467545 107.8465172  44.0777851
  22.6292768 107.8217472  44.3833868  25.2396673  93.1138122  46.6273832
  25.7365372  92.3608084  46.3074902  24.4683654  93.1502438  46.0617041
  33.0926430  98.8178487  48.2692123  33.0816306  99.7003202  47.8986056
  32.2243810  98.4650038  48.0746660  24.6008927 107.9658556  52.6294964
  25.3136899 108.6006021  52.5570865  24.1098955 108.0622422  51.8134965
  26.3226453 101.8709809  44.2012255  25.3882732 101.9911271  44.0316960
  26.5003122 100.9682276  43.9372265  21.8231642  95.2555505  46.3545516
  21.4529429  94.7026545  47.0426422  22.3190734  94.6513638  45.8020516
  29.7099005  97.7127128  44.7362289  30.1759457  98.5455120  44.6622592
  30.1606505  97.2472110  45.4407548  19.6520840 105.7153000  53.4500534
  20.3530300 106.3489483  53.6029929  19.1815955 106.0567731  52.6896174
  27.7775236 104.0570949  41.7348441  28.0535080 103.9427544  42.6442315
  26.9079735 103.6588434  41.6960615  27.6815668  90.0807715  48.7753191
  26.7678747  90.3111942  48.9435398  28.1108769  90.1646159  49.6267223
  27.4522126  98.2697607  51.2753085  26.7993576  98.5173514  50.6205538
  27.8302506  97.4561745  50.9415562  24.4129300 108.3057300  45.3781255
  24.5951694 107.4878956  45.8409007  25.2362286 108.5224992  44.9406145
  24.7471465 107.2325485  42.6396304  25.2759232 106.7217940  42.0266466
  25.0099685 106.9168016  43.5041837  23.5009699  99.0117418  57.7619122
  22.8250336  98.9111547  58.4321497  24.3237333  98.8556632  58.2255119
  15.2488558 105.2489355  50.3831637  15.8341995 104.5033042  50.5159541
  15.0513397 105.5593311  51.2668301  18.1027213 108.2840602  45.3994079
  17.4337589 108.7686730  44.9158120  17.9640083 108.5309822  46.3137458
   9.8406213  97.8194955  49.1036080   9.8790312  97.2858545  49.8973198
   9.3346506  97.2930160  48.4847057  22.2432482 110.3184345  51.9976738
  22.7950790 110.4815967  52.7625823  22.5838675 110.9088783  51.3256763
  17.2196975  92.6659495  52.5998623  17.2838302  93.5274326  52.1876020
  17.1564095  92.0533497  51.8670981  16.6949248  94.7382628  56.2471657
  17.3221287  94.3559705  56.8609181  15.8377167  94.5196830  56.6127349
  27.0943356 105.1445603  57.8525392  27.6383260 105.7575561  57.3580347
  26.5130201 105.7025181  58.3692405  13.4714790  96.5459057  42.1790012
  13.7668232  95.6369735  42.1257065  12.5702826  96.5246796  41.8571014
  25.3800869 108.2666321  48.9840420  25.2552009 107.4656061  48.4751365
  26.0379960 108.7612514  48.4954390  17.0009037  94.6215054  48.1617560
  16.2795623  95.2351021  48.0225034  17.7902293  95.1572818  48.0834206
  27.4435778 106.0675341  50.6119970  26.4966113 105.9480692  50.5398297
  27.7918551 105.1797839  50.6946232  19.8035351  91.9569480  54.4358212
  20.3269753  92.2031777  55.1984521  19.5847684  92.7889515  54.0161349
  15.2002632  94.2273155  42.3029337  14.8715338  93.3470534  42.1204443
  15.5542003  94.1720823  43.1905726  24.4482211 105.8628057  46.8124322
  24.3007173 104.9344765  46.9931892  25.2735704 105.8848148  46.3281398
  18.3144455  94.5146124  42.6704814  18.6540528  95.0432046  41.9483423
  18.7616576  94.8526531  43.4463381  28.0516333 106.6856616  47.8989195
  28.9762880 106.4799477  47.7613646  27.8831636 106.4373017  48.8078537
  21.0087896  92.8983175  52.1207883  20.6684716  92.0990988  52.5228562
  20.3026902  93.1984886  51.5484716  21.6604368  89.9832488  50.5735206
  22.4830437  89.5092966  50.4514096  21.9042431  90.7622971  51.0733892
  20.3012602  93.0120746  40.8698107  21.0220965  93.3901999  40.3661824
  19.6777906  93.7309623  40.9733085  24.4443725  93.7165895  41.8056440
  24.6607340  94.5990533  41.5045268  23.9637792  93.3252108  41.0762082
  19.1842947  96.6751608  48.3827184  19.0387527  96.9891911  49.2751466
  18.7068150  97.2936509  47.8298083  21.0439329  93.6654156  48.4308074
  21.0300898  92.7695249  48.0940372  21.7611758  93.6724820  49.0646360
  22.8965460  94.0991496  50.4761201  22.6383238  95.0208567  50.4745532
  22.3650501  93.7021931  51.1661665  27.8411649 107.2042283  43.2551287
  28.0148526 106.6388706  42.5025139  28.3340540 108.0043178  43.0730776
  13.6588609  99.2156953  51.3214845  13.1142077  99.9916761  51.4535120
  14.5367959  99.5627757  51.1633967  20.4476225  92.5468536  43.6995644
  20.5692137  91.6185183  43.8986531  20.1578268  92.5607222  42.7873959
  23.3167416  90.2323447  46.8362364  23.3389113  90.2962780  45.8814343
  23.7335475  89.3927956  47.0302870  33.6951040  99.9678706  44.8741586
  34.1382186  99.2186032  44.4760710  32.8177550  99.9588843  44.4915318
  28.8286821 106.5209048  40.3548185  29.5237726 107.1415741  40.5735499
  29.1709972 105.6704399  40.6300563  14.4454631  98.3426849  54.2145002
  13.7036367  98.4909484  54.8009633  14.1247375  98.6035114  53.3511752
  30.7278245 103.9708753  41.8835516  31.2529569 104.3096026  41.1584836
  30.6400597 103.0355769  41.6998650  22.3898293 107.8842827  54.0125392
  22.6985420 107.6391974  54.8848092  23.1873775 108.0889466  53.5244262
  22.4118905 110.0380737  46.2430769  21.9723896 109.5457115  46.9363625
  23.1627022 109.4953704  46.0022844  14.8911244 106.2292278  46.2455397
  15.7169264 105.9296049  45.8654040  14.5405296 105.4599900  46.6945185
  19.8592777 105.5818746  48.3153070  19.2372787 104.9189451  48.0155298
  20.5297644 105.6079878  47.6326718  13.0919849 104.1478604  47.2044330
  12.2551758 103.7200778  47.0228332  13.0643495 104.3411047  48.1415122
  19.9317305  94.0600534  57.9085576  19.9805460  94.9362657  57.5263346
  20.4739819  93.5177927  57.3357220  30.4172151 104.6041657  57.1886714
  29.6267694 104.5865796  56.6491213  30.1805505 105.1429951  57.9435750
  30.5370026 101.4534123  54.5019442  30.5868031 101.2884131  55.4434965
  30.4283949 100.5861382  54.1117323  19.4206284 104.1322669  41.7911531
  19.5694405 104.8158134  41.1378204  20.2272728 104.1127759  42.3060987
  27.8273788  97.4365051  55.8178749  28.7283651  97.2971516  55.5262747
  27.9021763  97.6019506  56.7576926  22.1616593  94.8131906  54.6631935
  21.2919903  95.1065472  54.3914524  22.3976074  95.3972351  55.3839199
  32.0388223 103.8731065  54.7461464  31.7473031 104.2361046  55.5824925
  31.4260354 103.1598073  54.5674796  33.2383905 101.4383945  47.2664034
  34.0730796 101.8773749  47.4301594  33.3743034 100.9622598  46.4472280
  30.2875411  98.9963680  53.2141522  30.7629532  99.1891326  52.4060373
  29.3640976  99.0522865  52.9684905  17.1758917 100.1587847  42.7972600
  16.9304959  99.2550177  42.9952810  17.3454832 100.1604997  41.8552078
  24.8655627  91.0311523  52.1797355  25.3837571  91.7672550  51.8543844
  24.5110760  91.3375516  53.0144115  16.4454565  95.8916204  40.2958761
  15.7523810  95.9660559  39.6398797  16.2006317  95.1276548  40.8180278
  25.1168221  87.4511806  47.6998252  25.3969975  86.7834995  48.3258679
  25.9018828  87.6440901  47.1872916  22.9201690 106.6270800  39.2623278
  22.3475657 107.2460987  38.8093750  23.4934484 107.1770161  39.7963200
  28.9877080  95.8729440  51.4469827  29.9394503  95.9727537  51.4682051
  28.8180530  95.0807708  51.9567912  27.0091459  92.9585023  51.6329228
  26.4141391  93.2390036  50.9375717  26.7241156  93.4478924  52.4045969
  26.1398950 106.9107950  40.3931861  27.0729623 106.8453511  40.5964736
  26.0522163 107.7464217  39.9346393  28.7686966 106.2273820  37.3535808
  28.6900598 105.8933684  38.2471566  29.5896633 106.7195588  37.3527281
  31.4665158  99.0935559  50.5612127  31.4341478  98.1551560  50.7471811
  32.0765781  99.1719596  49.8277952  23.3048488  97.9631612  36.6039331
  24.2507593  97.8337820  36.6727749  22.9262733  97.2246274  37.0808759
  31.6159646  95.8846603  50.6070410  31.0998695  95.1005059  50.4200339
  32.4999595  95.5565319  50.7716929  29.2770373  89.6287618  46.5666223
  29.0795194  89.3202707  47.4509555  29.8870079  90.3549257  46.6964153
  37.2841707 100.1551566  49.7018164  38.0145096  99.8936854  50.2625867
  36.6748653  99.4180288  49.7420232  35.3657005  98.2959429  50.2992615
  34.6390168  98.1615394  49.6909106  34.9504291  98.6036257  51.1049333
  23.1887181 102.0149358  58.0639988  24.1090190 102.1927957  58.2580034
  23.1536764 101.0705404  57.9119687  21.4891406  95.8881589  36.5394216
  20.5822861  95.5914701  36.6156930  21.7667387  95.5911407  35.6728502
  12.4069346  97.2087952  46.9893262  12.0872130  96.3553260  46.6967636
  11.8602774  97.4236530  47.7451230  16.1849253  99.9250393  50.7062769
  16.4035263 100.8567501  50.7250803  16.5975027  99.5658368  51.4917573
  23.1053471  90.4318478  42.6938457  22.2954200  90.0865563  43.0693703
  23.7937888  90.1226022  43.2826069  25.0344020  89.5096525  44.3162754
  25.5875058  89.9291979  44.9752777  25.2714106  88.5832273  44.3585710
  21.0577119  95.4983599  60.0965518  20.9573846  96.4477956  60.0277609
  20.8398661  95.1701838  59.2241588  20.2590190  92.7468524  36.6806195
  21.1209354  93.0723422  36.9402013  20.4440534  91.9600020  36.1679261
  12.2757606 100.8290864  48.9586384  11.5821077 100.4144816  48.4456338
  13.0230597 100.8711400  48.3619803  28.4122827  91.6197050  43.8241418
  27.8321496  92.2781854  43.4419471  28.1458759  90.7974395  43.4128836
  26.8626393  91.0202108  46.0262739  27.3626171  91.1318643  45.2177057
  27.5062001  90.7163161  46.6663547  20.9208389  98.9280738  58.9130580
  20.4375471  99.7281098  59.1194469  21.0069328  98.9388683  57.9598024
  14.1894348 100.7609117  46.8352399  14.1665037 100.8596805  45.8834282
  14.4994985 101.6074268  47.1569565  16.8481726 102.8185272  50.9499013
  17.8024980 102.7869215  50.8828945  16.6494250 102.3575896  51.7649239
  17.4381108 101.3886388  53.5169811  18.2573997 101.8830467  53.5404648
  17.7117916 100.4718357  53.4887379  27.1947705  93.7797141  42.8797767
  26.3073560  94.0646791  42.6617961  27.6101694  93.6190904  42.0325043
  30.5462241  93.8043662  46.5952106  31.3222631  94.2940114  46.8676723
  29.8210375  94.2301716  47.0523975  32.9834799  94.5171281  47.6526046
  33.5779290  94.2767017  46.9419355  33.0561383  93.7978412  48.2799583
  26.3390918 103.5441815  36.9745787  27.0426768 103.7491818  37.5903442
  25.6153567 104.1118577  37.2394870  27.1688728  99.2951677  43.0948057
  27.1123930  99.7520228  42.2555689  27.7217071  98.5342361  42.9170899
  30.9793534  95.0841409  43.9198176  30.7230469  94.6838044  44.7506384
  30.3546402  95.7985203  43.7948315  35.2905872  97.8237482  46.4269468
  34.7305430  97.8930671  47.2001030  34.6849376  97.6478466  45.7068964
  28.2477616 103.9824345  39.0244247  29.0823219 103.5505543  38.8421721
  28.0861958 103.8106358  39.9521141  27.9023508 100.4856458  40.3900586
  27.8472312 100.3200729  39.4489030  27.2769563 101.1932491  40.5462776
  12.6916023  95.7224522  54.2162008  13.3374886  95.2123476  54.7049233
  12.4833174  96.4593204  54.7905433  25.2169415 102.7905370  59.7154149
  26.0860575 102.9646022  59.3540784  24.7376166 103.6099787  59.5929878
  21.2119633  89.9864567  39.9685904  21.1998303  90.9306407  40.1254175
  22.1043055  89.8034712  39.6745365  19.3855595 109.9102471  51.3943582
  20.2882842 109.9426081  51.7110077  19.1592965 108.9802922  51.4089918
  21.1409197 108.6633457  48.0553661  20.1904828 108.6635319  47.9418033
  21.4441683 107.9166192  47.5389696  25.0271753  86.5807344  44.2231841
  24.2604148  86.0265830  44.3688523  25.4382458  86.6529212  45.0845993
  17.0313514  92.8692139  58.3137022  17.8944975  92.5128944  58.5240347
  16.4578924  92.5306034  59.0012427  36.8761891 114.4993996  49.1199423
  37.5140301 114.3800743  48.4162763  36.7582734 115.4474840  49.1787375
  33.6851597 114.4521424  49.0560948  33.3470108 114.3362489  48.1681483
  34.5541365 114.0512589  49.0361954  34.1671380 115.6056276  55.0147154
  34.1560021 115.2109074  54.1427657  34.3292019 114.8722348  55.6080925
  31.3859876 113.2209671  38.3877888  31.6385397 112.6991193  37.6261351
  30.4484435 113.0575817  38.4904572  36.4303159 112.2245450  46.1952631
  37.2166248 111.8064873  45.8443048  36.6941863 113.1291542  46.3634280
  41.8311586 112.1620683  47.0985610  42.5636758 111.5919900  47.3323439
  41.0750942 111.7742283  47.5392115  33.4487706 114.5847924  44.2948952
  33.0845913 114.0578545  45.0061874  34.3054822 114.1946393  44.1215438
  39.3537007 105.8742257  51.5580218  39.0220331 106.7437668  51.3341433
  38.7582620 105.5578541  52.2374249  33.0893193 109.6137824  39.2910301
  33.2567595 110.4818060  39.6580772  32.8990362 109.7765106  38.3671590
  39.2465670 110.5937343  48.6373569  38.3382547 110.5252752  48.3432330
  39.1953266 111.0709288  49.4655394  33.0682414 112.0695482  40.2756968
  32.9482039 112.5152532  41.1142448  32.3735002 112.4180799  39.7170506
  33.3206536 112.0126989  56.5808466  32.5439870 112.5720909  56.5711330
  33.9597099 112.4983772  57.1023336  41.1127316 108.7953782  50.4151442
  40.4701697 109.0886315  49.7691237  40.6082245 108.6806702  51.2204639
  38.7667480 112.5416955  41.1037302  39.6785336 112.7744341  40.9284999
  38.2577127 113.1253999  40.5412380  33.4039318 111.9014189  52.1132151
  34.2500513 112.3253603  52.2566800  33.3437955 111.2447814  52.8070714
  36.5538763 109.5618558  53.7713325  36.3099695 110.3160618  53.2347601
  36.8298694 109.9403905  54.6060572  38.5077226 116.1057170  52.4490590
  38.7194121 116.7488930  51.7724972  38.4606974 115.2719487  51.9812521
  36.1103455 108.7174991  49.3527163  35.2487934 109.0156244  49.6443900
  36.1365889 108.9345390  48.4208195  31.8633910 113.3840334  42.5690533
  32.5657954 113.8361377  43.0364460  31.5314539 112.7424152  43.1970427
  30.3114272 111.9752090  56.9441743  29.6812932 112.6568371  57.1777140
  30.2050360 111.8635172  55.9994881  25.6059244 111.6423886  47.8707667
  24.8158298 111.8981415  47.3947778  26.0970492 112.4572224  47.9759708
  27.5573990 112.0068466  44.8291144  26.7605153 112.1187160  45.3474639
  27.3299582 112.3455118  43.9632034  47.7129047 115.3267874  46.9697919
  46.9592755 114.7575272  46.8141924  47.8476588 115.2930538  47.9168554
  29.5895014 106.2772856  59.3066994  29.1961960 105.7239055  59.9814638
  30.4061155 106.5883435  59.6973511  32.5062975 107.6930735  56.8987250
  33.2472689 108.2937888  56.8191713  32.7380898 106.9508373  56.3405293
  36.4520138 103.7211838  51.1751532  36.1084408 104.6113480  51.0990643
  36.8199101 103.5313496  50.3121117  36.4170421 113.7120449  39.6823967
  35.9017045 114.4825054  39.9212355  36.1447730 113.0385585  40.3057029
  34.0017532 108.5570150  44.7409206  33.1459128 108.1677000  44.5614844
  34.4144484 108.6362111  43.8808991  35.5316679 106.0916493  49.1400765
  35.0281474 106.0546628  48.3268571  35.8247286 107.0009236  49.1997422
  31.7759565 106.1755223  48.1466947  32.6412561 105.9798032  47.7872837
  31.8437074 105.9465575  49.0736304  41.3904695 116.4652804  41.6177141
  40.6134138 116.1263963  41.1732303  42.0696176 116.4705427  40.9432106
  36.2056724 111.5847541  41.5083748  35.9006860 111.8993690  42.3593892
  37.1587166 111.6628961  41.5511081  39.6296002 115.9386785  48.2743749
  38.9719677 116.6286047  48.3623877  40.4336401 116.3283217  48.6177735
  29.3821884 108.4057431  45.5183314  29.9565636 108.1832612  44.7856507
  29.9692866 108.4746125  46.2711915  38.4401461 114.2931158  46.3247690
  38.9533343 114.9261150  46.8269400  39.0902685 113.6932353  45.9591050
  29.7091471 110.4361892  39.5379199  28.8728783 110.7736578  39.8588474
  29.5696241 110.3010872  38.6006336  31.6844551 105.2798680  44.2458383
  31.0308964 104.9647697  43.6214998  31.6425026 104.6574420  44.9718206
  34.9182292 111.7680613  48.5706031  34.0004853 111.9895560  48.4127719
  35.3342435 111.8426924  47.7117738  35.7017340 113.1672029  43.7008711
  36.4489159 113.6793426  43.3915833  35.9708929 112.8456082  44.5613105
  38.1496177 110.2029145  45.6827501  37.4118934 109.6906532  46.0137743
  38.4022950 109.7629527  44.8710777  38.2507804 102.9805397  46.2769270
  38.5566681 102.1202761  45.9895185  38.9760409 103.5723017  46.0768264
  32.5228884 113.2759190  46.7845461  32.5777494 112.3233027  46.7087937
  31.7120086 113.4318629  47.2686759  30.4621244 111.8936250  44.5435840
  29.6489109 112.1930421  44.9501032  30.9580238 111.4991939  45.2610322
  36.0595455 112.3578075  53.3750734  36.4144843 112.5849548  54.2345199
  36.7067587 112.6896451  52.7527989  41.7893192 115.4796510  44.0800063
  41.6511091 115.6698106  43.1521252  41.4329411 116.2415893  44.5368114
  29.9535318 109.4654606  50.1597075  30.5934698 109.3243365  49.4620038
  29.1212849 109.1789119  49.7835677  41.8162572 117.5473037  49.0911334
  42.2499079 117.4548327  49.9394388  42.5294153 117.5230538  48.4531350
  27.0378386 112.9100118  42.3491820  26.1075974 112.8484573  42.5661782
  27.1335858 112.3876071  41.5528461  26.9563935 109.4354931  44.9370061
  27.2170752 110.3500264  44.8279222  27.7781107 108.9679373  45.0866674
  28.4288860 110.8492688  52.1068886  29.1011914 110.6410050  51.4581535
  27.6018647 110.6514774  51.6674118  42.6778122 117.5896738  51.6244220
  42.8714012 118.4942549  51.8703494  42.5778740 117.1304157  52.4582805
  34.3314432 107.4754629  54.1234547  33.6842347 108.1744578  54.0299023
  35.1015448 107.9090773  54.4910795  34.5078567 115.3135394  52.1831367
  35.4370627 115.4646553  52.0100334  34.0869597 115.4019414  51.3280013
  37.7931305 116.0623695  37.6155802  37.1760476 115.3370523  37.5188854
  37.3247794 116.8233055  37.2722876  31.4598658 113.8355250  52.3555003
  32.1698277 113.1948442  52.3141621  31.4167966 114.0868145  53.2781184
  30.1727592 110.8220468  54.1750642  29.6364949 110.3711206  54.8272239
  29.5844301 110.9566377  53.4321107  29.5829851 110.2809119  36.7377106
  28.7059317 110.1597920  36.3739353  30.0587604 109.4895198  36.4855995
  25.9066713 109.9576476  51.2603637  25.8224902 109.3502145  50.5254047
  25.0849420 110.4485494  51.2613133  36.0790427 108.4430039  46.6273832
  36.5759127 107.6900002  46.3074902  35.3077409 108.4794356  46.0617041
  43.9320185 114.1470405  48.2692123  43.9210061 115.0295120  47.8986056
  43.0637564 113.7941956  48.0746660  32.6625396 110.5847422  46.3545516
  32.2923184 110.0318463  47.0426422  33.1584488 109.9805556  45.8020516
  40.5492759 113.0419046  44.7362289  41.0153211 113.8747037  44.6622592
  41.0000260 112.5764027  45.4407548  38.5209422 105.4099633  48.7753191
  37.6072502 105.6403860  48.9435398  38.9502523 105.4938077  49.6267223
  38.2915881 113.5989525  51.2753085  37.6387331 113.8465432  50.6205538
  38.6696260 112.7853663  50.9415562  34.3403454 114.3409336  57.7619122
  33.6644091 114.2403465  58.4321497  35.1631087 114.1848549  58.2255119
  28.0590730 107.9951413  52.5998623  28.1232056 108.8566244  52.1876020
  27.9957850 107.3825415  51.8670981  27.5343002 110.0674546  56.2471657
  28.1615041 109.6851623  56.8609181  26.6770921 109.8488747  56.6127349
  24.3108545 111.8750975  42.1790012  24.6061986 110.9661653  42.1257065
  23.4096581 111.8538714  41.8571014  27.8402792 109.9506971  48.1617560
  27.1189378 110.5642939  48.0225034  28.6296048 110.4864736  48.0834206
  30.6429105 107.2861398  54.4358212  31.1663507 107.5323694  55.1984521
  30.4241439 108.1181433  54.0161349  26.0396387 109.5565072  42.3029337
  25.7109093 108.6762451  42.1204443  26.3935757 109.5012741  43.1905726
  29.1538210 109.8438042  42.6704814  29.4934282 110.3723963  41.9483423
  29.6010330 110.1818448  43.4463381  31.8481651 108.2275093  52.1207883
  31.5078471 107.4282906  52.5228562  31.1420657 108.5276804  51.5484716
  32.4998122 105.3124405  50.5735206  33.3224192 104.8384883  50.4514096
  32.7436186 106.0914889  51.0733892  31.1406357 108.3412664  40.8698107
  31.8614719 108.7193916  40.3661824  30.5171661 109.0601540  40.9733085
  35.2837480 109.0457813  41.8056440  35.5001094 109.9282451  41.5045268
  34.8031547 108.6544026  41.0762082  30.0236701 112.0043526  48.3827184
  29.8781282 112.3183829  49.2751466  29.5461905 112.6228426  47.8298083
  31.8833084 108.9946074  48.4308074  31.8694653 108.0987167  48.0940372
  32.6005512 109.0016738  49.0646360  33.7359215 109.4283414  50.4761201
  33.4776993 110.3500485  50.4745532  33.2044255 109.0313849  51.1661665
  31.2869980 107.8760454  43.6995644  31.4085891 106.9477100  43.8986531
  30.9972022 107.8899140  42.7873959  34.1561170 105.5615365  46.8362364
  34.1782867 105.6254698  45.8814343  34.5729229 104.7219873  47.0302870
  44.5344795 115.2970624  44.8741586  44.9775941 114.5477949  44.4760710
  43.6571305 115.2880760  44.4915318  30.7711059 109.3892452  57.9085576
  30.8199215 110.2654574  57.5263346  31.3133574 108.8469845  57.3357220
  41.3763780 116.7826041  54.5019442  41.4261785 116.6176049  55.4434965
  41.2677704 115.9153300  54.1117323  38.6667543 112.7656969  55.8178749
  39.5677405 112.6263434  55.5262747  38.7415517 112.9311424  56.7576926
  33.0010348 110.1423824  54.6631935  32.1313657 110.4357390  54.3914524
  33.2369828 110.7264269  55.3839199  44.0777659 116.7675862  47.2664034
  44.9124551 117.2065666  47.4301594  44.2136788 116.2914516  46.4472280
  41.1269165 114.3255597  53.2141522  41.6023287 114.5183244  52.4060373
  40.2034731 114.3814783  52.9684905  35.7049382 106.3603441  52.1797355
  36.2231326 107.0964468  51.8543844  35.3504514 106.6667434  53.0144115
  27.2848319 111.2208122  40.2958761  26.5917564 111.2952477  39.6398797
  27.0400071 110.4568466  40.8180278  35.9561976 102.7803723  47.6998252
  36.2363730 102.1126912  48.3258679  36.7412583 102.9732819  47.1872916
  39.8270834 111.2021357  51.4469827  40.7788257 111.3019455  51.4682051
  39.6574285 110.4099626  51.9567912  37.8485214 108.2876941  51.6329228
  37.2535146 108.5681953  50.9375717  37.5634910 108.7770842  52.4045969
  42.3058912 114.4227477  50.5612127  42.2735232 113.4843478  50.7471811
  42.9159536 114.5011514  49.8277952  34.1442243 113.2923530  36.6039331
  35.0901348 113.1629738  36.6727749  33.7656488 112.5538192  37.0808759
  42.4553401 111.2138520  50.6070410  41.9392449 110.4296977  50.4200339
  43.3393349 110.8857237  50.7716929  40.1164127 104.9579536  46.5666223
  39.9188949 104.6494624  47.4509555  40.7263833 105.6841175  46.6964153
  48.1235462 115.4843484  49.7018164  48.8538850 115.2228772  50.2625867
  47.5142407 114.7472206  49.7420232  46.2050759 113.6251346  50.2992615
  45.4783923 113.4907311  49.6909106  45.7898046 113.9328175  51.1049333
  32.3285160 111.2173506  36.5394216  31.4216615 110.9206619  36.6156930
  32.6061141 110.9203324  35.6728502  33.9447226 105.7610396  42.6938457
  33.1347954 105.4157481  43.0693703  34.6331643 105.4517940  43.2826069
  35.8737774 104.8388443  44.3162754  36.4268813 105.2583896  44.9752777
  36.1107860 103.9124191  44.3585710  31.8970873 110.8275517  60.0965518
  31.7967600 111.7769874  60.0277609  31.6792415 110.4993755  59.2241588
  31.0983945 108.0760442  36.6806195  31.9603109 108.4015340  36.9402013
  31.2834289 107.2891938  36.1679261  39.2516581 106.9488968  43.8241418
  38.6715250 107.6073772  43.4419471  38.9852514 106.1266313  43.4128836
  37.7020148 106.3494026  46.0262739  38.2019926 106.4610560  45.2177057
  38.3455755 106.0455079  46.6663547  38.0341459 109.1089058  42.8797767
  37.1467314 109.3938709  42.6617961  38.4495448 108.9482822  42.0325043
  41.3855995 109.1335579  46.5952106  42.1616385 109.6232032  46.8676723
  40.6604129 109.5593634  47.0523975  43.8228554 109.8463199  47.6526046
  44.4173045 109.6058935  46.9419355  43.8955138 109.1270329  48.2799583
  38.0082483 114.6243594  43.0948057  37.9517684 115.0812146  42.2555689
  38.5610825 113.8634279  42.9170899  41.8187289 110.4133326  43.9198176
  41.5624223 110.0129962  44.7506384  41.1940157 111.1277120  43.7948315
  46.1299627 113.1529400  46.4269468  45.5699185 113.2222589  47.2001030
  45.5243130 112.9770384  45.7068964  38.7417262 115.8148376  40.3900586
  38.6866066 115.6492647  39.4489030  38.1163317 116.5224409  40.5462776
  23.5309777 111.0516440  54.2162008  24.1768641 110.5415394  54.7049233
  23.3226928 111.7885122  54.7905433  32.0513388 105.3156485  39.9685904
  32.0392057 106.2598325  40.1254175  32.9436810 105.1326630  39.6745365
  35.8665507 101.9099261  44.2231841  35.0997903 101.3557748  44.3688523
  36.2776212 101.9821130  45.0845993  27.8707268 108.1984057  58.3137022
  28.7338730 107.8420862  58.5240347  27.2972679 107.8597952  59.0012427
  47.2913893 119.0503756  51.1751532  46.9478162 119.9405397  51.0990643
  47.6592855 118.8605413  50.3121117  49.0901559 118.3097315  46.2769270
  49.3960435 117.4494678  45.9895185  49.8154163 118.9014935  46.0768264
  46.7955730 118.1095641  47.6998252  47.0757484 117.4418830  48.3258679
  47.5806337 118.3024737  47.1872916  50.9557882 120.2871454  46.5666223
  50.7582703 119.9786542  47.4509555  51.5657587 121.0133093  46.6964153
  46.7059262 117.2391179  44.2231841  45.9391657 116.6849666  44.3688523
  47.1169967 117.3113048  45.0845993   4.3554030  31.0162326  33.6943226
   3.6017738  30.4469724  33.5387230   4.4901571  30.9824990  34.6413861
   0.7202643  32.4570314  33.9909340   1.5549534  32.8960118  34.1546901
   0.8561771  31.9808968  33.1717586   4.7660445  31.1737936  36.4263470
   5.4963834  30.9123224  36.9871174   4.1567391  30.4366658  36.4665538
   2.8475742  29.3145798  37.0237921   2.1208906  29.1801763  36.4154413
   2.4323029  29.6222627  37.8294640   0.4653537  25.5357651  34.3771353
   1.0598028  25.2953387  33.6664661   0.5380121  24.8164781  35.0044889
   2.7724610  28.8423851  33.1514774   2.2124168  28.9117041  33.9246336
   2.1668113  28.6664836  32.4314270   4.3580628  45.5180365  35.8444730
   4.9959038  45.3987113  35.1408070   4.2401471  46.4661209  35.9032682
   1.1670335  45.4707793  35.7806255   0.8288846  45.3548858  34.8926790
   2.0360103  45.0698959  35.7607261   1.6490118  46.6242645  41.7392460
   1.6378758  46.2295443  40.8672964   1.8110757  45.8908718  42.3326232
   2.6056709  50.9914238  27.0817611   1.9544689  51.5768318  26.6951624
   3.4001072  51.5220432  27.1412648   3.9121897  43.2431819  32.9197938
   4.6984986  42.8251242  32.5688355   4.1760601  44.1477911  33.0879586
   4.0831974  48.6804670  27.6186595   3.4477807  48.7539296  28.3307499
   3.7529381  49.2698268  26.9405674   9.3130324  43.1807052  33.8230917
  10.0455496  42.6106269  34.0568746   8.5569680  42.7928653  34.2637422
   0.9306444  45.6034294  31.0194259   0.5664651  45.0764915  31.7307180
   1.7873560  45.2132763  30.8460744   6.8355744  36.8928627  38.2825525
   6.5039069  37.7624037  38.0586740   6.2401358  36.5764911  38.9619556
   3.3287264  49.0941172  37.6821438   3.0287987  49.9966211  37.5737245
   2.9838323  48.8273356  38.5342591   6.7284408  41.6123713  35.3618875
   5.8201285  41.5439121  35.0677636   6.6772003  42.0895658  36.1900701
   8.5946054  39.8140151  37.1396749   7.9520434  40.1072684  36.4936544
   8.0900983  39.6993071  37.9449946   6.2486218  43.5603324  27.8282608
   7.1604074  43.7930711  27.6530306   5.7395865  44.1440368  27.2657687
   4.5326985  47.9827952  41.4643901   4.9410341  47.5410363  40.7198533
   3.8104247  47.4080580  41.7178094   0.8858055  42.9200559  38.8377458
   1.7319251  43.3439972  38.9812107   0.8256693  42.2634183  39.5316021
   4.8555800  48.5429143  35.2196190   4.2264663  48.7074857  34.5172258
   4.4681462  48.9570752  35.9907154   8.7345032  49.4783581  32.5740554
   8.0496070  49.8582482  32.0237587   8.8188881  50.0878907  33.3072501
   4.0357501  40.5804927  40.4958632   3.7918433  41.3346988  39.9592907
   4.3117431  40.9590275  41.3305879   5.9895964  47.1243540  39.1735897
   6.2012859  47.7675299  38.4970278   5.9425712  46.2905856  38.7057827
   3.5922193  39.7361360  36.0772469   2.7306672  40.0342614  36.3689207
   3.6184627  39.9531759  35.1453502   7.1041792  50.0015495  37.3458254
   7.9259235  49.5995682  37.0640936   7.1004194  49.8983729  38.2974370
  15.1947785  46.3454243  33.6943226  14.4411493  45.7761642  33.5387230
  15.3295326  46.3116908  34.6413861   0.5846413  51.2167646  29.3697945
   0.4492087  52.0619182  29.7982793   1.1256225  51.4186923  28.6063879
   2.2114889  51.8391212  43.4998287   1.7678743  51.0527591  43.1819192
   2.8732103  52.0270363  42.8342178   4.3096127  52.1194012  41.5279689
   4.2914602  52.9402893  41.0359958   5.2316047  51.9948087  41.7529830
   3.9338876  34.7398208  37.8996839   3.5903146  35.6299849  37.8235949
   4.3017839  34.5499865  37.0366424   3.8989159  44.7306819  26.4069274
   3.3835782  45.5011423  26.6457661   3.6266467  44.0571955  27.0302335
   1.4836270  39.5756520  31.4654512   0.6277866  39.1863370  31.2860151
   1.8963222  39.6548480  30.6054298   3.0135417  37.1102863  35.8646072
   2.5100212  37.0732998  35.0513877   3.3066023  38.0195606  35.9242729
   8.8723433  47.4839173  28.3422447   8.0952876  47.1450333  27.8977609
   9.5514914  47.4891797  27.6677412   3.6875462  42.6033911  28.2329055
   3.3825598  42.9180060  29.0839198   4.6405904  42.6815331  28.2756388
   2.1321894  48.7624134  29.8822009   1.6043256  48.0276894  29.5695246
   1.6309397  49.5398811  29.6361977   7.1114740  46.9573155  34.9989055
   6.4538414  47.6472416  35.0869184   7.9155139  47.3469587  35.3423042
   5.9220199  45.3117527  33.0492997   6.4352080  45.9447519  33.5514707
   6.5721423  44.7118723  32.6836357   3.1842573  55.2901852  25.8053668
   2.5104272  55.5933548  26.4138626   3.5708395  56.0930932  25.4559125
   2.4001030  42.7866983  35.2951338   1.4823591  43.0081930  35.1373026
   2.8161173  42.8613293  34.4363045   3.1836077  44.1858399  30.4254018
   3.9307896  44.6979796  30.1161140   3.4527667  43.8642451  31.2858411
   1.4562728  46.6816939  27.4080972   0.5473947  46.3975972  27.5053442
   1.4857811  47.1016018  26.5484279   6.6881995  50.2923529  31.1772140
   6.2344322  49.4514439  31.2337330   6.0575962  50.9284927  31.5146920
   5.6314915  41.2215515  32.4072807   4.8937671  40.7092901  32.7383050
   5.8841688  40.7815896  31.5956084   5.1314934  52.1300026  32.1121958
   5.4237909  52.6905083  31.3934323   5.6413555  52.4228587  32.8675117
   5.7326542  33.9991767  33.0014576   6.0385419  33.1389130  32.7140492
   6.4579147  34.5909387  32.8013570   1.1538815  48.2225683  24.7469051
   0.7158245  47.5061542  24.2874688   1.8949256  48.4501798  24.1854142
   3.5414193  43.3764444  40.0996040   3.8963581  43.6035917  40.9590506
   4.1886324  43.7082821  39.4773296   9.2711930  46.4982880  30.8045369
   9.1329829  46.6884476  29.8766559   8.9148149  47.2602263  31.2613420
   9.2981310  48.5659407  35.8156641   9.7317816  48.4734696  36.6639695
  10.0112890  48.5416908  35.1776657   3.0309205  52.1661501  37.3489741
   3.0846227  52.7352437  38.1167457   2.1623986  52.3363386  36.9843779
  10.1596859  48.6083108  38.3489526  10.3532749  49.5128918  38.5948801
  10.0597477  48.1490527  39.1828111   1.8133170  38.4940998  40.8479854
   1.1661085  39.1930948  40.7544330   2.5834185  38.9277142  41.2156102
   5.2211968  48.7589850  43.9230407   5.0697474  48.5300402  43.0060491
   5.2116647  49.7160452  43.9361752   1.9897304  46.3321763  38.9076673
   2.9189364  46.4832923  38.7345641   1.5688334  46.4205784  38.0525320
   1.3833788  55.4581524  28.0200747   1.5585544  54.9869567  28.8346370
   0.6966576  56.0847290  28.2482008   2.3390851  49.7354030  34.0664049
   2.0040684  49.6954800  34.9621699   1.8394797  49.0698746  33.5934459
   5.2750043  47.0810065  24.3401108   4.6579214  46.3556893  24.2434161
   4.8066531  47.8419425  23.9968183   6.9304175  51.7908973  42.0006889
   6.8716721  51.1068193  41.3337472   7.3323693  52.5327963  41.5487515
   6.9321582  49.7548557  40.2320868   6.0448361  49.4174479  40.3547267
   7.5020133  49.0231588  40.4689634   3.5609165  39.4616409  33.3519138
   4.0577865  38.7086371  33.0320209   2.7896147  39.4980725  32.7862348
  11.4138922  45.1656774  34.9937430  11.4028799  46.0481490  34.6231363
  10.5456302  44.8128325  34.7991967   2.9221419  54.3136843  39.3540270
   3.6349391  54.9484308  39.2816172   2.4311447  54.4100709  38.5380272
   4.6438946  48.2188096  30.9257562   3.7095224  48.3389558  30.7562266
   4.8215614  47.3160563  30.6617572   8.0311497  44.0605415  31.4607596
   8.4971949  44.8933407  31.3867899   8.4818998  43.5950397  32.1652855
   6.0987728  50.4049237  28.4593748   6.3747572  50.2905831  29.3687622
   5.2292227  50.0066721  28.4205921   6.0028160  36.4286002  35.4998497
   5.0891240  36.6590229  35.6680704   6.4321261  36.5124446  36.3512530
   5.7734618  44.6175894  37.9998391   5.1206069  44.8651802  37.3450844
   6.1514998  43.8040032  37.6660869   2.7341792  54.6535587  32.1026562
   2.9164187  53.8357243  32.5654314   3.5574778  54.8703280  31.6651452
   3.0683958  53.5803773  29.3641610   3.5971724  53.0696227  28.7511772
   3.3312177  53.2646303  30.2287143   1.8222191  45.3595705  44.4864428
   1.1462828  45.2589835  45.1566804   2.6449825  45.2034919  44.9500426
   0.5644974  56.6662633  38.7222044   1.1163282  56.8294254  39.4871130
   0.9051168  57.2567071  38.0502069   5.4155849  51.4923890  44.5770699
   5.9595753  52.1053849  44.0825654   4.8342693  52.0503469  45.0937712
   3.7013361  54.6144608  35.7085727   3.5764501  53.8134348  35.1996672
   4.3592453  55.1090802  35.2199697   5.7648270  52.4153628  37.3365277
   4.8178605  52.2958980  37.2643603   6.1131043  51.5276126  37.4191538
   2.7694703  52.2106345  33.5369629   2.6219666  51.2823052  33.7177199
   3.5948197  52.2326435  33.0526704   6.3728825  53.0334903  34.6234502
   7.2975372  52.8277765  34.4858953   6.2044128  52.7851304  35.5323843
   2.7656217  40.0644182  28.5301746   2.9819832  40.9468820  28.2290574
   2.2850285  39.6730396  27.8007388   1.2177952  40.4469784  37.2006508
   0.9595730  41.3686854  37.1990838   0.6862993  40.0500218  37.8906972
   6.1624141  53.5520571  29.9796593   6.3361019  52.9866993  29.2270446
   6.6553032  54.3521466  29.7976083   1.6379908  36.5801734  33.5607670
   1.6601605  36.6441067  32.6059650   2.0547967  35.7406243  33.7548176
  12.0163532  46.3156994  31.5986893  12.4594678  45.5664319  31.2006016
  11.1390043  46.3067130  31.2160625   7.1499314  52.8687335  27.0793491
   7.8450218  53.4894028  27.2980806   7.4922464  52.0182686  27.3545869
   9.0490737  50.3187041  28.6080822   9.5742061  50.6574313  27.8830142
   8.9613089  49.3834056  28.4243957   0.7110786  54.2321114  40.7370699
   1.0197912  53.9870261  41.6093398   1.5086268  54.4367753  40.2489569
   8.7384643  50.9519944  43.9132020   7.9480187  50.9344083  43.3736520
   8.5017997  51.4908238  44.6681057   8.8582518  47.8012411  41.2264749
   8.9080523  47.6362418  42.1680271   8.7496441  46.9339670  40.8362629
   6.1486280  43.7843339  42.5424055   7.0496143  43.6449804  42.2508053
   6.2234255  43.9497794  43.4822233  10.3600715  50.2209352  41.4706770
  10.0685523  50.5839333  42.3070231   9.7472846  49.5076360  41.2920102
  11.5596397  47.7862232  33.9909340  12.3943288  48.2252036  34.1546901
  11.6955526  47.3100885  33.1717586   8.6087903  45.3441967  39.9386828
   9.0842025  45.5369613  39.1305680   7.6853468  45.4001153  39.6930212
   3.1868120  37.3789810  38.9042662   3.7050063  38.1150837  38.5789151
   2.8323252  37.6853804  39.7389421   3.4380714  33.7990093  34.4243559
   3.7182467  33.1313282  35.0503985   4.2231321  33.9919189  33.9118223
   1.2414182  52.9749087  25.9868585   0.6688149  53.5939274  25.5339057
   1.8146976  53.5248449  26.5208507   7.3089572  42.2207727  38.1715134
   8.2606995  42.3205825  38.1927358   7.1393022  41.4285995  38.6813218
   5.3303951  39.3063310  38.3574535   4.7353884  39.5868323  37.6621023
   5.0453648  39.7957211  39.1291276   4.4611442  53.2586237  27.1177167
   5.3942115  53.1931799  27.3210043   4.3734655  54.0942504  26.6591700
   7.0899459  52.5752107  24.0781115   7.0113090  52.2411971  24.9716873
   7.9109125  53.0673875  24.0772587   9.7877650  45.4413847  37.2857433
   9.7553970  44.5029847  37.4717117  10.3978273  45.5197883  36.5523258
   1.6260981  44.3109900  23.3284638   2.5720085  44.1816108  23.3973056
   1.2475226  43.5724561  23.8054066   9.9372138  42.2324890  37.3315717
   9.4211187  41.4483347  37.1445646  10.8212087  41.9043607  37.4962236
   7.5982865  35.9765906  33.2911529   7.4007686  35.6680994  34.1754861
   8.2082571  36.7027545  33.4209459  15.6054200  46.5029853  36.4263470
  16.3357588  46.2415142  36.9871174  14.9961145  45.7658575  36.4665538
  13.6869497  44.6437716  37.0237921  12.9602660  44.5093681  36.4154413
  13.2716784  44.9514545  37.8294640   1.5099673  48.3627646  44.7885294
   2.4302683  48.5406245  44.9825341   1.4749256  47.4183691  44.6364994
   1.4265964  36.7796766  29.4183764   0.6166692  36.4343851  29.7939010
   2.1150380  36.4704309  30.0071376   3.3556512  35.8574813  31.0408061
   3.9087550  36.2770266  31.6998084   3.5926598  34.9310561  31.0831017
   6.7335319  37.9675338  30.5486725   6.1533988  38.6260142  30.1664777
   6.4671252  37.1452682  30.1374142   5.1838885  37.3680395  32.7508045
   5.6838664  37.4796930  31.9422364   5.8274493  37.0641448  33.3908854
   5.5160197  40.1275428  29.6043073   4.6286052  40.4125079  29.3863268
   5.9314186  39.9669191  28.7570350   8.8674733  40.1521949  33.3197412
   9.6435123  40.6418401  33.5922029   8.1422867  40.5780003  33.7769282
  11.3047292  40.8649568  34.3771353  11.8991783  40.6245304  33.6664661
  11.3773875  40.1456699  35.0044889   4.6603410  49.8920103  23.6991093
   5.3639261  50.0970105  24.3148749   3.9366059  50.4596865  23.9640177
   5.4901221  45.6429964  29.8193363   5.4336422  46.0998515  28.9800996
   6.0429563  44.8820649  29.6416206   9.3006027  41.4319696  30.6443483
   9.0442961  41.0316332  31.4751691   8.6758895  42.1463490  30.5193622
  13.6118364  44.1715769  33.1514774  13.0517922  44.2408958  33.9246336
  13.0061868  43.9956754  32.4314270   6.5690108  50.3302632  25.7489553
   7.4035712  49.8983830  25.5667028   6.4074451  50.1584646  26.6766448
   6.2236000  46.8334745  27.1145893   6.1684804  46.6679017  26.1734337
   5.5982055  47.5410778  27.2708082   3.5381907  49.1383657  46.4399455
   4.4073067  49.3124309  46.0786090   3.0588659  49.9578074  46.3175185
   3.3484245  32.9285631  30.9477148   2.5816641  32.3744118  31.0933830
   3.7594950  33.0007500  31.8091299  15.1974383  60.8472283  35.8444730
  15.8352793  60.7279030  35.1408070  15.0795226  61.7953127  35.9032682
  12.0064089  60.7999711  35.7806255  11.6682601  60.6840776  34.8926790
  12.8753857  60.3990876  35.7607261   7.8650905  62.6535188  31.7703146
   7.3015770  62.5625124  31.0019433   7.7503300  61.8335092  32.2505638
  12.4883872  61.9534563  41.7392460  12.4772513  61.5587361  40.8672964
  12.6504512  61.2200635  42.3326232   5.4115337  64.1486379  34.6087366
   6.2036629  63.8077204  34.1933665   5.6511987  64.2581354  35.5289519
  13.4450464  66.3206155  27.0817611  12.7938443  66.9060236  26.6951624
  14.2394826  66.8512350  27.1412648   7.3706091  63.4095292  27.4804745
   8.1436967  62.8624279  27.3417621   7.7231490  64.2739542  27.6919206
   9.2091133  64.7371675  40.6871644   8.9180999  65.6417306  40.5718310
   9.8448118  64.7788202  41.4015714  10.1347340  62.1148523  37.2773004
  10.7310912  61.8904546  36.5629967  10.1922312  61.3733269  37.8798452
   9.7072369  59.5687959  25.1123195   9.9597889  59.0469480  24.3506658
   8.7696928  59.4054104  25.2149878  14.7515651  58.5723737  32.9197938
  15.5378741  58.1543160  32.5688355  15.0154356  59.4769829  33.0879586
  14.9225729  64.0096587  27.6186595  14.2871562  64.0831214  28.3307499
  14.5923135  64.5990186  26.9405674  20.1524079  58.5098970  33.8230917
  20.8849250  57.9398187  34.0568746  19.3963434  58.1220571  34.2637422
   9.4268657  61.4716064  27.3147570   9.3104915  60.7960968  27.9828654
   9.5370917  60.9848438  26.4979723  11.7700198  60.9326212  31.0194259
  11.4058405  60.4056833  31.7307180  12.6267314  60.5424681  30.8460744
  17.6749499  52.2220544  38.2825525  17.3432824  53.0915955  38.0586740
  17.0795112  51.9056828  38.9619556  11.4105685  55.9616111  26.0155608
  11.5780088  56.8296348  26.3826079  11.2202854  56.1243393  25.0916897
  14.1681018  64.4233090  37.6821438  13.8681741  65.3258129  37.5737245
  13.8232078  64.1565273  38.5342591   7.6193500  60.8746887  33.7158142
   6.6943996  60.7423101  33.9235834   7.8677913  61.6541106  34.2128085
  17.5678162  56.9415630  35.3618875  16.6595040  56.8731039  35.0677636
  17.5165758  57.4187575  36.1900701  11.3894906  58.4173769  27.0002274
  11.2694531  58.8630820  27.8387755  10.6947494  58.7659086  26.4415812
   4.9802311  60.5180161  34.5501931   5.1094692  60.7714639  35.4641343
   4.2999762  61.1107869  34.2306586   9.1501798  71.1877411  30.6492406
   9.0725828  72.1385236  30.7280886   8.5463442  70.8423283  31.3067332
  11.6419028  58.3605276  43.3053772  10.8652362  58.9199196  43.2956637
  12.2809591  58.8462059  43.8268643  19.4339809  55.1432069  37.1396749
  18.7914189  55.4364602  36.4936544  18.9294737  55.0284989  37.9449946
  17.0879972  58.8895242  27.8282608  17.9997828  59.1222629  27.6530306
  16.5789619  59.4732286  27.2657687   9.8965400  61.1690729  42.8671739
  10.6380085  61.7075773  42.5906563   9.1902386  61.7957018  43.0243291
  15.3720740  63.3119870  41.4643901  15.7804096  62.8702280  40.7198533
  14.6498001  62.7372497  41.7178094  11.7251810  58.2492477  38.8377458
  12.5713005  58.6731890  38.9812107  11.6650448  57.5926101  39.5316021
  15.6949555  63.8721060  35.2196190  15.0658417  64.0366775  34.5172258
  15.3075217  64.2862670  35.9907154  19.5738786  64.8075498  32.5740554
  18.8889825  65.1874400  32.0237587  19.6582636  65.4170825  33.3072501
  14.8751255  55.9096845  40.4958632  14.6312187  56.6638905  39.9592907
  15.1511186  56.2882193  41.3305879  16.8289718  62.4535457  39.1735897
  17.0406613  63.0967217  38.4970278  16.7819466  61.6197774  38.7057827
  14.4315947  55.0653278  36.0772469  13.5700426  55.3634531  36.3689207
  14.4578382  55.2823677  35.1453502  11.2477516  63.6095468  32.4846275
  11.7115862  63.8883171  31.6950897  10.9834315  62.7078913  32.3019366
   8.1401598  63.1566950  35.4226038   8.7102955  63.5854218  34.7843523
   8.7309709  62.8749535  36.1210224  10.1846402  59.7318621  29.2935840
  10.8870446  60.1839665  29.7609766   9.8527031  59.0902440  29.9215733
   8.6326764  58.3230377  43.6687049   8.0025425  59.0046658  43.9022446
   8.5262852  58.2113459  42.7240188   3.9271736  57.9902174  34.5952974
   3.1370790  58.2459702  34.1193084   4.4182984  58.8050511  34.7005014
  17.9435546  65.3307413  37.3458254  18.7652990  64.9287600  37.0640936
  17.9397949  65.2275647  38.2974370   5.8786482  58.3546753  31.5536450
   5.0817645  58.4665447  32.0719946   5.6512074  58.6933405  30.6877341
  11.7092149  64.8791456  39.5018965  11.7736582  65.3411863  40.3377137
  11.0003073  64.2488821  39.6301275   2.2109439  58.2432664  37.0267964
   2.4617478  59.1279674  37.2925540   2.7468988  58.0637265  36.2543056
  26.0341539  61.6746161  33.6943226  25.2805247  61.1053559  33.5387230
  26.1689080  61.6408826  34.6413861  11.4240167  66.5459563  29.3697945
  11.2885842  67.3911099  29.7982793  11.9649980  66.7478841  28.6063879
   7.9107507  52.6251143  46.0312301   7.5174452  52.0717342  46.7059945
   8.7273647  52.9361722  46.4218818   4.8769565  64.0635002  29.9425870
   5.3894085  64.8578252  30.0931435   5.5292277  63.3661292  29.8759472
   6.6864449  67.1800758  32.0248624   6.8631078  68.1018722  31.8369607
   7.4821283  66.8659177  32.4543003  10.8275468  54.0409022  43.6232557
  11.5685181  54.6416176  43.5437020  11.0593391  53.2986660  43.0650600
   5.9716806  59.2265390  41.9010787   5.8570321  58.3250647  42.2017886
   5.1161324  59.4729086  41.5495603  13.0508643  67.1683130  43.4998287
  12.6072498  66.3819509  43.1819192  13.7125857  67.3562280  42.8342178
   7.8095765  68.6978932  38.0258966   8.3603190  68.5695995  37.2535960
   6.9707241  68.9973821  37.6753859  15.1489882  67.4485930  41.5279689
  15.1308357  68.2694811  41.0359958  16.0709802  67.3240005  41.7529830
  11.6062936  64.9630059  42.3703197  12.1391273  64.2018348  42.1402505
  11.0777017  64.6703711  43.1127351  14.7732631  50.0690125  37.8996839
  14.4296900  50.9591767  37.8235949  15.1411593  49.8791783  37.0366424
   2.8418481  62.3923656  30.7185441   3.6793703  62.8020664  30.5019149
   3.0196749  61.4523098  30.6885635  14.7382913  60.0598736  26.4069274
  14.2229537  60.8303341  26.6457661  14.4660222  59.3863873  27.0302335
  12.3230024  54.9048437  31.4654512  11.4671621  54.5155288  31.2860151
  12.7356976  54.9840398  30.6054298  13.8529171  52.4394781  35.8646072
  13.3493967  52.4024916  35.0513877  14.1459778  53.3487523  35.9242729
  10.0972057  52.5233510  34.8712254  10.9625054  52.3276319  34.5118143
  10.1649566  52.2943862  35.7981610  19.7117188  62.8131091  28.3422447
  18.9346630  62.4742251  27.8977609  20.3908669  62.8183714  27.6677412
  14.5269217  57.9325829  28.2329055  14.2219352  58.2471978  29.0839198
  15.4799659  58.0107248  28.2756388  12.9715648  64.0916052  29.8822009
  12.4437010  63.3568811  29.5695246  12.4703151  64.8690728  29.6361977
  17.9508494  62.2865072  34.9989055  17.2932169  62.9764334  35.0869184
  18.7548894  62.6761504  35.3423042   7.7034376  54.7535718  32.2428621
   8.2778128  54.5310900  31.5101813   8.2905358  54.8224413  32.9957222
  16.7613953  60.6409445  33.0492997  17.2745835  61.2739437  33.5514707
  17.4115177  60.0410641  32.6836357   8.0303963  56.7840179  26.2624506
   7.1941275  57.1214866  26.5833781   7.8908733  56.6489159  25.3251643
  10.0057044  51.6276967  30.9703690   9.3521456  51.3125984  30.3460305
   9.9637518  51.0052708  31.6963513  11.1168249  61.9096262  22.8856982
  10.2095310  61.6785516  23.0848131  11.6139281  61.1133881  23.0730964
  14.0236327  70.6193769  25.8053668  13.3498026  70.9225466  26.4138626
  14.4102149  71.4222850  25.4559125  13.2394784  58.1158901  35.2951338
  12.3217345  58.3373848  35.1373026  13.6554928  58.1905211  34.4363045
  14.0229832  59.5150316  30.4254018  14.7701651  60.0271713  30.1161140
  14.2921421  59.1934369  31.2858411  12.2956482  62.0108857  27.4080972
  11.3867701  61.7267890  27.5053442  12.3251566  62.4307936  26.5484279
  17.5275749  65.6215447  31.1772140  17.0738077  64.7806356  31.2337330
  16.8969716  66.2576845  31.5146920  16.4708669  56.5507433  32.4072807
  15.7331426  56.0384819  32.7383050  16.7235443  56.1107814  31.5956084
  15.9708689  67.4591943  32.1121958  16.2631663  68.0197000  31.3934323
  16.4807309  67.7520504  32.8675117  16.5720296  49.3283685  33.0014576
  16.8779173  48.4681048  32.7140492  17.2972901  49.9201305  32.8013570
   2.8644652  59.7314371  31.3896174   2.6669052  59.1383732  30.6647241
   2.3091316  59.4266581  32.1072113  10.8441376  59.6237478  33.5090768
  10.8989986  58.6711314  33.4333244  10.0332578  59.7796917  33.9932066
  11.9932570  63.5517601  24.7469051  11.5552000  62.8353460  24.2874688
  12.7343011  63.7793715  24.1854142   8.7833736  58.2414537  31.2681146
   7.9701602  58.5408708  31.6746339   9.2792730  57.8470226  31.9855629
  10.9342314  68.2372294  33.2015411  10.8918493  68.4633141  32.2723943
  11.8505013  68.0035669  33.3501212  14.3807948  58.7056362  40.0996040
  14.7357335  58.9327835  40.9590506  15.0280079  59.0374739  39.4773296
  20.1105685  61.8274798  30.8045369  19.9723583  62.0176394  29.8766559
  19.7541903  62.5894181  31.2613420   8.2747811  55.8132893  36.8842381
   8.9147190  55.6721652  36.1865345   7.4425341  55.5267406  36.5080983
  20.1375064  63.8951325  35.8156641  20.5711571  63.8026614  36.6639695
  20.8506645  63.8708825  35.1776657   9.0508115  65.1135323  32.9977374
   9.8448713  64.6185643  32.7959949   8.3399807  64.5853186  32.6345079
  13.8702959  67.4953419  37.3489741  13.9239981  68.0644355  38.1167457
  13.0017741  67.6655304  36.9843779   5.3590878  59.2578405  29.0737126
   4.4288466  59.1962861  29.2907089   5.4548350  58.7354358  28.2773768
   5.2776427  55.7833218  31.6615368   5.5383244  56.6978551  31.5524529
   6.0993600  55.3157660  31.8111981   6.7501353  57.1970975  38.8314193
   7.4224406  56.9888337  38.1826842   5.9231139  56.9993061  38.3919425
  20.9990614  63.9375025  38.3489526  21.1926504  64.8420836  38.5948801
  20.8991232  63.4782444  39.1828111  12.6526925  53.8232916  40.8479854
  12.0054840  54.5222866  40.7544330  13.4227940  54.2569060  41.2156102
  16.0605722  64.0881768  43.9230407  15.9091229  63.8592320  43.0060491
  16.0510402  65.0452370  43.9361752  12.8291059  61.6613681  38.9076673
  13.7583119  61.8124840  38.7345641  12.4082089  61.7497702  38.0525320
  11.6279391  65.6864345  36.6775211  11.4890476  65.3183130  37.5501149
  10.8393987  66.2011985  36.5059169  12.2227543  70.7873442  28.0200747
  12.3979298  70.3161485  28.8346370  11.5360331  71.4139208  28.2482008
  13.1784606  65.0645948  34.0664049  12.8434438  65.0246718  34.9621699
  12.6788551  64.3990664  33.5934459   7.1528850  60.4713578  39.5916630
   7.0148648  59.7393817  40.1928169   8.0633773  60.3822478  39.3100818
  16.1143797  62.4101982  24.3401108  15.4972968  61.6848810  24.2434161
  15.6460286  63.1711343  23.9968183   9.7811150  60.1833537  39.0800309
  10.4910769  59.5426730  39.0386928   9.7380459  60.4346432  40.0026490
  17.7697929  67.1200891  42.0006889  17.7110475  66.4360111  41.3337472
  18.1717447  67.8619881  41.5487515   8.4940084  57.1698755  40.8995949
   7.9577441  56.7189494  41.5517545   7.9056793  57.3044664  40.1566413
   6.7888628  73.9362805  34.7940608   7.0285226  74.5681329  35.4719626
   5.9457824  73.5850845  35.0805967   7.9042343  56.6287407  23.4622413
   7.0271810  56.5076207  23.0984659   8.3800096  55.8373485  23.2101301
  17.7715336  65.0840475  40.2320868  16.8842115  64.7466396  40.3547267
  18.3413887  64.3523506  40.4689634   4.2279206  56.3054763  37.9848943
   4.1437394  55.6980432  37.2499353   3.4061912  56.7963781  37.9858440
  11.3016490  69.7441927  37.1982112  11.2286661  70.5496898  37.7101416
  10.8593883  69.9433893  36.3730133  11.0906269  68.9813697  30.7084933
  10.3073791  69.5235377  30.8023158  11.7899015  69.4987677  31.1079174
  14.4002920  54.7908326  33.3519138  14.8971619  54.0378289  33.0320209
  13.6289901  54.8272643  32.7862348  22.2532677  60.4948692  34.9937430
  22.2422553  61.3773407  34.6231363  21.3850056  60.1420243  34.7991967
  13.7615173  69.6428761  39.3540270  14.4743146  70.2776226  39.2816172
  13.2705202  69.7392627  38.5380272  15.4832700  63.5480014  30.9257562
  14.5488979  63.6681476  30.7562266  15.6609369  62.6452480  30.6617572
  10.9837888  56.9325709  33.0790823  10.6135676  56.3796750  33.7671729
  11.4796981  56.3283843  32.5265823  18.8705252  59.3897333  31.4607596
  19.3365704  60.2225325  31.3867899  19.3212752  58.9242315  32.1652855
   8.8127087  67.3923204  40.1745841   9.5136546  68.0259687  40.3275235
   8.3422202  67.7337936  39.4141480  16.9381483  65.7341154  28.4593748
  17.2141327  65.6197749  29.3687622  16.0685981  65.3358639  28.4205921
  16.8421914  51.7577920  35.4998497  15.9284994  51.9882147  35.6680704
  17.2715016  51.8416364  36.3512530  16.6128373  59.9467812  37.9998391
  15.9599823  60.1943719  37.3450844  16.9908753  59.1331950  37.6660869
  13.5735547  69.9827505  32.1026562  13.7557941  69.1649161  32.5654314
  14.3968533  70.1995197  31.6651452  13.9077712  68.9095690  29.3641610
  14.4365479  68.3988145  28.7511772  14.1705932  68.5938220  30.2287143
  12.6615946  60.6887623  44.4864428  11.9856583  60.5881752  45.1566804
  13.4843580  60.5326837  44.9500426   4.4094805  66.9259559  37.1076944
   4.9948242  66.1803247  37.2404848   4.2119643  67.2363516  37.9913608
   7.2633460  69.9610807  32.1239386   6.5943835  70.4456935  31.6403426
   7.1246330  70.2080027  33.0382765  11.4038729  71.9954550  38.7222044
  11.9557037  72.1586172  39.4871130  11.7444922  72.5858988  38.0502069
   6.3803222  54.3429700  39.3243929   6.4444548  55.2044531  38.9121327
   6.3170342  53.7303702  38.5916288   5.8555494  56.4152833  42.9716963
   6.4827533  56.0329910  43.5854488   4.9983413  56.1967035  43.3372656
  16.2549603  66.8215808  44.5770699  16.7989507  67.4345766  44.0825654
  15.6736448  67.3795386  45.0937712   2.6321037  58.2229262  28.9035318
   2.9274478  57.3139940  28.8502372   1.7309073  58.2017001  28.5816321
  14.5407116  69.9436526  35.7085727  14.4158255  69.1426266  35.1996672
  15.1986207  70.4382719  35.2199697   6.1615284  56.2985258  34.8862867
   5.4401870  56.9121226  34.7470340   6.9508540  56.8343023  34.8079513
  16.6042024  67.7445546  37.3365277  15.6572360  67.6250897  37.2643603
  16.9524797  66.8568044  37.4191538   8.9641598  53.6339685  41.1603519
   9.4876000  53.8801981  41.9229828   8.7453931  54.4659720  40.7406656
   4.3608879  55.9043360  29.0274643   4.0321585  55.0240738  28.8449749
   4.7148249  55.8491028  29.9151033  13.6088458  67.5398262  33.5369629
  13.4613420  66.6114970  33.7177199  14.4341951  67.5618353  33.0526704
   7.4750702  56.1916329  29.3950121   7.8146774  56.7202251  28.6728729
   7.9222822  56.5296735  30.1708688  17.2122579  68.3626821  34.6234502
  18.1369127  68.1569682  34.4858953  17.0437883  68.1143222  35.5323843
  10.1694143  54.5753380  38.8453189   9.8290963  53.7761193  39.2473869
   9.4633149  54.8755091  38.2730022  10.8210615  51.6602692  37.2980512
  11.6436684  51.1863171  37.1759402  11.0648678  52.4393176  37.7979198
   9.4618849  54.6890951  27.5943414  10.1827212  55.0672204  27.0907131
   8.8384153  55.4079828  27.6978392  13.6049972  55.3936100  28.5301746
  13.8213586  56.2760738  28.2290574  13.1244039  55.0022313  27.8007388
   8.3449193  58.3521813  35.1072491   8.1993774  58.6662116  35.9996772
   7.8674397  58.9706713  34.5543389  10.2045576  55.3424361  35.1553380
  10.1907145  54.4465454  34.8185678  10.9218004  55.3495025  35.7891666
  12.0571707  55.7761701  37.2006508  11.7989485  56.6978772  37.1990838
  11.5256747  55.3792136  37.8906972  17.0017896  68.8812488  29.9796593
  17.1754773  68.3158911  29.2270446  17.4946787  69.6813383  29.7976083
   2.8194856  60.8927158  38.0460152   2.2748324  61.6686965  38.1780426
   3.6974205  61.2397962  37.8879273   9.6082472  54.2238741  30.4240950
   9.7298383  53.2955388  30.6231838   9.3184515  54.2377427  29.5119266
  12.4773663  51.9093652  33.5607670  12.4995359  51.9732985  32.6059650
  12.8941722  51.0698160  33.7548176  22.8557287  61.6448911  31.5986893
  23.2988433  60.8956237  31.2006016  21.9783797  61.6359048  31.2160625
  17.9893068  68.1979253  27.0793491  18.6843973  68.8185946  27.2980806
  18.3316218  67.3474604  27.3545869   3.6060877  60.0197054  40.9390309
   2.8642613  60.1679689  41.5254939   3.2853622  60.2805319  40.0757058
  19.8884491  65.6478958  28.6080822  20.4135815  65.9866231  27.8830142
  19.8006844  64.7125974  28.4243957  11.5504540  69.5613032  40.7370699
  11.8591666  69.3162179  41.6093398  12.3480022  69.7659670  40.2489569
  11.5725152  71.7150942  32.9676075  11.1330142  71.2227320  33.6608932
  12.3233269  71.1723909  32.7268151   4.0517491  67.9062482  32.9700703
   4.8775511  67.6066254  32.5899347   3.7011543  67.1370105  33.4190492
   9.0199024  67.2588951  35.0398377   8.3979034  66.5959656  34.7400605
   9.6903891  67.2850083  34.3572025   2.2526096  65.8248809  33.9289637
   1.4158004  65.3970983  33.7473638   2.2249742  66.0181252  34.8660428
   9.0923552  55.7370739  44.6330883   9.1411707  56.6132862  44.2508653
   9.6346066  55.1948132  44.0602526  19.5778397  66.2811862  43.9132020
  18.7873941  66.2636001  43.3736520  19.3411752  66.8200156  44.6681057
  19.6976272  63.1304328  41.2264749  19.7474277  62.9654336  42.1680271
  19.5890196  62.2631587  40.8362629   8.5812531  65.8092874  28.5156838
   8.7300651  66.4928338  27.8623510   9.3878975  65.7897964  29.0306293
  16.9880035  59.1135256  42.5424055  17.8889898  58.9741721  42.2508053
  17.0628009  59.2789711  43.4822233  11.3222840  56.4902111  41.3877242
  10.4526150  56.7835677  41.1159830  11.5582321  57.0742556  42.1084505
  21.1994469  65.5501270  41.4706770  20.9079278  65.9131250  42.3070231
  20.5866601  64.8368278  41.2920102  22.3990152  63.1154150  33.9909340
  23.2337043  63.5543954  34.1546901  22.5349280  62.6392803  33.1717586
  19.4481658  60.6733885  39.9386828  19.9235779  60.8661531  39.1305680
  18.5247223  60.7293070  39.6930212   6.3365164  61.8358052  29.5217906
   6.0911206  60.9320382  29.7198117   6.5061079  61.8375202  28.5797384
  14.0261874  52.7081728  38.9042662  14.5443818  53.4442755  38.5789151
  13.6717007  53.0145721  39.7389421   5.6060812  57.5686409  27.0204068
   4.9130057  57.6430764  26.3644104   5.3612564  56.8046753  27.5425585
  14.2774468  49.1282011  34.4243559  14.5576222  48.4605200  35.0503985
  15.0625075  49.3211106  33.9118223  12.0807937  68.3041004  25.9868585
  11.5081904  68.9231192  25.5339057  12.6540730  68.8540366  26.5208507
  18.1483327  57.5499645  38.1715134  19.1000749  57.6497742  38.1927358
  17.9786777  56.7577913  38.6813218  16.1697706  54.6355228  38.3574535
  15.5747638  54.9160241  37.6621023  15.8847403  55.1249129  39.1291276
  15.3005196  68.5878155  27.1177167  16.2335870  68.5223716  27.3210043
  15.2128409  69.4234421  26.6591700  17.9293213  67.9044025  24.0781115
  17.8506845  67.5703889  24.9716873  18.7502880  68.3965793  24.0772587
  20.6271404  60.7705764  37.2857433  20.5947724  59.8321765  37.4717117
  21.2372028  60.8489801  36.5523258  12.4654735  59.6401817  23.3284638
  13.4113840  59.5108025  23.3973056  12.0868980  58.9016479  23.8054066
  20.7765893  57.5616808  37.3315717  20.2604941  56.7775264  37.1445646
  21.6605841  57.2335524  37.4962236  18.4376620  51.3057823  33.2911529
  18.2401441  50.9972911  34.1754861  19.0476325  52.0319462  33.4209459
  26.4447954  61.8321771  36.4263470  27.1751343  61.5707059  36.9871174
  25.8354900  61.0950493  36.4665538  24.5263251  59.9729634  37.0237921
  23.7996415  59.8385599  36.4154413  24.1110538  60.2806462  37.8294640
  12.3493428  63.6919563  44.7885294  13.2696437  63.8698162  44.9825341
  12.3143011  62.7475609  44.6364994  10.6497652  57.5651794  23.2639523
   9.7429108  57.2684906  23.3402236  10.9273633  57.2681612  22.3973809
   1.5675593  58.8858157  33.7138569   1.2478377  58.0323465  33.4212943
   1.0209021  59.1006735  34.4696536   5.3455500  61.6020598  37.4308076
   5.5641510  62.5337706  37.4496109   5.7581274  61.2428572  38.2162879
  12.2659718  52.1088683  29.4183764  11.4560446  51.7635768  29.7939010
  12.9544135  51.7996227  30.0071376  14.1950266  51.1866730  31.0408061
  14.7481305  51.6062184  31.6998084  14.4320353  50.2602478  31.0831017
  10.2183366  57.1753804  46.8210825  10.1180092  58.1248161  46.7522916
  10.0004908  56.8472043  45.9486895   9.4196437  54.4238729  23.4051502
  10.2815601  54.7493627  23.6647319   9.6046781  53.6370225  22.8924568
   1.4363853  62.5061069  35.6831691   0.7427324  62.0915021  35.1701645
   2.1836844  62.5481605  35.0865110  17.5729073  53.2967255  30.5486725
  16.9927742  53.9552059  30.1664777  17.3065006  52.4744600  30.1374142
  16.0232640  52.6972313  32.7508045  16.5232418  52.8088848  31.9422364
  16.6668248  52.3933366  33.3908854  10.0814636  60.6050943  45.6375886
   9.5981717  61.4051303  45.8439775  10.1675575  60.6158888  44.6843330
   3.3500595  62.4379322  33.5597706   3.3271283  62.5367010  32.6079589
   3.6601232  63.2844473  33.8814872   6.0087973  64.4955477  37.6744320
   6.9631227  64.4639420  37.6074252   5.8100497  64.0346101  38.4894546
   6.5987355  63.0656593  40.2415118   7.4180244  63.5600672  40.2649955
   6.8724163  62.1488562  40.2132685  16.3553951  55.4567346  29.6043073
  15.4679806  55.7416996  29.3863268  16.7707941  55.2961109  28.7570350
  19.7068488  55.4813867  33.3197412  20.4828878  55.9710319  33.5922029
  18.9816622  55.9071921  33.7769282  22.1441046  56.1941486  34.3771353
  22.7385537  55.9537222  33.6664661  22.2167630  55.4748616  35.0044889
   4.3638202  70.0375097  34.6914518   4.2292670  69.2775498  34.1252516
   3.9470264  70.7615997  34.2243307  15.4997165  65.2212020  23.6991093
  16.2033015  65.4262023  24.3148749  14.7759814  65.7888782  23.9640177
  16.3294975  60.9721882  29.8193363  16.2730177  61.4290433  28.9800996
  16.8823318  60.2112566  29.6416206  20.1399781  56.7611614  30.6443483
  19.8836715  56.3608249  31.4751691  19.5152649  57.4755407  30.5193622
  24.4512119  59.5007687  33.1514774  23.8911677  59.5700876  33.9246336
  23.8455622  59.3248671  32.4314270   7.5207328  70.9344414  34.9032961
   7.4039712  71.8789846  34.8011651   6.6999774  70.6317975  35.2918760
  17.4083862  65.6594550  25.7489553  18.2429466  65.2275748  25.5667028
  17.2468205  65.4876563  26.6766448  17.0629754  62.1626663  27.1145893
  17.0078558  61.9970934  26.1734337  16.4375810  62.8702696  27.2708082
   1.8522269  57.3994727  40.9407315   2.4981133  56.8893681  41.4294540
   1.6439421  58.1363409  41.5150740  14.3775662  64.4675575  46.4399455
  15.2466821  64.6416227  46.0786090  13.8982413  65.2869992  46.3175185
  10.3725880  51.6634772  26.6931211  10.3604550  52.6076612  26.8499482
  11.2649302  51.4804917  26.3990672   8.5461842  71.5872676  38.1188889
   9.4489089  71.6196286  38.4355384   8.3199212  70.6573127  38.1335225
  10.3015444  70.3403662  34.7798968   9.3511075  70.3405524  34.6663340
  10.6047930  69.5936397  34.2635002  14.1877999  48.2577549  30.9477148
  13.4210395  47.7036035  31.0933830  14.5988704  48.3299417  31.8091299
   6.1919760  54.5462344  45.0382329   7.0551222  54.1899149  45.2485654
   5.6185171  54.2076239  45.7257733  26.0368137  76.1764201  35.8444730
  26.6746547  76.0570948  35.1408070  25.9188980  77.1245045  35.9032682
  22.8457844  76.1291629  35.7806255  22.5076355  76.0132693  34.8926790
  23.7147612  75.7282794  35.7607261  18.7044659  77.9827105  31.7703146
  18.1409525  77.8917042  31.0019433  18.5897054  77.1627010  32.2505638
  23.3277627  77.2826481  41.7392460  23.3166267  76.8879279  40.8672964
  23.4898266  76.5492553  42.3326232  16.2509091  79.4778297  34.6087366
  17.0430383  79.1369121  34.1933665  16.4905741  79.5873272  35.5289519
  24.2844218  81.6498073  27.0817611  23.6332198  82.2352153  26.6951624
  25.0788581  82.1804268  27.1412648  18.2099845  78.7387210  27.4804745
  18.9830721  78.1916197  27.3417621  18.5625244  79.6031459  27.6919206
  20.0484888  80.0663592  40.6871644  19.7574754  80.9709223  40.5718310
  20.6841872  80.1080120  41.4015714  20.9741095  77.4440441  37.2773004
  21.5704667  77.2196463  36.5629967  21.0316066  76.7025186  37.8798452
  20.5466123  74.8979876  25.1123195  20.7991644  74.3761397  24.3506658
  19.6090682  74.7346022  25.2149878  25.5909406  73.9015655  32.9197938
  26.3772495  73.4835078  32.5688355  25.8548110  74.8061747  33.0879586
  25.7619483  79.3388505  27.6186595  25.1265316  79.4123131  28.3307499
  25.4316890  79.9282104  26.9405674  30.9917833  73.8390888  33.8230917
  31.7243005  73.2690105  34.0568746  30.2357189  73.4512488  34.2637422
  20.2662412  76.8007982  27.3147570  20.1498670  76.1252886  27.9828654
  20.3764672  76.3140356  26.4979723  22.6093953  76.2618129  31.0194259
  22.2452160  75.7348750  31.7307180  23.4661069  75.8716598  30.8460744
  28.5143253  67.5512462  38.2825525  28.1826578  68.4207873  38.0586740
  27.9188867  67.2348746  38.9619556  22.2499440  71.2908029  26.0155608
  22.4173842  72.1588265  26.3826079  22.0596609  71.4535311  25.0916897
  25.0074773  79.7525008  37.6821438  24.7075496  80.6550047  37.5737245
  24.6625832  79.4857191  38.5342591  18.4587254  76.2038805  33.7158142
  17.5337751  76.0715019  33.9235834  18.7071668  76.9833024  34.2128085
  28.4071917  72.2707548  35.3618875  27.4988794  72.2022956  35.0677636
  28.3559512  72.7479493  36.1900701  22.2288661  73.7465686  27.0002274
  22.1088286  74.1922737  27.8387755  21.5341249  74.0951004  26.4415812
  15.8196065  75.8472078  34.5501931  15.9488447  76.1006557  35.4641343
  15.1393517  76.4399786  34.2306586  19.9895553  86.5169328  30.6492406
  19.9119582  87.4677153  30.7280886  19.3857196  86.1715201  31.3067332
  22.4812782  73.6897194  43.3053772  21.7046117  74.2491114  43.2956637
  23.1203346  74.1753977  43.8268643  30.2733563  70.4723986  37.1396749
  29.6307943  70.7656520  36.4936544  29.7688492  70.3576907  37.9449946
  27.9273727  74.2187160  27.8282608  28.8391583  74.4514546  27.6530306
  27.4183374  74.8024204  27.2657687  20.7359155  76.4982647  42.8671739
  21.4773839  77.0367691  42.5906563  20.0296140  77.1248936  43.0243291
  26.2114494  78.6411787  41.4643901  26.6197850  78.1994198  40.7198533
  25.4891756  78.0664415  41.7178094  22.5645564  73.5784394  38.8377458
  23.4106760  74.0023808  38.9812107  22.5044202  72.9218019  39.5316021
  26.5343309  79.2012978  35.2196190  25.9052171  79.3658692  34.5172258
  26.1468971  79.6154588  35.9907154  30.4132541  80.1367416  32.5740554
  29.7283579  80.5166317  32.0237587  30.4976390  80.7462743  33.3072501
  25.7145010  71.2388763  40.4958632  25.4705942  71.9930823  39.9592907
  25.9904940  71.6174110  41.3305879  27.6683473  77.7827375  39.1735897
  27.8800368  78.4259135  38.4970278  27.6213221  76.9489692  38.7057827
  25.2709702  70.3945196  36.0772469  24.4094181  70.6926449  36.3689207
  25.2972136  70.6115594  35.1453502  22.0871271  78.9387386  32.4846275
  22.5509616  79.2175089  31.6950897  21.8228069  78.0370831  32.3019366
  18.9795352  78.4858868  35.4226038  19.5496709  78.9146136  34.7843523
  19.5703464  78.2041452  36.1210224  21.0240157  75.0610539  29.2935840
  21.7264200  75.5131582  29.7609766  20.6920785  74.4194357  29.9215733
  19.4720519  73.6522295  43.6687049  18.8419179  74.3338576  43.9022446
  19.3656606  73.5405377  42.7240188  14.7665491  73.3194091  34.5952974
  13.9764545  73.5751620  34.1193084  15.2576738  74.1342429  34.7005014
  28.7829301  80.6599330  37.3458254  29.6046744  80.2579518  37.0640936
  28.7791703  80.5567565  38.2974370  16.7180236  73.6838670  31.5536450
  15.9211400  73.7957365  32.0719946  16.4905829  74.0225323  30.6877341
  22.5485904  80.2083374  39.5018965  22.6130336  80.6703781  40.3377137
  21.8396828  79.5780739  39.6301275  13.0503194  73.5724582  37.0267964
  13.3011232  74.4571592  37.2925540  13.5862742  73.3929183  36.2543056
  36.8735294  77.0038079  33.6943226  36.1199002  76.4345477  33.5387230
  37.0082835  76.9700743  34.6413861  22.2633922  81.8751481  29.3697945
  22.1279596  82.7203017  29.7982793  22.8043734  82.0770759  28.6063879
  18.7501261  67.9543061  46.0312301  18.3568207  67.4009260  46.7059945
  19.5667402  68.2653639  46.4218818  15.7163319  79.3926919  29.9425870
  16.2287840  80.1870169  30.0931435  16.3686032  78.6953210  29.8759472
  17.5258204  82.5092675  32.0248624  17.7024832  83.4310640  31.8369607
  18.3215037  82.1951095  32.4543003  21.6669222  69.3700940  43.6232557
  22.4078936  69.9708093  43.5437020  21.8987145  68.6278578  43.0650600
  16.8110560  74.5557307  41.9010787  16.6964075  73.6542565  42.2017886
  15.9555078  74.8021004  41.5495603  23.8902398  82.4975048  43.4998287
  23.4466252  81.7111426  43.1819192  24.5519612  82.6854198  42.8342178
  18.6489519  84.0270849  38.0258966  19.1996944  83.8987913  37.2535960
  17.8100995  84.3265738  37.6753859  25.9883636  82.7777848  41.5279689
  25.9702111  83.5986729  41.0359958  26.9103556  82.6531923  41.7529830
  22.4456690  80.2921977  42.3703197  22.9785027  79.5310265  42.1402505
  21.9170771  79.9995629  43.1127351  25.6126385  65.3982043  37.8996839
  25.2690655  66.2883685  37.8235949  25.9805348  65.2083701  37.0366424
  13.6812236  77.7215573  30.7185441  14.5187458  78.1312582  30.5019149
  13.8590503  76.7815016  30.6885635  25.5776668  75.3890654  26.4069274
  25.0623291  76.1595259  26.6457661  25.3053976  74.7155790  27.0302335
  23.1623779  70.2340355  31.4654512  22.3065375  69.8447205  31.2860151
  23.5750731  70.3132316  30.6054298  24.6922926  67.7686698  35.8646072
  24.1887721  67.7316833  35.0513877  24.9853532  68.6779441  35.9242729
  20.9365811  67.8525428  34.8712254  21.8018808  67.6568237  34.5118143
  21.0043320  67.6235780  35.7981610  30.5510942  78.1423009  28.3422447
  29.7740385  77.8034168  27.8977609  31.2302423  78.1475632  27.6677412
  25.3662971  73.2617746  28.2329055  25.0613107  73.5763895  29.0839198
  26.3193413  73.3399166  28.2756388  23.8109403  79.4207970  29.8822009
  23.2830764  78.6860729  29.5695246  23.3096906  80.1982646  29.6361977
  28.7902249  77.6156990  34.9989055  28.1325923  78.3056251  35.0869184
  29.5942648  78.0053422  35.3423042  18.5428131  70.0827636  32.2428621
  19.1171882  69.8602817  31.5101813  19.1299113  70.1516330  32.9957222
  27.6007708  75.9701363  33.0492997  28.1139589  76.6031355  33.5514707
  28.2508932  75.3702558  32.6836357  18.8697718  72.1132097  26.2624506
  18.0335030  72.4506783  26.5833781  18.7302487  71.9781077  25.3251643
  20.8450798  66.9568885  30.9703690  20.1915211  66.6417902  30.3460305
  20.8031272  66.3344625  31.6963513  21.9562003  77.2388180  22.8856982
  21.0489065  77.0077433  23.0848131  22.4533035  76.4425799  23.0730964
  24.8630082  85.9485687  25.8053668  24.1891781  86.2517384  26.4138626
  25.2495904  86.7514767  25.4559125  24.0788539  73.4450818  35.2951338
  23.1611100  73.6665765  35.1373026  24.4948682  73.5197129  34.4363045
  24.8623586  74.8442234  30.4254018  25.6095405  75.3563631  30.1161140
  25.1315176  74.5226287  31.2858411  23.1350237  77.3400775  27.4080972
  22.2261456  77.0559807  27.5053442  23.1645320  77.7599853  26.5484279
  28.3669504  80.9507364  31.1772140  27.9131831  80.1098274  31.2337330
  27.7363471  81.5868763  31.5146920  27.3102424  71.8799350  32.4072807
  26.5725180  71.3676736  32.7383050  27.5629197  71.4399732  31.5956084
  26.8102443  82.7883861  32.1121958  27.1025418  83.3488918  31.3934323
  27.3201064  83.0812422  32.8675117  27.4114051  64.6575602  33.0014576
  27.7172928  63.7972966  32.7140492  28.1366656  65.2493222  32.8013570
  13.7038407  75.0606289  31.3896174  13.5062807  74.4675650  30.6647241
  13.1485071  74.7558499  32.1072113  21.6835131  74.9529395  33.5090768
  21.7383740  74.0003232  33.4333244  20.8726333  75.1088834  33.9932066
  22.8326324  78.8809518  24.7469051  22.3945754  78.1645377  24.2874688
  23.5736765  79.1085633  24.1854142  19.6227490  73.5706455  31.2681146
  18.8095356  73.8700626  31.6746339  20.1186485  73.1762144  31.9855629
  21.7736068  83.5664212  33.2015411  21.7312247  83.7925058  32.2723943
  22.6898767  83.3327587  33.3501212  25.2201702  74.0348280  40.0996040
  25.5751090  74.2619753  40.9590506  25.8673833  74.3666656  39.4773296
  30.9499439  77.1566715  30.8045369  30.8117338  77.3468311  29.8766559
  30.5935658  77.9186098  31.2613420  19.1141565  71.1424811  36.8842381
  19.7540945  71.0013570  36.1865345  18.2819096  70.8559324  36.5080983
  30.9768819  79.2243242  35.8156641  31.4105325  79.1318531  36.6639695
  31.6900399  79.2000743  35.1776657  19.8901869  80.4427241  32.9977374
  20.6842468  79.9477561  32.7959949  19.1793562  79.9145104  32.6345079
  24.7096714  82.8245337  37.3489741  24.7633736  83.3936273  38.1167457
  23.8411495  82.9947222  36.9843779  16.1984633  74.5870323  29.0737126
  15.2682221  74.5254778  29.2907089  16.2942105  74.0646275  28.2773768
  16.1170182  71.1125136  31.6615368  16.3776999  72.0270469  31.5524529
  16.9387354  70.6449578  31.8111981  17.5895107  72.5262893  38.8314193
  18.2618160  72.3180255  38.1826842  16.7624894  72.3284979  38.3919425
  31.8384368  79.2666943  38.3489526  32.0320258  80.1712754  38.5948801
  31.7384986  78.8074362  39.1828111  23.4920679  69.1524834  40.8479854
  22.8448594  69.8514783  40.7544330  24.2621694  69.5860978  41.2156102
  26.8999477  79.4173686  43.9230407  26.7484983  79.1884237  43.0060491
  26.8904156  80.3744287  43.9361752  23.6684813  76.9905599  38.9076673
  24.5976873  77.1416758  38.7345641  23.2475843  77.0789619  38.0525320
  22.4673145  81.0156263  36.6775211  22.3284231  80.6475047  37.5501149
  21.6787741  81.5303902  36.5059169  23.0621297  86.1165359  28.0200747
  23.2373053  85.6453403  28.8346370  22.3754085  86.7431126  28.2482008
  24.0178360  80.3937866  34.0664049  23.6828193  80.3538636  34.9621699
  23.5182306  79.7282582  33.5934459  17.9922604  75.8005496  39.5916630
  17.8542402  75.0685735  40.1928169  18.9027528  75.7114396  39.3100818
  26.9537552  77.7393900  24.3401108  26.3366723  77.0140728  24.2434161
  26.4854040  78.5003260  23.9968183  20.6204905  75.5125455  39.0800309
  21.3304523  74.8718647  39.0386928  20.5774213  75.7638350  40.0026490
  28.6091684  82.4492808  42.0006889  28.5504230  81.7652028  41.3337472
  29.0111202  83.1911798  41.5487515  19.3333839  72.4990673  40.8995949
  18.7971196  72.0481411  41.5517545  18.7450547  72.6336582  40.1566413
  17.6282382  89.2654722  34.7940608  17.8678981  89.8973246  35.4719626
  16.7851579  88.9142762  35.0805967  18.7436098  71.9579324  23.4622413
  17.8665564  71.8368125  23.0984659  19.2193851  71.1665403  23.2101301
  28.6109091  80.4132392  40.2320868  27.7235870  80.0758314  40.3547267
  29.1807642  79.6815424  40.4689634  10.2638238  76.7456484  33.5563920
  10.9509278  76.4318214  32.9684935  10.1086367  77.6497849  33.2831171
  15.0672960  71.6346681  37.9848943  14.9831149  71.0272350  37.2499353
  14.2455667  72.1255699  37.9858440  22.1410244  85.0733845  37.1982112
  22.0680416  85.8788816  37.7101416  21.6987637  85.2725810  36.3730133
  21.9300024  84.3105615  30.7084933  21.1467546  84.8527295  30.8023158
  22.6292769  84.8279594  31.1079174  25.2396674  70.1200244  33.3519138
  25.7365374  69.3670206  33.0320209  24.4683656  70.1564561  32.7862348
  33.0926431  75.8240610  34.9937430  33.0816308  76.7065325  34.6231363
  32.2243811  75.4712160  34.7991967  24.6008928  84.9720679  39.3540270
  25.3136900  85.6068143  39.2816172  24.1098956  85.0684545  38.5380272
  26.3226455  78.8771931  30.9257562  25.3882733  78.9973394  30.7562266
  26.5003123  77.9744398  30.6617572  21.8231643  72.2617627  33.0790823
  21.4529430  71.7088667  33.7671729  22.3190735  71.6575761  32.5265823
  29.7099006  74.7189251  31.4607596  30.1759458  75.5517242  31.3867899
  30.1606507  74.2534232  32.1652855  19.6520841  82.7215122  40.1745841
  20.3530301  83.3551605  40.3275235  19.1815956  83.0629854  39.4141480
  27.7775237  81.0633072  28.4593748  28.0535081  80.9489666  29.3687622
  26.9079736  80.6650557  28.4205921  27.6815669  67.0869838  35.4998497
  26.7678749  67.3174064  35.6680704  28.1108770  67.1708282  36.3512530
  27.4522127  75.2759730  37.9998391  26.7993578  75.5235637  37.3450844
  27.8302507  74.4623868  37.6660869  24.4129301  85.3119423  32.1026562
  24.5951696  84.4941079  32.5654314  25.2362287  85.5287115  31.6651452
  24.7471467  84.2387608  29.3641610  25.2759233  83.7280062  28.7511772
  25.0099686  83.9230138  30.2287143  23.5009700  76.0179541  44.4864428
  22.8250337  75.9173670  45.1566804  24.3237334  75.8618754  44.9500426
  15.2488559  82.2551477  37.1076944  15.8341996  81.5095165  37.2404848
  15.0513398  82.5655434  37.9913608  18.1027215  85.2902725  32.1239386
  17.4337590  85.7748852  31.6403426  17.9640084  85.5371945  33.0382765
   9.8406214  74.8257077  35.8281387   9.8790314  74.2920668  36.6218505
   9.3346507  74.2992283  35.2092364  22.2432483  87.3246468  38.7222044
  22.7950791  87.4878090  39.4871130  22.5838677  87.9150906  38.0502069
  17.2196976  69.6721618  39.3243929  17.2838303  70.5336449  38.9121327
  17.1564097  69.0595620  38.5916288  16.6949249  71.7444750  42.9716963
  17.3221288  71.3621828  43.5854488  15.8377168  71.5258952  43.3372656
  27.0943358  82.1507726  44.5770699  27.6383261  82.7637684  44.0825654
  26.5130202  82.7087304  45.0937712  13.4714792  73.5521180  28.9035318
  13.7668233  72.6431858  28.8502372  12.5702827  73.5308919  28.5816321
  25.3800870  85.2728444  35.7085727  25.2552010  84.4718183  35.1996672
  26.0379962  85.7674637  35.2199697  17.0009039  71.6277176  34.8862867
  16.2795624  72.2413144  34.7470340  17.7902294  72.1634941  34.8079513
  27.4435779  83.0737464  37.3365277  26.4966114  82.9542815  37.2643603
  27.7918552  82.1859962  37.4191538  19.8035352  68.9631603  41.1603519
  20.3269754  69.2093899  41.9229828  19.5847685  69.7951637  40.7406656
  15.2002633  71.2335277  29.0274643  14.8715339  70.3532656  28.8449749
  15.5542004  71.1782946  29.9151033  24.4482212  82.8690180  33.5369629
  24.3007175  81.9406887  33.7177199  25.2735706  82.8910271  33.0526704
  18.3144456  71.5208247  29.3950121  18.6540529  72.0494168  28.6728729
  18.7616577  71.8588653  30.1708688  28.0516334  83.6918739  34.6234502
  28.9762881  83.4861600  34.4858953  27.8831637  83.4435140  35.5323843
  21.0087897  69.9045298  38.8453189  20.6684718  69.1053111  39.2473869
  20.3026904  70.2047009  38.2730022  21.6604369  66.9894610  37.2980512
  22.4830438  66.5155088  37.1759402  21.9042433  67.7685094  37.7979198
  20.3012604  70.0182869  27.5943414  21.0220966  70.3964121  27.0907131
  19.6777908  70.7371745  27.6978392  24.4443726  70.7228018  28.5301746
  24.6607341  71.6052655  28.2290574  23.9637794  70.3314231  27.8007388
  19.1842948  73.6813731  35.1072491  19.0387529  73.9954034  35.9996772
  18.7068151  74.2998631  34.5543389  21.0439331  70.6716279  35.1553380
  21.0300899  69.7757372  34.8185678  21.7611759  70.6786943  35.7891666
  22.8965461  71.1053619  37.2006508  22.6383239  72.0270690  37.1990838
  22.3650502  70.7084054  37.8906972  27.8411650  84.2104406  29.9796593
  28.0148528  83.6450829  29.2270446  28.3340541  85.0105301  29.7976083
  13.6588610  76.2219075  38.0460152  13.1142078  76.9978883  38.1780426
  14.5367960  76.5689880  37.8879273  20.4476227  69.5530659  30.4240950
  20.5692138  68.6247305  30.6231838  20.1578269  69.5669345  29.5119266
  23.3167417  67.2385569  33.5607670  23.3389114  67.3024903  32.6059650
  23.7335476  66.3990078  33.7548176  33.6951041  76.9740829  31.5986893
  34.1382187  76.2248154  31.2006016  32.8177552  76.9650965  31.2160625
  28.8286823  83.5271171  27.0793491  29.5237727  84.1477863  27.2980806
  29.1709973  82.6766522  27.3545869  14.4454632  75.3488971  40.9390309
  13.7036368  75.4971607  41.5254939  14.1247376  75.6097237  40.0757058
  30.7278246  80.9770876  28.6080822  31.2529570  81.3158149  27.8830142
  30.6400598  80.0417891  28.4243957  22.3898295  84.8904950  40.7370699
  22.6985421  84.6454096  41.6093398  23.1873777  85.0951588  40.2489569
  22.4118907  87.0442859  32.9676075  21.9723897  86.5519238  33.6608932
  23.1627024  86.5015827  32.7268151  14.8911246  83.2354400  32.9700703
  15.7169265  82.9358172  32.5899347  14.5405298  82.4662023  33.4190492
  19.8592779  82.5880868  35.0398377  19.2372788  81.9251573  34.7400605
  20.5297646  82.6142000  34.3572025  13.0919851  81.1540727  33.9289637
  12.2551759  80.7262901  33.7473638  13.0643496  81.3473170  34.8660428
  19.9317306  71.0662656  44.6330883  19.9805462  71.9424779  44.2508653
  20.4739820  70.5240049  44.0602526  30.4172152  81.6103780  43.9132020
  29.6267696  81.5927919  43.3736520  30.1805506  82.1492073  44.6681057
  30.5370027  78.4596246  41.2264749  30.5868032  78.2946253  42.1680271
  30.4283950  77.5923505  40.8362629  19.4206286  81.1384792  28.5156838
  19.5694406  81.8220256  27.8623510  20.2272729  81.1189882  29.0306293
  27.8273789  74.4427174  42.5424055  28.7283652  74.3033639  42.2508053
  27.9021764  74.6081629  43.4822233  22.1616595  71.8194029  41.3877242
  21.2919904  72.1127595  41.1159830  22.3976075  72.4034474  42.1084505
  32.0388224  80.8793188  41.4706770  31.7473032  81.2423168  42.3070231
  31.4260355  80.1660196  41.2920102  33.2383906  78.4446067  33.9909340
  34.0730797  78.8835871  34.1546901  33.3743035  77.9684721  33.1717586
  30.2875412  76.0025802  39.9386828  30.7629534  76.1953448  39.1305680
  29.3640977  76.0584988  39.6930212  17.1758919  77.1649969  29.5217906
  16.9304961  76.2612299  29.7198117  17.3454833  77.1667120  28.5797384
  24.8655628  68.0373646  38.9042662  25.3837572  68.7734673  38.5789151
  24.5110761  68.3437639  39.7389421  16.4454566  72.8978327  27.0204068
  15.7523811  72.9722682  26.3644104  16.2006318  72.1338671  27.5425585
  25.1168223  64.4573928  34.4243559  25.3969976  63.7897117  35.0503985
  25.9018830  64.6503024  33.9118223  22.9201691  83.6332922  25.9868585
  22.3475658  84.2523109  25.5339057  23.4934485  84.1832284  26.5208507
  28.9877081  72.8791562  38.1715134  29.9394504  72.9789660  38.1927358
  28.8180531  72.0869831  38.6813218  27.0091460  69.9647145  38.3574535
  26.4141393  70.2452158  37.6621023  26.7241157  70.4541046  39.1291276
  26.1398951  83.9170072  27.1177167  27.0729624  83.8515634  27.3210043
  26.0522164  84.7526339  26.6591700  28.7686968  83.2335943  24.0781115
  28.6900599  82.8995806  24.9716873  29.5896634  83.7257711  24.0772587
  31.4665159  76.0997682  37.2857433  31.4341479  75.1613683  37.4717117
  32.0765782  76.1781719  36.5523258  23.3048490  74.9693735  23.3284638
  24.2507594  74.8399943  23.3973056  22.9262735  74.2308397  23.8054066
  31.6159647  72.8908725  37.3315717  31.0998696  72.1067182  37.1445646
  32.4999596  72.5627442  37.4962236  29.2770374  66.6349741  33.2911529
  29.0795195  66.3264829  34.1754861  29.8870080  67.3611380  33.4209459
  37.2841709  77.1613689  36.4263470  38.0145097  76.8998977  36.9871174
  36.6748654  76.4242411  36.4665538  35.3657006  75.3021551  37.0237921
  34.6390169  75.1677516  36.4154413  34.9504293  75.6098380  37.8294640
  23.1887182  79.0211481  44.7885294  24.1090192  79.1990080  44.9825341
  23.1536765  78.0767526  44.6364994  21.4891407  72.8943711  23.2639523
  20.5822862  72.5976824  23.3402236  21.7667388  72.5973529  22.3973809
  12.4069347  74.2150075  33.7138569  12.0872132  73.3615383  33.4212943
  11.8602775  74.4298653  34.4696536  16.1849255  76.9312516  37.4308076
  16.4035265  77.8629624  37.4496109  16.5975029  76.5720490  38.2162879
  23.1053473  67.4380601  29.4183764  22.2954201  67.0927686  29.7939010
  23.7937889  67.1288145  30.0071376  25.0344021  66.5158648  31.0408061
  25.5875059  66.9354101  31.6998084  25.2714107  65.5894396  31.0831017
  21.0577120  72.5045721  46.8210825  20.9573847  73.4540078  46.7522916
  20.8398662  72.1763960  45.9486895  20.2590191  69.7530647  23.4051502
  21.1209355  70.0785545  23.6647319  20.4440536  68.9662142  22.8924568
  12.2757607  77.8352986  35.6831691  11.5821079  77.4206939  35.1701645
  13.0230598  77.8773523  35.0865110  28.4122828  68.6259173  30.5486725
  27.8321497  69.2843977  30.1664777  28.1458761  67.8036518  30.1374142
  26.8626394  68.0264231  32.7508045  27.3626173  68.1380765  31.9422364
  27.5062002  67.7225284  33.3908854  20.9208390  75.9342860  45.6375886
  20.4375472  76.7343220  45.8439775  21.0069329  75.9450805  44.6843330
  14.1894350  77.7671240  33.5597706  14.1665038  77.8658927  32.6079589
  14.4994986  78.6136391  33.8814872  16.8481728  79.8247395  37.6744320
  17.8024981  79.7931337  37.6074252  16.6494251  79.3638019  38.4894546
  17.4381110  78.3948511  40.2415118  18.2573999  78.8892590  40.2649955
  17.7117917  77.4780479  40.2132685  27.1947706  70.7859263  29.6043073
  26.3073561  71.0708914  29.3863268  27.6101695  70.6253027  28.7570350
  30.5462242  70.8105784  33.3197412  31.3222632  71.3002237  33.5922029
  29.8210376  71.2363839  33.7769282  32.9834801  71.5233404  34.3771353
  33.5779291  71.2829140  33.6664661  33.0561384  70.8040534  35.0044889
  15.2031956  85.3667015  34.6914518  15.0686424  84.6067415  34.1252516
  14.7864019  86.0907914  34.2243307  26.3390919  80.5503938  23.6991093
  27.0426770  80.7553941  24.3148749  25.6153568  81.1180700  23.9640177
  27.1688730  76.3013799  29.8193363  27.1123931  76.7582351  28.9800996
  27.7217072  75.5404484  29.6416206  30.9793536  72.0903531  30.6443483
  30.7230470  71.6900167  31.4751691  30.3546404  72.8047325  30.5193622
  35.2905873  74.8299604  33.1514774  34.7305431  74.8992794  33.9246336
  34.6849377  74.6540589  32.4314270  18.3601082  86.2636332  34.9032961
  18.2433466  87.2081764  34.8011651  17.5393529  85.9609893  35.2918760
  28.2477617  80.9886467  25.7489553  29.0823221  80.5567666  25.5667028
  28.0861960  80.8168481  26.6766448  27.9023509  77.4918581  27.1145893
  27.8472313  77.3262852  26.1734337  27.2769564  78.1994613  27.2708082
  12.6916024  72.7286645  40.9407315  13.3374888  72.2185599  41.4294540
  12.4833175  73.4655327  41.5150740  25.2169416  79.7967492  46.4399455
  26.0860576  79.9708145  46.0786090  24.7376168  80.6161909  46.3175185
  21.2119634  66.9926690  26.6931211  21.1998304  67.9368529  26.8499482
  22.1043056  66.8096835  26.3990672  19.3855596  86.9164593  38.1188889
  20.2882843  86.9488204  38.4355384  19.1592966  85.9865044  38.1335225
  21.1409198  85.6695580  34.7798968  20.1904829  85.6697442  34.6663340
  21.4441685  84.9228315  34.2635002  25.0271754  63.5869466  30.9477148
  24.2604150  63.0327953  31.0933830  25.4382459  63.6591335  31.8091299
  17.0313515  69.8754262  45.0382329  17.8944977  69.5191067  45.2485654
  16.4578926  69.5368157  45.7257733  36.8761892  91.5056118  35.8444730
  37.5140302  91.3862866  35.1408070  36.7582735  92.4536962  35.9032682
  33.6851598  91.4583546  35.7806255  33.3470110  91.3424611  34.8926790
  34.5541366  91.0574712  35.7607261  29.5438414  93.3119023  31.7703146
  28.9803279  93.2208960  31.0019433  29.4290809  92.4918927  32.2505638
  34.1671381  92.6118398  41.7392460  34.1560022  92.2171196  40.8672964
  34.3292021  91.8784471  42.3326232  27.0902846  94.8070214  34.6087366
  27.8824138  94.4661039  34.1933665  27.3299496  94.9165190  35.5289519
  35.1237973  96.9789991  27.0817611  34.4725952  97.5644071  26.6951624
  35.9182335  97.5096186  27.1412648  29.0493600  94.0679128  27.4804745
  29.8224476  93.5208115  27.3417621  29.4018999  94.9323377  27.6919206
  30.8878642  95.3955510  40.6871644  30.5968508  96.3001141  40.5718310
  31.5235627  95.4372038  41.4015714  31.8134849  92.7732359  37.2773004
  32.4098421  92.5488381  36.5629967  31.8709821  92.0317104  37.8798452
  31.3859878  90.2271794  25.1123195  31.6385398  89.7053315  24.3506658
  30.4484437  90.0637939  25.2149878  36.4303160  89.2307572  32.9197938
  37.2166250  88.8126995  32.5688355  36.6941865  90.1353664  33.0879586
  36.6013238  94.6680423  27.6186595  35.9659071  94.7415049  28.3307499
  36.2710644  95.2574021  26.9405674  41.8311588  89.1682805  33.8230917
  42.5636759  88.5982022  34.0568746  41.0750943  88.7804406  34.2637422
  31.1056166  92.1299900  27.3147570  30.9892424  91.4544803  27.9828654
  31.2158426  91.6432274  26.4979723  33.4487707  91.5910047  31.0194259
  33.0845914  91.0640668  31.7307180  34.3054823  91.2008516  30.8460744
  39.3537008  82.8804380  38.2825525  39.0220333  83.7499790  38.0586740
  38.7582621  82.5640664  38.9619556  33.0893194  86.6199947  26.0155608
  33.2567597  87.4880183  26.3826079  32.8990363  86.7827228  25.0916897
  35.8468527  95.0816926  37.6821438  35.5469250  95.9841964  37.5737245
  35.5019587  94.8149109  38.5342591  29.2981009  91.5330722  33.7158142
  28.3731505  91.4006936  33.9235834  29.5465422  92.3124942  34.2128085
  39.2465671  87.5999466  35.3618875  38.3382549  87.5314874  35.0677636
  39.1953267  88.0771411  36.1900701  33.0682415  89.0757604  27.0002274
  32.9482040  89.5214655  27.8387755  32.3735003  89.4242922  26.4415812
  26.6589820  91.1763996  34.5501931  26.7882201  91.4298475  35.4641343
  25.9787271  91.7691704  34.2306586  30.8289307 101.8461246  30.6492406
  30.7513337 102.7969071  30.7280886  30.2250951 101.5007118  31.3067332
  33.3206537  89.0189111  43.3053772  32.5439871  89.5783031  43.2956637
  33.9597100  89.5045894  43.8268643  41.1127318  85.8015904  37.1396749
  40.4701698  86.0948437  36.4936544  40.6082246  85.6868824  37.9449946
  38.7667481  89.5479077  27.8282608  39.6785337  89.7806464  27.6530306
  38.2577128  90.1316122  27.2657687  31.5752909  91.8274565  42.8671739
  32.3167594  92.3659609  42.5906563  30.8689895  92.4540853  43.0243291
  37.0508249  93.9703705  41.4643901  37.4591605  93.5286116  40.7198533
  36.3285510  93.3956333  41.7178094  33.4039319  88.9076312  38.8377458
  34.2500514  89.3315725  38.9812107  33.3437957  88.2509936  39.5316021
  37.3737064  94.5304896  35.2196190  36.7445926  94.6950610  34.5172258
  36.9862726  94.9446505  35.9907154  41.2526295  95.4659334  32.5740554
  40.5677334  95.8458235  32.0237587  41.3370145  96.0754660  33.3072501
  36.5538764  86.5680680  40.4958632  36.3099696  87.3222741  39.9592907
  36.8298695  86.9466028  41.3305879  38.5077227  93.1119293  39.1735897
  38.7194122  93.7551053  38.4970278  38.4606975  92.2781609  38.7057827
  36.1103456  85.7237113  36.0772469  35.2487935  86.0218367  36.3689207
  36.1365891  85.9407512  35.1453502  32.9265025  94.2679304  32.4846275
  33.3903371  94.5467007  31.6950897  32.6621824  93.3662748  32.3019366
  29.8189106  93.8150785  35.4226038  30.3890464  94.2438054  34.7843523
  30.4097218  93.5333370  36.1210224  31.8633911  90.3902456  29.2935840
  32.5657955  90.8423500  29.7609766  31.5314540  89.7486275  29.9215733
  30.3114273  88.9814213  43.6687049  29.6812934  89.6630494  43.9022446
  30.2050361  88.8697294  42.7240188  25.6059245  88.6486009  34.5952974
  24.8158299  88.9043537  34.1193084  26.0970493  89.4634347  34.7005014
  39.6223055  95.9891248  37.3458254  40.4440499  95.5871435  37.0640936
  39.6185458  95.8859482  38.2974370  27.5573991  89.0130588  31.5536450
  26.7605154  89.1249282  32.0719946  27.3299583  89.3517240  30.6877341
  33.3879658  95.5375291  39.5018965  33.4524091  95.9995699  40.3377137
  32.6790582  94.9072656  39.6301275  23.8896948  88.9016499  37.0267964
  24.1404987  89.7863509  37.2925540  24.4256497  88.7221101  36.2543056
  47.7129048  92.3329997  33.6943226  46.9592756  91.7637395  33.5387230
  47.8476589  92.2992661  34.6413861  33.1027676  97.2043399  29.3697945
  32.9673351  98.0494935  29.7982793  33.6437489  97.4062676  28.6063879
  29.5895016  83.2834979  46.0312301  29.1961961  82.7301177  46.7059945
  30.4061156  83.5945557  46.4218818  26.5557073  94.7218837  29.9425870
  27.0681594  95.5162087  30.0931435  27.2079786  94.0245127  29.8759472
  28.3651958  97.8384593  32.0248624  28.5418587  98.7602558  31.8369607
  29.1608792  97.5243012  32.4543003  32.5062977  84.6992858  43.6232557
  33.2472690  85.3000011  43.5437020  32.7380900  83.9570496  43.0650600
  27.6504315  89.8849225  41.9010787  27.5357830  88.9834482  42.2017886
  26.7948832  90.1312922  41.5495603  34.7296152  97.8266965  43.4998287
  34.2860007  97.0403344  43.1819192  35.3913366  98.0146116  42.8342178
  29.4883274  99.3562767  38.0258966  30.0390699  99.2279830  37.2535960
  28.6494750  99.6557656  37.6753859  36.8277391  98.1069765  41.5279689
  36.8095866  98.9278646  41.0359958  37.7497311  97.9823840  41.7529830
  33.2850445  95.6213895  42.3703197  33.8178781  94.8602183  42.1402505
  32.7564526  95.3287547  43.1127351  36.4520140  80.7273961  37.8996839
  36.1084409  81.6175602  37.8235949  36.8199102  80.5375618  37.0366424
  24.5205990  93.0507491  30.7185441  25.3581212  93.4604500  30.5019149
  24.6984258  92.1106933  30.6885635  36.4170422  90.7182572  26.4069274
  35.9017046  91.4887176  26.6457661  36.1447731  90.0447708  27.0302335
  34.0017533  85.5632273  31.4654512  33.1459130  85.1739123  31.2860151
  34.4144485  85.6424233  30.6054298  35.5316680  83.0978616  35.8646072
  35.0281476  83.0608751  35.0513877  35.8247287  84.0071359  35.9242729
  31.7759566  83.1817346  34.8712254  32.6412563  82.9860154  34.5118143
  31.8437075  82.9527697  35.7981610  41.3904697  93.4714926  28.3422447
  40.6134139  93.1326086  27.8977609  42.0696177  93.4767550  27.6677412
  36.2056726  88.5909664  28.2329055  35.9006861  88.9055813  29.0839198
  37.1587168  88.6691084  28.2756388  34.6503157  94.7499887  29.8822009
  34.1224519  94.0152647  29.5695246  34.1490660  95.5274564  29.6361977
  39.6296003  92.9448908  34.9989055  38.9719678  93.6348169  35.0869184
  40.4336403  93.3345340  35.3423042  29.3821885  85.4119554  32.2428621
  29.9565637  85.1894735  31.5101813  29.9692867  85.4808248  32.9957222
  38.4401462  91.2993280  33.0492997  38.9533344  91.9323272  33.5514707
  39.0902686  90.6994476  32.6836357  29.7091472  87.4424015  26.2624506
  28.8728784  87.7798701  26.5833781  29.5696242  87.3072994  25.3251643
  31.6844553  82.2860802  30.9703690  31.0308965  81.9709820  30.3460305
  31.6425027  81.6636543  31.6963513  32.7955758  92.5680097  22.8856982
  31.8882819  92.3369351  23.0848131  33.2926790  91.7717717  23.0730964
  35.7023836 101.2777605  25.8053668  35.0285535 101.5809301  26.4138626
  36.0889658 102.0806685  25.4559125  34.9182293  88.7742736  35.2951338
  34.0004854  88.9957683  35.1373026  35.3342437  88.8489046  34.4363045
  35.7017341  90.1734152  30.4254018  36.4489160  90.6855549  30.1161140
  35.9708930  89.8518204  31.2858411  33.9743991  92.6692692  27.4080972
  33.0655210  92.3851725  27.5053442  34.0039075  93.0891771  26.5484279
  39.2063258  96.2799282  31.1772140  38.7525586  95.4390192  31.2337330
  38.5757225  96.9160680  31.5146920  38.1496178  87.2091268  32.4072807
  37.4118935  86.6968654  32.7383050  38.4022952  86.7691649  31.5956084
  37.6496198  98.1175779  32.1121958  37.9419172  98.6780836  31.3934323
  38.1594818  98.4104340  32.8675117  38.2507805  79.9867520  33.0014576
  38.5566682  79.1264883  32.7140492  38.9760410  80.5785140  32.8013570
  24.5432161  90.3898206  31.3896174  24.3456561  89.7967567  30.6647241
  23.9878825  90.0850417  32.1072113  32.5228885  90.2821313  33.5090768
  32.5777495  89.3295149  33.4333244  31.7120087  90.4380752  33.9932066
  33.6720079  94.2101436  24.7469051  33.2339509  93.4937295  24.2874688
  34.4130520  94.4377551  24.1854142  30.4621245  88.8998373  31.2681146
  29.6489111  89.1992543  31.6746339  30.9580239  88.5054061  31.9855629
  32.6129823  98.8956130  33.2015411  32.5706002  99.1216976  32.2723943
  33.5292522  98.6619504  33.3501212  36.0595457  89.3640197  40.0996040
  36.4144844  89.5911670  40.9590506  36.7067588  89.6958574  39.4773296
  41.7893194  92.4858633  30.8045369  41.6511092  92.6760229  29.8766559
  41.4329412  93.2478016  31.2613420  29.9535320  86.4716728  36.8842381
  30.5934699  86.3305487  36.1865345  29.1212850  86.1851242  36.5080983
  41.8162573  94.5535160  35.8156641  42.2499080  94.4610449  36.6639695
  42.5294154  94.5292661  35.1776657  30.7295624  95.7719159  32.9977374
  31.5236222  95.2769479  32.7959949  30.0187316  95.2437022  32.6345079
  35.5490468  98.1537254  37.3489741  35.6027490  98.7228190  38.1167457
  34.6805249  98.3239139  36.9843779  27.0378387  89.9162240  29.0737126
  26.1075975  89.8546696  29.2907089  27.1335859  89.3938193  28.2773768
  26.9563936  86.4417053  31.6615368  27.2170753  87.3562386  31.5524529
  27.7781108  85.9741496  31.8111981  28.4288861  87.8554810  38.8314193
  29.1011915  87.6472173  38.1826842  27.6018648  87.6576896  38.3919425
  42.6778123  94.5958861  38.3489526  42.8714013  95.5004671  38.5948801
  42.5778741  94.1366280  39.1828111  34.3314434  84.4816751  40.8479854
  33.6842349  85.1806701  40.7544330  35.1015449  84.9152895  41.2156102
  37.7393231  94.7465603  43.9230407  37.5878738  94.5176155  43.0060491
  37.7297911  95.7036205  43.9361752  34.5078568  92.3197516  38.9076673
  35.4370628  92.4708676  38.7345641  34.0869598  92.4081537  38.0525320
  33.3066900  96.3448181  36.6775211  33.1677985  95.9766965  37.5501149
  32.5181496  96.8595820  36.5059169  33.9015052 101.4457277  28.0200747
  34.0766807 100.9745320  28.8346370  33.2147840 102.0723043  28.2482008
  34.8572115  95.7229783  34.0664049  34.5221947  95.6830553  34.9621699
  34.3576060  95.0574499  33.5934459  28.8316359  91.1297413  39.5916630
  28.6936157  90.3977652  40.1928169  29.7421282  91.0406313  39.3100818
  37.7931306  93.0685818  24.3401108  37.1760477  92.3432646  24.2434161
  37.3247795  93.8295178  23.9968183  31.4598659  90.8417373  39.0800309
  32.1698278  90.2010565  39.0386928  31.4167968  91.0930268  40.0026490
  39.4485438  97.7784726  42.0006889  39.3897984  97.0943946  41.3337472
  39.8504956  98.5203716  41.5487515  30.1727593  87.8282591  40.8995949
  29.6364950  87.3773329  41.5517545  29.5844302  87.9628499  40.1566413
  28.4676137 104.5946640  34.7940608  28.7072735 105.2265164  35.4719626
  27.6245333 104.2434680  35.0805967  29.5829852  87.2871242  23.4622413
  28.7059319  87.1660043  23.0984659  30.0587605  86.4957320  23.2101301
  39.4502845  95.7424310  40.2320868  38.5629624  95.4050232  40.3547267
  40.0201396  95.0107341  40.4689634  21.1031992  92.0748402  33.5563920
  21.7903032  91.7610132  32.9684935  20.9480121  92.9789766  33.2831171
  25.9066715  86.9638598  37.9848943  25.8224903  86.3564268  37.2499353
  25.0849421  87.4547617  37.9858440  32.9803999 100.4025762  37.1982112
  32.9074170 101.2080734  37.7101416  32.5381392 100.6017728  36.3730133
  32.7693778  99.6397532  30.7084933  31.9861300 100.1819213  30.8023158
  33.4686524 100.1571512  31.1079174  36.0790428  85.4492162  33.3519138
  36.5759128  84.6962124  33.0320209  35.3077410  85.4856478  32.7862348
  43.9320186  91.1532527  34.9937430  43.9210062  92.0357243  34.6231363
  43.0637565  90.8004078  34.7991967  35.4402682 100.3012596  39.3540270
  36.1530654 100.9360061  39.2816172  34.9492711 100.3976462  38.5380272
  37.1620209  94.2063849  30.9257562  36.2276488  94.3265311  30.7562266
  37.3396878  93.3036316  30.6617572  32.6625397  87.5909545  33.0790823
  32.2923185  87.0380585  33.7671729  33.1584490  86.9867678  32.5265823
  40.5492761  90.0481168  31.4607596  41.0153213  90.8809160  31.3867899
  41.0000261  89.5826150  32.1652855  30.4914596  98.0507040  40.1745841
  31.1924055  98.6843523  40.3275235  30.0209711  98.3921771  39.4141480
  38.6168992  96.3924990  28.4593748  38.8928836  96.2781584  29.3687622
  37.7473490  95.9942474  28.4205921  38.5209423  82.4161755  35.4998497
  37.6072503  82.6465982  35.6680704  38.9502525  82.5000199  36.3512530
  38.2915882  90.6051647  37.9998391  37.6387332  90.8527555  37.3450844
  38.6696262  89.7915785  37.6660869  35.2523056 100.6411340  32.1026562
  35.4345450  99.8232996  32.5654314  36.0756042 100.8579033  31.6651452
  35.5865221  99.5679526  29.3641610  36.1152988  99.0571980  28.7511772
  35.8493441  99.2522056  30.2287143  34.3403455  91.3471458  44.4864428
  33.6644092  91.2465588  45.1566804  35.1631089  91.1910672  44.9500426
  26.0882314  97.5843395  37.1076944  26.6735751  96.8387083  37.2404848
  25.8907152  97.8947352  37.9913608  28.9420969 100.6194642  32.1239386
  28.2731344 101.1040770  31.6403426  28.8033839 100.8663863  33.0382765
  20.6799969  90.1548995  35.8281387  20.7184068  89.6212586  36.6218505
  20.1740261  89.6284201  35.2092364  33.0826238 102.6538386  38.7222044
  33.6344546 102.8170007  39.4871130  33.4232431 103.2442824  38.0502069
  28.0590731  85.0013536  39.3243929  28.1232057  85.8628366  38.9121327
  27.9957851  84.3887537  38.5916288  27.5343003  87.0736668  42.9716963
  28.1615042  86.6913745  43.5854488  26.6770922  86.8550870  43.3372656
  37.9337112  97.4799643  44.5770699  38.4777016  98.0929602  44.0825654
  37.3523957  98.0379222  45.0937712  24.3108546  88.8813097  28.9035318
  24.6061987  87.9723776  28.8502372  23.4096582  88.8600837  28.5816321
  36.2194625 100.6020361  35.7085727  36.0945764  99.8010101  35.1996672
  36.8773716 101.0966555  35.2199697  27.8402793  86.9569094  34.8862867
  27.1189379  87.5705062  34.7470340  28.6296049  87.4926859  34.8079513
  38.2829533  98.4029381  37.3365277  37.3359869  98.2834733  37.2643603
  38.6312306  97.5151879  37.4191538  30.6429107  84.2923520  41.1603519
  31.1663509  84.5385817  41.9229828  30.4241440  85.1243555  40.7406656
  26.0396388  86.5627195  29.0274643  25.7109094  85.6824574  28.8449749
  26.3935758  86.5074864  29.9151033  35.2875967  98.1982098  33.5369629
  35.1400929  97.2698805  33.7177199  36.1129460  98.2202188  33.0526704
  29.1538211  86.8500165  29.3950121  29.4934283  87.3786086  28.6728729
  29.6010331  87.1880571  30.1708688  38.8910088  99.0210656  34.6234502
  39.8156636  98.8153518  34.4858953  38.7225392  98.7727057  35.5323843
  31.8481652  85.2337215  38.8453189  31.5078472  84.4345028  39.2473869
  31.1420658  85.5338926  38.2730022  32.4998124  82.3186528  37.2980512
  33.3224193  81.8447006  37.1759402  32.7436187  83.0977012  37.7979198
  31.1406358  85.3474786  27.5943414  31.8614721  85.7256039  27.0907131
  30.5171662  86.0663663  27.6978392  35.2837481  86.0519935  28.5301746
  35.5001095  86.9344573  28.2290574  34.8031548  85.6606149  27.8007388
  30.0236702  89.0105648  35.1072491  29.8781283  89.3245952  35.9996772
  29.5461906  89.6290549  34.5543389  31.8833085  86.0008196  35.1553380
  31.8694654  85.1049290  34.8185678  32.6005513  86.0078860  35.7891666
  33.7359216  86.4345537  37.2006508  33.4776994  87.3562607  37.1990838
  33.2044256  86.0375971  37.8906972  38.6805405  99.5396324  29.9796593
  38.8542282  98.9742746  29.2270446  39.1734296 100.3397219  29.7976083
  24.4982364  91.5510993  38.0460152  23.9535833  92.3270801  38.1780426
  25.3761714  91.8981797  37.8879273  31.2869981  84.8822577  30.4240950
  31.4085892  83.9539223  30.6231838  30.9972024  84.8961263  29.5119266
  34.1561172  82.5677487  33.5607670  34.1782868  82.6316820  32.6059650
  34.5729231  81.7281996  33.7548176  44.5344796  92.3032747  31.5986893
  44.9775942  91.5540072  31.2006016  43.6571306  92.2942883  31.2160625
  39.6680577  98.8563088  27.0793491  40.3631482  99.4769781  27.2980806
  40.0103727  98.0058439  27.3545869  25.2848386  90.6780889  40.9390309
  24.5430122  90.8263524  41.5254939  24.9641131  90.9389155  40.0757058
  41.5672000  96.3062794  28.6080822  42.0923324  96.6450066  27.8830142
  41.4794353  95.3709809  28.4243957  33.2292049 100.2196867  40.7370699
  33.5379175  99.9746014  41.6093398  34.0267531 100.4243506  40.2489569
  33.2512661 102.3734777  32.9676075  32.8117651 101.8811156  33.6608932
  34.0020778 101.8307745  32.7268151  25.7305000  98.5646318  32.9700703
  26.5563020  98.2650090  32.5899347  25.3799052  97.7953940  33.4190492
  30.6986533  97.9172786  35.0398377  30.0766542  97.2543491  34.7400605
  31.3691400  97.9433918  34.3572025  23.9313605  96.4832644  33.9289637
  23.0945513  96.0554819  33.7473638  23.9037251  96.6765088  34.8660428
  30.7711061  86.3954574  44.6330883  30.8199216  87.2716697  44.2508653
  31.3133575  85.8531967  44.0602526  41.2565906  96.9395697  43.9132020
  40.4661450  96.9219836  43.3736520  41.0199261  97.4783991  44.6681057
  41.3763781  93.7888164  41.2264749  41.4261786  93.6238171  42.1680271
  41.2677705  92.9215423  40.8362629  30.2600040  96.4676709  28.5156838
  30.4088160  97.1512174  27.8623510  31.0666484  96.4481799  29.0306293
  38.6667544  89.7719092  42.5424055  39.5677407  89.6325557  42.2508053
  38.7415518  89.9373547  43.4822233  33.0010349  87.1485947  41.3877242
  32.1313659  87.4419513  41.1159830  33.2369829  87.7326392  42.1084505
  42.8781978  96.2085105  41.4706770  42.5866787  96.5715086  42.3070231
  42.2654110  95.4952114  41.2920102  44.0777661  93.7737985  33.9909340
  44.9124552  94.2127789  34.1546901  44.2136789  93.2976638  33.1717586
  41.1269166  91.3317720  39.9386828  41.6023288  91.5245366  39.1305680
  40.2034732  91.3876906  39.6930212  28.0152673  92.4941887  29.5217906
  27.7698715  91.5904217  29.7198117  28.1848588  92.4959037  28.5797384
  35.7049383  83.3665563  38.9042662  36.2231327  84.1026590  38.5789151
  35.3504516  83.6729557  39.7389421  27.2848321  88.2270245  27.0204068
  26.5917566  88.3014600  26.3644104  27.0400073  87.4630588  27.5425585
  35.9561977  79.7865846  34.4243559  36.2363731  79.1189035  35.0503985
  36.7412584  79.9794942  33.9118223  33.7595446  98.9624840  25.9868585
  33.1869413  99.5815027  25.5339057  34.3328239  99.5124202  26.5208507
  39.8270835  88.2083480  38.1715134  40.7788258  88.3081578  38.1927358
  39.6574286  87.4161749  38.6813218  37.8485215  85.2939063  38.3574535
  37.2535147  85.5744076  37.6621023  37.5634912  85.7832964  39.1291276
  36.9792705  99.2461990  27.1177167  37.9123379  99.1807552  27.3210043
  36.8915918 100.0818257  26.6591700  39.6080722  98.5627860  24.0781115
  39.5294354  98.2287724  24.9716873  40.4290389  99.0549628  24.0772587
  42.3058913  91.4289600  37.2857433  42.2735233  90.4905600  37.4717117
  42.9159537  91.5073636  36.5523258  34.1442244  90.2985653  23.3284638
  35.0901349  90.1691861  23.3973056  33.7656489  89.5600315  23.8054066
  42.4553402  88.2200643  37.3315717  41.9392450  87.4359100  37.1445646
  43.3393350  87.8919360  37.4962236  40.1164129  81.9641659  33.2911529
  39.9188950  81.6556747  34.1754861  40.7263834  82.6903298  33.4209459
  48.1235463  92.4905606  36.4263470  48.8538852  92.2290895  36.9871174
  47.5142409  91.7534328  36.4665538  46.2050760  90.6313469  37.0237921
  45.4783924  90.4969434  36.4154413  45.7898047  90.9390298  37.8294640
  34.0280937  94.3503399  44.7885294  34.9483946  94.5281998  44.9825341
  33.9930520  93.4059444  44.6364994  32.3285161  88.2235629  23.2639523
  31.4216617  87.9268742  23.3402236  32.6061142  87.9265447  22.3973809
  23.2463102  89.5441992  33.7138569  22.9265886  88.6907301  33.4212943
  22.6996530  89.7590571  34.4696536  27.0243009  92.2604433  37.4308076
  27.2429019  93.1921541  37.4496109  27.4368783  91.9012408  38.2162879
  33.9447227  82.7672519  29.4183764  33.1347955  82.4219604  29.7939010
  34.6331644  82.4580062  30.0071376  35.8737775  81.8450566  31.0408061
  36.4268814  82.2646019  31.6998084  36.1107862  80.9186314  31.0831017
  31.8970875  87.8337639  46.8210825  31.7967601  88.7831996  46.7522916
  31.6792417  87.5055878  45.9486895  31.0983946  85.0822564  23.4051502
  31.9603110  85.4077463  23.6647319  31.2834290  84.2954060  22.8924568
  23.1151362  93.1644904  35.6831691  22.4214833  92.7498857  35.1701645
  23.8624353  93.2065440  35.0865110  39.2516582  83.9551091  30.5486725
  38.6715251  84.6135895  30.1664777  38.9852515  83.1328435  30.1374142
  37.7020149  83.3556148  32.7508045  38.2019927  83.4672683  31.9422364
  38.3455757  83.0517201  33.3908854  31.7602145  91.2634778  45.6375886
  31.2769226  92.0635138  45.8439775  31.8463084  91.2742723  44.6843330
  25.0288104  93.0963158  33.5597706  25.0058792  93.1950845  32.6079589
  25.3388741  93.9428308  33.8814872  27.6875482  95.1539313  37.6744320
  28.6418736  95.1223255  37.6074252  27.4888006  94.6929936  38.4894546
  28.2774864  93.7240429  40.2415118  29.0967753  94.2184507  40.2649955
  28.5511672  92.8072397  40.2132685  38.0341460  86.1151181  29.6043073
  37.1467315  86.4000832  29.3863268  38.4495449  85.9544944  28.7570350
  41.3855997  86.1397702  33.3197412  42.1616387  86.6294154  33.5922029
  40.6604131  86.5655756  33.7769282  43.8228555  86.8525321  34.3771353
  44.4173046  86.6121057  33.6664661  43.8955139  86.1332452  35.0044889
  26.0425711 100.6958932  34.6914518  25.9080179  99.9359333  34.1252516
  25.6257773 101.4199832  34.2243307  37.1784674  95.8795856  23.6991093
  37.8820524  96.0845858  24.3148749  36.4547323  96.4472618  23.9640177
  38.0082484  91.6305717  29.8193363  37.9517686  92.0874268  28.9800996
  38.5610827  90.8696402  29.6416206  41.8187290  87.4195449  30.6443483
  41.5624224  87.0192085  31.4751691  41.1940158  88.1339243  30.5193622
  46.1299628  90.1591522  33.1514774  45.5699186  90.2284711  33.9246336
  45.5243131  89.9832507  32.4314270  29.1994837 101.5928249  34.9032961
  29.0827221 102.5373682  34.8011651  28.3787283 101.2901811  35.2918760
  39.0871371  96.3178385  25.7489553  39.9216975  95.8859583  25.5667028
  38.9255714  96.1460399  26.6766448  38.7417263  92.8210498  27.1145893
  38.6866067  92.6554770  26.1734337  38.1163319  93.5286531  27.2708082
  23.5309778  88.0578563  40.9407315  24.1768642  87.5477517  41.4294540
  23.3226930  88.7947244  41.5150740  36.0563171  95.1259410  46.4399455
  36.9254330  95.3000062  46.0786090  35.5769922  95.9453827  46.3175185
  32.0513389  82.3218607  26.6931211  32.0392059  83.2660447  26.8499482
  32.9436811  82.1388753  26.3990672  30.2249351 102.2456511  38.1188889
  31.1276598 102.2780121  38.4355384  29.9986721 101.3156962  38.1335225
  31.9802953 100.9987498  34.7798968  31.0298584 100.9989359  34.6663340
  32.2835439 100.2520232  34.2635002  35.8665508  78.9161384  30.9477148
  35.0997904  78.3619871  31.0933830  36.2776213  78.9883253  31.8091299
  27.8707269  85.2046180  45.0382329  28.7338731  84.8482985  45.2485654
  27.2972680  84.8660075  45.7257733  47.7155646 106.8348036  35.8444730
  48.3534056 106.7154783  35.1408070  47.5976489 107.7828880  35.9032682
  44.5245353 106.7875464  35.7806255  44.1863864 106.6716529  34.8926790
  45.3935121 106.3866629  35.7607261  40.3832168 108.6410941  31.7703146
  39.8197033 108.5500878  31.0019433  40.2684563 107.8210845  32.2505638
  45.0065136 107.9410316  41.7392460  44.9953776 107.5463114  40.8672964
  45.1685775 107.2076388  42.3326232  37.9296600 110.1362132  34.6087366
  38.7217892 109.7952957  34.1933665  38.1693250 110.2457107  35.5289519
  45.9631727 112.3081908  27.0817611  45.3119707 112.8935989  26.6951624
  46.7576090 112.8388103  27.1412648  39.8887354 109.3971045  27.4804745
  40.6618230 108.8500033  27.3417621  40.2412753 110.2615295  27.6919206
  41.7272397 110.7247428  40.6871644  41.4362263 111.6293059  40.5718310
  42.3629381 110.7663955  41.4015714  42.6528604 108.1024276  37.2773004
  43.2492176 107.8780299  36.5629967  42.7103575 107.3609022  37.8798452
  42.2253632 105.5563712  25.1123195  42.4779153 105.0345233  24.3506658
  41.2878191 105.3929857  25.2149878  47.2696915 104.5599490  32.9197938
  48.0560004 104.1418913  32.5688355  47.5335619 105.4645582  33.0879586
  47.4406992 109.9972340  27.6186595  46.8052825 110.0706967  28.3307499
  47.1104399 110.5865939  26.9405674  52.6705342 104.4974723  33.8230917
  53.4030514 103.9273940  34.0568746  51.9144698 104.1096324  34.2637422
  41.9449921 107.4591817  27.3147570  41.8286179 106.7836721  27.9828654
  42.0552181 106.9724191  26.4979723  44.2881462 106.9201965  31.0194259
  43.9239669 106.3932586  31.7307180  45.1448578 106.5300434  30.8460744
  50.1930762  98.2096297  38.2825525  49.8614087  99.0791708  38.0586740
  49.5976376  97.8932581  38.9619556  43.9286949 101.9491864  26.0155608
  44.0961351 102.8172101  26.3826079  43.7384118 102.1119146  25.0916897
  46.6862282 110.4108843  37.6821438  46.3863005 111.3133882  37.5737245
  46.3413341 110.1441026  38.5342591  40.1374763 106.8622640  33.7158142
  39.2125260 106.7298854  33.9235834  40.3859177 107.6416859  34.2128085
  50.0859426 102.9291383  35.3618875  49.1776303 102.8606792  35.0677636
  50.0347021 103.4063328  36.1900701  43.9076170 104.4049522  27.0002274
  43.7875795 104.8506573  27.8387755  43.2128758 104.7534839  26.4415812
  37.4983574 106.5055914  34.5501931  37.6275956 106.7590393  35.4641343
  36.8181026 107.0983622  34.2306586  41.6683062 117.1753164  30.6492406
  41.5907091 118.1260989  30.7280886  41.0644705 116.8299036  31.3067332
  44.1600291 104.3481029  43.3053772  43.3833626 104.9074949  43.2956637
  44.7990854 104.8337812  43.8268643  51.9521072 101.1307822  37.1396749
  51.3095452 101.4240355  36.4936544  51.4476001 101.0160742  37.9449946
  49.6061236 104.8770995  27.8282608  50.5179092 105.1098382  27.6530306
  49.0970883 105.4608039  27.2657687  42.4146664 107.1566482  42.8671739
  43.1561348 107.6951526  42.5906563  41.7083649 107.7832771  43.0243291
  47.8902003 109.2995623  41.4643901  48.2985359 108.8578033  40.7198533
  47.1679265 108.7248250  41.7178094  44.2433073 104.2368230  38.8377458
  45.0894269 104.6607643  38.9812107  44.1831711 103.5801854  39.5316021
  48.2130818 109.8596813  35.2196190  47.5839680 110.0242528  34.5172258
  47.8256480 110.2738423  35.9907154  52.0920050 110.7951251  32.5740554
  51.4071088 111.1750153  32.0237587  52.1763899 111.4046578  33.3072501
  47.3932519 101.8972598  40.4958632  47.1493451 102.6514658  39.9592907
  47.6692449 102.2757946  41.3305879  49.3470982 108.4411210  39.1735897
  49.5587877 109.0842970  38.4970278  49.3000730 107.6073527  38.7057827
  46.9497210 101.0529031  36.0772469  46.0881690 101.3510285  36.3689207
  46.9759645 101.2699430  35.1453502  43.7658780 109.5971222  32.4846275
  44.2297125 109.8758925  31.6950897  43.5015578 108.6954666  32.3019366
  40.6582861 109.1442703  35.4226038  41.2284218 109.5729971  34.7843523
  41.2490973 108.8625288  36.1210224  42.7027666 105.7194374  29.2935840
  43.4051709 106.1715418  29.7609766  42.3708294 105.0778193  29.9215733
  41.1508027 104.3106131  43.6687049  40.5206688 104.9922411  43.9022446
  41.0444115 104.1989212  42.7240188  36.4453000 103.9777927  34.5952974
  35.6552054 104.2335455  34.1193084  36.9364247 104.7926264  34.7005014
  50.4616809 111.3183166  37.3458254  51.2834253 110.9163353  37.0640936
  50.4579212 111.2151400  38.2974370  38.3967745 104.3422506  31.5536450
  37.5998909 104.4541200  32.0719946  38.1693338 104.6809158  30.6877341
  44.2273413 110.8667209  39.5018965  44.2917845 111.3287616  40.3377137
  43.5184337 110.2364574  39.6301275  34.7290703 104.2308417  37.0267964
  34.9798741 105.1155427  37.2925540  35.2650251 104.0513019  36.2543056
  58.5522803 107.6621914  33.6943226  57.7986511 107.0929312  33.5387230
  58.6870344 107.6284579  34.6413861  43.9421431 112.5335317  29.3697945
  43.8067105 113.3786852  29.7982793  44.4831243 112.7354594  28.6063879
  40.4288770  98.6126896  46.0312301  40.0355716  98.0593095  46.7059945
  41.2454911  98.9237475  46.4218818  37.3950828 110.0510755  29.9425870
  37.9075349 110.8454005  30.0931435  38.0473541 109.3537045  29.8759472
  39.2045713 113.1676511  32.0248624  39.3812341 114.0894476  31.8369607
  40.0002546 112.8534930  32.4543003  43.3456731 100.0284775  43.6232557
  44.0866445 100.6291929  43.5437020  43.5774654  99.2862413  43.0650600
  38.4898069 105.2141143  41.9010787  38.3751584 104.3126400  42.2017886
  37.6342587 105.4604839  41.5495603  45.5689907 113.1558883  43.4998287
  45.1253761 112.3695262  43.1819192  46.2307121 113.3438034  42.8342178
  40.3277028 114.6854685  38.0258966  40.8784453 114.5571748  37.2535960
  39.4888504 114.9849574  37.6753859  47.6671145 113.4361683  41.5279689
  47.6489620 114.2570564  41.0359958  48.5891065 113.3115758  41.7529830
  44.1244199 110.9505812  42.3703197  44.6572536 110.1894101  42.1402505
  43.5958280 110.6579464  43.1127351  47.2913894  96.0565878  37.8996839
  46.9478164  96.9467520  37.8235949  47.6592857  95.8667536  37.0366424
  35.3599745 108.3799409  30.7185441  36.1974967 108.7896417  30.5019149
  35.5378012 107.4398851  30.6885635  47.2564177 106.0474489  26.4069274
  46.7410800 106.8179094  26.6457661  46.9841485 105.3739626  27.0302335
  44.8411288 100.8924190  31.4654512  43.9852884 100.5031041  31.2860151
  45.2538240 100.9716151  30.6054298  46.3710435  98.4270534  35.8646072
  45.8675230  98.3900669  35.0513877  46.6641041  99.3363276  35.9242729
  42.6153320  98.5109263  34.8712254  43.4806317  98.3152072  34.5118143
  42.6830829  98.2819615  35.7981610  52.2298451 108.8006844  28.3422447
  51.4527894 108.4618004  27.8977609  52.9089932 108.8059467  27.6677412
  47.0450480 103.9201582  28.2329055  46.7400616 104.2347731  29.0839198
  47.9980922 103.9983001  28.2756388  45.4896912 110.0791805  29.8822009
  44.9618273 109.3444564  29.5695246  44.9884415 110.8566481  29.6361977
  50.4689758 108.2740825  34.9989055  49.8113432 108.9640087  35.0869184
  51.2730157 108.6637257  35.3423042  40.2215640 100.7411471  32.2428621
  40.7959391 100.5186653  31.5101813  40.8086622 100.8100166  32.9957222
  49.2795217 106.6285198  33.0492997  49.7927098 107.2615190  33.5514707
  49.9296441 106.0286394  32.6836357  40.5485227 102.7715932  26.2624506
  39.7122539 103.1090619  26.5833781  40.4089996 102.6364912  25.3251643
  42.5238307  97.6152720  30.9703690  41.8702720  97.3001737  30.3460305
  42.4818781  96.9928461  31.6963513  43.6349512 107.8972015  22.8856982
  42.7276574 107.6661269  23.0848131  44.1320544 107.1009634  23.0730964
  46.5417591 116.6069522  25.8053668  45.8679290 116.9101219  26.4138626
  46.9283413 117.4098603  25.4559125  45.7576048 104.1034654  35.2951338
  44.8398609 104.3249601  35.1373026  46.1736191 104.1780964  34.4363045
  46.5411095 105.5026069  30.4254018  47.2882914 106.0147467  30.1161140
  46.8102685 105.1810122  31.2858411  44.8137746 107.9984610  27.4080972
  43.9048965 107.7143643  27.5053442  44.8432829 108.4183689  26.5484279
  50.0457013 111.6091200  31.1772140  49.5919340 110.7682109  31.2337330
  49.4150980 112.2452598  31.5146920  48.9889932 102.5383186  32.4072807
  48.2512689 102.0260572  32.7383050  49.2416706 102.0983567  31.5956084
  48.4889952 113.4467696  32.1121958  48.7812927 114.0072753  31.3934323
  48.9988573 113.7396257  32.8675117  49.0901560  95.3159438  33.0014576
  49.3960437  94.4556801  32.7140492  49.8154165  95.9077058  32.8013570
  35.3825916 105.7190124  31.3896174  35.1850316 105.1259485  30.6647241
  34.8272580 105.4142334  32.1072113  43.3622640 105.6113231  33.5090768
  43.4171249 104.6587067  33.4333244  42.5513842 105.7672670  33.9932066
  44.5113833 109.5393354  24.7469051  44.0733263 108.8229213  24.2874688
  45.2524274 109.7669469  24.1854142  41.3014999 104.2290290  31.2681146
  40.4882865 104.5284461  31.6746339  41.7973994 103.8345979  31.9855629
  43.4523577 114.2248047  33.2015411  43.4099756 114.4508894  32.2723943
  44.3686276 113.9911422  33.3501212  46.8989211 104.6932115  40.0996040
  47.2538599 104.9203588  40.9590506  47.5461342 105.0250492  39.4773296
  52.6286948 107.8150551  30.8045369  52.4904847 108.0052147  29.8766559
  52.2723167 108.5769934  31.2613420  40.7929074 101.8008646  36.8842381
  41.4328454 101.6597405  36.1865345  39.9606605 101.5143159  36.5080983
  52.6556328 109.8827078  35.8156641  53.0892834 109.7902367  36.6639695
  53.3687908 109.8584578  35.1776657  41.5689378 111.1011076  32.9977374
  42.3629977 110.6061396  32.7959949  40.8581071 110.5728939  32.6345079
  46.3884223 113.4829172  37.3489741  46.4421245 114.0520108  38.1167457
  45.5199004 113.6531057  36.9843779  37.8772142 105.2454158  29.0737126
  36.9469730 105.1838614  29.2907089  37.9729614 104.7230111  28.2773768
  37.7957691 101.7708971  31.6615368  38.0564508 102.6854304  31.5524529
  38.6174863 101.3033413  31.8111981  39.2682616 103.1846728  38.8314193
  39.9405669 102.9764090  38.1826842  38.4412403 102.9868814  38.3919425
  53.5171877 109.9250778  38.3489526  53.7107767 110.8296589  38.5948801
  53.4172495 109.4658197  39.1828111  45.1708188  99.8108669  40.8479854
  44.5236103 100.5098619  40.7544330  45.9409203 100.2444813  41.2156102
  48.5786986 110.0757521  43.9230407  48.4272492 109.8468073  43.0060491
  48.5691665 111.0328123  43.9361752  45.3472322 107.6489434  38.9076673
  46.2764382 107.8000594  38.7345641  44.9263352 107.7373455  38.0525320
  44.1460654 111.6740098  36.6775211  44.0071740 111.3058883  37.5501149
  43.3575250 112.1887738  36.5059169  44.7408806 116.7749195  28.0200747
  44.9160562 116.3037238  28.8346370  44.0541594 117.4014961  28.2482008
  45.6965869 111.0521701  34.0664049  45.3615702 111.0122471  34.9621699
  45.1969815 110.3866417  33.5934459  39.6710113 106.4589331  39.5916630
  39.5329911 105.7269570  40.1928169  40.5815037 106.3698231  39.3100818
  48.6325061 108.3977735  24.3401108  48.0154232 107.6724564  24.2434161
  48.1641549 109.1587096  23.9968183  42.2992414 106.1709290  39.0800309
  43.0092032 105.5302483  39.0386928  42.2561722 106.4222185  40.0026490
  50.2879193 113.1076644  42.0006889  50.2291739 112.4235864  41.3337472
  50.6898711 113.8495634  41.5487515  41.0121348 103.1574508  40.8995949
  40.4758705 102.7065247  41.5517545  40.4238056 103.2920417  40.1566413
  40.4223607 102.6163160  23.4622413  39.5453073 102.4951960  23.0984659
  40.8981360 101.8249238  23.2101301  50.2896600 111.0716228  40.2320868
  49.4023379 110.7342149  40.3547267  50.8595151 110.3399259  40.4689634
  31.9425747 107.4040319  33.5563920  32.6296787 107.0902049  32.9684935
  31.7873876 108.3081684  33.2831171  36.7460469 102.2930516  37.9848943
  36.6618658 101.6856186  37.2499353  35.9243176 102.7839534  37.9858440
  43.8197753 115.7317680  37.1982112  43.7467925 116.5372651  37.7101416
  43.3775146 115.9309646  36.3730133  43.6087533 114.9689450  30.7084933
  42.8255055 115.5111130  30.8023158  44.3080278 115.4863430  31.1079174
  46.9184183 100.7784079  33.3519138  47.4152883 100.0254042  33.0320209
  46.1471164 100.8148396  32.7862348  54.7713940 106.4824445  34.9937430
  54.7603817 107.3649160  34.6231363  53.9031320 106.1295996  34.7991967
  46.2796437 115.6304514  39.3540270  46.9924409 116.2651979  39.2816172
  45.7886465 115.7268380  38.5380272  48.0013964 109.5355767  30.9257562
  47.0670242 109.6557229  30.7562266  48.1790632 108.6328233  30.6617572
  43.5019152 102.9201462  33.0790823  43.1316939 102.3672503  33.7671729
  43.9978244 102.3159596  32.5265823  51.3886515 105.3773086  31.4607596
  51.8546967 106.2101078  31.3867899  51.8394016 104.9118068  32.1652855
  41.3308350 113.3798957  40.1745841  42.0317810 114.0135440  40.3275235
  40.8603465 113.7213689  39.4141480  49.4562746 111.7216907  28.4593748
  49.7322590 111.6073502  29.3687622  48.5867245 111.3234392  28.4205921
  49.3603178  97.7453673  35.4998497  48.4466258  97.9757900  35.6680704
  49.7896279  97.8292117  36.3512530  49.1309636 105.9343565  37.9998391
  48.4781087 106.1819472  37.3450844  49.5090016 105.1207703  37.6660869
  46.0916810 115.9703258  32.1026562  46.2739205 115.1524914  32.5654314
  46.9149796 116.1870950  31.6651452  46.4258976 114.8971443  29.3641610
  46.9546742 114.3863898  28.7511772  46.6887195 114.5813973  30.2287143
  45.1797209 106.6763376  44.4864428  44.5037846 106.5757505  45.1566804
  46.0024843 106.5202590  44.9500426  36.9276068 112.9135313  37.1076944
  37.5129505 112.1679000  37.2404848  36.7300907 113.2239269  37.9913608
  39.7814724 115.9486560  32.1239386  39.1125099 116.4332688  31.6403426
  39.6427593 116.1955780  33.0382765  31.5193723 105.4840913  35.8281387
  31.5577823 104.9504503  36.6218505  31.0134016 104.9576118  35.2092364
  43.9219992 117.9830303  38.7222044  44.4738300 118.1461925  39.4871130
  44.2626186 118.5734741  38.0502069  38.8984485 100.3305453  39.3243929
  38.9625812 101.1920284  38.9121327  38.8351606  99.7179455  38.5916288
  38.3736758 102.4028586  42.9716963  39.0008797 102.0205663  43.5854488
  37.5164677 102.1842788  43.3372656  48.7730866 112.8091561  44.5770699
  49.3170770 113.4221519  44.0825654  48.1917711 113.3671139  45.0937712
  35.1502301 104.2105015  28.9035318  35.4455742 103.3015693  28.8502372
  34.2490336 104.1892754  28.5816321  47.0588379 115.9312279  35.7085727
  46.9339519 115.1302019  35.1996672  47.7167471 116.4258472  35.2199697
  38.6796548 102.2861011  34.8862867  37.9583133 102.8996979  34.7470340
  39.4689803 102.8218776  34.8079513  49.1223288 113.7321299  37.3365277
  48.1753623 113.6126650  37.2643603  49.4706061 112.8443797  37.4191538
  41.4822861  99.6215438  41.1603519  42.0057263  99.8677735  41.9229828
  41.2635194 100.4535473  40.7406656  36.8790142 101.8919113  29.0274643
  36.5502848 101.0116491  28.8449749  37.2329513 101.8366781  29.9151033
  46.1269721 113.5274015  33.5369629  45.9794684 112.5990723  33.7177199
  46.9523215 113.5494106  33.0526704  39.9931965 102.1792082  29.3950121
  40.3328038 102.7078004  28.6728729  40.4404086 102.5172488  30.1708688
  49.7303843 114.3502574  34.6234502  50.6550390 114.1445435  34.4858953
  49.5619146 114.1018975  35.5323843  42.6875406 100.5629133  38.8453189
  42.3472227  99.7636946  39.2473869  41.9814413 100.8630844  38.2730022
  43.3391878  97.6478445  37.2980512  44.1617947  97.1738924  37.1759402
  43.5829942  98.4268929  37.7979198  41.9800113 100.6766704  27.5943414
  42.7008475 101.0547957  27.0907131  41.3565417 101.3955581  27.6978392
  46.1231235 101.3811853  28.5301746  46.3394850 102.2636491  28.2290574
  45.6425303 100.9898066  27.8007388  40.8630457 104.3397566  35.1072491
  40.7175038 104.6537869  35.9996772  40.3855660 104.9582466  34.5543389
  42.7226840 101.3300114  35.1553380  42.7088408 100.4341207  34.8185678
  43.4399268 101.3370778  35.7891666  44.5752970 101.7637454  37.2006508
  44.3170748 102.6854525  37.1990838  44.0438011 101.3667889  37.8906972
  49.5199159 114.8688241  29.9796593  49.6936037 114.3034664  29.2270446
  50.0128050 115.6689136  29.7976083  35.3376119 106.8802911  38.0460152
  34.7929587 107.6562718  38.1780426  36.2155469 107.2273715  37.8879273
  42.1263736 100.2114494  30.4240950  42.2479647  99.2831141  30.6231838
  41.8365778 100.2253180  29.5119266  44.9954926  97.8969405  33.5607670
  45.0176623  97.9608738  32.6059650  45.4122985  97.0573913  33.7548176
  55.3738550 107.6324664  31.5986893  55.8169696 106.8831990  31.2006016
  54.4965061 107.6234801  31.2160625  50.5074332 114.1855006  27.0793491
  51.2025236 114.8061699  27.2980806  50.8497482 113.3350357  27.3545869
  36.1242141 106.0072807  40.9390309  35.3823877 106.1555442  41.5254939
  35.8034885 106.2681072  40.0757058  52.4065755 111.6354711  28.6080822
  52.9317079 111.9741984  27.8830142  52.3188107 110.7001727  28.4243957
  44.0685803 115.5488785  40.7370699  44.3772930 115.3037932  41.6093398
  44.8661286 115.7535423  40.2489569  44.0906416 117.7026695  32.9676075
  43.6511406 117.2103073  33.6608932  44.8414532 117.1599662  32.7268151
  36.5698755 113.8938236  32.9700703  37.3956774 113.5942007  32.5899347
  36.2192807 113.1245858  33.4190492  41.5380288 113.2464704  35.0398377
  40.9160297 112.5835409  34.7400605  42.2085155 113.2725836  34.3572025
  34.7707360 111.8124562  33.9289637  33.9339268 111.3846736  33.7473638
  34.7431005 112.0057005  34.8660428  41.6104815 101.7246492  44.6330883
  41.6592971 102.6008615  44.2508653  42.1527329 101.1823885  44.0602526
  52.0959661 112.2687615  43.9132020  51.3055205 112.2511754  43.3736520
  51.8593015 112.8075909  44.6681057  52.2157536 109.1180081  41.2264749
  52.2655541 108.9530089  42.1680271  52.1071459 108.2507340  40.8362629
  41.0993795 111.7968627  28.5156838  41.2481915 112.4804091  27.8623510
  41.9060238 111.7773717  29.0306293  49.5061298 105.1011009  42.5424055
  50.4071161 104.9617474  42.2508053  49.5809273 105.2665464  43.4822233
  43.8404104 102.4777864  41.3877242  42.9707413 102.7711430  41.1159830
  44.0763584 103.0618309  42.1084505  53.7175733 111.5377023  41.4706770
  53.4260541 111.9007003  42.3070231  53.1047864 110.8244031  41.2920102
  54.9171415 109.1029903  33.9909340  55.7518306 109.5419707  34.1546901
  55.0530544 108.6268556  33.1717586  51.9662921 106.6609638  39.9386828
  52.4417043 106.8537284  39.1305680  51.0428486 106.7168823  39.6930212
  38.8546428 107.8233805  29.5217906  38.6092470 106.9196135  29.7198117
  39.0242342 107.8250955  28.5797384  46.5443137  98.6957481  38.9042662
  47.0625081  99.4318508  38.5789151  46.1898270  99.0021474  39.7389421
  38.1242075 103.5562162  27.0204068  37.4311320 103.6306517  26.3644104
  37.8793827 102.7922506  27.5425585  46.7955732  95.1157764  34.4243559
  47.0757485  94.4480953  35.0503985  47.5806339  95.3086859  33.9118223
  44.5989200 114.2916758  25.9868585  44.0263167 114.9106945  25.5339057
  45.1721994 114.8416119  26.5208507  50.6664590 103.5375398  38.1715134
  51.6182013 103.6373495  38.1927358  50.4968040 102.7453666  38.6813218
  48.6878969 100.6230981  38.3574535  48.0928902 100.9035994  37.6621023
  48.4028666 101.1124882  39.1291276  47.8186460 114.5753908  27.1177167
  48.7517133 114.5099469  27.3210043  47.7309673 115.4110175  26.6591700
  50.4474477 113.8919778  24.0781115  50.3688108 113.5579642  24.9716873
  51.2684143 114.3841546  24.0772587  53.1452668 106.7581517  37.2857433
  53.1128988 105.8197518  37.4717117  53.7553291 106.8365554  36.5523258
  44.9835999 105.6277570  23.3284638  45.9295103 105.4983778  23.3973056
  44.6050244 104.8892232  23.8054066  53.2947156 103.5492561  37.3315717
  52.7786205 102.7651017  37.1445646  54.1787105 103.2211277  37.4962236
  50.9557883  97.2933576  33.2911529  50.7582704  96.9848665  34.1754861
  51.5657589  98.0195215  33.4209459  58.9629218 107.8197524  36.4263470
  59.6932606 107.5582812  36.9871174  58.3536163 107.0826246  36.4665538
  57.0444515 105.9605387  37.0237921  56.3177678 105.8261352  36.4154413
  56.6291802 106.2682215  37.8294640  44.8674691 109.6795316  44.7885294
  45.7877701 109.8573915  44.9825341  44.8324274 108.7351362  44.6364994
  43.1678916 103.5527547  23.2639523  42.2610371 103.2560659  23.3402236
  43.4454897 103.2557365  22.3973809  34.0856856 104.8733910  33.7138569
  33.7659641 104.0199218  33.4212943  33.5390284 105.0882488  34.4696536
  37.8636764 107.5896351  37.4308076  38.0822773 108.5213459  37.4496109
  38.2762538 107.2304325  38.2162879  44.7840982  98.0964436  29.4183764
  43.9741710  97.7511521  29.7939010  45.4725398  97.7871980  30.0071376
  46.7131530  97.1742483  31.0408061  47.2662568  97.5937937  31.6998084
  46.9501616  96.2478231  31.0831017  42.7364629 103.1629557  46.8210825
  42.6361356 104.1123914  46.7522916  42.5186171 102.8347796  45.9486895
  41.9377700 100.4114482  23.4051502  42.7996864 100.7369380  23.6647319
  42.1228045  99.6245978  22.8924568  33.9545116 108.4936822  35.6831691
  33.2608588 108.0790774  35.1701645  34.7018107 108.5357358  35.0865110
  50.0910337  99.2843008  30.5486725  49.5109006  99.9427812  30.1664777
  49.8246270  98.4620353  30.1374142  48.5413903  98.6848066  32.7508045
  49.0413682  98.7964601  31.9422364  49.1849511  98.3809119  33.3908854
  42.5995899 106.5926696  45.6375886  42.1162981 107.3927056  45.8439775
  42.6856838 106.6034641  44.6843330  35.8681859 108.4255075  33.5597706
  35.8452547 108.5242763  32.6079589  36.1782495 109.2720226  33.8814872
  38.5269237 110.4831230  37.6744320  39.4812490 110.4515173  37.6074252
  38.3281760 110.0221854  38.4894546  39.1168619 109.0532346  40.2415118
  39.9361508 109.5476425  40.2649955  39.3905426 108.1364315  40.2132685
  48.8735215 101.4443099  29.6043073  47.9861070 101.7292749  29.3863268
  49.2889204 101.2836862  28.7570350  52.2249751 101.4689620  33.3197412
  53.0010141 101.9586072  33.5922029  51.4997885 101.8947674  33.7769282
  54.6622310 102.1817239  34.3771353  55.2566800 101.9412975  33.6664661
  54.7348893 101.4624370  35.0044889  48.0178428 111.2087773  23.6991093
  48.7214278 111.4137776  24.3148749  47.2941077 111.7764535  23.9640177
  48.8476239 106.9597635  29.8193363  48.7911440 107.4166186  28.9800996
  49.4004581 106.1988319  29.6416206  52.6581045 102.7487367  30.6443483
  52.4017979 102.3484002  31.4751691  52.0333913 103.4631160  30.5193622
  56.9693382 105.4883440  33.1514774  56.4092940 105.5576629  33.9246336
  56.3636886 105.3124424  32.4314270  49.9265126 111.6470303  25.7489553
  50.7610730 111.2151501  25.5667028  49.7649469 111.4752316  26.6766448
  49.5811018 108.1502416  27.1145893  49.5259822 107.9846687  26.1734337
  48.9557073 108.8578449  27.2708082  34.3703533 103.3870480  40.9407315
  35.0162397 102.8769434  41.4294540  34.1620684 104.1239162  41.5150740
  46.8956925 110.4551328  46.4399455  47.7648085 110.6291980  46.0786090
  46.4163677 111.2745745  46.3175185  42.8907143  97.6510525  26.6931211
  42.8785813  98.5952365  26.8499482  43.7830565  97.4680670  26.3990672
  41.0643105 117.5748429  38.1188889  41.9670352 117.6072039  38.4355384
  40.8380475 116.6448880  38.1335225  42.8196707 116.3279415  34.7798968
  41.8692338 116.3281277  34.6663340  43.1229194 115.5812150  34.2635002
  46.7059263  94.2453302  30.9477148  45.9391659  93.6911788  31.0933830
  47.1169968  94.3175170  31.8091299  38.7101024 100.5338097  45.0382329
  39.5732485 100.1774902  45.2485654  38.1366435 100.1951992  45.7257733
  58.5549401 122.1639954  35.8444730  59.1927811 122.0446701  35.1408070
  58.4370244 123.1120798  35.9032682  55.3639107 122.1167382  35.7806255
  55.0257619 122.0008447  34.8926790  56.2328875 121.7158547  35.7607261
  55.8458890 123.2702234  41.7392460  55.8347531 122.8755032  40.8672964
  56.0079530 122.5368306  42.3326232  53.0647387 120.8855629  25.1123195
  53.3172907 120.3637150  24.3506658  52.1271946 120.7221775  25.2149878
  58.1090669 119.8891408  32.9197938  58.8953759 119.4710831  32.5688355
  58.3729374 120.7937500  33.0879586  63.5099096 119.8266641  33.8230917
  64.2424268 119.2565858  34.0568746  62.7538452 119.4388241  34.2637422
  55.1275216 122.2493882  31.0194259  54.7633423 121.7224503  31.7307180
  55.9842332 121.8592351  30.8460744  61.0324517 113.5388215  38.2825525
  60.7007842 114.4083626  38.0586740  60.4370130 113.2224499  38.9619556
  54.7680703 117.2783782  26.0155608  54.9355106 118.1464018  26.3826079
  54.5777872 117.4411064  25.0916897  60.9253180 118.2583301  35.3618875
  60.0170057 118.1898709  35.0677636  60.8740776 118.7355246  36.1900701
  54.7469924 119.7341439  27.0002274  54.6269549 120.1798490  27.8387755
  54.0522512 120.0826757  26.4415812  54.9994046 119.6772947  43.3053772
  54.2227380 120.2366867  43.2956637  55.6384609 120.1629730  43.8268643
  62.7914827 116.4599739  37.1396749  62.1489207 116.7532273  36.4936544
  62.2869755 116.3452660  37.9449946  60.4454990 120.2062913  27.8282608
  61.3572846 120.4390299  27.6530306  59.9364637 120.7899957  27.2657687
  55.0826828 119.5660147  38.8377458  55.9288023 119.9899561  38.9812107
  55.0225466 118.9093772  39.5316021  58.2326273 117.2264516  40.4958632
  57.9887205 117.9806576  39.9592907  58.5086204 117.6049863  41.3305879
  60.1864736 123.7703128  39.1735897  60.3981631 124.4134888  38.4970278
  60.1394484 122.9365445  38.7057827  57.7890965 116.3820949  36.0772469
  56.9275444 116.6802202  36.3689207  57.8153400 116.5991348  35.1453502
  53.5421420 121.0486292  29.2935840  54.2445464 121.5007335  29.7609766
  53.2102049 120.4070110  29.9215733  51.9901782 119.6398048  43.6687049
  51.3600443 120.3214329  43.9022446  51.8837870 119.5281130  42.7240188
  47.2846754 119.3069844  34.5952974  46.4945808 119.5627373  34.1193084
  47.7758002 120.1218182  34.7005014  49.2361500 119.6714423  31.5536450
  48.4392663 119.7833118  32.0719946  49.0087092 120.0101076  30.6877341
  69.3916557 122.9913832  33.6943226  68.6380265 122.4221230  33.5387230
  69.5264098 122.9576496  34.6413861  51.2682525 113.9418814  46.0312301
  50.8749470 113.3885013  46.7059945  52.0848665 114.2529393  46.4218818
  54.1850486 115.3576693  43.6232557  54.9260199 115.9583846  43.5437020
  54.4168409 114.6154331  43.0650600  58.1307649 111.3857796  37.8996839
  57.7871918 112.2759438  37.8235949  58.4986611 111.1959454  37.0366424
  58.0957931 121.3766407  26.4069274  57.5804555 122.1471012  26.6457661
  57.8235240 120.7031543  27.0302335  55.6805042 116.2216108  31.4654512
  54.8246639 115.8322958  31.2860151  56.0931994 116.3008069  30.6054298
  57.2104189 113.7562451  35.8646072  56.7068985 113.7192586  35.0513877
  57.5034796 114.6655194  35.9242729  53.4547075 113.8401181  34.8712254
  54.3200072 113.6443990  34.5118143  53.5224584 113.6111533  35.7981610
  63.0692205 124.1298762  28.3422447  62.2921648 123.7909921  27.8977609
  63.7483686 124.1351385  27.6677412  57.8844235 119.2493499  28.2329055
  57.5794370 119.5639648  29.0839198  58.8374677 119.3274919  28.2756388
  61.3083512 123.6032743  34.9989055  60.6507187 124.2932004  35.0869184
  62.1123912 123.9929175  35.3423042  51.0609394 116.0703389  32.2428621
  51.6353146 115.8478570  31.5101813  51.6480376 116.1392083  32.9957222
  60.1188971 121.9577116  33.0492997  60.6320853 122.5907108  33.5514707
  60.7690195 121.3578311  32.6836357  51.3878981 118.1007850  26.2624506
  50.5516293 118.4382536  26.5833781  51.2483751 117.9656830  25.3251643
  53.3632062 112.9444638  30.9703690  52.7096474 112.6293655  30.3460305
  53.3212536 112.3220378  31.6963513  56.5969802 119.4326571  35.2951338
  55.6792363 119.6541518  35.1373026  57.0129946 119.5072882  34.4363045
  57.3804850 120.8317987  30.4254018  58.1276669 121.3439384  30.1161140
  57.6496439 120.5102040  31.2858411  59.8283687 117.8675103  32.4072807
  59.0906444 117.3552489  32.7383050  60.0810461 117.4275485  31.5956084
  59.9295314 110.6451355  33.0014576  60.2354191 109.7848719  32.7140492
  60.6547919 111.2368975  32.8013570  54.2016394 120.9405148  33.5090768
  54.2565004 119.9878985  33.4333244  53.3907596 121.0964587  33.9932066
  52.1408754 119.5582208  31.2681146  51.3276619 119.8576379  31.6746339
  52.6367748 119.1637897  31.9855629  57.7382966 120.0224033  40.0996040
  58.0932353 120.2495506  40.9590506  58.3855097 120.3542409  39.4773296
  63.4680703 123.1442468  30.8045369  63.3298601 123.3344064  29.8766559
  63.1116921 123.9061851  31.2613420  51.6322829 117.1300564  36.8842381
  52.2722208 116.9889323  36.1865345  50.8000359 116.8435077  36.5080983
  63.4950082 125.2118995  35.8156641  63.9286589 125.1194285  36.6639695
  64.2081663 125.1876496  35.1776657  48.7165896 120.5746076  29.0737126
  47.7863484 120.5130531  29.2907089  48.8123368 120.0522029  28.2773768
  48.6351445 117.1000889  31.6615368  48.8958262 118.0146222  31.5524529
  49.4568617 116.6325331  31.8111981  50.1076370 118.5138646  38.8314193
  50.7799424 118.3056008  38.1826842  49.2806157 118.3160732  38.3919425
  64.3565632 125.2542696  38.3489526  64.5501522 126.1588507  38.5948801
  64.2566250 124.7950115  39.1828111  56.0101942 115.1400587  40.8479854
  55.3629858 115.8390536  40.7544330  56.7802958 115.5736731  41.2156102
  56.1866077 122.9781352  38.9076673  57.1158137 123.1292511  38.7345641
  55.7657107 123.0665372  38.0525320  59.4718815 123.7269653  24.3401108
  58.8547986 123.0016481  24.2434161  59.0035304 124.4879013  23.9968183
  53.1386168 121.5001208  39.0800309  53.8485787 120.8594400  39.0386928
  53.0955477 121.7514103  40.0026490  51.8515102 118.4866426  40.8995949
  51.3152459 118.0357164  41.5517545  51.2631811 118.6212335  40.1566413
  51.2617361 117.9455077  23.4622413  50.3846828 117.8243878  23.0984659
  51.7375114 117.1541156  23.2101301  47.5854224 117.6222434  37.9848943
  47.5012412 117.0148103  37.2499353  46.7636930 118.1131452  37.9858440
  57.7577937 116.1075997  33.3519138  58.2546637 115.3545959  33.0320209
  56.9864919 116.1440314  32.7862348  65.6107695 121.8116363  34.9937430
  65.5997571 122.6941078  34.6231363  64.7425074 121.4587914  34.7991967
  54.3412906 118.2493380  33.0790823  53.9710694 117.6964421  33.7671729
  54.8371999 117.6451514  32.5265823  62.2280270 120.7065004  31.4607596
  62.6940722 121.5392995  31.3867899  62.6787770 120.2409985  32.1652855
  60.1996932 113.0745591  35.4998497  59.2860012 113.3049817  35.6680704
  60.6290034 113.1584035  36.3512530  59.9703391 121.2635483  37.9998391
  59.3174841 121.5111390  37.3450844  60.3483771 120.4499621  37.6660869
  56.0190964 122.0055294  44.4864428  55.3431601 121.9049423  45.1566804
  56.8418598 121.8494507  44.9500426  49.7378240 115.6597371  39.3243929
  49.8019566 116.5212202  38.9121327  49.6745360 115.0471373  38.5916288
  49.2130512 117.7320503  42.9716963  49.8402551 117.3497581  43.5854488
  48.3558431 117.5134705  43.3372656  45.9896055 119.5396933  28.9035318
  46.2849496 118.6307611  28.8502372  45.0884091 119.5184672  28.5816321
  49.5190302 117.6152929  34.8862867  48.7976888 118.2288897  34.7470340
  50.3083558 118.1510694  34.8079513  52.3216616 114.9507356  41.1603519
  52.8451018 115.1969652  41.9229828  52.1028949 115.7827390  40.7406656
  47.7183897 117.2211030  29.0274643  47.3896603 116.3408409  28.8449749
  48.0723267 117.1658699  29.9151033  50.8325720 117.5084000  29.3950121
  51.1721792 118.0369921  28.6728729  51.2797840 117.8464406  30.1708688
  53.5269161 115.8921051  38.8453189  53.1865981 115.0928864  39.2473869
  52.8208167 116.1922762  38.2730022  54.1785633 112.9770363  37.2980512
  55.0011702 112.5030841  37.1759402  54.4223696 113.7560847  37.7979198
  52.8193867 116.0058622  27.5943414  53.5402230 116.3839874  27.0907131
  52.1959171 116.7247498  27.6978392  56.9624990 116.7103771  28.5301746
  57.1788604 117.5928408  28.2290574  56.4819057 116.3189984  27.8007388
  51.7024211 119.6689484  35.1072491  51.5568792 119.9829787  35.9996772
  51.2249415 120.2874384  34.5543389  53.5620594 116.6592032  35.1553380
  53.5482163 115.7633125  34.8185678  54.2793022 116.6662696  35.7891666
  55.4146725 117.0929372  37.2006508  55.1564503 118.0146443  37.1990838
  54.8831765 116.6959807  37.8906972  52.9657490 115.5406412  30.4240950
  53.0873401 114.6123058  30.6231838  52.6759532 115.5545098  29.5119266
  55.8348681 113.2261323  33.5607670  55.8570377 113.2900656  32.6059650
  56.2516740 112.3865831  33.7548176  66.2132305 122.9616582  31.5986893
  66.6563451 122.2123907  31.2006016  65.3358815 122.9526718  31.2160625
  52.4498570 117.0538409  44.6330883  52.4986725 117.9300532  44.2508653
  52.9921084 116.5115803  44.0602526  63.0551290 124.4471999  41.2264749
  63.1049295 124.2822007  42.1680271  62.9465214 123.5799258  40.8362629
  60.3455053 120.4302927  42.5424055  61.2464916 120.2909392  42.2508053
  60.4203027 120.5957382  43.4822233  54.6797858 117.8069782  41.3877242
  53.8101168 118.1003348  41.1159830  54.9157338 118.3910227  42.1084505
  65.7565170 124.4321820  33.9909340  66.5912061 124.8711624  34.1546901
  65.8924298 123.9560474  33.1717586  62.8056675 121.9901555  39.9386828
  63.2810797 122.1829202  39.1305680  61.8822241 122.0460741  39.6930212
  57.3836892 114.0249399  38.9042662  57.9018836 114.7610426  38.5789151
  57.0292025 114.3313392  39.7389421  48.9635830 118.8854080  27.0204068
  48.2705075 118.9598435  26.3644104  48.7187582 118.1214424  27.5425585
  57.6349486 110.4449681  34.4243559  57.9151240 109.7772870  35.0503985
  58.4200093 110.6378777  33.9118223  61.5058344 118.8667315  38.1715134
  62.4575767 118.9665413  38.1927358  61.3361795 118.0745584  38.6813218
  59.5272724 115.9522899  38.3574535  58.9322656 116.2327911  37.6621023
  59.2422421 116.4416799  39.1291276  63.9846422 122.0873435  37.2857433
  63.9522742 121.1489436  37.4717117  64.5947046 122.1657472  36.5523258
  55.8229753 120.9569488  23.3284638  56.7688858 120.8275696  23.3973056
  55.4443998 120.2184150  23.8054066  64.1340911 118.8784478  37.3315717
  63.6179959 118.0942935  37.1445646  65.0180859 118.5503195  37.4962236
  61.7951638 112.6225494  33.2911529  61.5976459 112.3140582  34.1754861
  62.4051343 113.3487133  33.4209459  69.8022972 123.1489442  36.4263470
  70.5326361 122.8874730  36.9871174  69.1929918 122.4118164  36.4665538
  67.8838269 121.2897304  37.0237921  67.1571433 121.1553269  36.4154413
  67.4685556 121.5974133  37.8294640  54.0072670 118.8819464  23.2639523
  53.1004126 118.5852577  23.3402236  54.2848651 118.5849282  22.3973809
  55.6234736 113.4256354  29.4183764  54.8135464 113.0803439  29.7939010
  56.3119153 113.1163898  30.0071376  57.5525284 112.5034401  31.0408061
  58.1056323 112.9229854  31.6998084  57.7895371 111.5770149  31.0831017
  53.5758384 118.4921475  46.8210825  53.4755110 119.4415831  46.7522916
  53.3579926 118.1639713  45.9486895  52.7771455 115.7406400  23.4051502
  53.6390619 116.0661298  23.6647319  52.9621799 114.9537895  22.8924568
  60.9304091 114.6134926  30.5486725  60.3502760 115.2719730  30.1664777
  60.6640024 113.7912271  30.1374142  59.3807658 114.0139984  32.7508045
  59.8807436 114.1256518  31.9422364  60.0243266 113.7101037  33.3908854
  59.7128969 116.7735016  29.6043073  58.8254824 117.0584667  29.3863268
  60.1282958 116.6128780  28.7570350  63.0643506 116.7981537  33.3197412
  63.8403896 117.2877990  33.5922029  62.3391640 117.2239592  33.7769282
  65.5016064 117.5109157  34.3771353  66.0960555 117.2704893  33.6664661
  65.5742648 116.7916287  35.0044889  59.6869993 122.2889552  29.8193363
  59.6305195 122.7458104  28.9800996  60.2398336 121.5280237  29.6416206
  63.4974799 118.0779284  30.6443483  63.2411733 117.6775920  31.4751691
  62.8727667 118.7923078  30.5193622  67.8087137 120.8175357  33.1514774
  67.2486695 120.8868547  33.9246336  67.2030640 120.6416342  32.4314270
  60.4204772 123.4794334  27.1145893  60.3653576 123.3138605  26.1734337
  59.7950828 124.1870367  27.2708082  45.2097287 118.7162398  40.9407315
  45.8556151 118.2061352  41.4294540  45.0014439 119.4531080  41.5150740
  53.7300898 112.9802443  26.6931211  53.7179568 113.9244283  26.8499482
  54.6224320 112.7972588  26.3990672  57.5453017 109.5745219  30.9477148
  56.7785413 109.0203706  31.0933830  57.9563722 109.6467088  31.8091299
  49.5494778 115.8630015  45.0382329  50.4126240 115.5066820  45.2485654
  48.9760189 115.5243910  45.7257733  68.9701403 126.7149714  37.8996839
  68.6265673 127.6051355  37.8235949  69.3380366 126.5251371  37.0366424
  70.7689069 125.9743273  33.0014576  71.0747946 125.1140636  32.7140492
  71.4941674 126.5660893  32.8013570  68.4743241 125.7741599  34.4243559
  68.7544994 125.1064788  35.0503985  69.2593848 125.9670695  33.9118223
  72.6345392 127.9517412  33.2911529  72.4370213 127.6432500  34.1754861
  73.2445098 128.6779051  33.4209459  68.3846772 124.9037137  30.9477148
  67.6179168 124.3495624  31.0933830  68.7957477 124.9759006  31.8091299
   6.9304176  28.7971096  28.7252195   6.8716722  28.1130316  28.0582778
   7.3323694  29.5390086  28.2732821   5.4155850  28.4986013  31.3016006
   5.9595754  29.1115971  30.8070960   4.8342695  29.0565591  31.8183019
   8.7384644  27.9582067  30.6377327   7.9480188  27.9406206  30.0981826
   8.5017999  28.4970361  31.3926363  10.3600716  27.2271475  28.1952077
  10.0685524  27.5901455  29.0315538   9.7472847  26.5138483  28.0165409
   3.5381908  26.1445780  33.1644762   4.4073068  26.3186432  32.8031397
   3.0588660  26.9640197  33.0420491  15.1974384  37.8534406  22.5690037
  15.8352794  37.7341153  21.8653377  15.0795227  38.8015250  22.6277989
  12.0064090  37.8061834  22.5051561  11.6682602  37.6902898  21.6172096
  12.8753859  37.4052999  22.4852567  12.4883873  38.9596685  28.4637767
  12.4772514  38.5649484  27.5918271  12.6504513  38.2262758  29.0571538
   5.4115338  41.1548502  21.3332673   6.2036630  40.8139326  20.9178972
   5.6511988  41.2643477  22.2534826   9.2091135  41.7433797  27.4116951
   8.9181001  42.6479428  27.2963617   9.8448119  41.7850325  28.1261020
  10.1347341  39.1210646  24.0018310  10.7310914  38.8966668  23.2875273
  10.1922313  38.3795391  24.6043758  20.1524080  35.5161093  20.5476223
  20.8849252  34.9460309  20.7814053  19.3963435  35.1282693  20.9882729
  17.6749500  29.2282667  25.0070832  17.3432825  30.0978078  24.7832047
  17.0795114  28.9118951  25.6864862  14.1681020  41.4295213  24.4066745
  13.8681743  42.3320252  24.2982552  13.8232079  41.1627396  25.2587897
  17.5678163  33.9477753  22.0864182  16.6595041  33.8793161  21.7922943
  17.5165759  34.4249698  22.9146007   9.1501799  48.1939533  17.3737712
   9.0725829  49.1447358  17.4526193   8.5463443  47.8485406  18.0312639
  11.6419029  35.3667399  30.0299079  10.8652363  35.9261319  30.0201944
  12.2809592  35.8524182  30.5513949  19.4339810  32.1494191  23.8642056
  18.7914190  32.4426725  23.2181850  18.9294738  32.0347112  24.6695252
   9.8965402  38.1752852  29.5917046  10.6380086  38.7137896  29.3151870
   9.1902387  38.8019141  29.7488598  15.3720741  40.3181992  28.1889208
  15.7804097  39.8764403  27.4443840  14.6498003  39.7434620  28.4423400
  11.7251811  35.2554599  25.5622765  12.5713006  35.6794013  25.7057414
  11.6650449  34.5988223  26.2561328  15.6949556  40.8783183  21.9441496
  15.0658418  41.0428897  21.2417564  15.3075218  41.2924793  22.7152461
  19.5738788  41.8137621  19.2985860  18.8889826  42.1936522  18.7482894
  19.6582637  42.4232947  20.0317808  14.8751257  32.9158967  27.2203938
  14.6312188  33.6701028  26.6838214  15.1511187  33.2944315  28.0551185
  16.8289719  39.4597580  25.8981204  17.0406615  40.1029340  25.2215585
  16.7819468  38.6259896  25.4303134   8.1401599  40.1629073  22.1471345
   8.7102956  40.5916341  21.5088829   8.7309711  39.8811657  22.8455530
   8.6326765  35.3292500  30.3932356   8.0025426  36.0108781  30.6267753
   8.5262853  35.2175582  29.4485494  17.9435547  42.3369535  24.0703561
  18.7652991  41.9349723  23.7886243  17.9397950  42.2337769  25.0219677
  11.7092151  41.8853579  26.2264272  11.7736583  42.3473986  27.0622443
  11.0003075  41.2550944  26.3546581  26.0341540  38.6808284  20.4188533
  25.2805249  38.1115682  20.2632537  26.1689082  38.6470948  21.3659167
   7.9107508  29.6313266  32.7557607   7.5174454  29.0779464  33.4305251
   8.7273648  29.9423844  33.1464125   6.6864450  44.1862880  18.7493930
   6.8631079  45.1080845  18.5614914   7.4821284  43.8721300  19.1788310
  10.8275469  31.0471145  30.3477864  11.5685182  31.6478298  30.2682326
  11.0593392  30.3048783  29.7895906   5.9716807  36.2327512  28.6256093
   5.8570322  35.3312770  28.9263192   5.1161325  36.4791209  28.2740910
  13.0508645  44.1745253  30.2243594  12.6072499  43.3881631  29.9064499
  13.7125858  44.3624403  29.5587485   7.8095766  45.7041054  24.7504273
   8.3603191  45.5758118  23.9781266   6.9707242  46.0035943  24.3999165
  15.1489883  44.4548053  28.2524995  15.1308358  45.2756934  27.7605264
  16.0709803  44.3302128  28.4775136  11.6062937  41.9692182  29.0948504
  12.1391274  41.2080470  28.8647812  11.0777018  41.6765834  29.8372658
  17.9508496  39.2927195  21.7234362  17.2932170  39.9826456  21.8114491
  18.7548895  39.6823627  22.0668348  16.7613955  37.6471568  19.7738304
  17.2745836  38.2801559  20.2760013  17.4115178  37.0472763  19.4081664
  13.2394785  35.1221023  22.0196644  12.3217347  35.3435970  21.8618332
  13.6554929  35.1967334  21.1608352  17.5275751  42.6277569  17.9017446
  17.0738078  41.7868479  17.9582637  16.8969717  43.2638967  18.2392227
  15.9708690  44.4654066  18.8367264  16.2631664  45.0259123  18.1179630
  16.4807311  44.7582627  19.5920424  10.9342315  45.2434417  19.9260718
  10.8918494  45.4695263  18.9969250  11.8505014  45.0097791  20.0746519
  14.3807949  35.7118484  26.8241347  14.7357337  35.9389958  27.6835813
  15.0280080  36.0436861  26.2018602  20.1105686  38.8336920  17.5290676
  19.9723584  39.0238516  16.6011865  19.7541905  39.5956303  17.9858727
  20.1375065  40.9013447  22.5401947  20.5711572  40.8088736  23.3885001
  20.8506646  40.8770948  21.9021963  13.8702960  44.5015541  24.0735048
  13.9239983  45.0706478  24.8412764  13.0017742  44.6717426  23.7089085
   6.7501354  34.2033098  25.5559499   7.4224407  33.9950460  24.9072148
   5.9231140  34.0055184  25.1164732  20.9990615  40.9437148  25.0734833
  21.1926505  41.8482958  25.3194108  20.8991233  40.4844567  25.9073418
  12.6526926  30.8295039  27.5725160  12.0054841  31.5284988  27.4789637
  13.4227941  31.2631182  27.9401408  16.0605724  41.0943891  30.6475713
  15.9091230  40.8654442  29.7305797  16.0510403  42.0514492  30.6607058
  12.8291060  38.6675803  25.6321980  13.7583120  38.8186963  25.4590947
  12.4082090  38.7559824  24.7770626  11.6279392  42.6926468  23.4020518
  11.4890478  42.3245252  24.2746456  10.8393988  43.2074107  23.2304475
  12.2227544  47.7935564  14.7446054  12.3979300  47.3223608  15.5591677
  11.5360332  48.4201331  14.9727315  13.1784607  42.0708071  20.7909355
  12.8434440  42.0308841  21.6867005  12.6788553  41.4052786  20.3179766
   7.1528851  37.4775701  26.3161936   7.0148649  36.7455939  26.9173476
   8.0633774  37.3884601  26.0346124   9.7811152  37.1895660  25.8045616
  10.4910770  36.5488852  25.7632235   9.7380460  37.4408555  26.7271797
  17.7697930  44.1263013  28.7252195  17.7110477  43.4422233  28.0582778
  18.1717449  44.8682003  28.2732821   8.4940086  34.1760878  27.6241256
   7.9577443  33.7251616  28.2762852   7.9056794  34.3106787  26.8811720
   6.7888629  50.9424927  21.5185914   7.0285227  51.5743451  22.1964933
   5.9457826  50.5912967  21.8051273  17.7715338  42.0902597  26.9566175
  16.8842116  41.7528519  27.0792574  18.3413889  41.3585628  27.1934940
  11.3016491  46.7504050  23.9227418  11.2286663  47.5559021  24.4346723
  10.8593884  46.9496015  23.0975440  11.0906271  45.9875820  17.4330240
  10.3073793  46.5297500  17.5268464  11.7899016  46.5049799  17.8324481
  22.2532678  37.5010815  21.7182737  22.2422554  38.3835530  21.3476670
  21.3850058  37.1482365  21.5237274  13.7615175  46.6490884  26.0785577
  14.4743147  47.2838348  26.0061478  13.2705203  46.7454750  25.2625579
   8.8127088  44.3985327  26.8991148   9.5136548  45.0321810  27.0520542
   8.3422203  44.7400059  26.1386787  16.6128374  36.9529935  24.7243698
  15.9599824  37.2005842  24.0696151  16.9908754  36.1394073  24.3906175
  13.5735548  46.9889628  18.8271868  13.7557942  46.1711284  19.2899621
  14.3968534  47.2057320  18.3896758  13.9077713  45.9157813  16.0886917
  14.4365480  45.4050267  15.4757079  14.1705933  45.6000343  16.9532450
  12.6615947  37.6949746  31.2109735  11.9856584  37.5943875  31.8812110
  13.4843581  37.5388959  31.6745732   4.4094806  43.9321682  23.8322250
   4.9948243  43.1865370  23.9650155   4.2119645  44.2425639  24.7158914
   7.2633461  46.9672929  18.8484693   6.5943837  47.4519057  18.3648733
   7.1246331  47.2142150  19.7628071  11.4038730  49.0016673  25.4467351
  11.9557038  49.1648295  26.2116436  11.7444923  49.5921111  24.7747376
   5.8555496  33.4214955  29.6962270   6.4827535  33.0392033  30.3099794
   4.9983415  33.2029157  30.0617963  16.2549604  43.8277931  31.3016006
  16.7989508  44.4407889  30.8070960  15.6736449  44.3857509  31.8183019
  14.5407117  46.9498649  22.4331033  14.4158257  46.1488388  21.9241979
  15.1986208  47.4444842  21.9445003  16.6042026  44.7507669  24.0610583
  15.6572361  44.6313020  23.9888910  16.9524799  43.8630167  24.1436845
   8.9641599  30.6401808  27.8848825   9.4876001  30.8864104  28.6475135
   8.7453932  31.4721842  27.4651963  13.6088459  44.5460385  20.2614936
  13.4613421  43.6177092  20.4422506  14.4341952  44.5680476  19.7772011
  17.2122581  45.3688944  21.3479808  18.1369128  45.1631805  21.2104259
  17.0437884  45.1205345  22.2569150  10.1694144  31.5815503  25.5698496
   9.8290964  30.7823316  25.9719176   9.4633150  31.8817213  24.9975329
  12.0571708  32.7823824  23.9251814  11.7989486  33.7040895  23.9236145
  11.5256749  32.3854258  24.6152279  17.0017897  45.8874611  16.7041900
  17.1754775  45.3221034  15.9515752  17.4946788  46.6875506  16.5221390
   2.8194857  37.8989280  24.7705459   2.2748325  38.6749088  24.9025733
   3.6974207  38.2460085  24.6124580  22.8557288  38.6511034  18.3232200
  23.2988434  37.9018359  17.9251323  21.9783798  38.6421170  17.9405932
  17.9893069  45.2041375  13.8038798  18.6843974  45.8248068  14.0226113
  18.3316220  44.3536727  14.0791176   3.6060879  37.0259176  27.6635615
   2.8642615  37.1741812  28.2500246   3.2853623  37.2867442  26.8002365
  19.8884493  42.6541081  15.3326129  20.4135817  42.9928354  14.6075449
  19.8006845  41.7188096  15.1489263  11.5504541  46.5675155  27.4616005
  11.8591668  46.3224301  28.3338705  12.3480023  46.7721793  26.9734876
  11.5725153  48.7213064  19.6921382  11.1330144  48.2289443  20.3854239
  12.3233270  48.1786032  19.4513457   4.0517492  44.9124605  19.6946010
   4.8775512  44.6128377  19.3144654   3.7011544  44.1432228  20.1435799
   9.0199025  44.2651073  21.7643684   8.3979035  43.6021778  21.4645912
   9.6903892  44.2912205  21.0817331   9.0923553  32.7432861  31.3576190
   9.1411708  33.6194984  30.9753959   9.6346067  32.2010254  30.7847833
  19.5778399  43.2873985  30.6377327  18.7873942  43.2698123  30.0981826
  19.3411753  43.8262278  31.3926363  19.6976274  40.1366451  27.9510055
  19.7474279  39.9716458  28.8925578  19.5890197  39.2693710  27.5607936
  16.9880036  36.1197379  29.2669362  17.8889899  35.9803844  28.9753360
  17.0628011  36.2851834  30.2067539  11.3222841  33.4964234  28.1122548
  10.4526151  33.7897800  27.8405137  11.5582322  34.0804679  28.8329812
  21.1994471  42.5563392  28.1952077  20.9079279  42.9193373  29.0315538
  20.5866602  41.8430401  28.0165409  22.3990153  40.1216272  20.7154647
  23.2337044  40.5606076  20.8792207  22.5349282  39.6454925  19.8962893
  19.4481659  37.6796007  26.6632135  19.9235780  37.8723653  25.8550986
  18.5247224  37.7355193  26.4175519  14.0261875  29.7143851  25.6287969
  14.5443819  30.4504878  25.3034457  13.6717008  30.0207844  26.4634728
  18.1483328  34.5561767  24.8960440  19.1000751  34.6559865  24.9172665
  17.9786778  33.7640036  25.4058525  16.1697707  31.6417350  25.0819841
  15.5747639  31.9222363  24.3866330  15.8847404  32.1311251  25.8536582
  20.6271406  37.7767887  24.0102740  20.5947726  36.8383888  24.1962424
  21.2372029  37.8551924  23.2768565  20.7765894  34.5678930  24.0561023
  20.2604943  33.7837387  23.8690952  21.6605843  34.2397647  24.2207543
  26.4447955  38.8383894  23.1508777  27.1751344  38.5769182  23.7116480
  25.8354901  38.1012616  23.1910845  24.5263253  36.9791756  23.7483228
  23.7996416  36.8447721  23.1399720  24.1110539  37.2868585  24.5539946
  12.3493429  40.6981686  31.5130601  13.2696438  40.8760285  31.7070648
  12.3143012  39.7537731  31.3610300   5.3455501  38.6082721  24.1553382
   5.5641511  39.5399828  24.1741416   5.7581275  38.2490695  24.9408186
  10.2183367  34.1815926  33.5456131  10.1180094  35.1310283  33.4768222
  10.0004909  33.8534165  32.6732201  10.0814637  37.6113065  32.3621193
   9.5981719  38.4113425  32.5685082  10.1675576  37.6221010  31.4088637
   6.0087974  41.5017600  24.3989627   6.9631228  41.4701542  24.3319558
   5.8100498  41.0408224  25.2139853   6.5987356  40.0718716  26.9660424
   7.4180245  40.5662795  26.9895262   6.8724164  39.1550684  26.9377992
  22.1441047  33.2003609  21.1016660  22.7385538  32.9599344  20.3909968
  22.2167631  32.4810739  21.7290196   4.3638203  47.0437219  21.4159825
   4.2292671  46.2837620  20.8497823   3.9470265  47.7678119  20.9488613
  24.4512120  36.5069809  19.8760081  23.8911678  36.5762999  20.6491643
  23.8455624  36.3310794  19.1559577   7.5207329  47.9406536  21.6278267
   7.4039713  48.8851969  21.5256957   6.6999775  47.6380098  22.0164066
   1.8522271  34.4056850  27.6652621   2.4981134  33.8955804  28.1539847
   1.6439422  35.1425532  28.2396047  14.3775663  41.4737697  33.1644762
  15.2466823  41.6478350  32.8031397  13.8982414  42.2932114  33.0420491
   8.5461843  48.5934798  24.8434196   9.4489090  48.6258409  25.1600691
   8.3199213  47.6635249  24.8580531  10.3015445  47.3465785  21.5044274
   9.3511076  47.3467647  21.3908647  10.6047931  46.5998519  20.9880309
   6.1919762  31.5524467  31.7627636   7.0551223  31.1961272  31.9730960
   5.6185172  31.2138362  32.4503040  26.0368139  53.1826323  22.5690037
  26.6746549  53.0633071  21.8653377  25.9188982  54.1307167  22.6277989
  22.8457845  53.1353751  22.5051561  22.5076356  53.0194816  21.6172096
  23.7147613  52.7344916  22.4852567  18.7044661  54.9889228  18.4948452
  18.1409526  54.8979165  17.7264740  18.5897056  54.1689132  18.9750945
  23.3277628  54.2888603  28.4637767  23.3166269  53.8941401  27.5918271
  23.4898267  53.5554676  29.0571538  16.2509093  56.4840419  21.3332673
  17.0430384  56.1431244  20.9178972  16.4905743  56.5935394  22.2534826
  24.2844219  58.6560196  13.8062917  23.6332199  59.2414276  13.4196931
  25.0788582  59.1866390  13.8657955  18.2099846  55.7449333  14.2050052
  18.9830722  55.1978320  14.0662927  18.5625245  56.6093582  14.4164513
  20.0484889  57.0725715  27.4116951  19.7574755  57.9771346  27.2963617
  20.6841873  57.1142243  28.1261020  20.9741096  54.4502563  24.0018310
  21.5704668  54.2258586  23.2875273  21.0316067  53.7087309  24.6043758
  20.5466124  51.9041999  11.8368501  20.7991645  51.3823520  11.0751964
  19.6090683  51.7408144  11.9395185  25.5909407  50.9077777  19.6443245
  26.3772496  50.4897200  19.2933662  25.8548111  51.8123869  19.8124893
  25.7619484  56.3450627  14.3431901  25.1265317  56.4185254  15.0552806
  25.4316891  56.9344226  13.6650981  30.9917834  50.8453010  20.5476223
  31.7243006  50.2752227  20.7814053  30.2357190  50.4574611  20.9882729
  20.2662413  53.8070105  14.0392876  20.1498671  53.1315008  14.7073961
  20.3764673  53.3202479  13.2225029  22.6093954  53.2680252  17.7439566
  22.2452161  52.7410873  18.4552487  23.4661070  52.8778721  17.5706051
  28.5143255  44.5574584  25.0070832  28.1826579  45.4269995  24.7832047
  27.9188868  44.2410868  25.6864862  22.2499441  48.2970152  12.7400914
  22.4173843  49.1650388  13.1071385  22.0596610  48.4597433  11.8162203
  25.0074774  56.7587130  24.4066745  24.7075497  57.6612169  24.2982552
  24.6625834  56.4919314  25.2587897  18.4587256  53.2100927  20.4403449
  17.5337752  53.0777141  20.6481141  18.7071669  53.9895147  20.9373391
  28.4071918  49.2769671  22.0864182  27.4988795  49.2085079  21.7922943
  28.3559514  49.7541616  22.9146007  22.2288662  50.7527809  13.7247581
  22.1088287  51.1984860  14.5633061  21.5341250  51.1013127  13.1661119
  15.8196067  52.8534201  21.2747238  15.9488448  53.1068680  22.1886650
  15.1393518  53.4461909  20.9551893  19.9895554  63.5231451  17.3737712
  19.9119584  64.4739276  17.4526193  19.3857198  63.1777323  18.0312639
  22.4812784  50.6959316  30.0299079  21.7046118  51.2553236  30.0201944
  23.1203347  51.1816099  30.5513949  30.2733564  47.4786109  23.8642056
  29.6307945  47.7718642  23.2181850  29.7688493  47.3639029  24.6695252
  27.9273728  51.2249282  14.5527915  28.8391584  51.4576669  14.3775613
  27.4183375  51.8086326  13.9902994  20.7359156  53.5044770  29.5917046
  21.4773840  54.0429814  29.3151870  20.0296141  54.1311058  29.7488598
  26.2114496  55.6473910  28.1889208  26.6197852  55.2056321  27.4443840
  25.4891757  55.0726538  28.4423400  22.5645566  50.5846517  25.5622765
  23.4106761  51.0085930  25.7057414  22.5044203  49.9280141  26.2561328
  26.5343310  56.2075101  21.9441496  25.9052173  56.3720815  21.2417564
  26.1468972  56.6216710  22.7152461  30.4132542  57.1429539  19.2985860
  29.7283580  57.5228440  18.7482894  30.4976392  57.7524865  20.0317808
  25.7145011  48.2450885  27.2203938  25.4705943  48.9992946  26.6838214
  25.9904942  48.6236233  28.0551185  27.6683474  54.7889498  25.8981204
  27.8800369  55.4321257  25.2215585  27.6213222  53.9551814  25.4303134
  25.2709703  47.4007318  22.8017776  24.4094182  47.6988572  23.0934513
  25.2972137  47.6177717  21.8698809  22.0871272  55.9449509  19.2091582
  22.5509618  56.2237212  18.4196204  21.8228070  55.0432953  19.0264672
  18.9795353  55.4920990  22.1471345  19.5496710  55.9208259  21.5088829
  19.5703465  55.2103575  22.8455530  21.0240158  52.0672661  16.0181147
  21.7264202  52.5193705  16.4855073  20.6920787  51.4256480  16.6461040
  19.4720520  50.6584418  30.3932356  18.8419180  51.3400699  30.6267753
  19.3656608  50.5467499  29.4485494  14.7665492  50.3256214  21.3198280
  13.9764546  50.5813742  20.8438391  15.2576740  51.1404552  21.4250321
  28.7829302  57.6661453  24.0703561  29.6046745  57.2641640  23.7886243
  28.7791705  57.5629687  25.0219677  16.7180238  50.6900793  18.2781757
  15.9211401  50.8019487  18.7965253  16.4905830  51.0287445  17.4122647
  22.5485905  57.2145496  26.2264272  22.6130338  57.6765903  27.0622443
  21.8396829  56.5842861  26.3546581  13.0503195  50.5786704  23.7513271
  13.3011234  51.4633714  24.0170847  13.5862744  50.3991306  22.9788363
  36.8735295  54.0100201  20.4188533  36.1199003  53.4407600  20.2632537
  37.0082836  53.9762866  21.3659167  22.2633923  58.8813604  16.0943252
  22.1279598  59.7265139  16.5228100  22.8043735  59.0832881  15.3309186
  18.7501262  44.9605184  32.7557607  18.3568208  44.4071382  33.4305251
  19.5667403  45.2715762  33.1464125  15.7163320  56.3989042  16.6671177
  16.2287841  57.1932292  16.8176742  16.3686033  55.7015332  16.6004778
  17.5258205  59.5154798  18.7493930  17.7024833  60.4372763  18.5614914
  18.3215038  59.2013217  19.1788310  21.6669223  46.3763063  30.3477864
  22.4078937  46.9770216  30.2682326  21.8987146  45.6340700  29.7895906
  16.8110561  51.5619430  28.6256093  16.6964077  50.6604687  28.9263192
  15.9555079  51.8083127  28.2740910  23.8902399  59.5037170  30.2243594
  23.4466253  58.7173549  29.9064499  24.5519613  59.6916321  29.5587485
  18.6489520  61.0332972  24.7504273  19.1996946  60.9050035  23.9781266
  17.8100996  61.3327861  24.3999165  25.9883637  59.7839970  28.2524995
  25.9702113  60.6048851  27.7605264  26.9103557  59.6594045  28.4775136
  22.4456691  57.2984100  29.0948504  22.9785028  56.5372388  28.8647812
  21.9170773  57.0057751  29.8372658  25.6126386  42.4044166  24.6242145
  25.2690656  43.2945807  24.5481256  25.9805349  42.2145823  23.7611730
  13.6812237  54.7277696  17.4430748  14.5187459  55.1374704  17.2264455
  13.8590505  53.7877138  17.4130941  25.5776669  52.3952777  13.1314581
  25.0623293  53.1657381  13.3702968  25.3053978  51.7217913  13.7547642
  23.1623780  47.2402478  18.1899819  22.3065377  46.8509328  18.0105458
  23.5750732  47.3194438  17.3299604  24.6922927  44.7748821  22.5891379
  24.1887722  44.7378956  21.7759184  24.9853534  45.6841564  22.6488035
  20.9365813  44.8587551  21.5957560  21.8018809  44.6630359  21.2363450
  21.0043322  44.6297902  22.5226917  30.5510943  55.1485131  15.0667754
  29.7740386  54.8096291  14.6222916  31.2302424  55.1537755  14.3922719
  25.3662972  50.2679869  14.9574362  25.0613108  50.5826018  15.8084505
  26.3193414  50.3461289  15.0001695  23.8109404  56.4270092  16.6067316
  23.2830766  55.6922852  16.2940553  23.3096907  57.2044768  16.3607284
  28.7902250  54.6219113  21.7234362  28.1325925  55.3118374  21.8114491
  29.5942649  55.0115545  22.0668348  18.5428132  47.0889758  18.9673927
  19.1171884  46.8664940  18.2347120  19.1299114  47.1578453  19.7202528
  27.6007709  52.9763485  19.7738304  28.1139591  53.6093477  20.2760013
  28.2508933  52.3764681  19.4081664  18.8697719  49.1194219  12.9869812
  18.0335031  49.4568906  13.3079087  18.7302489  48.9843199  12.0496949
  20.8450799  43.9631007  17.6948997  20.1915212  43.6480025  17.0705611
  20.8031274  43.3406748  18.4208820  21.9562004  54.2450302   9.6102289
  21.0489066  54.0139556   9.8093438  22.4533036  53.4487922   9.7976270
  24.8630083  62.9547810  12.5298975  24.1891782  63.2579506  13.1383933
  25.2495905  63.7576890  12.1804432  24.0788540  50.4512941  22.0196644
  23.1611101  50.6727888  21.8618332  24.4948683  50.5259251  21.1608352
  24.8623588  51.8504357  17.1499325  25.6095407  52.3625754  16.8406447
  25.1315177  51.5288409  18.0103718  23.1350238  54.3462897  14.1326279
  22.2261457  54.0621930  14.2298749  23.1645322  54.7661976  13.2729586
  28.3669505  57.9569487  17.9017446  27.9131832  57.1160397  17.9582637
  27.7363472  58.5930885  18.2392227  27.3102425  48.8861473  19.1318114
  26.5725182  48.3738859  19.4628356  27.5629198  48.4461854  18.3201391
  26.8102444  59.7945983  18.8367264  27.1025419  60.3551041  18.1179630
  27.3201065  60.0874544  19.5920424  27.4114052  41.6637725  19.7259883
  27.7172929  40.8035088  19.4385798  28.1366657  42.2555345  19.5258877
  13.7038408  52.0668411  18.1141481  13.5062808  51.4737772  17.3892548
  13.1485072  51.7620622  18.8317420  21.6835132  51.9591518  20.2336074
  21.7383742  51.0065354  20.1578551  20.8726334  52.1150957  20.7177373
  22.8326326  55.8871641  11.4714357  22.3945756  55.1707500  11.0119995
  23.5736766  56.1147756  10.9099449  19.6227492  50.5768578  17.9926453
  18.8095357  50.8762748  18.3991645  20.1186486  50.1824266  18.7100935
  21.7736070  60.5726335  19.9260718  21.7312248  60.7987181  18.9969250
  22.6898768  60.3389709  20.0746519  25.2201703  51.0410402  26.8241347
  25.5751091  51.2681875  27.6835813  25.8673835  51.3728779  26.2018602
  30.9499440  54.1628838  17.5290676  30.8117339  54.3530434  16.6011865
  30.5935659  54.9248221  17.9858727  19.1141567  48.1486933  23.6087688
  19.7540946  48.0075692  22.9110651  18.2819097  47.8621447  23.2326290
  30.9768820  56.2305365  22.5401947  31.4105327  56.1380654  23.3885001
  31.6900401  56.2062865  21.9021963  19.8901870  57.4489364  19.7222680
  20.6842469  56.9539684  19.5205255  19.1793563  56.9207227  19.3590386
  24.7096715  59.8307459  24.0735048  24.7633737  60.3998395  24.8412764
  23.8411496  60.0009344  23.7089085  16.1984634  51.5932445  15.7982433
  15.2682222  51.5316901  16.0152395  16.2942106  51.0708398  15.0019074
  16.1170183  48.1187258  18.3860675  16.3777000  49.0332591  18.2769835
  16.9387355  47.6511701  18.5357288  17.5895108  49.5325015  25.5559499
  18.2618162  49.3242377  24.9072148  16.7624895  49.3347101  25.1164732
  31.8384370  56.2729066  25.0734833  32.0320260  57.1774876  25.3194108
  31.7384988  55.8136485  25.9073418  23.4920680  46.1586956  27.5725160
  22.8448595  46.8576906  27.4789637  24.2621696  46.5923100  27.9401408
  26.8999478  56.4235808  30.6475713  26.7484985  56.1946360  29.7305797
  26.8904158  57.3806410  30.6607058  23.6684815  53.9967721  25.6321980
  24.5976875  54.1478881  25.4590947  23.2475845  54.0851742  24.7770626
  22.4673146  58.0218386  23.4020518  22.3284232  57.6537170  24.2746456
  21.6787743  58.5366025  23.2304475  23.0621298  63.1227482  14.7446054
  23.2373054  62.6515525  15.5591677  22.3754086  63.7493248  14.9727315
  24.0178362  57.3999988  20.7909355  23.6828194  57.3600758  21.6867005
  23.5182307  56.7344704  20.3179766  17.9922606  52.8067618  26.3161936
  17.8542403  52.0747857  26.9173476  18.9027529  52.7176518  26.0346124
  26.9537553  54.7456023  11.0646415  26.3366724  54.0202851  10.9679468
  26.4854042  55.5065383  10.7213489  20.6204906  52.5187578  25.8045616
  21.3304525  51.8780770  25.7632235  20.5774214  52.7700472  26.7271797
  28.6091685  59.4554931  28.7252195  28.5504231  58.7714151  28.0582778
  29.0111203  60.1973921  28.2732821  19.3333840  49.5052795  27.6241256
  18.7971197  49.0543534  28.2762852  18.7450549  49.6398704  26.8811720
  17.6282384  66.2716845  21.5185914  17.8678982  66.9035369  22.1964933
  16.7851580  65.9204885  21.8051273  28.6109092  57.4194515  26.9566175
  27.7235871  57.0820437  27.0792574  29.1807643  56.6877546  27.1934940
  10.2638239  53.7518607  20.2809226  10.9509279  53.4380337  19.6930242
  10.1086368  54.6559971  20.0076478  15.0672961  48.6408803  24.7094250
  14.9831150  48.0334473  23.9744660  14.2455668  49.1317822  24.7103746
  22.1410246  62.0795967  23.9227418  22.0680417  62.8850939  24.4346723
  21.6987639  62.2787933  23.0975440  21.9300025  61.3167737  17.4330240
  21.1467547  61.8589417  17.5268464  22.6292770  61.8341717  17.8324481
  25.2396675  47.1262367  20.0764445  25.7365375  46.3732329  19.7565515
  24.4683657  47.1626683  19.5107654  33.0926433  52.8302732  21.7182737
  33.0816309  53.7127448  21.3476670  32.2243812  52.4774283  21.5237274
  24.6008929  61.9782801  26.0785577  25.3136901  62.6130266  26.0061478
  24.1098958  62.0746667  25.2625579  26.3226456  55.8834054  17.6502869
  25.3882735  56.0035516  17.4807573  26.5003124  54.9806521  17.3862878
  21.8231644  49.2679750  19.8036130  21.4529432  48.7150790  20.4917035
  22.3190736  48.6637883  19.2511130  29.7099007  51.7251373  18.1852903
  30.1759460  52.5579365  18.1113205  30.1606508  51.2596355  18.8898161
  19.6520843  59.7277245  26.8991148  20.3530302  60.3613728  27.0520542
  19.1815958  60.0691976  26.1386787  27.7775238  58.0695195  15.1839055
  28.0535082  57.9551789  16.0932929  26.9079737  57.6712679  15.1451228
  27.6815670  44.0931960  22.2243804  26.7678750  44.3236187  22.3926011
  28.1108772  44.1770404  23.0757836  27.4522129  52.2821852  24.7243698
  26.7993579  52.5297760  24.0696151  27.8302508  51.4685990  24.3906175
  24.4129302  62.3181545  18.8271868  24.5951697  61.5003201  19.2899621
  25.2362288  62.5349238  18.3896758  24.7471468  61.2449730  16.0886917
  25.2759234  60.7342185  15.4757079  25.0099688  60.9292261  16.9532450
  23.5009702  53.0241663  31.2109735  22.8250339  52.9235793  31.8812110
  24.3237335  52.8680877  31.6745732  15.2488561  59.2613600  23.8322250
  15.8341997  58.5157288  23.9650155  15.0513399  59.5717556  24.7158914
  18.1027216  62.2964847  18.8484693  17.4337591  62.7810975  18.3648733
  17.9640086  62.5434068  19.7628071   9.8406215  51.8319200  22.5526694
   9.8790315  51.2982791  23.3463812   9.3346508  51.3054405  21.9337671
  22.2432484  64.3308591  25.4467351  22.7950792  64.4940212  26.2116436
  22.5838678  64.9213029  24.7747376  17.2196978  46.6783740  26.0489236
  17.2838304  47.5398571  25.6366634  17.1564098  46.0657742  25.3161594
  16.6949250  48.7506873  29.6962270  17.3221289  48.3683950  30.3099794
  15.8377169  48.5321075  30.0617963  27.0943359  59.1569848  31.3016006
  27.6383263  59.7699806  30.8070960  26.5130204  59.7149427  31.8183019
  13.4714793  50.5583302  15.6280625  13.7668234  49.6493981  15.5747679
  12.5702829  50.5371042  15.3061627  25.3800872  62.2790566  22.4331033
  25.2552011  61.4780306  21.9241979  26.0379963  62.7736760  21.9445003
  17.0009040  48.6339299  21.6108174  16.2795626  49.2475266  21.4715647
  17.7902296  49.1697064  21.5324819  27.4435780  60.0799586  24.0610583
  26.4966116  59.9604937  23.9888910  27.7918553  59.1922084  24.1436845
  19.8035353  45.9693725  27.8848825  20.3269755  46.2156022  28.6475135
  19.5847687  46.8013760  27.4651963  15.2002635  48.2397400  15.7519950
  14.8715341  47.3594779  15.5695056  15.5542005  48.1845068  16.6396339
  24.4482213  59.8752303  20.2614936  24.3007176  58.9469010  20.4422506
  25.2735707  59.8972393  19.7772011  18.3144458  48.5270370  16.1195428
  18.6540530  49.0556291  15.3974036  18.7616578  48.8650776  16.8953994
  28.0516335  60.6980861  21.3479808  28.9762883  60.4923723  21.2104259
  27.8831639  60.4497262  22.2569150  21.0087899  46.9107420  25.5698496
  20.6684719  46.1115233  25.9719176  20.3026905  47.2109131  24.9975329
  21.6604370  43.9956733  24.0225819  22.4830440  43.5217211  23.9004709
  21.9042434  44.7747217  24.5224505  20.3012605  47.0244991  14.3188720
  21.0220967  47.4026244  13.8152437  19.6777909  47.7433868  14.4223698
  24.4443728  47.7290140  15.2547053  24.6607342  48.6114778  14.9535881
  23.9637795  47.3376354  14.5252695  19.1842949  50.6875853  21.8317797
  19.0387530  51.0016156  22.7242079  18.7068153  51.3060754  21.2788696
  21.0439332  47.6778401  21.8798687  21.0300901  46.7819495  21.5430985
  21.7611760  47.6849065  22.5136973  22.8965463  48.1115742  23.9251814
  22.6383241  49.0332812  23.9236145  22.3650503  47.7146176  24.6152279
  27.8411651  61.2166529  16.7041900  28.0148529  60.6512951  15.9515752
  28.3340543  62.0167424  16.5221390  13.6588611  53.2281198  24.7705459
  13.1142079  54.0041006  24.9025733  14.5367961  53.5752002  24.6124580
  20.4476228  46.5592782  17.1486257  20.5692139  45.6309428  17.3477145
  20.1578270  46.5731468  16.2364573  23.3167418  44.2447692  20.2852977
  23.3389115  44.3087025  19.3304957  23.7335477  43.4052201  20.4793483
  33.6951043  53.9802952  18.3232200  34.1382189  53.2310277  17.9251323
  32.8177553  53.9713088  17.9405932  28.8286824  60.5333293  13.8038798
  29.5237729  61.1539986  14.0226113  29.1709974  59.6828644  14.0791176
  14.4454633  52.3551094  27.6635615  13.7036369  52.5033729  28.2500246
  14.1247377  52.6159360  26.8002365  30.7278247  57.9832999  15.3326129
  31.2529571  58.3220271  14.6075449  30.6400600  57.0480014  15.1489263
  22.3898296  61.8967072  27.4616005  22.6985422  61.6516219  28.3338705
  23.1873778  62.1013711  26.9734876  22.4118908  64.0504982  19.6921382
  21.9723898  63.5581361  20.3854239  23.1627025  63.5077950  19.4513457
  14.8911247  60.2416523  19.6946010  15.7169267  59.9420295  19.3144654
  14.5405299  59.4724145  20.1435799  19.8592780  59.5942991  21.7643684
  19.2372789  58.9313696  21.4645912  20.5297647  59.6204123  21.0817331
  13.0919852  58.1602849  20.6534944  12.2551760  57.7325024  20.4718945
  13.0643497  58.3535293  21.5905735  19.9317307  48.0724779  31.3576190
  19.9805463  48.9486902  30.9753959  20.4739822  47.5302172  30.7847833
  30.4172153  58.6165902  30.6377327  29.6267697  58.5990041  30.0981826
  30.1805508  59.1554196  31.3926363  30.5370028  55.4658369  27.9510055
  30.5868033  55.3008376  28.8925578  30.4283952  54.5985628  27.5607936
  19.4206287  58.1446914  15.2402144  19.5694407  58.8282379  14.5868817
  20.2272730  58.1252004  15.7551600  27.8273791  51.4489297  29.2669362
  28.7283653  51.3095762  28.9753360  27.9021765  51.6143752  30.2067539
  22.1616596  48.8256151  28.1122548  21.2919905  49.1189717  27.8405137
  22.3976076  49.4096596  28.8329812  32.0388225  57.8855310  28.1952077
  31.7473033  58.2485291  29.0315538  31.4260356  57.1722318  28.0165409
  33.2383907  55.4508190  20.7154647  34.0730799  55.8897994  20.8792207
  33.3743036  54.9746843  19.8962893  30.2875413  53.0087925  26.6632135
  30.7629535  53.2015571  25.8550986  29.3640979  53.0647111  26.4175519
  17.1758920  54.1712092  16.2463213  16.9304962  53.2674422  16.4443423
  17.3454834  54.1729242  15.3042691  24.8655630  45.0435768  25.6287969
  25.3837574  45.7796795  25.3034457  24.5110763  45.3499762  26.4634728
  16.4454567  49.9040450  13.7449375  15.7523812  49.9784805  13.0889411
  16.2006319  49.1400793  14.2670892  25.1168224  41.4636051  21.1488865
  25.3969978  40.7959240  21.7749292  25.9018831  41.6565146  20.6363529
  22.9201692  60.6395045  12.7113892  22.3475659  61.2585232  12.2584364
  23.4934486  61.1894406  13.2453814  28.9877082  49.8853685  24.8960440
  29.9394505  49.9851783  24.9172665  28.8180533  49.0931953  25.4058525
  27.0091462  46.9709268  25.0819841  26.4141394  47.2514281  24.3866330
  26.7241158  47.4603169  25.8536582  26.1398952  60.9232195  13.8422474
  27.0729625  60.8577757  14.0455349  26.0522165  61.7588462  13.3837007
  28.7686969  60.2398065  10.8026422  28.6900600  59.9057929  11.6962179
  29.5896636  60.7319833  10.8017894  31.4665160  53.1059805  24.0102740
  31.4341480  52.1675805  24.1962424  32.0765784  53.1843841  23.2768565
  23.3048491  51.9755858  10.0529944  24.2507596  51.8462066  10.1218362
  22.9262736  51.2370519  10.5299372  31.6159649  49.8970848  24.0561023
  31.0998697  49.1129305  23.8690952  32.4999597  49.5689565  24.2207543
  29.2770375  43.6411864  20.0156836  29.0795197  43.3326952  20.9000168
  29.8870081  44.3673502  20.1454766  37.2841710  54.1675811  23.1508777
  38.0145098  53.9061100  23.7116480  36.6748655  53.4304533  23.1910845
  35.3657007  52.3083674  23.7483228  34.6390171  52.1739639  23.1399720
  34.9504294  52.6160503  24.5539946  23.1887183  56.0273604  31.5130601
  24.1090193  56.2052203  31.7070648  23.1536766  55.0829649  31.3610300
  12.4069348  51.2212197  20.4383876  12.0872133  50.3677506  20.1458250
  11.8602777  51.4360775  21.1941843  16.1849256  53.9374638  24.1553382
  16.4035266  54.8691746  24.1741416  16.5975030  53.5782613  24.9408186
  23.1053474  44.4442724  16.1429071  22.2954202  44.0989809  16.5184317
  23.7937891  44.1350267  16.7316682  25.0344022  43.5220770  17.7653367
  25.5875061  43.9416224  18.4243390  25.2714108  42.5956519  17.8076323
  21.0577121  49.5107844  33.5456131  20.9573848  50.4602201  33.4768222
  20.8398663  49.1826083  32.6732201  12.2757608  54.8415109  22.4076997
  11.5821080  54.4269062  21.8946952  13.0230599  54.8835645  21.8110416
  28.4122829  45.6321296  17.2732032  27.8321498  46.2906100  16.8910084
  28.1458762  44.8098640  16.8619449  26.8626396  45.0326353  19.4753352
  27.3626174  45.1442888  18.6667671  27.5062003  44.7287406  20.1154160
  20.9208391  52.9404983  32.3621193  20.4375473  53.7405343  32.5685082
  21.0069330  52.9512928  31.4088637  14.1894351  54.7733363  20.2843012
  14.1665039  54.8721050  19.3324895  14.4994987  55.6198513  20.6060178
  16.8481729  56.8309518  24.3989627  17.8024982  56.7993460  24.3319558
  16.6494252  56.3700141  25.2139853  17.4381111  55.4010634  26.9660424
  18.2574000  55.8954712  26.9895262  17.7117919  54.4842602  26.9377992
  27.1947707  47.7921386  16.3288380  26.3073562  48.0771037  16.1108575
  27.6101696  47.6315149  15.4815657  30.5462243  47.8167907  20.0442719
  31.3222633  48.3064359  20.3167336  29.8210377  48.2425961  20.5014589
  32.9834802  48.5295526  21.1016660  33.5779293  48.2891262  20.3909968
  33.0561386  47.8102657  21.7290196  15.2031958  62.3729137  21.4159825
  15.0686426  61.6129538  20.8497823  14.7864020  63.0970037  20.9488613
  26.3390921  57.5566061  10.4236400  27.0426771  57.7616063  11.0394055
  25.6153569  58.1242823  10.6885483  27.1688731  53.3075922  16.5438670
  27.1123932  53.7644473  15.7046302  27.7217073  52.5466607  16.3661513
  30.9793537  49.0965654  17.3688789  30.7230471  48.6962289  18.1996997
  30.3546405  49.8109448  17.2438929  35.2905875  51.8361727  19.8760081
  34.7305433  51.9054916  20.6491643  34.6849378  51.6602712  19.1559577
  18.3601084  63.2698454  21.6278267  18.2433468  64.2143887  21.5256957
  17.5393530  62.9672016  22.0164066  28.2477618  57.9948590  12.4734860
  29.0823222  57.5629788  12.2912335  28.0861961  57.8230604  13.4011754
  27.9023510  54.4980703  13.8391199  27.8472314  54.3324975  12.8979643
  27.2769566  55.2056736  13.9953389  12.6916025  49.7348768  27.6652621
  13.3374889  49.2247722  28.1539847  12.4833176  50.4717449  28.2396047
  25.2169417  56.8029615  33.1644762  26.0860577  56.9770267  32.8031397
  24.7376169  57.6224032  33.0420491  21.2119636  43.9988812  13.4176518
  21.1998306  44.9430652  13.5744788  22.1043058  43.8158958  13.1235979
  19.3855598  63.9226716  24.8434196  20.2882844  63.9550326  25.1600691
  19.1592968  62.9927167  24.8580531  21.1409200  62.6757703  21.5044274
  20.1904831  62.6759564  21.3908647  21.4441686  61.9290437  20.9880309
  25.0271755  40.5931589  17.6722454  24.2604151  40.0390076  17.8179137
  25.4382460  40.6653458  18.5336606  17.0313516  46.8816385  31.7627636
  17.8944978  46.5253189  31.9730960  16.4578927  46.5430279  32.4503040
  36.8761893  68.5118241  22.5690037  37.5140303  68.3924988  21.8653377
  36.7582736  69.4599085  22.6277989  33.6851599  68.4645669  22.5051561
  33.3470111  68.3486734  21.6172096  34.5541368  68.0636834  22.4852567
  29.5438415  70.3181145  18.4948452  28.9803280  70.2271082  17.7264740
  29.4290810  69.4981050  18.9750945  34.1671382  69.6180521  28.4637767
  34.1560023  69.2233319  27.5918271  34.3292022  68.8846593  29.0571538
  27.0902847  71.8132337  21.3332673  27.8824139  71.4723162  20.9178972
  27.3299497  71.9227312  22.2534826  35.1237974  73.9852113  13.8062917
  34.4725954  74.5706194  13.4196931  35.9182337  74.5158308  13.8657955
  29.0493601  71.0741250  14.2050052  29.8224477  70.5270237  14.0662927
  29.4019000  71.9385500  14.4164513  30.8878644  72.4017633  27.4116951
  30.5968510  73.3063263  27.2963617  31.5235628  72.4434160  28.1261020
  31.8134850  69.7794481  24.0018310  32.4098423  69.5550504  23.2875273
  31.8709822  69.0379227  24.6043758  31.3859879  67.2333916  11.8368501
  31.6385399  66.7115438  11.0751964  30.4484438  67.0700062  11.9395185
  36.4303162  66.2369695  19.6443245  37.2166251  65.8189118  19.2933662
  36.6941866  67.1415787  19.8124893  36.6013239  71.6742545  14.3431901
  35.9659072  71.7477172  15.0552806  36.2710645  72.2636144  13.6650981
  41.8311589  66.1744928  20.5476223  42.5636761  65.6044145  20.7814053
  41.0750944  65.7866528  20.9882729  31.1056168  69.1362022  14.0392876
  30.9892426  68.4606926  14.7073961  31.2158427  68.6494396  13.2225029
  33.4487708  68.5972170  17.7439566  33.0845916  68.0702790  18.4552487
  34.3054824  68.2070639  17.5706051  39.3537009  59.8866502  25.0070832
  39.0220334  60.7561913  24.7832047  38.7582622  59.5702786  25.6864862
  33.0893195  63.6262069  12.7400914  33.2567598  64.4942306  13.1071385
  32.8990365  63.7889351  11.8162203  35.8468529  72.0879048  24.4066745
  35.5469252  72.9904087  24.2982552  35.5019588  71.8211231  25.2587897
  29.2981010  68.5392845  20.4403449  28.3731507  68.4069059  20.6481141
  29.5465423  69.3187064  20.9373391  39.2465672  64.6061588  22.0864182
  38.3382550  64.5376997  21.7922943  39.1953268  65.0833533  22.9146007
  33.0682416  66.0819727  13.7247581  32.9482042  66.5276777  14.5633061
  32.3735005  66.4305044  13.1661119  26.6589821  68.1826119  21.2747238
  26.7882202  68.4360597  22.1886650  25.9787272  68.7753827  20.9551893
  30.8289308  78.8523368  17.3737712  30.7513338  79.8031194  17.4526193
  30.2250952  78.5069241  18.0312639  33.3206538  66.0251234  30.0299079
  32.5439872  66.5845154  30.0201944  33.9597101  66.5108017  30.5513949
  41.1127319  62.8078027  23.8642056  40.4701699  63.1010560  23.2181850
  40.6082247  62.6930947  24.6695252  38.7667482  66.5541200  14.5527915
  39.6785339  66.7868587  14.3775613  38.2577130  67.1378244  13.9902994
  31.5752911  68.8336687  29.5917046  32.3167595  69.3721731  29.3151870
  30.8689896  69.4602976  29.7488598  37.0508250  70.9765828  28.1889208
  37.4591606  70.5348238  27.4443840  36.3285512  70.4018455  28.4423400
  33.4039320  65.9138434  25.5622765  34.2500515  66.3377848  25.7057414
  33.3437958  65.2572059  26.2561328  37.3737065  71.5367018  21.9441496
  36.7445927  71.7012732  21.2417564  36.9862727  71.9508628  22.7152461
  41.2526297  72.4721456  19.2985860  40.5677335  72.8520358  18.7482894
  41.3370146  73.0816783  20.0317808  36.5538766  63.5742803  27.2203938
  36.3099697  64.3284863  26.6838214  36.8298696  63.9528150  28.0551185
  38.5077228  70.1181415  25.8981204  38.7194124  70.7613175  25.2215585
  38.4606977  69.2843732  25.4303134  36.1103457  62.7299236  22.8017776
  35.2487936  63.0280489  23.0934513  36.1365892  62.9469635  21.8698809
  32.9265027  71.2741426  19.2091582  33.3903372  71.5529129  18.4196204
  32.6621825  70.3724871  19.0264672  29.8189108  70.8212908  22.1471345
  30.3890465  71.2500176  21.5088829  30.4097220  70.5395493  22.8455530
  31.8633913  67.3964579  16.0181147  32.5657956  67.8485622  16.4855073
  31.5314541  66.7548398  16.6461040  30.3114274  65.9876335  30.3932356
  29.6812935  66.6692616  30.6267753  30.2050362  65.8759417  29.4485494
  25.6059247  65.6548131  21.3198280  24.8158301  65.9105660  20.8438391
  26.0970494  66.4696469  21.4250321  39.6223056  72.9953371  24.0703561
  40.4440500  72.5933558  23.7886243  39.6185459  72.8921605  25.0219677
  27.5573992  66.0192711  18.2781757  26.7605155  66.1311405  18.7965253
  27.3299584  66.3579363  17.4122647  33.3879660  72.5437414  26.2264272
  33.4524092  73.0057821  27.0622443  32.6790584  71.9134779  26.3546581
  23.8896950  65.9078622  23.7513271  24.1404988  66.7925632  24.0170847
  24.4256498  65.7283223  22.9788363  47.7129049  69.3392119  20.4188533
  46.9592758  68.7699517  20.2632537  47.8476591  69.3054784  21.3659167
  33.1027677  74.2105521  16.0943252  32.9673352  75.0557057  16.5228100
  33.6437490  74.4124799  15.3309186  29.5895017  60.2897101  32.7557607
  29.1961963  59.7363300  33.4305251  30.4061157  60.6007680  33.1464125
  26.5557075  71.7280959  16.6671177  27.0681595  72.5224210  16.8176742
  27.2079788  71.0307250  16.6004778  28.3651959  74.8446716  18.7493930
  28.5418588  75.7664680  18.5614914  29.1608793  74.5305135  19.1788310
  32.5062978  61.7054980  30.3477864  33.2472691  62.3062133  30.2682326
  32.7380901  60.9632618  29.7895906  27.6504316  66.8911348  28.6256093
  27.5357831  65.9896605  28.9263192  26.7948834  67.1375044  28.2740910
  34.7296154  74.8329088  30.2243594  34.2860008  74.0465466  29.9064499
  35.3913367  75.0208238  29.5587485  29.4883275  76.3624890  24.7504273
  30.0390700  76.2341953  23.9781266  28.6494751  76.6619779  24.3999165
  36.8277392  75.1131888  28.2524995  36.8095867  75.9340769  27.7605264
  37.7497312  74.9885963  28.4775136  33.2850446  72.6276017  29.0948504
  33.8178783  71.8664306  28.8647812  32.7564527  72.3349669  29.8372658
  36.4520141  57.7336083  24.6242145  36.1084410  58.6237725  24.5481256
  36.8199104  57.5437741  23.7611730  24.5205992  70.0569614  17.4430748
  25.3581214  70.4666622  17.2264455  24.6984259  69.1169056  17.4130941
  36.4170424  67.7244694  13.1314581  35.9017047  68.4949299  13.3702968
  36.1447732  67.0509831  13.7547642  34.0017535  62.5694395  18.1899819
  33.1459131  62.1801246  18.0105458  34.4144486  62.6486356  17.3299604
  35.5316681  60.1040738  22.5891379  35.0281477  60.0670874  21.7759184
  35.8247288  61.0133481  22.6488035  31.7759567  60.1879468  21.5957560
  32.6412564  59.9922277  21.2363450  31.8437076  59.9589820  22.5226917
  41.3904698  70.4777049  15.0667754  40.6134141  70.1388209  14.6222916
  42.0696179  70.4829672  14.3922719  36.2056727  65.5971787  14.9574362
  35.9006862  65.9117936  15.8084505  37.1587169  65.6753206  15.0001695
  34.6503159  71.7562010  16.6067316  34.1224520  71.0214769  16.2940553
  34.1490661  72.5336686  16.3607284  39.6296005  69.9511030  21.7234362
  38.9719679  70.6410292  21.8114491  40.4336404  70.3407462  22.0668348
  29.3821886  62.4181676  18.9673927  29.9565638  62.1956858  18.2347120
  29.9692869  62.4870371  19.7202528  38.4401463  68.3055403  19.7738304
  38.9533345  68.9385395  20.2760013  39.0902687  67.7056599  19.4081664
  29.7091473  64.4486137  12.9869812  28.8728786  64.7860824  13.3079087
  29.5696243  64.3135117  12.0496949  31.6844554  59.2922925  17.6948997
  31.0308966  58.9771942  17.0705611  31.6425028  58.6698665  18.4208820
  32.7955759  69.5742220   9.6102289  31.8882821  69.3431474   9.8093438
  33.2926791  68.7779839   9.7976270  35.7023838  78.2839727  12.5298975
  35.0285536  78.5871424  13.1383933  36.0889660  79.0868808  12.1804432
  34.9182294  65.7804859  22.0196644  34.0004856  66.0019806  21.8618332
  35.3342438  65.8551169  21.1608352  35.7017342  67.1796274  17.1499325
  36.4489161  67.6917671  16.8406447  35.9708932  66.8580327  18.0103718
  33.9743992  69.6754815  14.1326279  33.0655212  69.3913848  14.2298749
  34.0039076  70.0953894  13.2729586  39.2063260  73.2861404  17.9017446
  38.7525587  72.4452314  17.9582637  38.5757226  73.9222803  18.2392227
  38.1496179  64.2153390  19.1318114  37.4118936  63.7030777  19.4628356
  38.4022953  63.7753772  18.3201391  37.6496199  75.1237901  18.8367264
  37.9419173  75.6842958  18.1179630  38.1594820  75.4166462  19.5920424
  38.2507807  56.9929642  19.7259883  38.5566683  56.1327006  19.4385798
  38.9760411  57.5847263  19.5258877  24.5432163  67.3960329  18.1141481
  24.3456562  66.8029690  17.3892548  23.9878827  67.0912539  18.8317420
  32.5228886  67.2883436  20.2336074  32.5777496  66.3357272  20.1578551
  31.7120088  67.4442875  20.7177373  33.6720080  71.2163559  11.4714357
  33.2339510  70.4999418  11.0119995  34.4130521  71.4439673  10.9099449
  30.4621246  65.9060495  17.9926453  29.6489112  66.2054666  18.3991645
  30.9580240  65.5116184  18.7100935  32.6129824  75.9018252  19.9260718
  32.5706003  76.1279099  18.9969250  33.5292523  75.6681627  20.0746519
  36.0595458  66.3702320  26.8241347  36.4144846  66.5973793  27.6835813
  36.7067589  66.7020697  26.2018602  41.7893195  69.4920756  17.5290676
  41.6511093  69.6822352  16.6011865  41.4329414  70.2540138  17.9858727
  29.9535321  63.4778851  23.6087688  30.5934700  63.3367610  22.9110651
  29.1212852  63.1913364  23.2326290  41.8162574  71.5597283  22.5401947
  42.2499081  71.4672572  23.3885001  42.5294155  71.5354783  21.9021963
  30.7295625  72.7781281  19.7222680  31.5236223  72.2831601  19.5205255
  30.0187317  72.2499144  19.3590386  35.5490469  75.1599377  24.0735048
  35.6027492  75.7290313  24.8412764  34.6805251  75.3301262  23.7089085
  27.0378388  66.9224363  15.7982433  26.1075976  66.8608818  16.0152395
  27.1335860  66.4000316  15.0019074  26.9563937  63.4479176  18.3860675
  27.2170755  64.3624509  18.2769835  27.7781110  62.9803618  18.5357288
  28.4288863  64.8616933  25.5559499  29.1011916  64.6534295  24.9072148
  27.6018649  64.6639019  25.1164732  42.6778124  71.6020983  25.0734833
  42.8714014  72.5066794  25.3194108  42.5778742  71.1428402  25.9073418
  34.3314435  61.4878874  27.5725160  33.6842350  62.1868824  27.4789637
  35.1015450  61.9215018  27.9401408  37.7393233  71.7527726  30.6475713
  37.5878739  71.5238278  29.7305797  37.7297912  72.7098327  30.6607058
  34.5078569  69.3259639  25.6321980  35.4370629  69.4770798  25.4590947
  34.0869599  69.4143660  24.7770626  33.3066901  73.3510303  23.4020518
  33.1677987  72.9829088  24.2746456  32.5181497  73.8657943  23.2304475
  33.9015053  78.4519400  14.7446054  34.0766809  77.9807443  15.5591677
  33.2147841  79.0785166  14.9727315  34.8572116  72.7291906  20.7909355
  34.5221949  72.6892676  21.6867005  34.3576062  72.0636622  20.3179766
  28.8316360  68.1359536  26.3161936  28.6936158  67.4039775  26.9173476
  29.7421283  68.0468436  26.0346124  37.7931308  70.0747940  11.0646415
  37.1760478  69.3494768  10.9679468  37.3247796  70.8357301  10.7213489
  31.4598661  67.8479495  25.8045616  32.1698279  67.2072687  25.7632235
  31.4167969  68.0992390  26.7271797  39.4485439  74.7846849  28.7252195
  39.3897986  74.1006069  28.0582778  39.8504958  75.5265839  28.2732821
  30.1727595  64.8344713  27.6241256  29.6364952  64.3835452  28.2762852
  29.5844303  64.9690622  26.8811720  28.4676138  81.6008762  21.5185914
  28.7072736  82.2327287  22.1964933  27.6245335  81.2496802  21.8051273
  29.5829854  64.2933365  10.1867719  28.7059320  64.1722165   9.8229966
  30.0587607  63.5019443   9.9346608  39.4502847  72.7486433  26.9566175
  38.5629625  72.4112354  27.0792574  40.0201398  72.0169464  27.1934940
  21.1031994  69.0810524  20.2809226  21.7903034  68.7672254  19.6930242
  20.9480122  69.9851889  20.0076478  25.9066716  63.9700721  24.7094250
  25.8224905  63.3626390  23.9744660  25.0849422  64.4609739  24.7103746
  32.9804000  77.4087885  23.9227418  32.9074171  78.2142856  24.4346723
  32.5381393  77.6079851  23.0975440  32.7693780  76.6459655  17.4330240
  31.9861302  77.1881335  17.5268464  33.4686525  77.1633635  17.8324481
  36.0790430  62.4554284  20.0764445  36.5759129  61.7024247  19.7565515
  35.3077411  62.4918601  19.5107654  43.9320187  68.1594650  21.7182737
  43.9210063  69.0419365  21.3476670  43.0637567  67.8066201  21.5237274
  35.4402684  77.3074719  26.0785577  36.1530656  77.9422184  26.0061478
  34.9492712  77.4038585  25.2625579  37.1620210  71.2125972  17.6502869
  36.2276489  71.3327434  17.4807573  37.3396879  70.3098438  17.3862878
  32.6625399  64.5971667  19.8036130  32.2923186  64.0442708  20.4917035
  33.1584491  63.9929801  19.2511130  40.5492762  67.0543291  18.1852903
  41.0153214  67.8871282  18.1113205  41.0000262  66.5888272  18.8898161
  30.4914597  75.0569162  26.8991148  31.1924057  75.6905645  27.0520542
  30.0209712  75.3983894  26.1386787  38.6168993  73.3987112  15.1839055
  38.8928837  73.2843707  16.0932929  37.7473492  73.0004597  15.1451228
  38.5209425  59.4223878  22.2243804  37.6072504  59.6528105  22.3926011
  38.9502526  59.5062322  23.0757836  38.2915883  67.6113770  24.7243698
  37.6387333  67.8589677  24.0696151  38.6696263  66.7977908  24.3906175
  35.2523057  77.6473463  18.8271868  35.4345451  76.8295119  19.2899621
  36.0756043  77.8641155  18.3896758  35.5865222  76.5741648  16.0886917
  36.1152989  76.0634103  15.4757079  35.8493442  76.2584178  16.9532450
  34.3403456  68.3533581  31.2109735  33.6644093  68.2527710  31.8812110
  35.1631090  68.1972795  31.6745732  26.0882315  74.5905517  23.8322250
  26.6735752  73.8449205  23.9650155  25.8907154  74.9009474  24.7158914
  28.9420970  77.6256765  18.8484693  28.2731346  78.1102892  18.3648733
  28.8033840  77.8725985  19.7628071  20.6799970  67.1611118  22.5526694
  20.7184069  66.6274708  23.3463812  20.1740263  66.6346323  21.9337671
  33.0826239  79.6600508  25.4467351  33.6344547  79.8232130  26.2116436
  33.4232432  80.2504946  24.7747376  28.0590732  62.0075658  26.0489236
  28.1232059  62.8690489  25.6366634  27.9957852  61.3949660  25.3161594
  27.5343005  64.0798791  29.6962270  28.1615044  63.6975868  30.3099794
  26.6770924  63.8612993  30.0617963  37.9337113  74.4861766  31.3016006
  38.4777017  75.0991724  30.8070960  37.3523958  75.0441344  31.8183019
  24.3108547  65.8875220  15.6280625  24.6061989  64.9785898  15.5747679
  23.4096583  65.8662959  15.3061627  36.2194626  77.6082484  22.4331033
  36.0945766  76.8072224  21.9241979  36.8773717  78.1028677  21.9445003
  27.8402794  63.9631216  21.6108174  27.1189380  64.5767184  21.4715647
  28.6296050  64.4988981  21.5324819  38.2829535  75.4091504  24.0610583
  37.3359870  75.2896855  23.9888910  38.6312308  74.5214002  24.1436845
  30.6429108  61.2985643  27.8848825  31.1663510  61.5447939  28.6475135
  30.4241441  62.1305678  27.4651963  26.0396389  63.5689317  15.7519950
  25.7109095  62.6886696  15.5695056  26.3935760  63.5136986  16.6396339
  35.2875968  75.2044220  20.2614936  35.1400930  74.2760928  20.4422506
  36.1129461  75.2264311  19.7772011  29.1538212  63.8562287  16.1195428
  29.4934285  64.3848209  15.3974036  29.6010333  64.1942693  16.8953994
  38.8910090  76.0272779  21.3479808  39.8156637  75.8215640  21.2104259
  38.7225393  75.7789180  22.2569150  31.8481653  62.2399338  25.5698496
  31.5078473  61.4407151  25.9719176  31.1420659  62.5401049  24.9975329
  32.4998125  59.3248650  24.0225819  33.3224194  58.8509129  23.9004709
  32.7436188  60.1039134  24.5224505  31.1406359  62.3536909  14.3188720
  31.8614722  62.7318162  13.8152437  30.5171663  63.0725786  14.4223698
  35.2837482  63.0582058  15.2547053  35.5001097  63.9406696  14.9535881
  34.8031549  62.6668271  14.5252695  30.0236704  66.0167771  21.8317797
  29.8781284  66.3308074  22.7242079  29.5461907  66.6352671  21.2788696
  31.8833086  63.0070319  21.8798687  31.8694655  62.1111412  21.5430985
  32.6005515  63.0140983  22.5136973  33.7359217  63.4407659  23.9251814
  33.4776995  64.3624730  23.9236145  33.2044258  63.0438094  24.6152279
  38.6805406  76.5458446  16.7041900  38.8542283  75.9804869  15.9515752
  39.1734297  77.3459341  16.5221390  24.4982366  68.5573115  24.7705459
  23.9535834  69.3332923  24.9025733  25.3761716  68.9043920  24.6124580
  31.2869982  61.8884699  17.1486257  31.4085894  60.9601346  17.3477145
  30.9972025  61.9023385  16.2364573  34.1561173  59.5739610  20.2852977
  34.1782870  59.6378943  19.3304957  34.5729232  58.7344118  20.4793483
  44.5344797  69.3094869  18.3232200  44.9775943  68.5602195  17.9251323
  43.6571307  69.3005006  17.9405932  39.6680578  75.8625211  13.8038798
  40.3631483  76.4831903  14.0226113  40.0103729  75.0120562  14.0791176
  25.2848388  67.6843012  27.6635615  24.5430124  67.8325647  28.2500246
  24.9641132  67.9451277  26.8002365  41.5672002  73.3124916  15.3326129
  42.0923326  73.6512189  14.6075449  41.4794354  72.3771932  15.1489263
  33.2292050  77.2258990  27.4616005  33.5379177  76.9808137  28.3338705
  34.0267532  77.4305628  26.9734876  33.2512662  79.3796900  19.6921382
  32.8117653  78.8873278  20.3854239  34.0020779  78.8369867  19.4513457
  25.7305001  75.5708440  19.6946010  26.5563021  75.2712212  19.3144654
  25.3799053  74.8016063  20.1435799  30.6986534  74.9234909  21.7643684
  30.0766544  74.2605614  21.4645912  31.3691401  74.9496041  21.0817331
  23.9313606  73.4894767  20.6534944  23.0945515  73.0616941  20.4718945
  23.9037252  73.6827210  21.5905735  30.7711062  63.4016697  31.3576190
  30.8199217  64.2778819  30.9753959  31.3133576  62.8594090  30.7847833
  41.2565908  73.9457820  30.6377327  40.4661451  73.9281959  30.0981826
  41.0199262  74.4846114  31.3926363  41.3763783  70.7950286  27.9510055
  41.4261788  70.6300294  28.8925578  41.2677706  69.9277545  27.5607936
  30.2600041  73.4738832  15.2402144  30.4088162  74.1574296  14.5868817
  31.0666485  73.4543922  15.7551600  38.6667545  66.7781214  29.2669362
  39.5677408  66.6387679  28.9753360  38.7415520  66.9435669  30.2067539
  33.0010350  64.1548069  28.1122548  32.1313660  64.4481635  27.8405137
  33.2369831  64.7388514  28.8329812  42.8781980  73.2147228  28.1952077
  42.5866788  73.5777208  29.0315538  42.2654111  72.5014236  28.0165409
  44.0777662  70.7800108  20.7154647  44.9124553  71.2189912  20.8792207
  44.2136791  70.3038761  19.8962893  41.1269168  68.3379842  26.6632135
  41.6023289  68.5307489  25.8550986  40.2034733  68.3939028  26.4175519
  28.0152674  69.5004010  16.2463213  27.7698716  68.5966340  16.4443423
  28.1848589  69.5021160  15.3042691  35.7049384  60.3727686  25.6287969
  36.2231328  61.1088713  25.3034457  35.3504517  60.6791679  26.4634728
  27.2848322  65.2332367  13.7449375  26.5917567  65.3076722  13.0889411
  27.0400074  64.4692711  14.2670892  35.9561978  56.7927969  21.1488865
  36.2363732  56.1251158  21.7749292  36.7412585  56.9857064  20.6363529
  33.7595447  75.9686962  12.7113892  33.1869414  76.5877150  12.2584364
  34.3328241  76.5186324  13.2453814  39.8270837  65.2145603  24.8960440
  40.7788260  65.3143700  24.9172665  39.6574287  64.4223871  25.4058525
  37.8485216  62.3001186  25.0819841  37.2535148  62.5806198  24.3866330
  37.5634913  62.7895087  25.8536582  36.9792707  76.2524113  13.8422474
  37.9123380  76.1869674  14.0455349  36.8915920  77.0880379  13.3837007
  39.6080723  75.5689983  10.8026422  39.5294355  75.2349847  11.6962179
  40.4290390  76.0611751  10.8017894  42.3058915  68.4351722  24.0102740
  42.2735235  67.4967723  24.1962424  42.9159538  68.5135759  23.2768565
  34.1442245  67.3047775  10.0529944  35.0901350  67.1753983  10.1218362
  33.7656490  66.5662437  10.5299372  42.4553403  65.2262766  24.0561023
  41.9392452  64.4421222  23.8690952  43.3393352  64.8981482  24.2207543
  40.1164130  58.9703781  20.0156836  39.9188951  58.6618869  20.9000168
  40.7263836  59.6965420  20.1454766  48.1235464  69.4967729  23.1508777
  48.8538853  69.2353017  23.7116480  47.5142410  68.7596451  23.1910845
  46.2050762  67.6375592  23.7483228  45.4783925  67.5031557  23.1399720
  45.7898048  67.9452420  24.5539946  34.0280938  71.3565521  31.5130601
  34.9483947  71.5344120  31.7070648  33.9930521  70.4121567  31.3610300
  32.3285163  65.2297752   9.9884829  31.4216618  64.9330864  10.0647543
  32.6061144  64.9327570   9.1219116  23.2463103  66.5504115  20.4383876
  22.9265887  65.6969423  20.1458250  22.6996531  66.7652693  21.1941843
  27.0243010  69.2666556  24.1553382  27.2429020  70.1983664  24.1741416
  27.4368784  68.9074530  24.9408186  33.9447228  59.7734641  16.1429071
  33.1347957  59.4281726  16.5184317  34.6331645  59.4642185  16.7316682
  35.8737777  58.8512688  17.7653367  36.4268815  59.2708142  18.4243390
  36.1107863  57.9248436  17.8076323  31.8970876  64.8399762  33.5456131
  31.7967603  65.7894119  33.4768222  31.6792418  64.5118001  32.6732201
  31.0983947  62.0884687  10.1296809  31.9603111  62.4139585  10.3892626
  31.2834291  61.3016183   9.6169874  23.1151363  70.1707026  22.4076997
  22.4214834  69.7560979  21.8946952  23.8624354  70.2127563  21.8110416
  39.2516584  60.9613213  17.2732032  38.6715253  61.6198017  16.8910084
  38.9852516  60.1390558  16.8619449  37.7020150  60.3618271  19.4753352
  38.2019928  60.4734806  18.6667671  38.3455758  60.0579324  20.1154160
  31.7602146  68.2696901  32.3621193  31.2769228  69.0697261  32.5685082
  31.8463085  68.2804845  31.4088637  25.0288105  70.1025280  20.2843012
  25.0058794  70.2012968  19.3324895  25.3388742  70.9490431  20.6060178
  27.6875483  72.1601435  24.3989627  28.6418737  72.1285378  24.3319558
  27.4888007  71.6992059  25.2139853  28.2774865  70.7302551  26.9660424
  29.0967754  71.2246630  26.9895262  28.5511673  69.8134519  26.9377992
  38.0341462  63.1213304  16.3288380  37.1467317  63.4062954  16.1108575
  38.4495451  62.9607067  15.4815657  41.3855998  63.1459825  20.0442719
  42.1616388  63.6356277  20.3167336  40.6604132  63.5717879  20.5014589
  43.8228556  63.8587444  21.1016660  44.4173047  63.6183180  20.3909968
  43.8955140  63.1394574  21.7290196  26.0425712  77.7021055  21.4159825
  25.9080180  76.9421456  20.8497823  25.6257774  78.4261955  20.9488613
  37.1784675  72.8857978  10.4236400  37.8820525  73.0907981  11.0394055
  36.4547324  73.4534740  10.6885483  38.0082485  68.6367840  16.5438670
  37.9517687  69.0936391  15.7046302  38.5610828  67.8758524  16.3661513
  41.8187291  64.4257571  17.3688789  41.5624226  64.0254207  18.1996997
  41.1940159  65.1401365  17.2438929  46.1299629  67.1653645  19.8760081
  45.5699187  67.2346834  20.6491643  45.5243133  66.9894629  19.1559577
  29.1994838  78.5990372  21.6278267  29.0827222  79.5435804  21.5256957
  28.3787284  78.2963933  22.0164066  39.0871373  73.3240508  12.4734860
  39.9216976  72.8921706  12.2912335  38.9255715  73.1522521  13.4011754
  38.7417265  69.8272621  13.8391199  38.6866069  69.6616892  12.8979643
  38.1163320  70.5348654  13.9953389  23.5309780  65.0640685  27.6652621
  24.1768643  64.5539639  28.1539847  23.3226931  65.8009367  28.2396047
  36.0563172  72.1321533  33.1644762  36.9254332  72.3062185  32.8031397
  35.5769923  72.9515950  33.0420491  32.0513390  59.3280730  13.4176518
  32.0392060  60.2722570  13.5744788  32.9436812  59.1450875  13.1235979
  30.2249352  79.2518634  24.8434196  31.1276599  79.2842244  25.1600691
  29.9986722  78.3219085  24.8580531  31.9802954  78.0049620  21.5044274
  31.0298585  78.0051482  21.3908647  32.2835440  77.2582355  20.9880309
  35.8665510  55.9223506  17.6722454  35.0997905  55.3681993  17.8179137
  36.2776215  55.9945375  18.5336606  27.8707271  62.2108302  31.7627636
  28.7338732  61.8545107  31.9730960  27.2972681  61.8722197  32.4503040
  47.7155648  83.8410159  22.5690037  48.3534058  83.7216906  21.8653377
  47.5976491  84.7891003  22.6277989  44.5245354  83.7937587  22.5051561
  44.1863865  83.6778651  21.6172096  45.3935122  83.3928752  22.4852567
  40.3832170  85.6473063  18.4948452  39.8197035  85.5563000  17.7264740
  40.2684565  84.8272968  18.9750945  45.0065137  84.9472438  28.4637767
  44.9953778  84.5525237  27.5918271  45.1685776  84.2138511  29.0571538
  37.9296602  87.1424255  21.3332673  38.7217893  86.8015079  20.9178972
  38.1693252  87.2519230  22.2534826  45.9631728  89.3144031  13.8062917
  45.3119708  89.8998111  13.4196931  46.7576091  89.8450226  13.8657955
  39.8887355  86.4033168  14.2050052  40.6618231  85.8562155  14.0662927
  40.2412754  87.2677417  14.4164513  41.7272398  87.7309550  27.4116951
  41.4362264  88.6355181  27.2963617  42.3629382  87.7726078  28.1261020
  42.6528605  85.1086399  24.0018310  43.2492177  84.8842421  23.2875273
  42.7103576  84.3671144  24.6043758  42.2253633  82.5625834  11.8368501
  42.4779154  82.0407355  11.0751964  41.2878192  82.3991980  11.9395185
  47.2696916  81.5661612  19.6443245  48.0560005  81.1481036  19.2933662
  47.5335620  82.4707705  19.8124893  47.4406993  87.0034463  14.3431901
  46.8052826  87.0769089  15.0552806  47.1104400  87.5928062  13.6650981
  52.6705343  81.5036846  20.5476223  53.4030515  80.9336063  20.7814053
  51.9144699  81.1158446  20.9882729  41.9449922  84.4653940  14.0392876
  41.8286180  83.7898843  14.7073961  42.0552182  83.9786314  13.2225029
  44.2881463  83.9264087  17.7439566  43.9239670  83.3994708  18.4552487
  45.1448579  83.5362556  17.5706051  50.1930764  75.2158420  25.0070832
  49.8614088  76.0853831  24.7832047  49.5976377  74.8994704  25.6864862
  43.9286950  78.9553987  12.7400914  44.0961352  79.8234223  13.1071385
  43.7384119  79.1181269  11.8162203  46.6862283  87.4170966  24.4066745
  46.3863006  88.3196005  24.2982552  46.3413343  87.1503149  25.2587897
  40.1374765  83.8684763  20.4403449  39.2125261  83.7360977  20.6481141
  40.3859178  84.6478982  20.9373391  50.0859427  79.9353506  22.0864182
  49.1776304  79.8668914  21.7922943  50.0347023  80.4125451  22.9146007
  43.9076171  81.4111644  13.7247581  43.7875796  81.8568695  14.5633061
  43.2128759  81.7596962  13.1661119  37.4983576  83.5118036  21.2747238
  37.6275957  83.7652515  22.1886650  36.8181027  84.1045744  20.9551893
  41.6683063  94.1815286  17.3737712  41.5907093  95.1323111  17.4526193
  41.0644707  93.8361159  18.0312639  44.1600293  81.3543152  30.0299079
  43.3833627  81.9137072  30.0201944  44.7990856  81.8399935  30.5513949
  51.9521073  78.1369944  23.8642056  51.3095454  78.4302478  23.2181850
  51.4476002  78.0222865  24.6695252  49.6061237  81.8833118  14.5527915
  50.5179093  82.1160504  14.3775613  49.0970884  82.4670162  13.9902994
  42.4146665  84.1628605  29.5917046  43.1561349  84.7013649  29.3151870
  41.7083650  84.7894894  29.7488598  47.8902005  86.3057745  28.1889208
  48.2985361  85.8640156  27.4443840  47.1679266  85.7310373  28.4423400
  44.2433075  81.2430352  25.5622765  45.0894270  81.6669766  25.7057414
  44.1831712  80.5863976  26.2561328  48.2130819  86.8658936  21.9441496
  47.5839682  87.0304650  21.2417564  47.8256481  87.2800546  22.7152461
  52.0920051  87.8013374  19.2985860  51.4071089  88.1812275  18.7482894
  52.1763900  88.4108701  20.0317808  47.3932520  78.9034721  27.2203938
  47.1493452  79.6576781  26.6838214  47.6692451  79.2820068  28.0551185
  49.3470983  85.4473333  25.8981204  49.5587878  86.0905093  25.2215585
  49.3000731  84.6135649  25.4303134  46.9497212  78.0591154  22.8017776
  46.0881691  78.3572407  23.0934513  46.9759646  78.2761552  21.8698809
  43.7658781  86.6033344  19.2091582  44.2297127  86.8821047  18.4196204
  43.5015579  85.7016789  19.0264672  40.6582862  86.1504826  22.1471345
  41.2284219  86.5792094  21.5088829  41.2490974  85.8687410  22.8455530
  42.7027667  82.7256496  16.0181147  43.4051711  83.1777540  16.4855073
  42.3708296  82.0840315  16.6461040  41.1508029  81.3168253  30.3932356
  40.5206689  81.9984534  30.6267753  41.0444117  81.2051335  29.4485494
  36.4453001  80.9840049  21.3198280  35.6552055  81.2397578  20.8438391
  36.9364249  81.7988387  21.4250321  50.4616811  88.3245288  24.0703561
  51.2834254  87.9225476  23.7886243  50.4579214  88.2213522  25.0219677
  38.3967747  81.3484628  18.2781757  37.5998910  81.4603323  18.7965253
  38.1693339  81.6871281  17.4122647  44.2273414  87.8729332  26.2264272
  44.2917847  88.3349739  27.0622443  43.5184338  87.2426697  26.3546581
  34.7290704  81.2370540  23.7513271  34.9798743  82.1217550  24.0170847
  35.2650253  81.0575141  22.9788363  58.5522804  84.6684037  20.4188533
  57.7986512  84.0991435  20.2632537  58.6870345  84.6346701  21.3659167
  43.9421432  89.5397439  16.0943252  43.8067107  90.3848975  16.5228100
  44.4831244  89.7416717  15.3309186  40.4288771  75.6189019  32.7557607
  40.0355717  75.0655218  33.4305251  41.2454912  75.9299597  33.1464125
  37.3950829  87.0572877  16.6671177  37.9075350  87.8516127  16.8176742
  38.0473542  86.3599168  16.6004778  39.2045714  90.1738633  18.7493930
  39.3812342  91.0956598  18.5614914  40.0002547  89.8597053  19.1788310
  43.3456732  77.0346898  30.3477864  44.0866446  77.6354051  30.2682326
  43.5774655  76.2924536  29.7895906  38.4898070  82.2203265  28.6256093
  38.3751586  81.3188523  28.9263192  37.6342588  82.4666962  28.2740910
  45.5689908  90.1621006  30.2243594  45.1253762  89.3757384  29.9064499
  46.2307122  90.3500156  29.5587485  40.3277029  91.6916807  24.7504273
  40.8784455  91.5633871  23.9781266  39.4888505  91.9911696  24.3999165
  47.6671146  90.4423806  28.2524995  47.6489622  91.2632687  27.7605264
  48.5891066  90.3177881  28.4775136  44.1244200  87.9567935  29.0948504
  44.6572537  87.1956223  28.8647812  43.5958282  87.6641587  29.8372658
  47.2913895  73.0628001  24.6242145  46.9478165  73.9529643  24.5481256
  47.6592858  72.8729659  23.7611730  35.3599746  85.3861531  17.4430748
  36.1974968  85.7958540  17.2264455  35.5378014  84.4460974  17.4130941
  47.2564178  83.0536612  13.1314581  46.7410802  83.8241217  13.3702968
  46.9841487  82.3801748  13.7547642  44.8411289  77.8986313  18.1899819
  43.9852886  77.5093163  18.0105458  45.2538241  77.9778274  17.3299604
  46.3710436  75.4332656  22.5891379  45.8675231  75.3962791  21.7759184
  46.6641043  76.3425399  22.6488035  42.6153322  75.5171386  21.5957560
  43.4806318  75.3214195  21.2363450  42.6830831  75.2881738  22.5226917
  52.2298452  85.8068967  15.0667754  51.4527895  85.4680126  14.6222916
  52.9089933  85.8121590  14.3922719  47.0450481  80.9263704  14.9574362
  46.7400617  81.2409853  15.8084505  47.9980923  81.0045124  15.0001695
  45.4896913  87.0853928  16.6067316  44.9618275  86.3506687  16.2940553
  44.9884416  87.8628604  16.3607284  50.4689759  85.2802948  21.7234362
  49.8113434  85.9702209  21.8114491  51.2730158  85.6699380  22.0668348
  40.2215641  77.7473594  18.9673927  40.7959393  77.5248775  18.2347120
  40.8086623  77.8162288  19.7202528  49.2795218  83.6347321  19.7738304
  49.7927100  84.2677313  20.2760013  49.9296442  83.0348516  19.4081664
  40.5485228  79.7778055  12.9869812  39.7122540  80.1152741  13.3079087
  40.4089998  79.6427035  12.0496949  42.5238308  74.6214843  17.6948997
  41.8702721  74.3063860  17.0705611  42.4818783  73.9990583  18.4208820
  43.6349513  84.9034138   9.6102289  42.7276575  84.6723391   9.8093438
  44.1320545  84.1071757   9.7976270  46.5417592  93.6131645  12.5298975
  45.8679291  93.9163342  13.1383933  46.9283414  94.4160725  12.1804432
  45.7576049  81.1096776  22.0196644  44.8398610  81.3311723  21.8618332
  46.1736192  81.1843087  21.1608352  46.5411097  82.5088192  17.1499325
  47.2882916  83.0209589  16.8406447  46.8102686  82.1872245  18.0103718
  44.8137747  85.0046733  14.1326279  43.9048966  84.7205765  14.2298749
  44.8432831  85.4245811  13.2729586  50.0457014  88.6153322  17.9017446
  49.5919341  87.7744232  17.9582637  49.4150981  89.2514721  18.2392227
  48.9889934  79.5445308  19.1318114  48.2512691  79.0322694  19.4628356
  49.2416707  79.1045690  18.3201391  48.4889953  90.4529819  18.8367264
  48.7812928  91.0134876  18.1179630  48.9988574  90.7458380  19.5920424
  49.0901561  72.3221560  19.7259883  49.3960438  71.4618924  19.4385798
  49.8154166  72.9139180  19.5258877  35.3825917  82.7252247  18.1141481
  35.1850317  82.1321607  17.3892548  34.8272581  82.4204457  18.8317420
  43.3622641  82.6175353  20.2336074  43.4171251  81.6649190  20.1578551
  42.5513843  82.7734792  20.7177373  44.5113835  86.5455476  11.4714357
  44.0733264  85.8291335  11.0119995  45.2524275  86.7731591  10.9099449
  41.3015001  81.2352413  17.9926453  40.4882866  81.5346584  18.3991645
  41.7973995  80.8408102  18.7100935  43.4523579  91.2310170  19.9260718
  43.4099757  91.4571016  18.9969250  44.3686277  90.9973544  20.0746519
  46.8989212  81.6994237  26.8241347  47.2538600  81.9265711  27.6835813
  47.5461344  82.0312614  26.2018602  52.6286949  84.8212673  17.5290676
  52.4904848  85.0114269  16.6011865  52.2723168  85.5832056  17.9858727
  40.7929075  78.8070769  23.6087688  41.4328455  78.6659528  22.9110651
  39.9606606  78.5205282  23.2326290  52.6556329  86.8889200  22.5401947
  53.0892836  86.7964489  23.3885001  53.3687910  86.8646701  21.9021963
  41.5689379  88.1073199  19.7222680  42.3629978  87.6123519  19.5205255
  40.8581072  87.5791062  19.3590386  46.3884224  90.4891294  24.0735048
  46.4421246  91.0582231  24.8412764  45.5199005  90.6593179  23.7089085
  37.8772143  82.2516281  15.7982433  36.9469731  82.1900736  16.0152395
  37.9729615  81.7292233  15.0019074  37.7957692  78.7771093  18.3860675
  38.0564509  79.6916427  18.2769835  38.6174864  78.3095536  18.5357288
  39.2682617  80.1908851  25.5559499  39.9405671  79.9826213  24.9072148
  38.4412404  79.9930937  25.1164732  53.5171879  86.9312901  25.0734833
  53.7107769  87.8358712  25.3194108  53.4172497  86.4720320  25.9073418
  45.1708189  76.8170792  27.5725160  44.5236104  77.5160741  27.4789637
  45.9409205  77.2506936  27.9401408  48.5786987  87.0819644  30.6475713
  48.4272494  86.8530195  29.7305797  48.5691667  88.0390245  30.6607058
  45.3472324  84.6551556  25.6321980  46.2764384  84.8062716  25.4590947
  44.9263354  84.7435577  24.7770626  44.1460655  88.6802221  23.4020518
  44.0071741  88.3121005  24.2746456  43.3575252  89.1949860  23.2304475
  44.7408807  93.7811317  14.7446054  44.9160563  93.3099361  15.5591677
  44.0541595  94.4077084  14.9727315  45.6965871  88.0583824  20.7909355
  45.3615703  88.0184594  21.6867005  45.1969816  87.3928540  20.3179766
  39.6710114  83.4651454  26.3161936  39.5329912  82.7331692  26.9173476
  40.5815038  83.3760354  26.0346124  48.6325062  85.4039858  11.0646415
  48.0154233  84.6786686  10.9679468  48.1641551  86.1649218  10.7213489
  42.2992415  83.1771413  25.8045616  43.0092034  82.5364605  25.7632235
  42.2561723  83.4284308  26.7271797  50.2879194  90.1138766  28.7252195
  50.2291740  89.4297986  28.0582778  50.6898712  90.8557756  28.2732821
  41.0121349  80.1636631  27.6241256  40.4758706  79.7127369  28.2762852
  40.4238058  80.2982540  26.8811720  39.3069893  96.9300680  21.5185914
  39.5466491  97.5619204  22.1964933  38.4639089  96.5788720  21.8051273
  40.4223608  79.6225282  10.1867719  39.5453074  79.5014083   9.8229966
  40.8981361  78.8311361   9.9346608  50.2896601  88.0778350  26.9566175
  49.4023380  87.7404272  27.0792574  50.8595152  87.3461381  27.1934940
  31.9425748  84.4102442  20.2809226  32.6296788  84.0964172  19.6930242
  31.7873877  85.3143807  20.0076478  36.7460470  79.2992639  24.7094250
  36.6618659  78.6918308  23.9744660  35.9243177  79.7901657  24.7103746
  43.8197755  92.7379803  23.9227418  43.7467926  93.5434774  24.4346723
  43.3775148  92.9371768  23.0975440  43.6087534  91.9751573  17.4330240
  42.8255056  92.5173253  17.5268464  44.3080279  92.4925552  17.8324481
  46.9184184  77.7846202  20.0764445  47.4152884  77.0316164  19.7565515
  46.1471166  77.8210519  19.5107654  54.7713942  83.4886568  21.7182737
  54.7603818  84.3711283  21.3476670  53.9031321  83.1358118  21.5237274
  46.2796438  92.6366637  26.0785577  46.9924410  93.2714101  26.0061478
  45.7886467  92.7330503  25.2625579  48.0013965  86.5417889  17.6502869
  47.0670244  86.6619352  17.4807573  48.1790633  85.6390356  17.3862878
  43.5019153  79.9263585  19.8036130  43.1316941  79.3734625  20.4917035
  43.9978245  79.3221719  19.2511130  51.3886516  82.3835209  18.1852903
  51.8546968  83.2163200  18.1113205  51.8394017  81.9180190  18.8898161
  41.3308352  90.3861080  26.8991148  42.0317811  91.0197563  27.0520542
  40.8603467  90.7275812  26.1386787  49.4562747  88.7279030  15.1839055
  49.7322591  88.6135624  16.0932929  48.5867246  88.3296515  15.1451228
  49.3603179  74.7515796  22.2243804  48.4466259  74.9820022  22.3926011
  49.7896280  74.8354240  23.0757836  49.1309638  82.9405688  24.7243698
  48.4781088  83.1881595  24.0696151  49.5090017  82.1269826  24.3906175
  46.0916811  92.9765381  18.8271868  46.2739206  92.1587037  19.2899621
  46.9149797  93.1933073  18.3896758  46.4258977  91.9033566  16.0886917
  46.9546743  91.3926020  15.4757079  46.6887196  91.5876096  16.9532450
  45.1797211  83.6825499  31.2109735  44.5037848  83.5819628  31.8812110
  46.0024844  83.5264712  31.6745732  36.9276070  89.9197435  23.8322250
  37.5129506  89.1741123  23.9650155  36.7300908  90.2301392  24.7158914
  39.7814725  92.9548683  18.8484693  39.1125100  93.4394810  18.3648733
  39.6427595  93.2017903  19.7628071  31.5193724  82.4903035  22.5526694
  31.5577824  81.9566626  23.3463812  31.0134017  81.9638241  21.9337671
  43.9219993  94.9892426  25.4467351  44.4738301  95.1524048  26.2116436
  44.2626187  95.5796864  24.7747376  38.8984487  77.3367576  26.0489236
  38.9625813  78.1982407  25.6366634  38.8351607  76.7241577  25.3161594
  38.3736759  79.4090708  29.6962270  39.0008798  79.0267786  30.3099794
  37.5164678  79.1904910  30.0617963  48.7730868  89.8153684  31.3016006
  49.3170772  90.4283642  30.8070960  48.1917713  90.3733262  31.8183019
  35.1502302  81.2167137  15.6280625  35.4455743  80.3077816  15.5747679
  34.2490338  81.1954877  15.3061627  47.0588381  92.9374402  22.4331033
  46.9339520  92.1364141  21.9241979  47.7167472  93.4320595  21.9445003
  38.6796549  79.2923134  21.6108174  37.9583135  79.9059102  21.4715647
  39.4689805  79.8280899  21.5324819  49.1223289  90.7383422  24.0610583
  48.1753625  90.6188773  23.9888910  49.4706062  89.8505920  24.1436845
  41.4822862  76.6277561  27.8848825  42.0057264  76.8739857  28.6475135
  41.2635196  77.4597595  27.4651963  36.8790144  78.8981235  15.7519950
  36.5502850  78.0178614  15.5695056  37.2329514  78.8428904  16.6396339
  46.1269722  90.5336138  20.2614936  45.9794685  89.6052845  20.4422506
  46.9523216  90.5556229  19.7772011  39.9931967  79.1854205  16.1195428
  40.3328039  79.7140126  15.3974036  40.4404087  79.5234611  16.8953994
  49.7303844  91.3564697  21.3479808  50.6550392  91.1507558  21.2104259
  49.5619148  91.1081098  22.2569150  42.6875408  77.5691256  25.5698496
  42.3472228  76.7699069  25.9719176  41.9814414  77.8692967  24.9975329
  43.3391879  74.6540568  24.0225819  44.1617949  74.1801046  23.9004709
  43.5829943  75.4331052  24.5224505  41.9800114  77.6828827  14.3188720
  42.7008476  78.0610079  13.8152437  41.3565418  78.4017703  14.4223698
  46.1231237  78.3873976  15.2547053  46.3394851  79.2698613  14.9535881
  45.6425304  77.9960189  14.5252695  40.8630458  81.3459689  21.8317797
  40.7175039  81.6599992  22.7242079  40.3855662  81.9644589  21.2788696
  42.7226841  78.3362237  21.8798687  42.7088410  77.4403330  21.5430985
  43.4399269  78.3432900  22.5136973  44.5752972  78.7699577  23.9251814
  44.3170750  79.6916648  23.9236145  44.0438012  78.3730011  24.6152279
  49.5199160  91.8750364  16.7041900  49.6936038  91.3096787  15.9515752
  50.0128052  92.6751259  16.5221390  35.3376120  83.8865033  24.7705459
  34.7929588  84.6624841  24.9025733  36.2155470  84.2335838  24.6124580
  42.1263737  77.2176617  17.1486257  42.2479648  76.2893263  17.3477145
  41.8365779  77.2315303  16.2364573  44.9954927  74.9031527  20.2852977
  45.0176624  74.9670861  19.3304957  45.4122986  74.0636036  20.4793483
  55.3738552  84.6386787  18.3232200  55.8169698  83.8894112  17.9251323
  54.4965062  84.6296923  17.9405932  50.5074333  91.1917128  13.8038798
  51.2025238  91.8123821  14.0226113  50.8497483  90.3412480  14.0791176
  36.1242142  83.0134929  27.6635615  35.3823878  83.1617565  28.2500246
  35.8034886  83.2743195  26.8002365  52.4065756  88.6416834  15.3326129
  52.9317080  88.9804107  14.6075449  52.3188109  87.7063849  15.1489263
  44.0685805  92.5550908  27.4616005  44.3772931  92.3100054  28.3338705
  44.8661287  92.7597546  26.9734876  44.0906417  94.7088817  19.6921382
  43.6511407  94.2165196  20.3854239  44.8414534  94.1661785  19.4513457
  36.5698756  90.9000358  19.6946010  37.3956776  90.6004130  19.3144654
  36.2192808  90.1307981  20.1435799  41.5380289  90.2526826  21.7643684
  40.9160298  89.5897531  21.4645912  42.2085156  90.2787958  21.0817331
  34.7707361  88.8186685  20.6534944  33.9339269  88.3908859  20.4718945
  34.7431006  89.0119128  21.5905735  41.6104816  78.7308614  31.3576190
  41.6592972  79.6070737  30.9753959  42.1527331  78.1886007  30.7847833
  52.0959662  89.2749738  30.6377327  51.3055206  89.2573876  30.0981826
  51.8593017  89.8138031  31.3926363  52.2157537  86.1242204  27.9510055
  52.2655542  85.9592211  28.8925578  52.1071461  85.2569463  27.5607936
  41.0993796  88.8030750  15.2402144  41.2481916  89.4866214  14.5868817
  41.9060239  88.7835840  15.7551600  49.5061300  82.1073132  29.2669362
  50.4071162  81.9679597  28.9753360  49.5809274  82.2727587  30.2067539
  43.8404105  79.4839987  28.1122548  42.9707414  79.7773553  27.8405137
  44.0763585  80.0680432  28.8329812  53.7175734  88.5439146  28.1952077
  53.4260542  88.9069126  29.0315538  53.1047865  87.8306154  28.0165409
  54.9171416  86.1092025  20.7154647  55.7518308  86.5481829  20.8792207
  55.0530545  85.6330679  19.8962893  51.9662922  83.6671760  26.6632135
  52.4417044  83.8599406  25.8550986  51.0428488  83.7230946  26.4175519
  38.8546429  84.8295927  16.2463213  38.6092471  83.9258257  16.4443423
  39.0242343  84.8313078  15.3042691  46.5443139  75.7019604  25.6287969
  47.0625083  76.4380631  25.3034457  46.1898271  76.0083597  26.4634728
  38.1242076  80.5624285  13.7449375  37.4311321  80.6368640  13.0889411
  37.8793828  79.7984629  14.2670892  46.7955733  72.1219886  21.1488865
  47.0757487  71.4543075  21.7749292  47.5806340  72.3148982  20.6363529
  44.5989201  91.2978880  12.7113892  44.0263168  91.9169067  12.2584364
  45.1721995  91.8478242  13.2453814  50.6664591  80.5437520  24.8960440
  51.6182014  80.6435618  24.9172665  50.4968042  79.7515789  25.4058525
  48.6878971  77.6293103  25.0819841  48.0928903  77.9098116  24.3866330
  48.4028667  78.1187004  25.8536582  47.8186461  91.5816030  13.8422474
  48.7517134  91.5161592  14.0455349  47.7309674  92.4172297  13.3837007
  50.4474478  90.8981901  10.8026422  50.3688109  90.5641764  11.6962179
  51.2684145  91.3903669  10.8017894  53.1452669  83.7643640  24.0102740
  53.1128989  82.8259641  24.1962424  53.7553293  83.8427677  23.2768565
  44.9836000  82.6339693  10.0529944  45.9295105  82.5045901  10.1218362
  44.6050245  81.8954355  10.5299372  53.2947158  80.5554683  24.0561023
  52.7786206  79.7713140  23.8690952  54.1787106  80.2273400  24.2207543
  50.9557884  74.2995699  20.0156836  50.7582706  73.9910787  20.9000168
  51.5657590  75.0257338  20.1454766  58.9629219  84.8259647  23.1508777
  59.6932607  84.5644935  23.7116480  58.3536164  84.0888369  23.1910845
  57.0444516  82.9667509  23.7483228  56.3177680  82.8323474  23.1399720
  56.6291803  83.2744338  24.5539946  44.8674692  86.6857439  31.5130601
  45.7877702  86.8636038  31.7070648  44.8324275  85.7413484  31.3610300
  43.1678917  80.5589669   9.9884829  42.2610372  80.2622782  10.0647543
  43.4454898  80.2619487   9.1219116  34.0856857  81.8796033  20.4383876
  33.7659642  81.0261341  20.1458250  33.5390286  82.0944611  21.1941843
  37.8636765  84.5958474  24.1553382  38.0822775  85.5275581  24.1741416
  38.2762539  84.2366448  24.9408186  44.7840983  75.1026559  16.1429071
  43.9741711  74.7573644  16.5184317  45.4725400  74.7934103  16.7316682
  46.7131531  74.1804606  17.7653367  47.2662570  74.6000059  18.4243390
  46.9501617  73.2540354  17.8076323  42.7364630  80.1691679  33.5456131
  42.6361357  81.1186036  33.4768222  42.5186172  79.8409918  32.6732201
  41.9377702  77.4176604  10.1296809  42.7996866  77.7431503  10.3892626
  42.1228046  76.6308100   9.6169874  33.9545117  85.4998944  22.4076997
  33.2608589  85.0852897  21.8946952  34.7018108  85.5419481  21.8110416
  50.0910338  76.2905131  17.2732032  49.5109007  76.9489935  16.8910084
  49.8246271  75.4682476  16.8619449  48.5413905  75.6910189  19.4753352
  49.0413683  75.8026723  18.6667671  49.1849512  75.3871242  20.1154160
  42.5995900  83.5988818  32.3621193  42.1162982  84.3989178  32.5685082
  42.6856839  83.6096763  31.4088637  35.8681860  85.4317198  20.2843012
  35.8452548  85.5304885  19.3324895  36.1782496  86.2782349  20.6060178
  38.5269238  87.4893353  24.3989627  39.4812491  87.4577295  24.3319558
  38.3281761  87.0283977  25.2139853  39.1168620  86.0594469  26.9660424
  39.9361509  86.5538548  26.9895262  39.3905428  85.1426437  26.9377992
  48.8735216  78.4505221  16.3288380  47.9861071  78.7354872  16.1108575
  49.2889205  78.2898985  15.4815657  52.2249752  78.4751742  20.0442719
  53.0010142  78.9648195  20.3167336  51.4997886  78.9009797  20.5014589
  54.6622311  79.1879362  21.1016660  55.2566802  78.9475097  20.3909968
  54.7348895  78.4686492  21.7290196  36.8819467  93.0312972  21.4159825
  36.7473935  92.2713373  20.8497823  36.4651529  93.7553872  20.9488613
  48.0178430  88.2149896  10.4236400  48.7214280  88.4199899  11.0394055
  47.2941078  88.7826658  10.6885483  48.8476240  83.9659757  16.5438670
  48.7911441  84.4228309  15.7046302  49.4004582  83.2050442  16.3661513
  52.6581046  79.7549489  17.3688789  52.4017980  79.3546125  18.1996997
  52.0333914  80.4693283  17.2438929  56.9693384  82.4945562  19.8760081
  56.4092942  82.5638752  20.6491643  56.3636887  82.3186547  19.1559577
  40.0388592  93.9282289  21.6278267  39.9220977  94.8727722  21.5256957
  39.2181039  93.6255851  22.0164066  49.9265127  88.6532425  12.4734860
  50.7610731  88.2213624  12.2912335  49.7649470  88.4814439  13.4011754
  49.5811019  85.1564539  13.8391199  49.5259823  84.9908810  12.8979643
  48.9557074  85.8640571  13.9953389  34.3703534  80.3932603  27.6652621
  35.0162398  79.8831557  28.1539847  34.1620685  81.1301285  28.2396047
  46.8956926  87.4613450  33.1644762  47.7648086  87.6354103  32.8031397
  46.4163678  88.2807867  33.0420491  42.8907145  74.6572648  13.4176518
  42.8785814  75.6014487  13.5744788  43.7830567  74.4742793  13.1235979
  41.0643107  94.5810551  24.8434196  41.9670353  94.6134162  25.1600691
  40.8380477  93.6511002  24.8580531  42.8196709  93.3341538  21.5044274
  41.8692340  93.3343400  21.3908647  43.1229195  92.5874273  20.9880309
  46.7059264  71.2515424  17.6722454  45.9391660  70.6973911  17.8179137
  47.1169969  71.3237293  18.5336606  38.7101025  77.5400220  31.7627636
  39.5732487  77.1837025  31.9730960  38.1366436  77.2014115  32.4503040
  58.5549402  99.1702076  22.5690037  59.1927812  99.0508824  21.8653377
  58.4370245 100.1182920  22.6277989  55.3639108  99.1229504  22.5051561
  55.0257620  99.0070569  21.6172096  56.2328877  98.7220670  22.4852567
  51.2225924 100.9764981  18.4948452  50.6590789 100.8854918  17.7264740
  51.1078319 100.1564885  18.9750945  55.8458891 100.2764356  28.4637767
  55.8347532  99.8817154  27.5918271  56.0079531  99.5430429  29.0571538
  48.7690356 102.4716172  21.3332673  49.5611648 102.1306997  20.9178972
  49.0087006 102.5811147  22.2534826  56.8025483 104.6435949  13.8062917
  56.1513463 105.2290029  13.4196931  57.5969846 105.1742143  13.8657955
  50.7281110 101.7325086  14.2050052  51.5011986 101.1854073  14.0662927
  51.0806509 102.5969335  14.4164513  52.5666153 103.0601468  27.4116951
  52.2756019 103.9647099  27.2963617  53.2023137 103.1017996  28.1261020
  53.4922359 100.4378316  24.0018310  54.0885932 100.2134339  23.2875273
  53.5497331  99.6963062  24.6043758  53.0647388  97.8917752  11.8368501
  53.3172908  97.3699273  11.0751964  52.1271947  97.7283897  11.9395185
  58.1090671  96.8953530  19.6443245  58.8953760  96.4772953  19.2933662
  58.3729375  97.7999622  19.8124893  58.2800748 102.3326380  14.3431901
  57.6446581 102.4061007  15.0552806  57.9498154 102.9219979  13.6650981
  63.5099098  96.8328763  20.5476223  64.2424270  96.2627980  20.7814053
  62.7538453  96.4450364  20.9882729  52.7843677  99.7945858  14.0392876
  52.6679935  99.1190761  14.7073961  52.8945936  99.3078232  13.2225029
  55.1275217  99.2556005  17.7439566  54.7633425  98.7286626  18.4552487
  55.9842333  98.8654474  17.5706051  61.0324518  90.5450337  25.0070832
  60.7007843  91.4145748  24.7832047  60.4370131  90.2286621  25.6864862
  54.7680704  94.2845905  12.7400914  54.9355107  95.1526141  13.1071385
  54.5777874  94.4473186  11.8162203  57.5256038 102.7462883  24.4066745
  57.2256761 103.6487922  24.2982552  57.1807097 102.4795067  25.2587897
  50.9768519  99.1976680  20.4403449  50.0519016  99.0652894  20.6481141
  51.2252932  99.9770900  20.9373391  60.9253181  95.2645424  22.0864182
  60.0170059  95.1960832  21.7922943  60.8740777  95.7417369  22.9146007
  54.7469925  96.7403562  13.7247581  54.6269551  97.1860613  14.5633061
  54.0522514  97.0888880  13.1661119  48.3377330  98.8409954  21.2747238
  48.4669711  99.0944433  22.1886650  47.6574781  99.4337662  20.9551893
  52.5076817 109.5107204  17.3737712  52.4300847 110.4615029  17.4526193
  51.9038461 109.1653076  18.0312639  54.9994047  96.6835069  30.0299079
  54.2227381  97.2428989  30.0201944  55.6384610  97.1691852  30.5513949
  62.7914828  93.4661862  23.8642056  62.1489208  93.7594395  23.2181850
  62.2869756  93.3514782  24.6695252  60.4454991  97.2125035  14.5527915
  61.3572848  97.4452422  14.3775613  59.9364639  97.7962079  13.9902994
  53.2540419  99.4920523  29.5917046  53.9955104 100.0305567  29.3151870
  52.5477405 100.1186811  29.7488598  58.7295759 101.6349663  28.1889208
  59.1379115 101.1932074  27.4443840  58.0073021 101.0602291  28.4423400
  55.0826829  96.5722270  25.5622765  55.9288024  96.9961683  25.7057414
  55.0225467  95.9155894  26.2561328  59.0524574 102.1950854  21.9441496
  58.4233436 102.3596568  21.2417564  58.6650236 102.6092463  22.7152461
  62.9313806 103.1305292  19.2985860  62.2464844 103.5104193  18.7482894
  63.0157655 103.7400618  20.0317808  58.2326275  94.2326638  27.2203938
  57.9887206  94.9868699  26.6838214  58.5086205  94.6111986  28.0551185
  60.1864737 100.7765251  25.8981204  60.3981633 101.4197010  25.2215585
  60.1394486  99.9427567  25.4303134  57.7890966  93.3883071  22.8017776
  56.9275445  93.6864325  23.0934513  57.8153401  93.6053470  21.8698809
  54.6052536 101.9325262  19.2091582  55.0690881 102.2112965  18.4196204
  54.3409334 101.0308706  19.0264672  51.4976617 101.4796743  22.1471345
  52.0677974 101.9084012  21.5088829  52.0884729 101.1979328  22.8455530
  53.5421422  98.0548414  16.0181147  54.2445465  98.5069458  16.4855073
  53.2102050  97.4132233  16.6461040  51.9901783  96.6460171  30.3932356
  51.3600444  97.3276452  30.6267753  51.8837871  96.5343252  29.4485494
  47.2846756  96.3131967  21.3198280  46.4945810  96.5689495  20.8438391
  47.7758003  97.1280305  21.4250321  61.3010565 103.6537206  24.0703561
  62.1228009 103.2517393  23.7886243  61.2972968 103.5505440  25.0219677
  49.2361501  96.6776546  18.2781757  48.4392664  96.7895240  18.7965253
  49.0087093  97.0163198  17.4122647  55.0667169 103.2021249  26.2264272
  55.1311601 103.6641657  27.0622443  54.3578093 102.5718614  26.3546581
  45.5684459  96.5662457  23.7513271  45.8192497  97.4509467  24.0170847
  46.1044007  96.3867059  22.9788363  69.3916558  99.9975954  20.4188533
  68.6380267  99.4283353  20.2632537  69.5264099  99.9638619  21.3659167
  54.7815186 104.8689357  16.0943252  54.6460861 105.7140893  16.5228100
  55.3224999 105.0708634  15.3309186  51.2682526  90.9480937  32.7557607
  50.8749472  90.3947135  33.4305251  52.0848666  91.2591515  33.1464125
  48.2344584 102.3864795  16.6671177  48.7469104 103.1808045  16.8176742
  48.8867297 101.6891085  16.6004778  50.0439468 105.5030551  18.7493930
  50.2206097 106.4248516  18.5614914  50.8396302 105.1888970  19.1788310
  54.1850487  92.3638816  30.3477864  54.9260200  92.9645969  30.2682326
  54.4168410  91.6216454  29.7895906  49.3291825  97.5495183  28.6256093
  49.2145340  96.6480440  28.9263192  48.4736343  97.7958880  28.2740910
  56.4083663 105.4912923  30.2243594  55.9647517 104.7049302  29.9064499
  57.0700876 105.6792074  29.5587485  51.1670784 107.0208725  24.7504273
  51.7178209 106.8925788  23.9781266  50.3282260 107.3203614  24.3999165
  58.5064901 105.7715723  28.2524995  58.4883376 106.5924604  27.7605264
  59.4284821 105.6469798  28.4775136  54.9637955 103.2859853  29.0948504
  55.4966292 102.5248141  28.8647812  54.4352036 102.9933505  29.8372658
  58.1307650  88.3919919  24.6242145  57.7871919  89.2821560  24.5481256
  58.4986613  88.2021576  23.7611730  46.1993501 100.7153449  17.4430748
  47.0368723 101.1250457  17.2264455  46.3771768  99.7752891  17.4130941
  58.0957933  98.3828530  13.1314581  57.5804556  99.1533134  13.3702968
  57.8235241  97.7093666  13.7547642  55.6805044  93.2278231  18.1899819
  54.8246640  92.8385081  18.0105458  56.0931995  93.3070191  17.3299604
  57.2104190  90.7624574  22.5891379  56.7068986  90.7254709  21.7759184
  57.5034797  91.6717317  22.6488035  53.4547076  90.8463304  21.5957560
  54.3200073  90.6506112  21.2363450  53.5224585  90.6173655  22.5226917
  63.0692207 101.1360884  15.0667754  62.2921650 100.7972044  14.6222916
  63.7483688 101.1413508  14.3922719  57.8844236  96.2555622  14.9574362
  57.5794371  96.5701771  15.8084505  58.8374678  96.3337042  15.0001695
  56.3290668 102.4145845  16.6067316  55.8012029 101.6798605  16.2940553
  55.8278170 103.1920522  16.3607284  61.3083514 100.6094866  21.7234362
  60.6507188 101.2994127  21.8114491  62.1123913 100.9991298  22.0668348
  51.0609395  93.0765511  18.9673927  51.6353147  92.8540693  18.2347120
  51.6480378  93.1454206  19.7202528  60.1188972  98.9639238  19.7738304
  60.6320854  99.5969230  20.2760013  60.7690196  98.3640434  19.4081664
  51.3878982  95.1069972  12.9869812  50.5516295  95.4444659  13.3079087
  51.2483752  94.9718952  12.0496949  53.3632063  89.9506760  17.6948997
  52.7096475  89.6355778  17.0705611  53.3212537  89.3282501  18.4208820
  54.4743268 100.2326055   9.6102289  53.5670330 100.0015309   9.8093438
  54.9714300  99.4363675   9.7976270  56.5969803  96.4388694  22.0196644
  55.6792365  96.6603641  21.8618332  57.0129947  96.5135004  21.1608352
  57.3804851  97.8380110  17.1499325  58.1276670  98.3501507  16.8406447
  57.6496441  97.5164162  18.0103718  55.6531501 100.3338650  14.1326279
  54.7442721 100.0497683  14.2298749  55.6826585 100.7537729  13.2729586
  60.8850769 103.9445240  17.9017446  60.4313096 103.1036150  17.9582637
  60.2544735 104.5806638  18.2392227  59.8283688  94.8737226  19.1318114
  59.0906445  94.3614612  19.4628356  60.0810462  94.4337607  18.3201391
  59.3283708 105.7821736  18.8367264  59.6206682 106.3426794  18.1179630
  59.8382328 106.0750297  19.5920424  59.9295316  87.6513478  19.7259883
  60.2354192  86.7910841  19.4385798  60.6547920  88.2431098  19.5258877
  46.2219672  98.0544164  18.1141481  46.0244071  97.4613525  17.3892548
  45.6666336  97.7496375  18.8317420  54.2016395  97.9467271  20.2336074
  54.2565005  96.9941107  20.1578551  53.3907597  98.1026710  20.7177373
  55.3507589 101.8747394  11.4714357  54.9127019 101.1583253  11.0119995
  56.0918030 102.1023509  10.9099449  52.1408755  96.5644331  17.9926453
  51.3276621  96.8638501  18.3991645  52.6367749  96.1700019  18.7100935
  54.2917333 106.5602088  19.9260718  54.2493512 106.7862934  18.9969250
  55.2080032 106.3265462  20.0746519  57.7382967  97.0286155  26.8241347
  58.0932355  97.2557628  27.6835813  58.3855098  97.3604532  26.2018602
  63.4680704 100.1504591  17.5290676  63.3298602 100.3406187  16.6011865
  63.1116923 100.9123974  17.9858727  51.6322830  94.1362686  23.6087688
  52.2722209  93.9951445  22.9110651  50.8000361  93.8497200  23.2326290
  63.4950083 102.2181118  22.5401947  63.9286590 102.1256407  23.3885001
  64.2081664 102.1938618  21.9021963  52.4083134 103.4365117  19.7222680
  53.2023732 102.9415437  19.5205255  51.6974826 102.9082980  19.3590386
  57.2277978 105.8183212  24.0735048  57.2815001 106.3874148  24.8412764
  56.3592760 105.9885097  23.7089085  48.7165897  97.5808198  15.7982433
  47.7863485  97.5192654  16.0152395  48.8123369  97.0584151  15.0019074
  48.6351446  94.1063011  18.3860675  48.8958264  95.0208344  18.2769835
  49.4568619  93.6387454  18.5357288  50.1076372  95.5200768  25.5559499
  50.7799425  95.3118130  24.9072148  49.2806158  95.3222854  25.1164732
  64.3565633 102.2604819  25.0734833  64.5501523 103.1650629  25.3194108
  64.2566251 101.8012238  25.9073418  56.0101944  92.1462709  27.5725160
  55.3629859  92.8452659  27.4789637  56.7802959  92.5798853  27.9401408
  59.4180742 102.4111561  30.6475713  59.2666248 102.1822113  29.7305797
  59.4085421 103.3682163  30.6607058  56.1866078  99.9843474  25.6321980
  57.1158138 100.1354634  25.4590947  55.7657108 100.0727495  24.7770626
  54.9854410 104.0094139  23.4020518  54.8465496 103.6412923  24.2746456
  54.1969006 104.5241778  23.2304475  55.5802562 109.1103235  14.7446054
  55.7554318 108.6391278  15.5591677  54.8935350 109.7369001  14.9727315
  56.5359625 103.3875741  20.7909355  56.2009458 103.3476511  21.6867005
  56.0363571 102.7220457  20.3179766  50.5103869  98.7943371  26.3161936
  50.3723667  98.0623610  26.9173476  51.4208792  98.7052271  26.0346124
  59.4718817 100.7331776  11.0646415  58.8547987 100.0078604  10.9679468
  59.0035305 101.4941136  10.7213489  53.1386170  98.5063331  25.8045616
  53.8485788  97.8656523  25.7632235  53.0955478  98.7576225  26.7271797
  61.1272948 105.4430684  28.7252195  61.0685494 104.7589904  28.0582778
  61.5292467 106.1849674  28.2732821  51.8515104  95.4928549  27.6241256
  51.3152461  95.0419287  28.2762852  51.2631812  95.6274457  26.8811720
  50.1463647 112.2592598  21.5185914  50.3860245 112.8911122  22.1964933
  49.3032844 111.9080638  21.8051273  51.2617363  94.9517200  10.1867719
  50.3846829  94.8306001   9.8229966  51.7375116  94.1603278   9.9346608
  61.1290356 103.4070268  26.9566175  60.2417134 103.0696190  27.0792574
  61.6988907 102.6753299  27.1934940  42.7819503  99.7394360  20.2809226
  43.4690543  99.4256090  19.6930242  42.6267631 100.6435724  20.0076478
  47.5854225  94.6284556  24.7094250  47.5012414  94.0210226  23.9744660
  46.7636931  95.1193575  24.7103746  54.6591509 108.0671720  23.9227418
  54.5861680 108.8726692  24.4346723  54.2168902 108.2663686  23.0975440
  54.4481289 107.3043490  17.4330240  53.6648811 107.8465170  17.5268464
  55.1474034 107.8217470  17.8324481  57.7577939  93.1138120  20.0764445
  58.2546638  92.3608082  19.7565515  56.9864920  93.1502436  19.5107654
  65.6107696  98.8178485  21.7182737  65.5997572  99.7003201  21.3476670
  64.7425076  98.4650036  21.5237274  57.1190193 107.9658554  26.0785577
  57.8318165 108.6006019  26.0061478  56.6280221 108.0622420  25.2625579
  58.8407719 101.8709807  17.6502869  57.9063998 101.9911269  17.4807573
  59.0184388 100.9682274  17.3862878  54.3412907  95.2555503  19.8036130
  53.9710695  94.7026543  20.4917035  54.8372000  94.6513636  19.2511130
  62.2280271  97.7127126  18.1852903  62.6940723  98.5455118  18.1113205
  62.6787771  97.2472108  18.8898161  52.1702106 105.7152998  26.8991148
  52.8711566 106.3489481  27.0520542  51.6997221 106.0567729  26.1386787
  60.2956502 104.0570948  15.1839055  60.5716346 103.9427542  16.0932929
  59.4261001 103.6588432  15.1451228  60.1996934  90.0807713  22.2243804
  59.2860013  90.3111940  22.3926011  60.6290035  90.1646157  23.0757836
  59.9703392  98.2697605  24.7243698  59.3174842  98.5173513  24.0696151
  60.3483772  97.4561743  24.3906175  56.9310566 108.3057298  18.8271868
  57.1132960 107.4878954  19.2899621  57.7543552 108.5224991  18.3896758
  57.2652731 107.2325484  16.0886917  57.7940498 106.7217938  15.4757079
  57.5280951 106.9168014  16.9532450  56.0190965  99.0117416  31.2109735
  55.3431602  98.9111546  31.8812110  56.8418599  98.8556630  31.6745732
  47.7669824 105.2489353  23.8322250  48.3523261 104.5033041  23.9650155
  47.5694663 105.5593310  24.7158914  50.6208479 108.2840600  18.8484693
  49.9518855 108.7686728  18.3648733  50.4821349 108.5309821  19.7628071
  42.3587479  97.8194953  22.5526694  42.3971578  97.2858544  23.3463812
  41.8527772  97.2930159  21.9337671  54.7613748 110.3184344  25.4467351
  55.3132056 110.4815965  26.2116436  55.1019941 110.9088782  24.7747376
  49.7378241  92.6659494  26.0489236  49.8019568  93.5274324  25.6366634
  49.6745361  92.0533495  25.3161594  49.2130514  94.7382626  29.6962270
  49.8402552  94.3559703  30.3099794  48.3558433  94.5196828  30.0617963
  59.6124622 105.1445601  31.3016006  60.1564526 105.7575559  30.8070960
  59.0311467 105.7025180  31.8183019  45.9896056  96.5459055  15.6280625
  46.2849498  95.6369734  15.5747679  45.0884092  96.5246795  15.3061627
  57.8982135 108.2666319  22.4331033  57.7733275 107.4656059  21.9241979
  58.5561226 108.7612513  21.9445003  49.5190303  94.6215052  21.6108174
  48.7976889  95.2351019  21.4715647  50.3083559  95.1572817  21.5324819
  59.9617044 106.0675339  24.0610583  59.0147379 105.9480691  23.9888910
  60.3099817 105.1797837  24.1436845  52.3216617  91.9569478  27.8848825
  52.8451019  92.2031775  28.6475135  52.1028950  92.7889513  27.4651963
  47.7183898  94.2273153  15.7519950  47.3896604  93.3470532  15.5695056
  48.0723269  94.1720822  16.6396339  56.9663477 105.8628056  20.2614936
  56.8188439 104.9344763  20.4422506  57.7916970 105.8848146  19.7772011
  50.8325721  94.5146123  16.1195428  51.1721794  95.0432044  15.3974036
  51.2797842  94.8526529  16.8953994  60.5697599 106.6856614  21.3479808
  61.4944146 106.4799476  21.2104259  60.4012902 106.4373015  22.2569150
  53.5269162  92.8983173  25.5698496  53.1865982  92.0990986  25.9719176
  52.8208168  93.1984884  24.9975329  54.1785634  89.9832486  24.0225819
  55.0011703  89.5092964  23.9004709  54.4223697  90.7622970  24.5224505
  52.8193868  93.0120744  14.3188720  53.5402231  93.3901997  13.8152437
  52.1959172  93.7309621  14.4223698  56.9624991  93.7165893  15.2547053
  57.1788606  94.5990531  14.9535881  56.4819058  93.3252107  14.5252695
  51.7024213  96.6751606  21.8317797  51.5568793  96.9891909  22.7242079
  51.2249416  97.2936507  21.2788696  53.5620595  93.6654154  21.8798687
  53.5482164  92.7695248  21.5430985  54.2793024  93.6724818  22.5136973
  55.4146726  94.0991495  23.9251814  55.1564504  95.0208565  23.9236145
  54.8831767  93.7021929  24.6152279  60.3592915 107.2042282  16.7041900
  60.5329792 106.6388704  15.9515752  60.8521806 108.0043177  16.5221390
  46.1769875  99.2156951  24.7705459  45.6323343  99.9916759  24.9025733
  47.0549225  99.5627755  24.6124580  52.9657491  92.5468535  17.1486257
  53.0873403  91.6185181  17.3477145  52.6759534  92.5607221  16.2364573
  55.8348682  90.2323445  20.2852977  55.8570379  90.2962778  19.3304957
  56.2516741  89.3927954  20.4793483  66.2132306  99.9678705  18.3232200
  66.6563452  99.2186030  17.9251323  65.3358816  99.9588841  17.9405932
  61.3468087 106.5209046  13.8038798  62.0418992 107.1415739  14.0226113
  61.6891238 105.6704397  14.0791176  46.9635897  98.3426847  27.6635615
  46.2217633  98.4909482  28.2500246  46.6428641  98.6035113  26.8002365
  63.2459511 103.9708752  15.3326129  63.7710835 104.3096024  14.6075449
  63.1581863 103.0355767  15.1489263  54.9079559 107.8842825  27.4616005
  55.2166686 107.6391972  28.3338705  55.7055041 108.0889464  26.9734876
  54.9300171 110.0380735  19.6921382  54.4905162 109.5457114  20.3854239
  55.6808288 109.4953703  19.4513457  47.4092510 106.2292276  19.6946010
  48.2350530 105.9296048  19.3144654  47.0586562 105.4599898  20.1435799
  52.3774043 105.5818744  21.7643684  51.7554053 104.9189449  21.4645912
  53.0478910 105.6079876  21.0817331  45.6101115 104.1478602  20.6534944
  44.7733024 103.7200777  20.4718945  45.5824761 104.3411046  21.5905735
  52.4498571  94.0600532  31.3576190  52.4986726  94.9362655  30.9753959
  52.9921085  93.5177925  30.7847833  62.9353417 104.6041655  30.6377327
  62.1448960 104.5865794  30.0981826  62.6986771 105.1429949  31.3926363
  63.0551292 101.4534122  27.9510055  63.1049297 101.2884129  28.8925578
  62.9465215 100.5861381  27.5607936  51.9387550 104.1322667  15.2402144
  52.0875671 104.8158132  14.5868817  52.7453994 104.1127757  15.7551600
  60.3455054  97.4365050  29.2669362  61.2464917  97.2971515  28.9753360
  60.4203029  97.6019505  30.2067539  54.6797859  94.8131904  28.1122548
  53.8101169  95.1065471  27.8405137  54.9157340  95.3972349  28.8329812
  64.5569488 103.8731063  28.1952077  64.2654297 104.2361044  29.0315538
  63.9441620 103.1598071  28.0165409  65.7565171 101.4383943  20.7154647
  66.5912062 101.8773747  20.8792207  65.8924300 100.9622596  19.8962893
  62.8056677  98.9963678  26.6632135  63.2810798  99.1891324  25.8550986
  61.8822242  99.0522864  26.4175519  49.6940183 100.1587845  16.2463213
  49.4486225  99.2550175  16.4443423  49.8636098 100.1604995  15.3042691
  57.3836893  91.0311521  25.6287969  57.9018837  91.7672548  25.3034457
  57.0292026  91.3375515  26.4634728  48.9635831  95.8916203  13.7449375
  48.2705076  95.9660558  13.0889411  48.7187583  95.1276546  14.2670892
  57.6349487  87.4511804  21.1488865  57.9151241  86.7834993  21.7749292
  58.4200094  87.6440900  20.6363529  55.4382956 106.6270798  12.7113892
  54.8656923 107.2460985  12.2584364  56.0115750 107.1770160  13.2453814
  61.5058346  95.8729438  24.8960440  62.4575769  95.9727536  24.9172665
  61.3361796  95.0807706  25.4058525  59.5272725  92.9585021  25.0819841
  58.9322657  93.2390034  24.3866330  59.2422422  93.4478922  25.8536582
  58.6580216 106.9107948  13.8422474  59.5910889 106.8453510  14.0455349
  58.5703428 107.7464215  13.3837007  63.9846424  99.0935558  24.0102740
  63.9522744  98.1551558  24.1962424  64.5947047  99.1719594  23.2768565
  55.8229754  97.9631611  10.0529944  56.7688859  97.8337819  10.1218362
  55.4443999  97.2246272  10.5299372  64.1340912  95.8846601  24.0561023
  63.6179961  95.1005058  23.8690952  65.0180861  95.5565318  24.2207543
  61.7951639  89.6287617  20.0156836  61.5976460  89.3202705  20.9000168
  62.4051344  90.3549256  20.1454766  69.8022973 100.1551564  23.1508777
  70.5326362  99.8936853  23.7116480  69.1929919  99.4180286  23.1910845
  67.8838270  98.2959427  23.7483228  67.1571434  98.1615392  23.1399720
  67.4685557  98.6036256  24.5539946  55.7068447 102.0149357  31.5130601
  56.6271456 102.1927956  31.7070648  55.6718030 101.0705402  31.3610300
  54.0072672  95.8881587   9.9884829  53.1004127  95.5914700  10.0647543
  54.2848653  95.5911405   9.1219116  44.9250612  97.2087950  20.4383876
  44.6053396  96.3553259  20.1458250  44.3784040  97.4236529  21.1941843
  48.7030519  99.9250391  24.1553382  48.9216529 100.8567499  24.1741416
  49.1156293  99.5658366  24.9408186  55.6234737  90.4318477  16.1429071
  54.8135466  90.0865562  16.5184317  56.3119154  90.1226020  16.7316682
  57.5525286  89.5096523  17.7653367  58.1056324  89.9291977  18.4243390
  57.7895372  88.5832272  17.8076323  53.5758385  95.4983597  33.5456131
  53.4755112  96.4477954  33.4768222  53.3579927  95.1701836  32.6732201
  52.7771456  92.7468522  10.1296809  53.6390620  93.0723420  10.3892626
  52.9621800  91.9600018   9.6169874  44.7938872 100.8290862  22.4076997
  44.1002343 100.4144815  21.8946952  45.5411863 100.8711398  21.8110416
  60.9304093  91.6197049  17.2732032  60.3502762  92.2781853  16.8910084
  60.6640025  90.7974393  16.8619449  59.3807659  91.0202106  19.4753352
  59.8807437  91.1318641  18.6667671  60.0243267  90.7163159  20.1154160
  53.4389655  98.9280736  32.3621193  52.9556737  99.7281096  32.5685082
  53.5250594  98.9388681  31.4088637  46.7075614 100.7609116  20.2843012
  46.6846303 100.8596803  19.3324895  47.0176251 101.6074266  20.6060178
  49.3662992 102.8185271  24.3989627  50.3206246 102.7869213  24.3319558
  49.1675516 102.3575894  25.2139853  49.9562374 101.3886387  26.9660424
  50.7755263 101.8830465  26.9895262  50.2299182 100.4718355  26.9377992
  59.7128971  93.7797139  16.3288380  58.8254826  94.0646790  16.1108575
  60.1282960  93.6190902  15.4815657  63.0643507  93.8043660  20.0442719
  63.8403897  94.2940112  20.3167336  62.3391641  94.2301714  20.5014589
  65.5016065  94.5171279  21.1016660  66.0960556  94.2767015  20.3909968
  65.5742649  93.7978410  21.7290196  47.7213221 108.3604890  21.4159825
  47.5867689 107.6005291  20.8497823  47.3045283 109.0845790  20.9488613
  59.6869994  99.2951675  16.5438670  59.6305196  99.7520226  15.7046302
  60.2398337  98.5342360  16.3661513  63.4974800  95.0841407  17.3688789
  63.2411735  94.6838042  18.1996997  62.8727668  95.7985201  17.2438929
  67.8087138  97.8237480  19.8760081  67.2486696  97.8930669  20.6491643
  67.2030642  97.6478465  19.1559577  50.8782347 109.2574207  21.6278267
  50.7614731 110.2019640  21.5256957  50.0574793 108.9547769  22.0164066
  60.7658882 103.9824343  12.4734860  61.6004485 103.5505541  12.2912335
  60.6043224 103.8106357  13.4011754  60.4204774 100.4856456  13.8391199
  60.3653577 100.3200728  12.8979643  59.7950829 101.1932489  13.9953389
  45.2097289  95.7224521  27.6652621  45.8556152  95.2123475  28.1539847
  45.0014440  96.4593202  28.2396047  57.7350681 102.7905368  33.1644762
  58.6041841 102.9646020  32.8031397  57.2557432 103.6099785  33.0420491
  53.7300899  89.9864565  13.4176518  53.7179569  90.9306405  13.5744788
  54.6224321  89.8034711  13.1235979  51.9036861 109.9102469  24.8434196
  52.8064108 109.9426079  25.1600691  51.6774231 108.9802920  24.8580531
  53.6590463 108.6633456  21.5044274  52.7086094 108.6635317  21.3908647
  53.9622949 107.9166190  20.9880309  57.5453019  86.5807342  17.6722454
  56.7785414  86.0265829  17.8179137  57.9563724  86.6529211  18.5336606
  49.5494780  92.8692138  31.7627636  50.4126241  92.5128942  31.9730960
  48.9760190  92.5306032  32.4503040  69.3943157 114.4993994  22.5690037
  70.0321567 114.3800741  21.8653377  69.2764000 115.4474838  22.6277989
  66.2032863 114.4521422  22.5051561  65.8651374 114.3362487  21.6172096
  67.0722631 114.0512587  22.4852567  66.6852646 115.6056274  28.4637767
  66.6741287 115.2109072  27.5918271  66.8473285 114.8722346  29.0571538
  59.6084111 117.8008090  21.3332673  60.4005402 117.4598915  20.9178972
  59.8480761 117.9103065  22.2534826  63.4059907 118.3893386  27.4116951
  63.1149773 119.2939016  27.2963617  64.0416891 118.4309913  28.1261020
  64.3316114 115.7670234  24.0018310  64.9279686 115.5426257  23.2875273
  64.3891085 115.0254980  24.6043758  71.8718273 105.8742255  25.0070832
  71.5401597 106.7437666  24.7832047  71.2763886 105.5578539  25.6864862
  68.3649792 118.0754801  24.4066745  68.0650515 118.9779840  24.2982552
  68.0200852 117.8086984  25.2587897  61.8162274 114.5268598  20.4403449
  60.8912770 114.3944812  20.6481141  62.0646687 115.3062817  20.9373391
  71.7646936 110.5937341  22.0864182  70.8563813 110.5252750  21.7922943
  71.7134532 111.0709286  22.9146007  59.1771085 114.1701872  21.2747238
  59.3063466 114.4236350  22.1886650  58.4968536 114.7629580  20.9551893
  65.8387802 112.0126987  30.0299079  65.0621136 112.5720907  30.0201944
  66.4778365 112.4983770  30.5513949  73.6308582 108.7953780  23.8642056
  72.9882963 109.0886313  23.2181850  73.1263511 108.6806700  24.6695252
  64.0934174 114.8212440  29.5917046  64.8348858 115.3597484  29.3151870
  63.3871159 115.4478729  29.7488598  69.5689514 116.9641581  28.1889208
  69.9772870 116.5223991  27.4443840  68.8466775 116.3894208  28.4423400
  65.9220584 111.9014188  25.5622765  66.7681779 112.3253601  25.7057414
  65.8619221 111.2447812  26.2561328  69.0720029 109.5618556  27.2203938
  68.8280961 110.3160616  26.6838214  69.3479960 109.9403903  28.0551185
  71.0258492 116.1057168  25.8981204  71.2375387 116.7488928  25.2215585
  70.9788240 115.2719485  25.4303134  68.6284721 108.7174989  22.8017776
  67.7669200 109.0156242  23.0934513  68.6547155 108.9345388  21.8698809
  62.3370371 116.8088661  22.1471345  62.9071728 117.2375929  21.5088829
  62.9278483 116.5271246  22.8455530  62.8295538 111.9752088  30.3932356
  62.1994198 112.6568369  30.6267753  62.7231626 111.8635170  29.4485494
  58.1240510 111.6423884  21.3198280  57.3339564 111.8981413  20.8438391
  58.6151758 112.4572222  21.4250321  60.0755256 112.0068464  18.2781757
  59.2786419 112.1187158  18.7965253  59.8480848 112.3455116  17.4122647
  65.9060923 118.5313167  26.2264272  65.9705356 118.9933574  27.0622443
  65.1971847 117.9010532  26.3546581  56.4078213 111.8954375  23.7513271
  56.6586252 112.7801385  24.0170847  56.9437762 111.7158976  22.9788363
  62.1076280 106.2772854  32.7557607  61.7143226 105.7239053  33.4305251
  62.9242421 106.5883433  33.1464125  65.0244241 107.6930733  30.3477864
  65.7653955 108.2937887  30.2682326  65.2562164 106.9508371  29.7895906
  60.1685579 112.8787101  28.6256093  60.0539095 111.9772358  28.9263192
  59.3130097 113.1250797  28.2740910  67.2477417 120.8204841  30.2243594
  66.8041271 120.0341220  29.9064499  67.9094631 121.0083991  29.5587485
  62.0064538 122.3500643  24.7504273  62.5571963 122.2217706  23.9781266
  61.1676014 122.6495532  24.3999165  69.3458655 121.1007641  28.2524995
  69.3277131 121.9216522  27.7605264  70.2678575 120.9761716  28.4775136
  65.8031709 118.6151770  29.0948504  66.3360046 117.8540059  28.8647812
  65.2745791 118.3225422  29.8372658  68.9701404 103.7211836  24.6242145
  68.6265674 104.6113478  24.5481256  69.3380367 103.5313494  23.7611730
  66.5198798 108.5570148  18.1899819  65.6640394 108.1676999  18.0105458
  66.9325750 108.6362109  17.3299604  68.0497945 106.0916491  22.5891379
  67.5462740 106.0546627  21.7759184  68.3428552 107.0009234  22.6488035
  64.2940831 106.1755221  21.5957560  65.1593827 105.9798030  21.2363450
  64.3618340 105.9465573  22.5226917  61.9003150 108.4057429  18.9673927
  62.4746902 108.1832611  18.2347120  62.4874132 108.4746124  19.7202528
  64.2025817 105.2798678  17.6948997  63.5490230 104.9647695  17.0705611
  64.1606292 104.6574419  18.4208820  67.4363558 111.7680612  22.0196644
  66.5186119 111.9895559  21.8618332  67.8523701 111.8426922  21.1608352
  70.7689070 102.9805396  19.7259883  71.0747947 102.1202759  19.4385798
  71.4941675 103.5723016  19.5258877  57.0613426 113.3836082  18.1141481
  56.8637826 112.7905443  17.3892548  56.5060090 113.0788292  18.8317420
  65.0410150 113.2759189  20.2336074  65.0958760 112.3233025  20.1578551
  64.2301352 113.4318628  20.7177373  62.9802510 111.8936248  17.9926453
  62.1670375 112.1930419  18.3991645  63.4761504 111.4991937  18.7100935
  68.5776721 112.3578073  26.8241347  68.9326109 112.5849546  27.6835813
  69.2248853 112.6896450  26.2018602  62.4716584 109.4654604  23.6087688
  63.1115964 109.3243363  22.9110651  61.6394115 109.1789117  23.2326290
  59.4745201 109.4354929  18.3860675  59.7352018 110.3500262  18.2769835
  60.2962373 108.9679371  18.5357288  60.9470126 110.8492686  25.5559499
  61.6193180 110.6410048  24.9072148  60.1199913 110.6514772  25.1164732
  66.8495698 107.4754627  27.5725160  66.2023613 108.1744577  27.4789637
  67.6196714 107.9090771  27.9401408  70.2574496 117.7403479  30.6475713
  70.1060003 117.5114031  29.7305797  70.2479176 118.6974081  30.6607058
  67.0259833 115.3135392  25.6321980  67.9551893 115.4646551  25.4590947
  66.6050863 115.4019413  24.7770626  65.8248164 119.3386056  23.4020518
  65.6859250 118.9704841  24.2746456  65.0362761 119.8533696  23.2304475
  61.3497623 114.1235289  26.3161936  61.2117421 113.3915528  26.9173476
  62.2602547 114.0344189  26.0346124  63.9779924 113.8355248  25.8045616
  64.6879543 113.1948441  25.7632235  63.9349232 114.0868143  26.7271797
  71.9666703 120.7722602  28.7252195  71.9079249 120.0881822  28.0582778
  72.3686221 121.5141592  28.2732821  62.6908858 110.8220466  27.6241256
  62.1546215 110.3711205  28.2762852  62.1025567 110.9566375  26.8811720
  71.9684110 118.7362186  26.9566175  71.0810889 118.3988107  27.0792574
  72.5382661 118.0045217  27.1934940  53.6213257 115.0686277  20.2809226
  54.3084297 114.7548007  19.6930242  53.4661386 115.9727642  20.0076478
  58.4247979 109.9576474  24.7094250  58.3406168 109.3502143  23.9744660
  57.6030686 110.4485492  24.7103746  68.5971693 108.4430037  20.0764445
  69.0940393 107.6900000  19.7565515  67.8258675 108.4794354  19.5107654
  65.1806662 110.5847420  19.8036130  64.8104449 110.0318461  20.4917035
  65.6765754 109.9805554  19.2511130  63.0095861 121.0444915  26.8991148
  63.7105320 121.6781398  27.0520542  62.5390976 121.3859647  26.1386787
  71.0390688 105.4099631  22.2243804  70.1253768 105.6403858  22.3926011
  71.4683789 105.4938075  23.0757836  70.8097147 113.5989523  24.7243698
  70.1568597 113.8465430  24.0696151  71.1877526 112.7853661  24.3906175
  66.8584720 114.3409334  31.2109735  66.1825357 114.2403463  31.8812110
  67.6812353 114.1848548  31.6745732  58.6063579 120.5781270  23.8322250
  59.1917015 119.8324958  23.9650155  58.4088417 120.8885227  24.7158914
  53.1981233 113.1486871  22.5526694  53.2365333 112.6150461  23.3463812
  52.6921526 112.6222076  21.9337671  60.5771996 107.9951411  26.0489236
  60.6413322 108.8566242  25.6366634  60.5139116 107.3825413  25.3161594
  60.0524268 110.0674544  29.6962270  60.6796307 109.6851621  30.3099794
  59.1952187 109.8488746  30.0617963  70.4518377 120.4737519  31.3016006
  70.9958281 121.0867477  30.8070960  69.8705222 121.0317097  31.8183019
  56.8289811 111.8750973  15.6280625  57.1243252 110.9661651  15.5747679
  55.9277847 111.8538712  15.3061627  60.3584058 109.9506969  21.6108174
  59.6370644 110.5642937  21.4715647  61.1477314 110.4864734  21.5324819
  63.1610371 107.2861396  27.8848825  63.6844773 107.5323692  28.6475135
  62.9422705 108.1181431  27.4651963  58.5577653 109.5565070  15.7519950
  58.2290359 108.6762449  15.5695056  58.9117023 109.5012739  16.6396339
  64.3662916 108.2275091  25.5698496  64.0259737 107.4282904  25.9719176
  63.6601923 108.5276802  24.9975329  65.0179388 105.3124403  24.0225819
  65.8405458 104.8384882  23.9004709  65.2617452 106.0914887  24.5224505
  62.5417967 112.0043524  21.8317797  62.3962548 112.3183827  22.7242079
  62.0643171 112.6228424  21.2788696  64.4014350 108.9946072  21.8798687
  64.3875919 108.0987165  21.5430985  65.1186778 109.0016736  22.5136973
  66.2540481 109.4283412  23.9251814  65.9958258 110.3500483  23.9236145
  65.7225521 109.0313847  24.6152279  57.0163629 114.5448868  24.7705459
  56.4717097 115.3208676  24.9025733  57.8942979 114.8919673  24.6124580
  63.8051246 107.8760452  17.1486257  63.9267157 106.9477099  17.3477145
  63.5153288 107.8899138  16.2364573  66.6742436 105.5615363  20.2852977
  66.6964133 105.6254696  19.3304957  67.0910495 104.7219871  20.4793483
  57.8029651 113.6718765  27.6635615  57.0611387 113.8201400  28.2500246
  57.4822395 113.9327030  26.8002365  65.7473314 123.2134743  27.4616005
  66.0560440 122.9683890  28.3338705  66.5448796 123.4181381  26.9734876
  56.4494870 119.4770520  20.6534944  55.6126778 119.0492694  20.4718945
  56.4218515 119.6702963  21.5905735  63.2892325 109.3892450  31.3576190
  63.3380481 110.2654573  30.9753959  63.8314840 108.8469843  30.7847833
  73.7747171 119.9333573  30.6377327  72.9842715 119.9157712  30.0981826
  73.5380526 120.4721867  31.3926363  73.8945046 116.7826039  27.9510055
  73.9443051 116.6176047  28.8925578  73.7858969 115.9153298  27.5607936
  71.1848809 112.7656967  29.2669362  72.0858671 112.6263432  28.9753360
  71.2596783 112.9311422  30.2067539  65.5191614 110.1423822  28.1122548
  64.6494923 110.4357388  27.8405137  65.7551094 110.7264267  28.8329812
  75.3963243 119.2022981  28.1952077  75.1048051 119.5652961  29.0315538
  74.7835374 118.4889989  28.0165409  73.6450431 114.3255595  26.6632135
  74.1204553 114.5183242  25.8550986  72.7215997 114.3814781  26.4175519
  68.2230648 106.3603439  25.6287969  68.7412592 107.0964466  25.3034457
  67.8685780 106.6667432  26.4634728  68.4743242 102.7803722  21.1488865
  68.7544996 102.1126911  21.7749292  69.2593849 102.9732817  20.6363529
  72.3452100 111.2021356  24.8960440  73.2969523 111.3019453  24.9172665
  72.1755551 110.4099624  25.4058525  70.3666480 108.2876939  25.0819841
  69.7716412 108.5681952  24.3866330  70.0816176 108.7770840  25.8536582
  74.9734666 111.2138519  24.0561023  74.4573715 110.4296975  23.8690952
  75.8574615 110.8857235  24.2207543  72.6345393 104.9579534  20.0156836
  72.4370215 104.6494622  20.9000168  73.2445099 105.6841173  20.1454766
  66.5462201 117.3441274  31.5130601  67.4665211 117.5219873  31.7070648
  66.5111784 116.3997320  31.3610300  55.7644366 112.5379868  20.4383876
  55.4447151 111.6845176  20.1458250  55.2177795 112.7528446  21.1941843
  59.5424274 115.2542309  24.1553382  59.7610284 116.1859417  24.1741416
  59.9550048 114.8950283  24.9408186  66.4628492 105.7610394  16.1429071
  65.6529220 105.4157479  16.5184317  67.1512909 105.4517938  16.7316682
  68.3919040 104.8388441  17.7653367  68.9450079 105.2583895  18.4243390
  68.6289126 103.9124189  17.8076323  64.4152139 110.8275515  33.5456131
  64.3148866 111.7769872  33.4768222  64.1973681 110.4993754  32.6732201
  55.6332626 116.1582780  22.4076997  54.9396098 115.7436732  21.8946952
  56.3805617 116.2003316  21.8110416  70.2201413 106.3494024  19.4753352
  70.7201192 106.4610559  18.6667671  70.8637021 106.0455077  20.1154160
  64.2783409 114.2572654  32.3621193  63.7950491 115.0573014  32.5685082
  64.3644348 114.2680599  31.4088637  57.5469369 116.0901033  20.2843012
  57.5240057 116.1888721  19.3324895  57.8570005 116.9366184  20.6060178
  60.2056747 118.1477188  24.3989627  61.1600000 118.1161131  24.3319558
  60.0069270 117.6867812  25.2139853  60.7956129 116.7178304  26.9660424
  61.6149018 117.2122383  26.9895262  61.0692937 115.8010273  26.9377992
  56.0491043 111.0516438  27.6652621  56.6949907 110.5415392  28.1539847
  55.8408194 111.7885120  28.2396047  68.5744435 118.1197286  33.1644762
  69.4435595 118.2937938  32.8031397  68.0951187 118.9391703  33.0420491
  62.7430616 125.2394387  24.8434196  63.6457862 125.2717997  25.1600691
  62.5167986 124.3094838  24.8580531  68.3846773 101.9099260  17.6722454
  67.6179169 101.3557746  17.8179137  68.7957478 101.9821128  18.5336606
  60.3888534 108.1984055  31.7627636  61.2519996 107.8420860  31.9730960
  59.8153945 107.8597950  32.4503040  72.9470035 121.6064772  32.7557607
  72.5536981 121.0530971  33.4305251  73.7636175 121.9175350  33.1464125
  75.8637996 123.0222651  30.3477864  76.6047709 123.6229804  30.2682326
  76.0955919 122.2800289  29.7895906  70.8918023 125.3966461  29.6962270
  71.5190061 125.0143539  30.3099794  70.0345942 125.1780663  30.0617963
  74.1286080 124.7184367  31.3576190  74.1774235 125.5946490  30.9753959
  74.6708594 124.1761760  30.7847833  75.2545894 126.1567432  33.5456131
  75.1542621 127.1061789  33.4768222  75.0367436 125.8285671  32.6732201
  66.8884798 126.3808356  27.6652621  67.5343661 125.8707310  28.1539847
  66.6801949 127.1177038  28.2396047  71.2282289 123.5275973  31.7627636
  72.0913750 123.1712778  31.9730960  70.6547699 123.1889868  32.4503040
  28.6091686  36.4617054  15.4497502  28.5504232  35.7776274  14.7828085
  29.0111205  37.2036044  14.9978128  27.0943360  36.1631971  18.0261312
  27.6383264  36.7761929  17.5316267  26.5130205  36.7211549  18.5428325
  30.4172154  35.6228025  17.3622633  29.6267698  35.6052164  16.8227133
  30.1805509  36.1616319  18.1171670  32.0388226  34.8917433  14.9197384
  31.7473035  35.2547413  15.7560844  31.4260358  34.1784441  14.7410716
  25.2169419  33.8091738  19.8890069  26.0860578  33.9832390  19.5276704
  24.7376170  34.6286154  19.7665798  36.8761894  45.5180364   9.2935343
  37.5140304  45.3987111   8.5898683  36.7582737  46.4661208   9.3523295
  33.6851601  45.4707792   9.2296868  33.3470112  45.3548856   8.3417403
  34.5541369  45.0698957   9.2097874  34.1671384  46.6242643  15.1883073
  34.1560024  46.2295442  14.3163577  34.3292023  45.8908716  15.7816845
  27.0902848  48.8194460   8.0577979  27.8824140  48.4785284   7.6424279
  27.3299498  48.9289435   8.9780133  30.8878645  49.4079755  14.1362257
  30.5968511  50.3125386  14.0208924  31.5235629  49.4496283  14.8506327
  31.8134852  46.7856604  10.7263617  32.4098424  46.5612626  10.0120580
  31.8709823  46.0441349  11.3289065  41.8311590  43.1807051   7.2721530
  42.5636762  42.6106267   7.5059359  41.0750946  42.7928651   7.7128035
  39.3537010  36.8928625  11.7316138  39.0220335  37.7624036  11.5077353
  38.7582624  36.5764909  12.4110169  35.8468530  49.0941171  11.1312051
  35.5469253  49.9966210  11.0227858  35.5019589  48.8273354  11.9833204
  39.2465674  41.6123711   8.8109488  38.3382551  41.5439119   8.5168249
  39.1953269  42.0895656   9.6391314  30.8289310  55.8585491   4.0983019
  30.7513339  56.8093316   4.1771499  30.2250953  55.5131364   4.7557945
  33.3206539  43.0313356  16.7544386  32.5439874  43.5907277  16.7447250
  33.9597103  43.5170139  17.2759256  41.1127320  39.8140149  10.5887362
  40.4701700  40.1072682   9.9427157  40.6082249  39.6993070  11.3940559
  31.5752912  45.8398810  16.3162353  32.3167596  46.3783854  16.0397176
  30.8689897  46.4665099  16.4733905  37.0508251  47.9827950  14.9134514
  37.4591607  47.5410361  14.1689147  36.3285513  47.4080578  15.1668707
  33.4039321  42.9200557  12.2868071  34.2500517  43.3439971  12.4302720
  33.3437959  42.2634181  12.9806634  37.3737066  48.5429141   8.6686803
  36.7445929  48.7074855   7.9662871  36.9862728  48.9570750   9.4397767
  41.2526298  49.4783579   6.0231167  40.5677336  49.8582480   5.4728200
  41.3370147  50.0878905   6.7563115  36.5538767  40.5804925  13.9449245
  36.3099699  41.3346986  13.4083521  36.8298697  40.9590273  14.7796492
  38.5077230  47.1243538  12.6226510  38.7194125  47.7675298  11.9460891
  38.4606978  46.2905854  12.1548440  29.8189109  47.8275031   8.8716651
  30.3890466  48.2562299   8.2334136  30.4097221  47.5457615   9.5700837
  30.3114276  42.9938458  17.1177663  29.6812936  43.6754739  17.3513060
  30.2050363  42.8821540  16.1730801  39.6223058  50.0015493  10.7948868
  40.4440501  49.5995681  10.5131549  39.6185460  49.8983727  11.7464984
  33.3879661  49.5499537  12.9509578  33.4524093  50.0119944  13.7867750
  32.6790585  48.9196901  13.0791888  47.7129051  46.3454242   7.1433839
  46.9592759  45.7761640   6.9877844  47.8476592  46.3116906   8.0904474
  29.5895018  37.2959224  19.4802914  29.1961964  36.7425422  20.1550558
  30.4061159  37.6069802  19.8709431  28.3651961  51.8508838   5.4739237
  28.5418589  52.7726803   5.2860221  29.1608794  51.5367258   5.9033617
  32.5062979  38.7117103  17.0723170  33.2472693  39.3124256  16.9927633
  32.7380902  37.9694741  16.5141213  27.6504317  43.8973470  15.3501400
  27.5357832  42.9958727  15.6508499  26.7948835  44.1437167  14.9986217
  34.7296155  51.8391211  16.9488901  34.2860009  51.0527589  16.6309805
  35.3913369  52.0270361  16.2832791  29.4883276  53.3687012  11.4749579
  30.0390701  53.2404075  10.7026573  28.6494752  53.6681901  11.1244472
  36.8277393  52.1194010  14.9770302  36.8095868  52.9402892  14.4850571
  37.7497313  51.9948086  15.2020443  33.2850447  49.6338140  15.8193810
  33.8178784  48.8726428  15.5893118  32.7564528  49.3411792  16.5617965
  39.6296006  46.9573153   8.4479669  38.9719680  47.6472414   8.5359797
  40.4336405  47.3469585   8.7913655  38.4401465  45.3117526   6.4983610
  38.9533346  45.9447517   7.0005320  39.0902689  44.7118721   6.1326970
  34.9182296  42.7866981   8.7441951  34.0004857  43.0081928   8.5863639
  35.3342439  42.8613292   7.8853658  39.2063261  50.2923527   4.6262753
  38.7525588  49.4514437   4.6827943  38.5757228  50.9284925   4.9637533
  37.6496200  52.1300024   5.5612571  37.9419175  52.6905081   4.8424937
  38.1594821  52.4228585   6.3165730  32.6129825  52.9080375   6.6506024
  32.5706004  53.1341221   5.7214556  33.5292524  52.6743749   6.7991825
  36.0595459  43.3764442  13.5486654  36.4144847  43.6035916  14.4081119
  36.7067590  43.7082819  12.9263909  41.7893196  46.4982878   4.2535983
  41.6511095  46.6884474   3.3257172  41.4329415  47.2602261   4.7104034
  41.8162576  48.5659405   9.2647254  42.2499082  48.4734694  10.1130308
  42.5294156  48.5416906   8.6267270  35.5490471  52.1661499  10.7980355
  35.6027493  52.7352436  11.5658071  34.6805252  52.3363384  10.4334392
  28.4288864  41.8679056  12.2804806  29.1011917  41.6596418  11.6317455
  27.6018651  41.6701142  11.8410038  42.6778125  48.6083106  11.7980139
  42.8714015  49.5128916  12.0439414  42.5778743  48.1490525  12.6318725
  34.3314436  38.4940996  14.2970467  33.6842351  39.1930946  14.2034943
  35.1015451  38.9277140  14.6646715  37.7393234  48.7589849  17.3721020
  37.5878740  48.5300400  16.4551104  37.7297913  49.7160450  17.3852365
  34.5078570  46.3321761  12.3567287  35.4370630  46.4832921  12.1836254
  34.0869600  46.4205782  11.5015933  33.3066902  50.3572426  10.1265824
  33.1677988  49.9891210  10.9991762  32.5181498  50.8720065   9.9549782
  33.9015054  55.4581522   1.4691361  34.0766810  54.9869565   2.2836983
  33.2147842  56.0847288   1.6972621  34.8572117  49.7354029   7.5154662
  34.5221950  49.6954798   8.4112312  34.3576063  49.0698744   7.0425072
  28.8316361  45.1421659  13.0407243  28.6936159  44.4101897  13.6418782
  29.7421285  45.0530559  12.7591431  31.4598662  44.8541618  12.5290923
  32.1698280  44.2134810  12.4877541  31.4167970  45.1054513  13.4517104
  39.4485441  51.7908971  15.4497502  39.3897987  51.1068191  14.7828085
  39.8504959  52.5327961  14.9978128  30.1727596  41.8406836  14.3486562
  29.6364953  41.3897574  15.0008159  29.5844304  41.9752745  13.6057027
  28.4676139  58.6070885   8.2431221  28.7072738  59.2389409   8.9210239
  27.6245336  58.2558925   8.5296580  39.4502848  49.7548555  13.6811482
  38.5629627  49.4174477  13.8037880  40.0201399  49.0231586  13.9180247
  32.9804001  54.4150007  10.6472725  32.9074173  55.2204979  11.1592029
  32.5381394  54.6141973   9.8220746  32.7693781  53.6521778   4.1575546
  31.9861303  54.1943458   4.2513771  33.4686526  54.1695757   4.5569788
  43.9320188  45.1656773   8.4428043  43.9210065  46.0481488   8.0721976
  43.0637568  44.8128323   8.2482580  35.4402685  54.3136842  12.8030883
  36.1530657  54.9484306  12.7306785  34.9492713  54.4100708  11.9870885
  30.4914598  52.0631285  13.6236454  31.1924058  52.6967768  13.7765849
  30.0209713  52.4046017  12.8632094  38.2915884  44.6175892  11.4489005
  37.6387335  44.8651800  10.7941457  38.6696264  43.8040031  11.1151482
  35.2523058  54.6535586   5.5517175  35.4345453  53.8357242   6.0144927
  36.0756044  54.8703278   5.1142065  35.5865224  53.5803771   2.8132223
  36.1152990  53.0696225   2.2002386  35.8493443  53.2646301   3.6777756
  34.3403457  45.3595704  17.9355042  33.6644094  45.2589833  18.6057417
  35.1631091  45.2034917  18.3991039  26.0882316  51.5967640  10.5567557
  26.6735753  50.8511328  10.6895461  25.8907155  51.9071597  11.4404221
  28.9420972  54.6318887   5.5729999  28.2731347  55.1165015   5.0894039
  28.8033841  54.8788108   6.4873378  33.0826240  56.6662631  12.1712658
  33.6344548  56.8294252  12.9361743  33.4232434  57.2567069  11.4992683
  27.5343006  41.0860913  16.4207577  28.1615045  40.7037991  17.0345101
  26.6770925  40.8675115  16.7863269  37.9337115  51.4923888  18.0261312
  38.4777019  52.1053847  17.5316267  37.3523959  52.0503467  18.5428325
  36.2194627  54.6144606   9.1576340  36.0945767  53.8134346   8.6487285
  36.8773719  55.1090800   8.6690310  38.2829536  52.4153627  10.7855890
  37.3359871  52.2958978  10.7134217  38.6312309  51.5276125  10.8682151
  30.6429109  38.3047765  14.6094132  31.1663511  38.5510062  15.3720441
  30.4241442  39.1367800  14.1897269  35.2875969  52.2106343   6.9860242
  35.1400932  51.2823050   7.1667812  36.1129463  52.2326433   6.5017317
  38.8910091  53.0334902   8.0725115  39.8156638  52.8277763   7.9349566
  38.7225394  52.7851303   8.9814456  31.8481654  39.2461461  12.2943802
  31.5078475  38.4469274  12.6964482  31.1420661  39.5463171  11.7220636
  33.7359218  40.4469782  10.6497121  33.4776996  41.3686852  10.6481451
  33.2044259  40.0500216  11.3397585  38.6805407  53.5520569   3.4287206
  38.8542285  52.9866991   2.6761059  39.1734298  54.3521464   3.2466696
  24.4982367  45.5635238  11.4950765  23.9535835  46.3395046  11.6271040
  25.3761717  45.9106043  11.3369887  44.5344798  46.3156992   5.0477506
  44.9775944  45.5664317   4.6496629  43.6571309  46.3067128   4.6651238
  39.6680580  52.8687333   0.5284105  40.3631484  53.4894026   0.7471419
  40.0103730  52.0182685   0.8036483  25.2848389  44.6905134  14.3880922
  24.5430125  44.8387770  14.9745553  24.9641133  44.9513400  13.5247672
  41.5672003  50.3187039   2.0571435  42.0923327  50.6574312   1.3320755
  41.4794355  49.3834054   1.8734570  33.2292052  54.2321113  14.1861312
  33.5379178  53.9870259  15.0584012  34.0267534  54.4367751  13.6980182
  33.2512664  56.3859022   6.4166689  32.8117654  55.8935401   7.1099545
  34.0020781  55.8431990   6.1758764  25.7305003  52.5770563   6.4191317
  26.5563022  52.2774335   6.0389960  25.3799055  51.8078185   6.8681105
  30.6986536  51.9297031   8.4888990  30.0766545  51.2667736   8.1891218
  31.3691403  51.9558163   7.8062638  30.7711063  40.4078819  18.0821496
  30.8199219  41.2840942  17.6999266  31.3133577  39.8656212  17.5093140
  41.2565909  50.9519943  17.3622633  40.4661453  50.9344081  16.8227133
  41.0199263  51.4908236  18.1171670  41.3763784  47.8012409  14.6755362
  41.4261789  47.6362416  15.6170885  41.2677707  46.9339668  14.2853243
  38.6667546  43.7843337  15.9914669  39.5677409  43.6449802  15.6998666
  38.7415521  43.9497792  16.9312846  33.0010352  41.1610192  14.8367855
  32.1313661  41.4543758  14.5650444  33.2369832  41.7450637  15.5575119
  42.8781981  50.2209350  14.9197384  42.5866789  50.5839331  15.7560844
  42.2654112  49.5076359  14.7410716  44.0777663  47.7862230   7.4399954
  44.9124554  48.2252034   7.6037514  44.2136792  47.3100883   6.6208200
  41.1269169  45.3441965  13.3877441  41.6023291  45.5369611  12.5796293
  40.2034734  45.4001151  13.1420825  35.7049385  37.3789809  12.3533275
  36.2231329  38.1150836  12.0279764  35.3504518  37.6853802  13.1880035
  39.8270838  42.2207725  11.6205747  40.7788261  42.3205823  11.6417971
  39.6574288  41.4285994  12.1303831  37.8485217  39.3063308  11.8065148
  37.2535150  39.5868321  11.1111637  37.5634914  39.7957209  12.5781889
  42.3058916  45.4413845  10.7348047  42.2735236  44.5029846  10.9207731
  42.9159539  45.5197882  10.0013872  42.4553404  42.2324888  10.7806330
  41.9392453  41.4483345  10.5936259  43.3393353  41.9043605  10.9452849
  48.1235466  46.5029852   9.8754084  48.8538854  46.2415140  10.4361787
  47.5142411  45.7658574   9.9156152  46.2050763  44.6437714  10.4728535
  45.4783926  44.5093679   9.8645026  45.7898050  44.9514543  11.2785253
  34.0280939  48.3627644  18.2375908  34.9483949  48.5406243  18.4315954
  33.9930522  47.4183689  18.0855607  27.0243012  46.2728679  10.8798689
  27.2429022  47.2045786  10.8986723  27.4368786  45.9136653  11.6653493
  31.8970877  41.8461884  20.2701438  31.7967604  42.7956241  20.2013529
  31.6792419  41.5180123  19.3977508  31.7602147  45.2759023  19.0866500
  31.2769229  46.0759383  19.2930389  31.8463086  45.2866968  18.1333943
  27.6875485  49.1663558  11.1234933  28.6418738  49.1347500  11.0564865
  27.4888008  48.7054182  11.9385159  28.2774867  47.7364674  13.6905731
  29.0967756  48.2308753  13.7140568  28.5511674  46.8196642  13.6623298
  43.8228558  40.8649566   7.8261966  44.4173048  40.6245302   7.1155275
  43.8955141  40.1456697   8.4535503  26.0425713  54.7083177   8.1405131
  25.9080181  53.9483578   7.5743129  25.6257776  55.4324077   7.6733920
  46.1299630  44.1715767   6.6005388  45.5699188  44.2408957   7.3736950
  45.5243134  43.9956752   5.8804884  29.1994839  55.6052494   8.3523574
  29.0827223  56.5497927   8.2502264  28.3787286  55.3026056   8.7409373
  23.5309781  42.0702808  14.3897928  24.1768645  41.5601762  14.8785153
  23.3226932  42.8071489  14.9641353  36.0563173  49.1383655  19.8890069
  36.9254333  49.3124308  19.5276704  35.5769925  49.9578072  19.7665798
  30.2249353  56.2580756  11.5679502  31.1276600  56.2904367  11.8845997
  29.9986723  55.3281207  11.5825838  31.9802955  55.0111743   8.2289581
  31.0298586  55.0113604   8.1153953  32.2835442  54.2644477   7.7125615
  27.8707272  39.2170425  18.4872942  28.7338734  38.8607230  18.6976267
  27.2972683  38.8784320  19.1748347  47.7155649  60.8472281   9.2935343
  48.3534059  60.7279029   8.5898683  47.5976492  61.7953125   9.3523295
  44.5245355  60.7999709   9.2296868  44.1863867  60.6840774   8.3417403
  45.3935123  60.3990874   9.2097874  40.3832171  62.6535186   5.2193759
  39.8197036  62.5625123   4.4510047  40.2684566  61.8335090   5.6996251
  45.0065138  61.9534561  15.1883073  44.9953779  61.5587359  14.3163577
  45.1685778  61.2200634  15.7816845  37.9296603  64.1486377   8.0577979
  38.7217895  63.8077202   7.6424279  38.1693253  64.2581352   8.9780133
  45.9631730  66.3206153   0.5308224  45.3119709  66.9060234   0.1442238
  46.7576092  66.8512348   0.5903261  39.8887357  63.4095291   0.9295358
  40.6618233  62.8624278   0.7908234  40.2412756  64.2739540   1.1409820
  41.7272399  64.7371673  14.1362257  41.4362265  65.6417304  14.0208924
  42.3629384  64.7788200  14.8506327  42.6528606  62.1148521  10.7263617
  43.2492178  61.8904544  10.0120580  42.7103578  61.3733267  11.3289065
  42.2253635  59.5687957  -1.4386192  42.4779155  59.0469478  -2.2002729
  41.2878194  59.4054102  -1.3359508  47.2696917  58.5723735   6.3688551
  48.0560007  58.1543158   6.0178968  47.5335622  59.4769827   6.5370200
  47.4406995  64.0096585   1.0677208  46.8052828  64.0831212   1.7798113
  47.1104401  64.5990184   0.3896287  52.6705345  58.5098968   7.2721530
  53.4030516  57.9398185   7.5059359  51.9144700  58.1220569   7.7128035
  41.9449923  61.4716063   0.7638183  41.8286181  60.7960966   1.4319267
  42.0552183  60.9848437  -0.0529664  44.2881464  60.9326210   4.4684872
  43.9239671  60.4056831   5.1797794  45.1448580  60.5424679   4.2951358
  50.1930765  52.2220542  11.7316138  49.8614090  53.0915953  11.5077353
  49.5976378  51.9056826  12.4110169  43.9286951  55.9616109  -0.5353779
  44.0961354  56.8296346  -0.1683308  43.7384120  56.1243391  -1.4592490
  46.6862284  64.4233088  11.1312051  46.3863007  65.3258127  11.0227858
  46.3413344  64.1565272  11.9833204  40.1374766  60.8746885   7.1648756
  39.2125262  60.7423099   7.3726447  40.3859179  61.6541104   7.6618698
  50.0859428  56.9415629   8.8109488  49.1776306  56.8731037   8.5168249
  50.0347024  57.4187574   9.6391314  43.9076172  58.4173767   0.4492888
  43.7875797  58.8630818   1.2878368  43.2128760  58.7659085  -0.1093574
  37.4983577  60.5180159   7.9992545  37.6275958  60.7714638   8.9131956
  36.8181028  61.1107867   7.6797200  41.6683064  71.1877409   4.0983019
  41.5907094  72.1385234   4.1771499  41.0644708  70.8423281   4.7557945
  44.1600294  58.3605274  16.7544386  43.3833628  58.9199194  16.7447250
  44.7990857  58.8462057  17.2759256  51.9521075  55.1432067  10.5887362
  51.3095455  55.4364600   9.9427157  51.4476003  55.0284987  11.3940559
  49.6061238  58.8895240   1.2773222  50.5179094  59.1222627   1.1020919
  49.0970885  59.4732284   0.7148300  42.4146666  61.1690728  16.3162353
  43.1561351  61.7075771  16.0397176  41.7083652  61.7957016  16.4733905
  47.8902006  63.3119868  14.9134514  48.2985362  62.8702279  14.1689147
  47.1679267  62.7372496  15.1668707  44.2433076  58.2492475  12.2868071
  45.0894271  58.6731888  12.4302720  44.1831714  57.5926099  12.9806634
  48.2130821  63.8721059   8.6686803  47.5839683  64.0366773   7.9662871
  47.8256483  64.2862668   9.4397767  52.0920052  64.8075496   6.0231167
  51.4071091  65.1874398   5.4728200  52.1763902  65.4170823   6.7563115
  47.3932521  55.9096843  13.9449245  47.1493453  56.6638904  13.4083521
  47.6692452  56.2882191  14.7796492  49.3470984  62.4535455  12.6226510
  49.5587879  63.0967215  11.9460891  49.3000732  61.6197772  12.1548440
  46.9497213  55.0653276   9.5263083  46.0881692  55.3634530   9.8179820
  46.9759648  55.2823675   8.5944115  43.7658782  63.6095467   5.9336888
  44.2297128  63.8883170   5.1441511  43.5015581  62.7078911   5.7509979
  40.6582863  63.1566948   8.8716651  41.2284221  63.5854217   8.2334136
  41.2490975  62.8749533   9.5700837  42.7027668  59.7318619   2.7426453
  43.4051712  60.1839663   3.2100380  42.3708297  59.0902438   3.3706346
  41.1508030  58.3230376  17.1177663  40.5206691  59.0046657  17.3513060
  41.0444118  58.2113457  16.1730801  36.4453002  57.9902172   8.0443587
  35.6552056  58.2459700   7.5683698  36.9364250  58.8050510   8.1495627
  50.4616812  65.3307411  10.7948868  51.2834256  64.9287598  10.5131549
  50.4579215  65.2275645  11.7464984  38.3967748  58.3546751   5.0027064
  37.5998911  58.4665445   5.5210559  38.1693340  58.6933403   4.1367954
  44.2273415  64.8791454  12.9509578  44.2917848  65.3411861  13.7867750
  43.5184339  64.2488819  13.0791888  34.7290705  58.2432662  10.4758578
  34.9798744  59.1279672  10.7416154  35.2650254  58.0637264   9.7033670
  58.5522805  61.6746159   7.1433839  57.7986513  61.1053557   6.9877844
  58.6870346  61.6408824   8.0904474  43.9421433  66.5459562   2.8188559
  43.8067108  67.3911097   3.2473406  44.4831246  66.7478839   2.0554492
  40.4288773  52.6251142  19.4802914  40.0355718  52.0717340  20.1550558
  41.2454913  52.9361720  19.8709431  37.3950830  64.0635000   3.3916484
  37.9075351  64.8578250   3.5422048  38.0473543  63.3661290   3.3250085
  39.2045715  67.1800756   5.4739237  39.3812344  68.1018721   5.2860221
  40.0002549  66.8659175   5.9033617  43.3456734  54.0409021  17.0723170
  44.0866447  54.6416174  16.9927633  43.5774657  53.2986658  16.5141213
  38.4898072  59.2265388  15.3501400  38.3751587  58.3250645  15.6508499
  37.6342589  59.4729085  14.9986217  45.5689909  67.1683128  16.9488901
  45.1253764  66.3819507  16.6309805  46.2307123  67.3562279  16.2832791
  40.3277031  68.6978930  11.4749579  40.8784456  68.5695993  10.7026573
  39.4888507  68.9973819  11.1244472  47.6671148  67.4485928  14.9770302
  47.6489623  68.2694809  14.4850571  48.5891068  67.3240003  15.2020443
  44.1244202  64.9630058  15.8193810  44.6572538  64.2018346  15.5893118
  43.5958283  64.6703709  16.5617965  47.2913897  50.0690124  11.3487452
  46.9478166  50.9591765  11.2726563  47.6592859  49.8791781  10.4857037
  35.3599747  62.3923654   4.1676054  36.1974969  62.8020662   3.9509762
  35.5378015  61.4523096   4.1376248  47.2564179  60.0598735  -0.1440113
  46.7410803  60.8303339   0.0948275  46.9841488  59.3863871   0.4792949
  44.8411290  54.9048435   4.9145126  43.9852887  54.5155286   4.7350764
  45.2538242  54.9840396   4.0544911  46.3710437  52.4394779   9.3136685
  45.8675233  52.4024914   8.5004491  46.6641044  53.3487521   9.3733342
  42.6153323  52.5233508   8.3202867  43.4806320  52.3276317   7.9608756
  42.6830832  52.2943860   9.2472224  52.2298454  62.8131089   1.7913061
  51.4527896  62.4742249   1.3468223  52.9089934  62.8183712   1.1168026
  47.0450483  57.9325827   1.6819668  46.7400618  58.2471976   2.5329812
  47.9980925  58.0107247   1.7247001  45.4896914  64.0916050   3.3312622
  44.9618276  63.3568810   3.0185860  44.9884417  64.8690726   3.0852591
  50.4689760  62.2865071   8.4479669  49.8113435  62.9764332   8.5359797
  51.2730160  62.6761503   8.7913655  40.2215642  54.7535716   5.6919234
  40.7959394  54.5310898   4.9592427  40.8086624  54.8224411   6.4447835
  49.2795219  60.6409443   6.4983610  49.7927101  61.2739435   7.0005320
  49.9296443  60.0410639   6.1326970  40.5485229  56.7840177  -0.2884881
  39.7122541  57.1214864   0.0324394  40.4089999  56.6489157  -1.2257744
  42.5238310  51.6276965   4.4194303  41.8702722  51.3125982   3.7950918
  42.4818784  51.0052706   5.1454126  43.6349515  61.9096260  -3.6652405
  42.7276576  61.6785514  -3.4661256  44.1320547  61.1133880  -3.4778423
  46.5417593  70.6193768  -0.7455719  45.8679292  70.9225464  -0.1370761
  46.9283415  71.4222848  -1.0950261  45.7576050  58.1158899   8.7441951
  44.8398611  58.3373846   8.5863639  46.1736194  58.1905209   7.8853658
  46.5411098  59.5150315   3.8744631  47.2882917  60.0271712   3.5651753
  46.8102687  59.1934367   4.7349025  44.8137748  62.0108855   0.8571585
  43.9048967  61.7267888   0.9544055  44.8432832  62.4307934  -0.0025108
  50.0457015  65.6215445   4.6262753  49.5919343  64.7806355   4.6827943
  49.4150982  66.2576843   4.9637533  48.9889935  56.5507431   5.8563420
  48.2512692  56.0384817   6.1873663  49.2416709  56.1107812   5.0446697
  48.4889955  67.4591941   5.5612571  48.7812929  68.0196999   4.8424937
  48.9988575  67.7520502   6.3165730  49.0901562  49.3283683   6.4505190
  49.3960439  48.4681046   6.1631105  49.8154167  49.9201303   6.2504184
  35.3825918  59.7314369   4.8386788  35.1850318  59.1383730   4.1137854
  34.8272582  59.4266580   5.5562726  43.3622642  59.6237476   6.9581381
  43.4171252  58.6711312   6.8823857  42.5513844  59.7796915   7.4422679
  44.5113836  63.5517599  -1.8040336  44.0733266  62.8353458  -2.2634699
  45.2524277  63.7793714  -2.3655245  41.3015002  58.2414536   4.7171760
  40.4882868  58.5408706   5.1236952  41.7973996  57.8470224   5.4346242
  43.4523580  68.2372293   6.6506024  43.4099759  68.4633139   5.7214556
  44.3686279  68.0035667   6.7991825  46.8989214  58.7056360  13.5486654
  47.2538601  58.9327833  14.4081119  47.5461345  59.0374737  12.9263909
  52.6286951  61.8274796   4.2535983  52.4904849  62.0176392   3.3257172
  52.2723169  62.5894179   4.7104034  40.7929077  55.8132891  10.3332995
  41.4328456  55.6721650   9.6355958  39.9606607  55.5267404   9.9571597
  52.6556330  63.8951323   9.2647254  53.0892837  63.8026612  10.1130308
  53.3687911  63.8708823   8.6267270  41.5689381  65.1135322   6.4467987
  42.3629979  64.6185642   6.2450562  40.8581073  64.5853185   6.0835693
  46.3884225  67.4953417  10.7980355  46.4421247  68.0644353  11.5658071
  45.5199006  67.6655302  10.4334392  37.8772144  59.2578403   2.5227740
  36.9469732  59.1962859   2.7397702  37.9729616  58.7354356   1.7264381
  37.7957693  55.7833216   5.1105981  38.0564510  56.6978549   5.0015142
  38.6174865  55.3157659   5.2602594  39.2682618  57.1970973  12.2804806
  39.9405672  56.9888335  11.6317455  38.4412405  56.9993059  11.8410038
  53.5171880  63.9375024  11.7980139  53.7107770  64.8420834  12.0439414
  53.4172498  63.4782443  12.6318725  45.1708191  53.8232914  14.2970467
  44.5236106  54.5222864  14.2034943  45.9409206  54.2569058  14.6646715
  48.5786988  64.0881766  17.3721020  48.4272495  63.8592318  16.4551104
  48.5691668  65.0452368  17.3852365  45.3472325  61.6613679  12.3567287
  46.2764385  61.8124839  12.1836254  44.9263355  61.7497700  11.5015933
  44.1460657  65.6864344  10.1265824  44.0071742  65.3183128  10.9991762
  43.3575253  66.2011983   9.9549782  44.7408809  70.7873440   1.4691361
  44.9160564  70.3161483   2.2836983  44.0541597  71.4139206   1.6972621
  45.6965872  65.0645946   7.5154662  45.3615704  65.0246716   8.4112312
  45.1969817  64.3990662   7.0425072  39.6710116  60.4713576  13.0407243
  39.5329914  59.7393815  13.6418782  40.5815039  60.3822476  12.7591431
  48.6325063  62.4101981  -2.2108278  48.0154234  61.6848809  -2.3075226
  48.1641552  63.1711341  -2.5541204  42.2992416  60.1833536  12.5290923
  43.0092035  59.5426728  12.4877541  42.2561725  60.4346430  13.4517104
  50.2879195  67.1200889  15.4497502  50.2291741  66.4360109  14.7828085
  50.6898713  67.8619879  14.9978128  41.0121350  57.1698753  14.3486562
  40.4758707  56.7189492  15.0008159  40.4238059  57.3044662  13.6057027
  39.3069894  73.9362803   8.2431221  39.5466492  74.5681327   8.9210239
  38.4639090  73.5850843   8.5296580  50.2896602  65.0840473  13.6811482
  49.4023381  64.7466395  13.8037880  50.8595153  64.3523504  13.9180247
  31.9425749  61.4164565   7.0054533  32.6296789  61.1026295   6.4175548
  31.7873878  62.3205929   6.7321784  36.7460472  56.3054761  11.4339557
  36.6618660  55.6980431  10.6989967  35.9243178  56.7963779  11.4349053
  43.8197756  69.7441925  10.6472725  43.7467927  70.5496897  11.1592029
  43.3775149  69.9433891   9.8220746  43.6087535  68.9813695   4.1575546
  42.8255057  69.5235375   4.2513771  44.3080281  69.4987675   4.5569788
  46.9184185  54.7908325   6.8009752  47.4152885  54.0378287   6.4810822
  46.1471167  54.8272641   6.2352961  54.7713943  60.4948690   8.4428043
  54.7603819  61.3773406   8.0721976  53.9031322  60.1420241   8.2482580
  46.2796439  69.6428759  12.8030883  46.9924411  70.2776224  12.7306785
  45.7886468  69.7392625  11.9870885  48.0013966  63.5480012   4.3748175
  47.0670245  63.6681474   4.2052879  48.1790635  62.6452479   4.1108185
  43.5019154  56.9325708   6.5281436  43.1316942  56.3796748   7.2162342
  43.9978247  56.3283841   5.9756436  51.3886518  59.3897331   4.9098209
  51.8546970  60.2225323   4.8358512  51.8394018  58.9242313   5.6143468
  41.3308353  67.3923203  13.6236454  42.0317812  68.0259686  13.7765849
  40.8603468  67.7337934  12.8632094  49.4562749  65.7341152   1.9084361
  49.7322593  65.6197747   2.8178235  48.5867247  65.3358637   1.8696534
  49.3603180  51.7577918   8.9489111  48.4466260  51.9882145   9.1171318
  49.7896282  51.8416362   9.8003143  49.1309639  59.9467810  11.4489005
  48.4781089  60.1943718  10.7941457  49.5090019  59.1331948  11.1151482
  46.0916813  69.9827503   5.5517175  46.2739207  69.1649159   6.0144927
  46.9149799  70.1995196   5.1142065  46.4258978  68.9095688   2.8132223
  46.9546745  68.3988143   2.2002386  46.6887198  68.5938219   3.6777756
  45.1797212  60.6887621  17.9355042  44.5037849  60.5881751  18.6057417
  46.0024846  60.5326835  18.3991039  36.9276071  66.9259558  10.5567557
  37.5129508  66.1803246  10.6895461  36.7300909  67.2363514  11.4404221
  39.7814726  69.9610805   5.5729999  39.1125101  70.4456933   5.0894039
  39.6427596  70.2080026   6.4873378  31.5193726  59.4965158   9.2772000
  31.5577825  58.9628749  10.0709118  31.0134018  58.9700363   8.6582977
  43.9219995  71.9954549  12.1712658  44.4738303  72.1586170  12.9361743
  44.2626188  72.5858986  11.4992683  38.8984488  54.3429698  12.7734542
  38.9625814  55.2044529  12.3611940  38.8351608  53.7303700  12.0406901
  38.3736760  56.4152831  16.4207577  39.0008799  56.0329908  17.0345101
  37.5164679  56.1967033  16.7863269  48.7730869  66.8215806  18.0261312
  49.3170773  67.4345764  17.5316267  48.1917714  67.3795385  18.5428325
  35.1502303  58.2229260   2.3525932  35.4455744  57.3139938   2.2992985
  34.2490339  58.2017000   2.0306934  47.0588382  69.9436524   9.1576340
  46.9339521  69.1426264   8.6487285  47.7167473  70.4382718   8.6690310
  38.6796550  56.2985257   8.3353480  37.9583136  56.9121224   8.1960953
  39.4689806  56.8343021   8.2570126  49.1223290  67.7445544  10.7855890
  48.1753626  67.6250895  10.7134217  49.4706063  66.8568042  10.8682151
  41.4822864  53.6339683  14.6094132  42.0057266  53.8801980  15.3720441
  41.2635197  54.4659718  14.1897269  36.8790145  55.9043358   2.4765257
  36.5502851  55.0240737   2.2940363  37.2329515  55.8491026   3.3641646
  46.1269724  67.5398260   6.9860242  45.9794686  66.6114968   7.1667812
  46.9523217  67.5618351   6.5017317  39.9931968  56.1916328   2.8440734
  40.3328040  56.7202249   2.1219343  40.4404088  56.5296734   3.6199301
  49.7303845  68.3626819   8.0725115  50.6550393  68.1569681   7.9349566
  49.5619149  68.1143220   8.9814456  42.6875409  54.5753378  12.2943802
  42.3472229  53.7761191  12.6964482  41.9814415  54.8755089  11.7220636
  43.3391881  51.6602691  10.7471125  44.1617950  51.1863169  10.6250016
  43.5829944  52.4393174  11.2469812  41.9800115  54.6890949   1.0434027
  42.7008478  55.0672202   0.5397744  41.3565419  55.4079826   1.1469005
  46.1231238  55.3936098   1.9792359  46.3394852  56.2760736   1.6781188
  45.6425305  55.0022312   1.2498001  40.8630459  58.3521811   8.5563104
  40.7175040  58.6662114   9.4487386  40.3855663  58.9706712   8.0034003
  42.7226842  55.3424359   8.6043994  42.7088411  54.4465453   8.2676292
  43.4399270  55.3495023   9.2382280  44.5752973  55.7761700  10.6497121
  44.3170751  56.6978770  10.6481451  44.0438013  55.3792134  11.3397585
  49.5199162  68.8812487   3.4287206  49.6936039  68.3158909   2.6761059
  50.0128053  69.6813382   3.2466696  35.3376121  60.8927156  11.4950765
  34.7929590  61.6686964  11.6271040  36.2155471  61.2397960  11.3369887
  42.1263738  54.2238740   3.8731564  42.2479649  53.2955386   4.0722451
  41.8365781  54.2377426   2.9609879  44.9954929  51.9093650   7.0098284
  45.0176625  51.9732983   6.0550263  45.4122988  51.0698159   7.2038790
  55.3738553  61.6448910   5.0477506  55.8169699  60.8956235   4.6496629
  54.4965063  61.6359046   4.6651238  50.5074334  68.1979251   0.5284105
  51.2025239  68.8185944   0.7471419  50.8497484  67.3474602   0.8036483
  36.1242143  60.0197052  14.3880922  35.3823879  60.1679687  14.9745553
  35.8034888  60.2805318  13.5247672  52.4065757  65.6478957   2.0571435
  52.9317081  65.9866229   1.3320755  52.3188110  64.7125972   1.8734570
  44.0685806  69.5613030  14.1861312  44.3772932  69.3162177  15.0584012
  44.8661288  69.7659669  13.6980182  44.0906418  71.7150940   6.4166689
  43.6511408  71.2227319   7.1099545  44.8414535  71.1723908   6.1758764
  36.5698757  67.9062481   6.4191317  37.3956777  67.6066253   6.0389960
  36.2192809  67.1370103   6.8681105  41.5380290  67.2588949   8.4888990
  40.9160299  66.5959654   8.1891218  42.2085157  67.2850081   7.8062638
  34.7707362  65.8248807   7.3780250  33.9339270  65.3970982   7.1964252
  34.7431008  66.0181251   8.3151042  41.6104818  55.7370737  18.0821496
  41.6592973  56.6132860  17.6999266  42.1527332  55.1948130  17.5093140
  52.0959663  66.2811860  17.3622633  51.3055207  66.2635999  16.8227133
  51.8593018  66.8200154  18.1171670  52.2157538  63.1304327  14.6755362
  52.2655543  62.9654334  15.6170885  52.1071462  62.2631586  14.2853243
  41.0993797  65.8092872   1.9647451  41.2481917  66.4928337   1.3114124
  41.9060241  65.7897962   2.4796907  49.5061301  59.1135255  15.9914669
  50.4071164  58.9741719  15.6998666  49.5809275  59.2789709  16.9312846
  43.8404106  56.4902109  14.8367855  42.9707416  56.7835675  14.5650444
  44.0763587  57.0742554  15.5575119  53.7175735  65.5501268  14.9197384
  53.4260544  65.9131249  15.7560844  53.1047867  64.8368276  14.7410716
  54.9171418  63.1154148   7.4399954  55.7518309  63.5543952   7.6037514
  55.0530546  62.6392801   6.6208200  51.9662923  60.6733883  13.3877441
  52.4417045  60.8661529  12.5796293  51.0428489  60.7293069  13.1420825
  38.8546430  61.8358050   2.9708520  38.6092472  60.9320380   3.1688730
  39.0242345  61.8375200   2.0287998  46.5443140  52.7081726  12.3533275
  47.0625084  53.4442753  12.0279764  46.1898273  53.0145720  13.1880035
  38.1242078  57.5686408   0.4694681  37.4311323  57.6430762  -0.1865283
  37.8793830  56.8046751   0.9916198  46.7955734  49.1282009   7.8734172
  47.0757488  48.4605198   8.4994599  47.5806341  49.3211104   7.3608836
  44.5989203  68.3041003  -0.5640802  44.0263170  68.9231190  -1.0170330
  45.1721996  68.8540364  -0.0300880  50.6664592  57.5499643  11.6205747
  51.6182015  57.6497740  11.6417971  50.4968043  56.7577911  12.1303831
  48.6878972  54.6355226  11.8065148  48.0928904  54.9160239  11.1111637
  48.4028669  55.1249127  12.5781889  47.8186462  68.5878153   0.5667781
  48.7517136  68.5223715   0.7700656  47.7309675  69.4234420   0.1082313
  50.4474479  67.9044023  -2.4728272  50.3688111  67.5703887  -1.5792514
  51.2684146  68.3965791  -2.4736800  53.1452670  60.7705763  10.7348047
  53.1128990  59.8321763  10.9207731  53.7553294  60.8489799  10.0013872
  44.9836001  59.6401815  -3.2224749  45.9295106  59.5108024  -3.1536331
  44.6050246  58.9016477  -2.7455321  53.2947159  57.5616806  10.7806330
  52.7786207  56.7775263  10.5936259  54.1787107  57.2335523  10.9452849
  50.9557886  51.3057822   6.7402143  50.7582707  50.9972910   7.6245475
  51.5657591  52.0319460   6.8700072  58.9629220  61.8321769   9.8754084
  59.6932609  61.5707057  10.4361787  58.3536166  61.0950491   9.9156152
  57.0444517  59.9729632  10.4728535  56.3177681  59.8385597   9.8645026
  56.6291804  60.2806461  11.2785253  44.8674694  63.6919562  18.2375908
  45.7877703  63.8698161  18.4315954  44.8324277  62.7475607  18.0855607
  34.0856859  58.8858155   7.1629182  33.7659643  58.0323463   6.8703556
  33.5390287  59.1006733   7.9187150  37.8636766  61.6020596  10.8798689
  38.0822776  62.5337704  10.8986723  38.2762540  61.2428571  11.6653493
  44.7840984  52.1088682   2.8674377  43.9741712  51.7635767   3.2429623
  45.4725401  51.7996225   3.4561989  46.7131532  51.1866728   4.4898674
  47.2662571  51.6062182   5.1488697  46.9501619  50.2602477   4.5321630
  42.7364632  57.1753802  20.2701438  42.6361358  58.1248159  20.2013529
  42.5186174  56.8472041  19.3977508  33.9545119  62.5061067   9.1322304
  33.2608590  62.0915020   8.6192258  34.7018110  62.5481603   8.5355723
  50.0910339  53.2967254   3.9977338  49.5109008  53.9552058   3.6155391
  49.8246272  52.4744598   3.5864756  48.5413906  52.6972311   6.1998659
  49.0413684  52.8088846   5.3912977  49.1849514  52.3933364   6.8399467
  42.5995902  60.6050941  19.0866500  42.1162983  61.4051301  19.2930389
  42.6856841  60.6158886  18.1333943  35.8681861  62.4379321   7.0088319
  35.8452549  62.5367008   6.0570202  36.1782498  63.2844471   7.3305485
  38.5269239  64.4955476  11.1234933  39.4812493  64.4639418  11.0564865
  38.3281763  64.0346099  11.9385159  39.1168621  63.0656592  13.6905731
  39.9361510  63.5600670  13.7140568  39.3905429  62.1488560  13.6623298
  48.8735217  55.4567344   3.0533686  47.9861072  55.7416995   2.8353881
  49.2889206  55.2961107   2.2060963  52.2249754  55.4813865   6.7688026
  53.0010144  55.9710317   7.0412643  51.4997888  55.9071919   7.2259895
  54.6622312  56.1941484   7.8261966  55.2566803  55.9537220   7.1155275
  54.7348896  55.4748615   8.4535503  36.8819468  70.0375095   8.1405131
  36.7473936  69.2775496   7.5743129  36.4651530  70.7615995   7.6733920
  48.0178431  65.2212019  -2.8518294  48.7214281  65.4262021  -2.2360638
  47.2941080  65.7888781  -2.5869210  48.8476241  60.9721880   3.2683977
  48.7911443  61.4290431   2.4291609  49.4004584  60.2112564   3.0906819
  52.6581047  56.7611612   4.0934096  52.4017981  56.3608247   4.9242304
  52.0333915  57.4755406   3.9684235  56.9693385  59.5007685   6.6005388
  56.4092943  59.5700874   7.3736950  56.3636888  59.3248670   5.8804884
  40.0388594  70.9344412   8.3523574  39.9220978  71.8789845   8.2502264
  39.2181040  70.6317974   8.7409373  49.9265128  65.6594548  -0.8019833
  50.7610732  65.2275746  -0.9842359  49.7649471  65.4876561   0.1257061
  49.5811020  62.1626661   0.5636506  49.5259824  61.9970933  -0.3775050
  48.9557076  62.8702694   0.7198696  34.3703535  57.3994725  14.3897928
  35.0162399  56.8893679  14.8785153  34.1620687  58.1363407  14.9641353
  46.8956928  64.4675573  19.8890069  47.7648087  64.6416225  19.5276704
  46.4163679  65.2869990  19.7665798  42.8907146  51.6634770   0.1421824
  42.8785816  52.6076610   0.2990095  43.7830568  51.4804916  -0.1518715
  41.0643108  71.5872674  11.5679502  41.9670355  71.6196284  11.8845997
  40.8380478  70.6573125  11.5825838  42.8196710  70.3403661   8.2289581
  41.8692341  70.3405522   8.1153953  43.1229196  69.5936395   7.7125615
  46.7059265  48.2577547   4.3967761  45.9391661  47.7036033   4.5424443
  47.1169970  48.3299416   5.2581913  38.7101026  54.5462343  18.4872942
  39.5732488  54.1899147  18.6976267  38.1366437  54.2076237  19.1748347
  58.5549403  76.1764199   9.2935343  59.1927813  76.0570946   8.5898683
  58.4370246  77.1245043   9.3523295  55.3639110  76.1291627   9.2296868
  55.0257621  76.0132692   8.3417403  56.2328878  75.7282792   9.2097874
  51.2225925  77.9827103   5.2193759  50.6590790  77.8917040   4.4510047
  51.1078320  77.1627008   5.6996251  55.8458893  77.2826479  15.1883073
  55.8347533  76.8879277  14.3163577  56.0079532  76.5492551  15.7816845
  48.7690357  79.4778295   8.0577979  49.5611649  79.1369120   7.6424279
  49.0087007  79.5873270   8.9780133  56.8025484  81.6498071   0.5308224
  56.1513464  82.2352152   0.1442238  57.5969847  82.1804266   0.5903261
  50.7281111  78.7387208   0.9295358  51.5011987  78.1916195   0.7908234
  51.0806510  79.6031458   1.1409820  52.5666154  80.0663591  14.1362257
  52.2756020  80.9709221  14.0208924  53.2023138  80.1080118  14.8506327
  53.4922361  77.4440439  10.7263617  54.0885933  77.2196461  10.0120580
  53.5497332  76.7025185  11.3289065  53.0647389  74.8979874  -1.4386192
  53.3172910  74.3761396  -2.2002729  52.1271948  74.7346020  -1.3359508
  58.1090672  73.9015653   6.3688551  58.8953761  73.4835076   6.0178968
  58.3729376  74.8061745   6.5370200  58.2800749  79.3388503   1.0677208
  57.6446582  79.4123130   1.7798113  57.9498156  79.9282102   0.3896287
  63.5099099  73.8390886   7.2721530  64.2424271  73.2690103   7.5059359
  62.7538455  73.4512486   7.7128035  52.7843678  76.8007980   0.7638183
  52.6679936  76.1252884   1.4319267  52.8945938  76.3140354  -0.0529664
  55.1275219  76.2618127   4.4684872  54.7633426  75.7348748   5.1797794
  55.9842335  75.8716597   4.2951358  61.0324519  67.5512460  11.7316138
  60.7007844  68.4207871  11.5077353  60.4370133  67.2348744  12.4110169
  54.7680706  71.2908027  -0.5353779  54.9355108  72.1588264  -0.1683308
  54.5777875  71.4535309  -1.4592490  57.5256039  79.7525006  11.1312051
  57.2256762  80.6550045  11.0227858  57.1807098  79.4857189  11.9833204
  50.9768520  76.2038803   7.1648756  50.0519017  76.0715017   7.3726447
  51.2252934  76.9833022   7.6618698  60.9253183  72.2707546   8.8109488
  60.0170060  72.2022955   8.5168249  60.8740778  72.7479491   9.6391314
  54.7469927  73.7465685   0.4492888  54.6269552  74.1922735   1.2878368
  54.0522515  74.0951002  -0.1093574  48.3377331  75.8472076   7.9992545
  48.4669713  76.1006555   8.9131956  47.6574783  76.4399784   7.6797200
  52.5076819  86.5169326   4.0983019  52.4300848  87.4677151   4.1771499
  51.9038462  86.1715199   4.7557945  54.9994048  73.6897192  16.7544386
  54.2227383  74.2491112  16.7447250  55.6384612  74.1753975  17.2759256
  62.7914829  70.4723985  10.5887362  62.1489209  70.7656518   9.9427157
  62.2869758  70.3576905  11.3940559  60.4454993  74.2187158   1.2773222
  61.3572849  74.4514545   1.1020919  59.9364640  74.8024202   0.7148300
  53.2540421  76.4982645  16.3162353  53.9955105  77.0367689  16.0397176
  52.5477406  77.1248934  16.4733905  58.7295760  78.6411786  14.9134514
  59.1379116  78.1994196  14.1689147  58.0073022  78.0664413  15.1668707
  55.0826830  73.5784392  12.2868071  55.9288026  74.0023806  12.4302720
  55.0225468  72.9218017  12.9806634  59.0524575  79.2012976   8.6686803
  58.4233437  79.3658690   7.9662871  58.6650237  79.6154586   9.4397767
  62.9313807  80.1367414   6.0231167  62.2464845  80.5166316   5.4728200
  63.0157656  80.7462741   6.7563115  58.2326276  71.2388761  13.9449245
  57.9887208  71.9930821  13.4083521  58.5086206  71.6174108  14.7796492
  60.1864739  77.7827373  12.6226510  60.3981634  78.4259133  11.9460891
  60.1394487  76.9489690  12.1548440  57.7890967  70.3945194   9.5263083
  56.9275447  70.6926447   9.8179820  57.8153402  70.6115593   8.5944115
  54.6052537  78.9387384   5.9336888  55.0690882  79.2175087   5.1441511
  54.3409335  78.0370829   5.7509979  51.4976618  78.4858866   8.8716651
  52.0677975  78.9146134   8.2334136  52.0884730  78.2041451   9.5700837
  53.5421423  75.0610537   2.7426453  54.2445466  75.5131580   3.2100380
  53.2102051  74.4194356   3.3706346  51.9901784  73.6522293  17.1177663
  51.3600445  74.3338574  17.3513060  51.8837872  73.5405375  16.1730801
  47.2846757  73.3194089   8.0443587  46.4945811  73.5751618   7.5683698
  47.7758004  74.1342427   8.1495627  61.3010566  80.6599329  10.7948868
  62.1228010  80.2579516  10.5131549  61.2972969  80.5567563  11.7464984
  49.2361502  73.6838669   5.0027064  48.4392666  73.7957363   5.5210559
  49.0087095  74.0225321   4.1367954  55.0667170  80.2083372  12.9509578
  55.1311602  80.6703779  13.7867750  54.3578094  79.5780737  13.0791888
  45.5684460  73.5724580  10.4758578  45.8192498  74.4571590  10.7416154
  46.1044008  73.3929181   9.7033670  69.3916560  77.0038077   7.1433839
  68.6380268  76.4345475   6.9877844  69.5264101  76.9700742   8.0904474
  54.7815188  81.8751479   2.8188559  54.6460862  82.7203015   3.2473406
  55.3225000  82.0770757   2.0554492  51.2682527  67.9543059  19.4802914
  50.8749473  67.4009258  20.1550558  52.0848668  68.2653638  19.8709431
  48.2344585  79.3926917   3.3916484  48.7469106  80.1870168   3.5422048
  48.8867298  78.6953208   3.3250085  50.0439470  82.5092674   5.4739237
  50.2206098  83.4310638   5.2860221  50.8396303  82.1951093   5.9033617
  54.1850488  69.3700938  17.0723170  54.9260202  69.9708091  16.9927633
  54.4168411  68.6278576  16.5141213  49.3291826  74.5557306  15.3501400
  49.2145341  73.6542563  15.6508499  48.4736344  74.8021002  14.9986217
  56.4083664  82.4975046  16.9488901  55.9647518  81.7111424  16.6309805
  57.0700878  82.6854196  16.2832791  51.1670785  84.0270847  11.4749579
  51.7178210  83.8987911  10.7026573  50.3282261  84.3265736  11.1244472
  58.5064902  82.7777846  14.9770302  58.4883377  83.5986727  14.4850571
  59.4284822  82.6531921  15.2020443  54.9637956  80.2921975  15.8193810
  55.4966293  79.5310263  15.5893118  54.4352037  79.9995627  16.5617965
  58.1307651  65.3982041  11.3487452  57.7871921  66.2883683  11.2726563
  58.4986614  65.2083699  10.4857037  46.1993502  77.7215572   4.1676054
  47.0368724  78.1312580   3.9509762  46.3771769  76.7815014   4.1376248
  58.0957934  75.3890652  -0.1440113  57.5804557  76.1595257   0.0948275
  57.8235242  74.7155789   0.4792949  55.6805045  70.2340353   4.9145126
  54.8246641  69.8447204   4.7350764  56.0931997  70.3132314   4.0544911
  57.2104192  67.7686696   9.3136685  56.7068987  67.7316832   8.5004491
  57.5034798  68.6779439   9.3733342  53.4547077  67.8525426   8.3202867
  54.3200074  67.6568235   7.9608756  53.5224586  67.6235778   9.2472224
  63.0692208  78.1423007   1.7913061  62.2921651  77.8034167   1.3468223
  63.7483689  78.1475630   1.1168026  57.8844237  73.2617744   1.6819668
  57.5794373  73.5763894   2.5329812  58.8374679  73.3399164   1.7247001
  56.3290669  79.4207968   3.3312622  55.8012030  78.6860727   3.0185860
  55.8278172  80.1982644   3.0852591  61.3083515  77.6156988   8.4479669
  60.6507189  78.3056250   8.5359797  62.1123914  78.0053420   8.7913655
  51.0609397  70.0827634   5.6919234  51.6353148  69.8602816   4.9592427
  51.6480379  70.1516329   6.4447835  60.1188974  75.9701361   6.4983610
  60.6320855  76.6031353   7.0005320  60.7690198  75.3702556   6.1326970
  51.3878984  72.1132095  -0.2884881  50.5516296  72.4506782   0.0324394
  51.2483753  71.9781075  -1.2257744  53.3632064  66.9568883   4.4194303
  52.7096477  66.6417900   3.7950918  53.3212538  66.3344623   5.1454126
  54.4743269  77.2388178  -3.6652405  53.5670331  77.0077431  -3.4661256
  54.9714301  76.4425797  -3.4778423  56.5969805  73.4450816   8.7441951
  55.6792366  73.6665764   8.5863639  57.0129948  73.5197127   7.8853658
  57.3804852  74.8442232   3.8744631  58.1276671  75.3563629   3.5651753
  57.6496442  74.5226285   4.7349025  55.6531503  77.3400773   0.8571585
  54.7442722  77.0559806   0.9544055  55.6826586  77.7599851  -0.0025108
  60.8850770  80.9507362   4.6262753  60.4313097  80.1098272   4.6827943
  60.2544737  81.5868761   4.9637533  59.8283689  71.8799348   5.8563420
  59.0906446  71.3676735   6.1873663  60.0810463  71.4399730   5.0446697
  59.3283709  82.7883859   5.5612571  59.6206684  83.3488916   4.8424937
  59.8382330  83.0812420   6.3165730  59.9295317  64.6575600   6.4505190
  60.2354194  63.7972964   6.1631105  60.6547922  65.2493221   6.2504184
  46.2219673  75.0606287   4.8386788  46.0244073  74.4675648   4.1137854
  45.6666337  74.7558497   5.5562726  54.2016397  74.9529394   6.9581381
  54.2565006  74.0003230   6.8823857  53.3907599  75.1088833   7.4422679
  55.3507590  78.8809517  -1.8040336  54.9127020  78.1645376  -2.2634699
  56.0918031  79.1085631  -2.3655245  52.1408756  73.5706453   4.7171760
  51.3276622  73.8700624   5.1236952  52.6367751  73.1762142   5.4346242
  54.2917334  83.5664210   6.6506024  54.2493513  83.7925056   5.7214556
  55.2080033  83.3327585   6.7991825  57.7382968  74.0348278  13.5486654
  58.0932356  74.2619751  14.4081119  58.3855099  74.3666655  12.9263909
  63.4680705  77.1566714   4.2535983  63.3298604  77.3468310   3.3257172
  63.1116924  77.9186096   4.7104034  51.6322831  71.1424809  10.3332995
  52.2722211  71.0013568   9.6355958  50.8000362  70.8559322   9.9571597
  63.4950085  79.2243241   9.2647254  63.9286591  79.1318530  10.1130308
  64.2081665  79.2000741   8.6267270  52.4083135  80.4427239   6.4467987
  53.2023734  79.9477559   6.2450562  51.6974828  79.9145102   6.0835693
  57.2277980  82.8245335  10.7980355  57.2815002  83.3936271  11.5658071
  56.3592761  82.9947220  10.4334392  48.7165899  74.5870321   2.5227740
  47.7863487  74.5254776   2.7397702  48.8123371  74.0646274   1.7264381
  48.6351448  71.1125134   5.1105981  48.8958265  72.0270467   5.0015142
  49.4568620  70.6449576   5.2602594  50.1076373  72.5262891  12.2804806
  50.7799426  72.3180253  11.6317455  49.2806160  72.3284977  11.8410038
  64.3565634  79.2666941  11.7980139  64.5501524  80.1712752  12.0439414
  64.2566252  78.8074360  12.6318725  56.0101945  69.1524832  14.2970467
  55.3629860  69.8514782  14.2034943  56.7802960  69.5860976  14.6646715
  59.4180743  79.4173684  17.3721020  59.2666249  79.1884236  16.4551104
  59.4085422  80.3744285  17.3852365  56.1866079  76.9905597  12.3567287
  57.1158139  77.1416756  12.1836254  55.7657109  77.0789618  11.5015933
  54.9854411  81.0156261  10.1265824  54.8465497  80.6475046  10.9991762
  54.1969007  81.5303901   9.9549782  55.5802563  86.1165358   1.4691361
  55.7554319  85.6453401   2.2836983  54.8935351  86.7431124   1.6972621
  56.5359626  80.3937864   7.5154662  56.2009459  80.3538634   8.4112312
  56.0363572  79.7282580   7.0425072  50.5103870  75.8005494  13.0407243
  50.3723668  75.0685733  13.6418782  51.4208794  75.7114394  12.7591431
  59.4718818  77.7393898  -2.2108278  58.8547989  77.0140726  -2.3075226
  59.0035306  78.5003258  -2.5541204  53.1386171  75.5125453  12.5290923
  53.8485789  74.8718645  12.4877541  53.0955479  75.7638348  13.4517104
  61.1272950  82.4492807  15.4497502  61.0685496  81.7652027  14.7828085
  61.5292468  83.1911797  14.9978128  51.8515105  72.4990671  14.3486562
  51.3152462  72.0481410  15.0008159  51.2631813  72.6336580  13.6057027
  50.1463648  89.2654720   8.2431221  50.3860247  89.8973245   8.9210239
  49.3032845  88.9142760   8.5296580  51.2617364  71.9579323  -3.0886974
  50.3846830  71.8368123  -3.4524727  51.7375117  71.1665401  -3.3408085
  61.1290357  80.4132391  13.6811482  60.2417136  80.0758312  13.8037880
  61.6988908  79.6815422  13.9180247  42.7819504  76.7456482   7.0054533
  43.4690544  76.4318212   6.4175548  42.6267633  77.6497847   6.7321784
  47.5854226  71.6346679  11.4339557  47.5012415  71.0272348  10.6989967
  46.7636933  72.1255697  11.4349053  54.6591510  85.0733843  10.6472725
  54.5861682  85.8788814  11.1592029  54.2168903  85.2725809   9.8220746
  54.4481290  84.3105613   4.1575546  53.6648812  84.8527293   4.2513771
  55.1474035  84.8279593   4.5569788  57.7577940  70.1200242   6.8009752
  58.2546640  69.3670205   6.4810822  56.9864921  70.1564559   6.2352961
  65.6107697  75.8240608   8.4428043  65.5997574  76.7065323   8.0721976
  64.7425077  75.4712159   8.2482580  57.1190194  84.9720677  12.8030883
  57.8318166  85.6068142  12.7306785  56.6280222  85.0684543  11.9870885
  58.8407721  78.8771930   4.3748175  57.9063999  78.9973392   4.2052879
  59.0184389  77.9744396   4.1108185  54.3412909  72.2617625   6.5281436
  53.9710696  71.7088666   7.2162342  54.8372001  71.6575759   5.9756436
  62.2280272  74.7189249   4.9098209  62.6940724  75.5517240   4.8358512
  62.6787773  74.2534230   5.6143468  52.1702107  82.7215120  13.6236454
  52.8711567  83.3551603  13.7765849  51.6997222  83.0629852  12.8632094
  60.2956503  81.0633070   1.9084361  60.5716347  80.9489665   2.8178235
  59.4261002  80.6650555   1.8696534  60.1996935  67.0869836   8.9489111
  59.2860015  67.3174063   9.1171318  60.6290036  67.1708280   9.8003143
  59.9703393  75.2759728  11.4489005  59.3174844  75.5235635  10.7941457
  60.3483773  74.4623866  11.1151482  56.9310567  85.3119421   5.5517175
  57.1132962  84.4941077   6.0144927  57.7543553  85.5287113   5.1142065
  57.2652733  84.2387606   2.8132223  57.7940499  83.7280061   2.2002386
  57.5280952  83.9230136   3.6777756  56.0190966  76.0179539  17.9355042
  55.3431603  75.9173668  18.6057417  56.8418600  75.8618753  18.3991039
  47.7669825  82.2551475  10.5567557  48.3523262  81.5095163  10.6895461
  47.5694664  82.5655432  11.4404221  50.6208481  85.2902723   5.5729999
  49.9518856  85.7748850   5.0894039  50.4821350  85.5371943   6.4873378
  42.3587480  74.8257076   9.2772000  42.3971580  74.2920666  10.0709118
  41.8527773  74.2992281   8.6582977  54.7613749  87.3246466  12.1712658
  55.3132057  87.4878088  12.9361743  55.1019943  87.9150904  11.4992683
  49.7378242  69.6721616  12.7734542  49.8019569  70.5336447  12.3611940
  49.6745363  69.0595618  12.0406901  49.2130515  71.7444749  16.4207577
  49.8402554  71.3621826  17.0345101  48.3558434  71.5258951  16.7863269
  59.6124624  82.1507724  18.0261312  60.1564527  82.7637682  17.5316267
  59.0311468  82.7087302  18.5428325  45.9896058  73.5521178   2.3525932
  46.2849499  72.6431856   2.2992985  45.0884093  73.5308917   2.0306934
  57.8982136  85.2728442   9.1576340  57.7733276  84.4718182   8.6487285
  58.5561228  85.7674635   8.6690310  49.5190305  71.6277174   8.3353480
  48.7976890  72.2413142   8.1960953  50.3083560  72.1634939   8.2570126
  59.9617045  83.0737462  10.7855890  59.0147380  82.9542813  10.7134217
  60.3099818  82.1859960  10.8682151  52.3216618  68.9631601  14.6094132
  52.8451020  69.2093897  15.3720441  52.1028951  69.7951636  14.1897269
  47.7183899  71.2335275   2.4765257  47.3896605  70.3532654   2.2940363
  48.0723270  71.1782944   3.3641646  56.9663478  82.8690178   6.9860242
  56.8188441  81.9406886   7.1667812  57.7916972  82.8910269   6.5017317
  50.8325722  71.5208245   2.8440734  51.1721795  72.0494166   2.1219343
  51.2797843  71.8588651   3.6199301  60.5697600  83.6918737   8.0725115
  61.4944147  83.4861598   7.9349566  60.4012903  83.4435138   8.9814456
  53.5269163  69.9045296  12.2943802  53.1865984  69.1053109  12.6964482
  52.8208170  70.2047007  11.7220636  54.1785635  66.9894608  10.7471125
  55.0011704  66.5155087  10.6250016  54.4223699  67.7685092  11.2469812
  52.8193870  70.0182867   1.0434027  53.5402232  70.3964120   0.5397744
  52.1959174  70.7371744   1.1469005  56.9624992  70.7228016   1.9792359
  57.1788607  71.6052654   1.6781188  56.4819060  70.3314229   1.2498001
  51.7024214  73.6813729   8.5563104  51.5568795  73.9954032   9.4487386
  51.2249417  74.2998629   8.0034003  53.5620597  70.6716277   8.6043994
  53.5482165  69.7757370   8.2676292  54.2793025  70.6786941   9.2382280
  55.4146727  71.1053617  10.6497121  55.1564505  72.0270688  10.6481451
  54.8831768  70.7084052  11.3397585  60.3592916  84.2104404   3.4287206
  60.5329794  83.6450827   2.6761059  60.8521807  85.0105299   3.2466696
  46.1769876  76.2219073  11.4950765  45.6323344  76.9978881  11.6271040
  47.0549226  76.5689878  11.3369887  52.9657493  69.5530657   3.8731564
  53.0873404  68.6247303   4.0722451  52.6759535  69.5669343   2.9609879
  55.8348683  67.2385568   7.0098284  55.8570380  67.3024901   6.0550263
  56.2516742  66.3990076   7.2038790  66.2132307  76.9740827   5.0477506
  66.6563453  76.2248152   4.6496629  65.3358818  76.9650964   4.6651238
  61.3468089  83.5271169   0.5284105  62.0418993  84.1477861   0.7471419
  61.6891239  82.6766520   0.8036483  46.9635898  75.3488970  14.3880922
  46.2217634  75.4971605  14.9745553  46.6428642  75.6097235  13.5247672
  63.2459512  80.9770874   2.0571435  63.7710836  81.3158147   1.3320755
  63.1581864  80.0417890   1.8734570  54.9079560  84.8904948  14.1861312
  55.2166687  84.6454095  15.0584012  55.7055043  85.0951586  13.6980182
  54.9300173  87.0442858   6.4166689  54.4905163  86.5519236   7.1099545
  55.6808290  86.5015825   6.1758764  47.4092512  83.2354398   6.4191317
  48.2350531  82.9358170   6.0389960  47.0586564  82.4662021   6.8681105
  52.3774045  82.5880867   8.4888990  51.7554054  81.9251572   8.1891218
  53.0478912  82.6141999   7.8062638  45.6101117  81.1540725   7.3780250
  44.7733025  80.7262899   7.1964252  45.5824762  81.3473168   8.3151042
  52.4498572  71.0662655  18.0821496  52.4986728  71.9424777  17.6999266
  52.9921086  70.5240048  17.5093140  62.9353418  81.6103778  17.3622633
  62.1448962  81.5927917  16.8227133  62.6986772  82.1492072  18.1171670
  63.0551293  78.4596244  14.6755362  63.1049298  78.2946252  15.6170885
  62.9465216  77.5923503  14.2853243  51.9387552  81.1384790   1.9647451
  52.0875672  81.8220254   1.3114124  52.7453995  81.1189880   2.4796907
  60.3455055  74.4427172  15.9914669  61.2464918  74.3033637  15.6998666
  60.4203030  74.6081627  16.9312846  54.6797861  71.8194027  14.8367855
  53.8101170  72.1127593  14.5650444  54.9157341  72.4034472  15.5575119
  64.5569490  80.8793186  14.9197384  64.2654298  81.2423166  15.7560844
  63.9441621  80.1660194  14.7410716  65.7565172  78.4446066   7.4399954
  66.5912063  78.8835870   7.6037514  65.8924301  77.9684719   6.6208200
  62.8056678  76.0025800  13.3877441  63.2810800  76.1953447  12.5796293
  61.8822243  76.0584986  13.1420825  49.6940185  77.1649968   2.9708520
  49.4486227  76.2612298   3.1688730  49.8636099  77.1667118   2.0287998
  57.3836894  68.0373644  12.3533275  57.9018838  68.7734671  12.0279764
  57.0292027  68.3437637  13.1880035  48.9635832  72.8978325   0.4694681
  48.2705077  72.9722680  -0.1865283  48.7187584  72.1338669   0.9916198
  57.6349489  64.4573927   7.8734172  57.9151242  63.7897116   8.4994599
  58.4200096  64.6503022   7.3608836  55.4382957  83.6332920  -0.5640802
  54.8656924  84.2523108  -1.0170330  56.0115751  84.1832282  -0.0300880
  61.5058347  72.8791560  11.6205747  62.4575770  72.9789658  11.6417971
  61.3361797  72.0869829  12.1303831  59.5272726  69.9647144  11.8065148
  58.9322659  70.2452156  11.1111637  59.2422423  70.4541045  12.5781889
  58.6580217  83.9170071   0.5667781  59.5910890  83.8515632   0.7700656
  58.5703430  84.7526337   0.1082313  63.9846425  76.0997680  10.7348047
  63.9522745  75.1613681  10.9207731  64.5947048  76.1781717  10.0013872
  55.8229756  74.9693733  -3.2224749  56.7688860  74.8399941  -3.1536331
  55.4444001  74.2308395  -2.7455321  64.1340913  72.8908724  10.7806330
  63.6179962  72.1067180  10.5936259  65.0180862  72.5627440  10.9452849
  61.7951640  66.6349739   6.7402143  61.5976461  66.3264827   7.6245475
  62.4051346  67.3611378   6.8700072  69.8022975  77.1613687   9.8754084
  70.5326363  76.8998975  10.4361787  69.1929920  76.4242409   9.9156152
  67.8838272  75.3021550  10.4728535  67.1571435  75.1677515   9.8645026
  67.4685559  75.6098378  11.2785253  55.7068448  79.0211479  18.2375908
  56.6271458  79.1990078  18.4315954  55.6718031  78.0767525  18.0855607
  54.0072673  72.8943710  -3.2869864  53.1004128  72.5976822  -3.2107150
  54.2848654  72.5973528  -4.1535578  44.9250613  74.2150073   7.1629182
  44.6053398  73.3615381   6.8703556  44.3784041  74.4298651   7.9187150
  48.7030521  76.9312514  10.8798689  48.9216530  77.8629622  10.8986723
  49.1156295  76.5720488  11.6653493  55.6234739  67.4380599   2.8674377
  54.8135467  67.0927684   3.2429623  56.3119155  67.1288143   3.4561989
  57.5525287  66.5158646   4.4898674  58.1056325  66.9354099   5.1488697
  57.7895373  65.5894394   4.5321630  53.5758386  72.5045720  20.2701438
  53.4755113  73.4540077  20.2013529  53.3579928  72.1763959  19.3977508
  52.7771457  69.7530645  -3.1457885  53.6390621  70.0785543  -2.8862067
  52.9621802  68.9662141  -3.6584819  44.7938873  77.8352984   9.1322304
  44.1002345  77.4206937   8.6192258  45.5411864  77.8773521   8.5355723
  60.9304094  68.6259171   3.9977338  60.3502763  69.2843975   3.6155391
  60.6640027  67.8036516   3.5864756  59.3807660  68.0264229   6.1998659
  59.8807439  68.1380763   5.3912977  60.0243268  67.7225282   6.8399467
  53.4389656  75.9342859  19.0866500  52.9556738  76.7343219  19.2930389
  53.5250595  75.9450803  18.1333943  46.7075616  77.7671238   7.0088319
  46.6846304  77.8658926   6.0570202  47.0176252  78.6136389   7.3305485
  49.3662994  79.8247393  11.1234933  50.3206247  79.7931336  11.0564865
  49.1675517  79.3638017  11.9385159  49.9562376  78.3948509  13.6905731
  50.7755265  78.8892588  13.7140568  50.2299183  77.4780477  13.6623298
  59.7128972  70.7859262   3.0533686  58.8254827  71.0708912   2.8353881
  60.1282961  70.6253025   2.2060963  63.0643508  70.8105783   6.7688026
  63.8403898  71.3002235   7.0412643  62.3391642  71.2363837   7.2259895
  65.5016067  71.5233402   7.8261966  66.0960557  71.2829138   7.1155275
  65.5742650  70.8040532   8.4535503  47.7213222  85.3667013   8.1405131
  47.5867690  84.6067414   7.5743129  47.3045285  86.0907913   7.6733920
  59.6869996  76.3013798   3.2683977  59.6305197  76.7582349   2.4291609
  60.2398338  75.5404482   3.0906819  63.4974802  72.0903529   4.0934096
  63.2411736  71.6900165   4.9242304  62.8727670  72.8047323   3.9684235
  67.8087139  74.8299603   6.6005388  67.2486697  74.8992792   7.3736950
  67.2030643  74.6540587   5.8804884  50.8782348  86.2636330   8.3523574
  50.7614732  87.2081762   8.2502264  50.0574795  85.9609891   8.7409373
  60.7658883  80.9886465  -0.8019833  61.6004487  80.5567664  -0.9842359
  60.6043226  80.8168479   0.1257061  60.4204775  77.4918579   0.5636506
  60.3653579  77.3262850  -0.3775050  59.7950830  78.1994612   0.7198696
  45.2097290  72.7286643  14.3897928  45.8556154  72.2185597  14.8785153
  45.0014441  73.4655325  14.9641353  57.7350682  79.7967491  19.8890069
  58.6041842  79.9708143  19.5276704  57.2557434  80.6161907  19.7665798
  53.7300900  66.9926688   0.1421824  53.7179570  67.9368528   0.2990095
  54.6224322  66.8096833  -0.1518715  51.9036862  86.9164592  11.5679502
  52.8064109  86.9488202  11.8845997  51.6774232  85.9865043  11.5825838
  53.6590464  85.6695578   8.2289581  52.7086095  85.6697440   8.1153953
  53.9622951  84.9228313   7.7125615  57.5453020  63.5869464   4.3967761
  56.7785416  63.0327951   4.5424443  57.9563725  63.6591333   5.2581913
  49.5494781  69.8754260  18.4872942  50.4126242  69.5191065  18.6976267
  48.9760192  69.5368155  19.1748347  69.3943158  91.5056117   9.2935343
  70.0321568  91.3862864   8.5898683  69.2764001  92.4536961   9.3523295
  66.2032864  91.4583545   9.2296868  65.8651376  91.3424609   8.3417403
  67.0722632  91.0574710   9.2097874  66.6852647  92.6118396  15.1883073
  66.6741288  92.2171195  14.3163577  66.8473287  91.8784469  15.7816845
  59.6084112  94.8070213   8.0577979  60.4005404  94.4661037   7.6424279
  59.8480762  94.9165188   8.9780133  63.4059908  95.3955508  14.1362257
  63.1149774  96.3001139  14.0208924  64.0416893  95.4372036  14.8506327
  64.3316115  92.7732357  10.7263617  64.9279687  92.5488379  10.0120580
  64.3891087  92.0317102  11.3289065  71.8718274  82.8804378  11.7316138
  71.5401599  83.7499789  11.5077353  71.2763887  82.5640662  12.4110169
  68.3649793  95.0816924  11.1312051  68.0650516  95.9841963  11.0227858
  68.0200853  94.8149107  11.9833204  61.8162275  91.5330721   7.1648756
  60.8912771  91.4006935   7.3726447  62.0646688  92.3124940   7.6618698
  71.7646937  87.5999464   8.8109488  70.8563814  87.5314872   8.5168249
  71.7134533  88.0771409   9.6391314  59.1771086  91.1763994   7.9992545
  59.3063467  91.4298473   8.9131956  58.4968537  91.7691702   7.6797200
  65.8387803  89.0189110  16.7544386  65.0621137  89.5783030  16.7447250
  66.4778366  89.5045892  17.2759256  73.6308584  85.8015902  10.5887362
  72.9882964  86.0948435   9.9427157  73.1263512  85.6868823  11.3940559
  64.0934175  91.8274563  16.3162353  64.8348860  92.3659607  16.0397176
  63.3871161  92.4540852  16.4733905  69.5689515  93.9703703  14.9134514
  69.9772871  93.5286114  14.1689147  68.8466776  93.3956331  15.1668707
  65.9220585  88.9076310  12.2868071  66.7681780  89.3315724  12.4302720
  65.8619223  88.2509934  12.9806634  69.0720030  86.5680678  13.9449245
  68.8280962  87.3222739  13.4083521  69.3479961  86.9466026  14.7796492
  71.0258493  93.1119291  12.6226510  71.2375388  93.7551051  11.9460891
  70.9788241  92.2781607  12.1548440  68.6284722  85.7237111   9.5263083
  67.7669201  86.0218365   9.8179820  68.6547157  85.9407510   8.5944115
  62.3370372  93.8150784   8.8716651  62.9071730  94.2438052   8.2334136
  62.9278484  93.5333368   9.5700837  62.8295539  88.9814211  17.1177663
  62.1994200  89.6630492  17.3513060  62.7231627  88.8697293  16.1730801
  58.1240511  88.6486007   8.0443587  57.3339565  88.9043536   7.5683698
  58.6151759  89.4634345   8.1495627  60.0755257  89.0130586   5.0027064
  59.2786420  89.1249281   5.5210559  59.8480849  89.3517239   4.1367954
  65.9060924  95.5375290  12.9509578  65.9705357  95.9995697  13.7867750
  65.1971848  94.9072654  13.0791888  56.4078214  88.9016498  10.4758578
  56.6586253  89.7863507  10.7416154  56.9437763  88.7221099   9.7033670
  62.1076282  83.2834977  19.4802914  61.7143227  82.7301175  20.1550558
  62.9242422  83.5945555  19.8709431  65.0244243  84.6992856  17.0723170
  65.7653956  85.3000009  16.9927633  65.2562166  83.9570494  16.5141213
  60.1685581  89.8849223  15.3501400  60.0539096  88.9834480  15.6508499
  59.3130098  90.1312920  14.9986217  67.2477418  97.8266964  16.9488901
  66.8041273  97.0403342  16.6309805  67.9094632  98.0146114  16.2832791
  62.0064540  99.3562765  11.4749579  62.5571965  99.2279829  10.7026573
  61.1676016  99.6557654  11.1244472  69.3458657  98.1069763  14.9770302
  69.3277132  98.9278645  14.4850571  70.2678577  97.9823839  15.2020443
  65.8031711  95.6213893  15.8193810  66.3360047  94.8602181  15.5893118
  65.2745792  95.3287545  16.5617965  68.9701406  80.7273959  11.3487452
  68.6265675  81.6175601  11.2726563  69.3380368  80.5375617  10.4857037
  66.5198799  85.5632271   4.9145126  65.6640396  85.1739121   4.7350764
  66.9325751  85.6424232   4.0544911  68.0497946  83.0978614   9.3136685
  67.5462742  83.0608749   8.5004491  68.3428553  84.0071357   9.3733342
  64.2940832  83.1817344   8.3202867  65.1593829  82.9860152   7.9608756
  64.3618341  82.9527696   9.2472224  61.9003151  85.4119552   5.6919234
  62.4746903  85.1894733   4.9592427  62.4874133  85.4808246   6.4447835
  64.2025819  82.2860801   4.4194303  63.5490231  81.9709818   3.7950918
  64.1606293  81.6636541   5.1454126  67.4363559  88.7742734   8.7441951
  66.5186120  88.9957681   8.5863639  67.8523703  88.8489045   7.8853658
  70.7689071  79.9867518   6.4505190  71.0747948  79.1264882   6.1631105
  71.4941676  80.5785138   6.2504184  57.0613427  90.3898205   4.8386788
  56.8637827  89.7967565   4.1137854  56.5060091  90.0850415   5.5562726
  65.0410151  90.2821311   6.9581381  65.0958761  89.3295148   6.8823857
  64.2301353  90.4380750   7.4422679  62.9802511  88.8998371   4.7171760
  62.1670377  89.1992541   5.1236952  63.4761505  88.5054060   5.4346242
  68.5776723  89.3640195  13.5486654  68.9326110  89.5911669  14.4081119
  69.2248854  89.6958572  12.9263909  62.4716586  86.4716726  10.3332995
  63.1115965  86.3305486   9.6355958  61.6394116  86.1851240   9.9571597
  59.4745202  86.4417051   5.1105981  59.7352019  87.3562385   5.0015142
  60.2962374  85.9741494   5.2602594  60.9470127  87.8554809  12.2804806
  61.6193181  87.6472171  11.6317455  60.1199914  87.6576895  11.8410038
  66.8495699  84.4816750  14.2970467  66.2023615  85.1806699  14.2034943
  67.6196715  84.9152893  14.6646715  70.2574497  94.7465602  17.3721020
  70.1060004  94.5176153  16.4551104  70.2479177  95.7036203  17.3852365
  67.0259834  92.3197514  12.3567287  67.9551894  92.4708674  12.1836254
  66.6050864  92.4081535  11.5015933  65.8248166  96.3448179  10.1265824
  65.6859251  95.9766963  10.9991762  65.0362762  96.8595818   9.9549782
  61.3497625  91.1297412  13.0407243  61.2117423  90.3977650  13.6418782
  62.2602548  91.0406312  12.7591431  63.9779925  90.8417371  12.5290923
  64.6879544  90.2010563  12.4877541  63.9349234  91.0930266  13.4517104
  71.9666704  97.7784724  15.4497502  71.9079250  97.0943944  14.7828085
  72.3686222  98.5203714  14.9978128  62.6908859  87.8282589  14.3486562
  62.1546216  87.3773327  15.0008159  62.1025568  87.9628498  13.6057027
  71.9684111  95.7424308  13.6811482  71.0810890  95.4050230  13.8037880
  72.5382662  95.0107339  13.9180247  53.6213258  92.0748400   7.0054533
  54.3084298  91.7610130   6.4175548  53.4661387  92.9789765   6.7321784
  58.4247981  86.9638596  11.4339557  58.3406169  86.3564266  10.6989967
  57.6030687  87.4547615  11.4349053  68.5971694  85.4492160   6.8009752
  69.0940394  84.6962122   6.4810822  67.8258676  85.4856477   6.2352961
  65.1806663  87.5909543   6.5281436  64.8104451  87.0380583   7.2162342
  65.6765756  86.9867676   5.9756436  63.0095862  98.0507038  13.6236454
  63.7105321  98.6843521  13.7765849  62.5390977  98.3921770  12.8632094
  71.0390689  82.4161754   8.9489111  70.1253769  82.6465980   9.1171318
  71.4683791  82.5000198   9.8003143  70.8097148  90.6051645  11.4489005
  70.1568598  90.8527553  10.7941457  71.1877528  89.7915784  11.1151482
  66.8584721  91.3471457  17.9355042  66.1825358  91.2465586  18.6057417
  67.6812355  91.1910670  18.3991039  58.6063580  97.5843393  10.5567557
  59.1917017  96.8387081  10.6895461  58.4088418  97.8947350  11.4404221
  53.1981235  90.1548993   9.2772000  53.2365334  89.6212584  10.0709118
  52.6921527  89.6284199   8.6582977  60.5771997  85.0013534  12.7734542
  60.6413323  85.8628365  12.3611940  60.5139117  84.3887535  12.0406901
  60.0524269  87.0736666  16.4207577  60.6796308  86.6913744  17.0345101
  59.1952188  86.8550868  16.7863269  70.4518378  97.4799641  18.0261312
  70.9958282  98.0929600  17.5316267  69.8705223  98.0379220  18.5428325
  56.8289812  88.8813095   2.3525932  57.1243253  87.9723774   2.2992985
  55.9277848  88.8600835   2.0306934  60.3584059  86.9569092   8.3353480
  59.6370645  87.5705060   8.1960953  61.1477315  87.4926857   8.2570126
  63.1610373  84.2923519  14.6094132  63.6844775  84.5385815  15.3720441
  62.9422706  85.1243553  14.1897269  58.5577654  86.5627193   2.4765257
  58.2290360  85.6824572   2.2940363  58.9117024  86.5074862   3.3641646
  64.3662918  85.2337214  12.2943802  64.0259738  84.4345027  12.6964482
  63.6601924  85.5338924  11.7220636  65.0179390  82.3186526  10.7471125
  65.8405459  81.8447004  10.6250016  65.2617453  83.0977010  11.2469812
  62.5417968  89.0105647   8.5563104  62.3962549  89.3245950   9.4487386
  62.0643172  89.6290547   8.0034003  64.4014351  86.0008195   8.6043994
  64.3875920  85.1049288   8.2676292  65.1186779  86.0078858   9.2382280
  66.2540482  86.4345535  10.6497121  65.9958260  87.3562606  10.6481451
  65.7225522  86.0375969  11.3397585  57.0163630  91.5510991  11.4950765
  56.4717099  92.3270799  11.6271040  57.8942980  91.8981796  11.3369887
  63.8051247  84.8822575   3.8731564  63.9267158  83.9539221   4.0722451
  63.5153290  84.8961261   2.9609879  66.6742438  82.5677485   7.0098284
  66.6964134  82.6316818   6.0550263  67.0910497  81.7281994   7.2038790
  57.8029652  90.6780887  14.3880922  57.0611388  90.8263523  14.9745553
  57.4822397  90.9389153  13.5247672  65.7473315 100.2196866  14.1861312
  66.0560441  99.9746012  15.0584012  66.5448797 100.4243504  13.6980182
  56.4494871  96.4832643   7.3780250  55.6126779  96.0554817   7.1964252
  56.4218516  96.6765086   8.3151042  63.2892327  86.3954572  18.0821496
  63.3380482  87.2716695  17.6999266  63.8314841  85.8531965  17.5093140
  73.7747172  96.9395696  17.3622633  72.9842716  96.9219834  16.8227133
  73.5380527  97.4783989  18.1171670  73.8945047  93.7888162  14.6755362
  73.9443052  93.6238169  15.6170885  73.7858971  92.9215421  14.2853243
  71.1848810  89.7719090  15.9914669  72.0858673  89.6325555  15.6998666
  71.2596784  89.9373545  16.9312846  65.5191615  87.1485945  14.8367855
  64.6494925  87.4419511  14.5650444  65.7551095  87.7326390  15.5575119
  75.3963244  96.2085103  14.9197384  75.1048053  96.5715084  15.7560844
  74.7835376  95.4952112  14.7410716  73.6450432  91.3317718  13.3877441
  74.1204554  91.5245364  12.5796293  72.7215998  91.3876904  13.1420825
  68.2230649  83.3665562  12.3533275  68.7412593  84.1026589  12.0279764
  67.8685782  83.6729555  13.1880035  68.4743243  79.7865844   7.8734172
  68.7544997  79.1189033   8.4994599  69.2593850  79.9794940   7.3608836
  72.3452101  88.2083478  11.6205747  73.2969524  88.3081576  11.6417971
  72.1755552  87.4161747  12.1303831  70.3666481  85.2939061  11.8065148
  69.7716413  85.5744074  11.1111637  70.0816178  85.7832962  12.5781889
  74.9734668  88.2200641  10.7806330  74.4573716  87.4359098  10.5936259
  75.8574616  87.8919358  10.9452849  72.6345395  81.9641657   6.7402143
  72.4370216  81.6556745   7.6245475  73.2445100  82.6903296   6.8700072
  66.5462203  94.3503397  18.2375908  67.4665212  94.5281996  18.4315954
  66.5111786  93.4059442  18.0855607  55.7644368  89.5441991   7.1629182
  55.4447152  88.6907299   6.8703556  55.2177796  89.7590569   7.9187150
  59.5424275  92.2604432  10.8798689  59.7610285  93.1921539  10.8986723
  59.9550049  91.9012406  11.6653493  66.4628493  82.7672517   2.8674377
  65.6529221  82.4219602   3.2429623  67.1512910  82.4580061   3.4561989
  68.3919041  81.8450564   4.4898674  68.9450080  82.2646017   5.1488697
  68.6289128  80.9186312   4.5321630  64.4152141  87.8337637  20.2701438
  64.3148867  88.7831994  20.2013529  64.1973683  87.5055876  19.3977508
  55.6332628  93.1644902   9.1322304  54.9396099  92.7498855   8.6192258
  56.3805619  93.2065439   8.5355723  70.2201415  83.3556147   6.1998659
  70.7201193  83.4672681   5.3912977  70.8637023  83.0517199   6.8399467
  64.2783411  91.2634776  19.0866500  63.7950492  92.0635136  19.2930389
  64.3644350  91.2742721  18.1333943  57.5469370  93.0963156   7.0088319
  57.5240058  93.1950843   6.0570202  57.8570007  93.9428307   7.3305485
  60.2056748  95.1539311  11.1234933  61.1600002  95.1223253  11.0564865
  60.0069272  94.6929935  11.9385159  60.7956130  93.7240427  13.6905731
  61.6149019  94.2184506  13.7140568  61.0692938  92.8072395  13.6623298
  56.0491044  88.0578561  14.3897928  56.6949908  87.5477515  14.8785153
  55.8408196  88.7947242  14.9641353  68.5744437  95.1259408  19.8890069
  69.4435596  95.3000061  19.5276704  68.0951188  95.9453825  19.7665798
  62.7430617 102.2456509  11.5679502  63.6457864 102.2780120  11.8845997
  62.5167987 101.3156960  11.5825838  68.3846774  78.9161382   4.3967761
  67.6179170  78.3619869   4.5424443  68.7957479  78.9883251   5.2581913
  60.3888535  85.2046178  18.4872942  61.2519997  84.8482983  18.6976267
  59.8153946  84.8660073  19.1748347  72.9470036  98.6126895  19.4802914
  72.5536982  98.0593093  20.1550558  73.7636177  98.9237473  19.8709431
  75.8637997 100.0284774  17.0723170  76.6047711 100.6291927  16.9927633
  76.0955920  99.2862411  16.5141213  70.8918024 102.4028584  16.4207577
  71.5190063 102.0205661  17.0345101  70.0345943 102.1842786  16.7863269
  74.1286081 101.7246490  18.0821496  74.1774237 102.6008613  17.6999266
  74.6708595 101.1823883  17.5093140  75.2545895 103.1629555  20.2701438
  75.1542622 104.1123912  20.2013529  75.0367437 102.8347794  19.3977508
  66.8884799 103.3870479  14.3897928  67.5343663 102.8769433  14.8785153
  66.6801950 104.1239160  14.9641353  71.2282290 100.5338096  18.4872942
  72.0913751 100.1774900  18.6976267  70.6547701 100.1951990  19.1748347
  50.2879196  44.1263011   2.1742809  50.2291743  43.4422232   1.5073392
  50.6898715  44.8682001   1.7223435  48.7730870  43.8277929   4.7506619
  49.3170774  44.4407887   4.2561574  48.1917715  44.3857507   5.2673632
  52.0959665  43.2873983   4.0867940  51.3055208  43.2698122   3.5472439
  51.8593019  43.8262277   4.8416977  53.7175737  42.5563391   1.6442690
  53.4260545  42.9193371   2.4806151  53.1047868  41.8430399   1.4656022
  46.8956929  41.4737696   6.6135375  47.7648089  41.6478348   6.2522010
  46.4163680  42.2932112   6.4911105  58.5549405  53.1826322  -3.9819350
  59.1927815  53.0633069  -4.6856010  58.4370248  54.1307165  -3.9231398
  55.3639111  53.1353750  -4.0457825  55.0257622  53.0194814  -4.9337291
  56.2328879  52.7344915  -4.0656819  55.8458894  54.2888601   1.9128380
  55.8347535  53.8941400   1.0408884  56.0079533  53.5554674   2.5062152
  48.7690359  56.4840418  -5.2176714  49.5611650  56.1431242  -5.6330415
  49.0087009  56.5935393  -4.2974561  52.5666155  57.0725713   0.8607564
  52.2756021  57.9771344   0.7454230  53.2023139  57.1142241   1.5751634
  53.4922362  54.4502562  -2.5491076  54.0885934  54.2258584  -3.2634113
  53.5497333  53.7087307  -1.9465628  63.5099100  50.8453009  -6.0033164
  64.2424272  50.2752225  -5.7695334  62.7538456  50.4574609  -5.5626658
  61.0324521  44.5574583  -1.5438555  60.7007845  45.4269994  -1.7677340
  60.4370134  44.2410867  -0.8644525  57.5256040  56.7587129  -2.1442642
  57.2256763  57.6612167  -2.2526835  57.1807100  56.4919312  -1.2921489
  60.9253184  49.2769669  -4.4645205  60.0170061  49.2085077  -4.7586444
  60.8740780  49.7541614  -3.6363379  52.5076820  63.5231449  -9.1771675
  52.4300850  64.4739274  -9.0983194  51.9038464  63.1777322  -8.5196748
  54.9994050  50.6959314   3.4789692  54.2227384  51.2553235   3.4692557
  55.6384613  51.1816097   4.0004562  62.7914830  47.4786107  -2.6867331
  62.1489211  47.7718640  -3.3327536  62.2869759  47.3639028  -1.8814134
  53.2540422  53.5044768   3.0407659  53.9955106  54.0429812   2.7642483
  52.5477407  54.1311057   3.1979211  58.7295762  55.6473908   1.6379821
  59.1379118  55.2056319   0.8934453  58.0073023  55.0726536   1.8914014
  55.0826832  50.5846515  -0.9886622  55.9288027  51.0085929  -0.8451973
  55.0225469  49.9280139  -0.2948059  59.0524576  56.2075099  -4.6067890
  58.4233439  56.3720813  -5.3091822  58.6650238  56.6216708  -3.8356926
  62.9313808  57.1429537  -7.2523526  62.2464846  57.5228438  -7.8026493
  63.0157658  57.7524863  -6.5191579  58.2326277  48.2450883   0.6694551
  57.9887209  48.9992944   0.1328827  58.5086208  48.6236231   1.5041799
  60.1864740  54.7889496  -0.6528183  60.3981635  55.4321256  -1.3293802
  60.1394488  53.9551812  -1.1206253  51.4976619  55.4920989  -4.4038042
  52.0677976  55.9208257  -5.0420557  52.0884731  55.2103573  -3.7053856
  51.9901786  50.6584416   3.8422969  51.3600446  51.3400697   4.0758366
  51.8837874  50.5467498   2.8976108  61.3010568  57.6661451  -2.4805826
  62.1228011  57.2641638  -2.7623144  61.2972971  57.5629685  -1.5289710
  55.0667171  57.2145494  -0.3245115  55.1311604  57.6765902   0.5113057
  54.3578095  56.5842859  -0.1962805  69.3916561  54.0100200  -6.1320854
  68.6380269  53.4407598  -6.2876850  69.5264102  53.9762864  -5.1850219
  51.2682528  44.9605182   6.2048220  50.8749474  44.4071380   6.8795865
  52.0848669  45.2715760   6.5954738  50.0439471  59.5154796  -7.8015457
  50.2206099  60.4372761  -7.9894473  50.8396304  59.2013215  -7.3721077
  54.1850489  46.3763061   3.7968477  54.9260203  46.9770214   3.7172939
  54.4168412  45.6340699   3.2386520  49.3291827  51.5619428   2.0746707
  49.2145343  50.6604685   2.3753806  48.4736345  51.8083125   1.7231523
  56.4083665  59.5037168   3.6734207  55.9647519  58.7173547   3.3555112
  57.0700879  59.6916319   3.0078098  51.1670786  61.0332970  -1.8005114
  51.7178212  60.9050033  -2.5728120  50.3282262  61.3327859  -2.1510221
  58.5064903  59.7839968   1.7015609  58.4883379  60.6048849   1.2095878
  59.4284823  59.6594044   1.9265750  54.9637957  57.2984098   2.5439117
  55.4966294  56.5372386   2.3138425  54.4352039  57.0057750   3.2863271
  61.3083516  54.6219111  -4.8275025  60.6507191  55.3118372  -4.7394896
  62.1123915  55.0115543  -4.4841038  60.1188975  52.9763484  -6.7771083
  60.6320857  53.6093475  -6.2749373  60.7690199  52.3764679  -7.1427723
  56.5969806  50.4512939  -4.5312742  55.6792367  50.6727886  -4.6891054
  57.0129949  50.5259250  -5.3901035  60.8850771  57.9569485  -8.6491940
  60.4313098  57.1160395  -8.5926750  60.2544738  58.5930883  -8.3117160
  59.3283710  59.7945982  -7.7142122  59.6206685  60.3551039  -8.4329757
  59.8382331  60.0874543  -6.9588963  54.2917336  60.5726333  -6.6248669
  54.2493514  60.7987179  -7.5540137  55.2080034  60.3389707  -6.4762868
  57.7382969  51.0410400   0.2731960  58.0932357  51.2681873   1.1326426
  58.3855101  51.3728777  -0.3490785  63.4680706  54.1628836  -9.0218711
  63.3298605  54.3530432  -9.9497522  63.1116925  54.9248219  -8.5650660
  63.4950086  56.2305363  -4.0107439  63.9286593  56.1380652  -3.1624385
  64.2081667  56.2062864  -4.6487423  57.2277981  59.8307457  -2.4774339
  57.2815003  60.3998394  -1.7096623  56.3592762  60.0009342  -2.8420302
  50.1076374  49.5325014  -0.9949887  50.7799428  49.3242376  -1.6437239
  49.2806161  49.3347100  -1.4344655  64.3565636  56.2729064  -1.4774554
  64.5501526  57.1774874  -1.2315279  64.2566254  55.8136483  -0.6435969
  56.0101946  46.1586954   1.0215773  55.3629861  46.8576904   0.9280250
  56.7802962  46.5923098   1.3892022  59.4180744  56.4235807   4.0966327
  59.2666251  56.1946358   3.1796410  59.4085424  57.3806408   4.1097672
  56.1866081  53.9967719  -0.9187407  57.1158141  54.1478879  -1.0918440
  55.7657111  54.0851740  -1.7738760  54.9854412  58.0218384  -3.1488869
  54.8465498  57.6537168  -2.2762931  54.1969009  58.5366023  -3.3204911
  55.5802564  63.1227480 -11.8063333  55.7554320  62.6515523 -10.9917710
  54.8935352  63.7493246 -11.5782072  56.5359628  57.3999986  -5.7600031
  56.2009460  57.3600756  -4.8642382  56.0363573  56.7344702  -6.2329621
  50.5103872  52.8067617  -0.2347450  50.3723669  52.0747855   0.3664089
  51.4208795  52.7176517  -0.5163263  53.1386172  52.5187576  -0.7463771
  53.8485791  51.8780768  -0.7877152  53.0955480  52.7700471   0.1762410
  61.1272951  59.4554929   2.1742809  61.0685497  58.7714149   1.5073392
  61.5292469  60.1973919   1.7223435  51.8515106  49.5052794   1.0731869
  51.3152463  49.0543532   1.7253465  51.2631815  49.6398703   0.3302333
  50.1463650  66.2716843  -5.0323473  50.3860248  66.9035367  -4.3544454
  49.3032846  65.9204883  -4.7458113  61.1290358  57.4194513   0.4056788
  60.2417137  57.0820435   0.5283187  61.6988909  56.6877544   0.6425554
  54.6591512  62.0795965  -2.6281969  54.5861683  62.8850937  -2.1162664
  54.2168905  62.2787931  -3.4533947  54.4481291  61.3167735  -9.1179147
  53.6648813  61.8589416  -9.0240922  55.1474036  61.8341715  -8.7184906
  65.6107699  52.8302730  -4.8326650  65.5997575  53.7127446  -5.2032717
  64.7425078  52.4774281  -5.0272113  57.1190195  61.9782799  -0.4723810
  57.8318167  62.6130264  -0.5447908  56.6280224  62.0746665  -1.2883808
  52.1702109  59.7277243   0.3481761  52.8711568  60.3613726   0.5011155
  51.6997224  60.0691974  -0.4122600  59.9703395  52.2821850  -1.8265689
  59.3174845  52.5297758  -2.4813236  60.3483774  51.4685989  -2.1603211
  56.9310568  62.3181544  -7.7237518  57.1132963  61.5003200  -7.2609766
  57.7543554  62.5349236  -8.1612628  57.2652734  61.2449729 -10.4622470
  57.7940500  60.7342183 -11.0752308  57.5280953  60.9292259  -9.5976937
  56.0190968  53.0241661   4.6600348  55.3431605  52.9235791   5.3302724
  56.8418601  52.8680875   5.1236346  47.7669827  59.2613598  -2.7187136
  48.3523263  58.5157286  -2.5859232  47.5694665  59.5717555  -1.8350472
  50.6208482  62.2964845  -7.7024694  49.9518857  62.7810973  -8.1860654
  50.4821352  62.5434066  -6.7881315  54.7613750  64.3308589  -1.1042036
  55.3132058  64.4940210  -0.3392950  55.1019944  64.9213027  -1.7762011
  49.2130516  48.7506871   3.1452883  49.8402555  48.3683949   3.7590408
  48.3558435  48.5321073   3.5108576  59.6124625  59.1569846   4.7506619
  60.1564529  59.7699805   4.2561574  59.0311470  59.7149425   5.2673632
  57.8982138  62.2790564  -4.1178353  57.7733277  61.4780304  -4.6267408
  58.5561229  62.7736758  -4.6064383  59.9617046  60.0799585  -2.4898803
  59.0147382  59.9604936  -2.5620477  60.3099819  59.1922083  -2.4072542
  52.3216619  45.9693723   1.3339439  52.8451021  46.2156020   2.0965748
  52.1028953  46.8013758   0.9142576  56.9663479  59.8752301  -6.2894451
  56.8188442  58.9469008  -6.1086881  57.7916973  59.8972391  -6.7737376
  60.5697601  60.6980859  -5.2029578  61.4944149  60.4923721  -5.3405127
  60.4012905  60.4497261  -4.2940237  53.5269165  46.9107419  -0.9810891
  53.1865985  46.1115232  -0.5790211  52.8208171  47.2109129  -1.5534058
  55.4146729  48.1115740  -2.6257572  55.1564507  49.0332810  -2.6273242
  54.8831769  47.7146174  -1.9357108  60.3592917  61.2166527  -9.8467487
  60.5329795  60.6512949 -10.5993634  60.8521809  62.0167422 -10.0287997
  46.1769877  53.2281196  -1.7803928  45.6323345  54.0041004  -1.6483654
  47.0549227  53.5752000  -1.9384807  66.2132309  53.9802950  -8.2277187
  66.6563455  53.2310275  -8.6258064  65.3358819  53.9713086  -8.6103455
  61.3468090  60.5333291 -12.7470589  62.0418995  61.1539984 -12.5283274
  61.6891240  59.6828643 -12.4718211  46.9635899  52.3551092   1.1126229
  46.2217635  52.5033728   1.6990859  46.6428643  52.6159358   0.2492978
  63.2459513  57.9832997 -11.2183258  63.7710837  58.3220270 -11.9433938
  63.1581866  57.0480012 -11.4020123  54.9079562  61.8967070   0.9106619
  55.2166688  61.6516217   1.7829318  55.7055044  62.1013709   0.4225489
  54.9300174  64.0504980  -6.8588005  54.4905164  63.5581359  -6.1655148
  55.6808291  63.5077948  -7.0995929  47.4092513  60.2416521  -6.8563377
  48.2350533  59.9420293  -7.2364733  47.0586565  59.4724143  -6.4073588
  52.3774046  59.5942989  -4.7865703  51.7554055  58.9313694  -5.0863475
  53.0478913  59.6204121  -5.4692055  52.4498573  48.0724777   4.8066803
  52.4986729  48.9486900   4.4244573  52.9921088  47.5302170   4.2338446
  62.9353419  58.6165900   4.0867940  62.1448963  58.5990039   3.5472439
  62.6986774  59.1554194   4.8416977  63.0551294  55.4658367   1.4000669
  63.1049299  55.3008374   2.3416191  62.9465218  54.5985626   1.0098549
  60.3455057  51.4489295   2.7159975  61.2464919  51.3095760   2.4243973
  60.4203031  51.6143750   3.6558153  54.6797862  48.8256150   1.5613162
  53.8101171  49.1189716   1.2895750  54.9157342  49.4096595   2.2820425
  64.5569491  57.8855308   1.6442690  64.2654299  58.2485289   2.4806151
  63.9441622  57.1722317   1.4656022  65.7565173  55.4508188  -5.8354740
  66.5912065  55.8897992  -5.6717179  65.8924302  54.9746841  -6.6546494
  62.8056679  53.0087923   0.1122748  63.2810801  53.2015569  -0.6958400
  61.8822245  53.0647109  -0.1333868  57.3836896  45.0435767  -0.9221418
  57.9018840  45.7796793  -1.2474929  57.0292029  45.3499760  -0.0874659
  61.5058348  49.8853683  -1.6548946  62.4575771  49.9851781  -1.6336722
  61.3361799  49.0931952  -1.1450862  59.5272728  46.9709266  -1.4689545
  58.9322660  47.2514279  -2.1643057  59.2422424  47.4603167  -0.6972804
  63.9846426  53.1059803  -2.5406647  63.9522746  52.1675804  -2.3546963
  64.5947050  53.1843840  -3.2740822  64.1340915  49.8970846  -2.4948363
  63.6179963  49.1129303  -2.6818435  65.0180863  49.5689563  -2.3301844
  69.8022976  54.1675810  -3.4000610  70.5326364  53.9061098  -2.8392906
  69.1929921  53.4304532  -3.3598542  67.8838273  52.3083672  -2.8026159
  67.1571437  52.1739637  -3.4109667  67.4685560  52.6160501  -1.9969441
  55.7068449  56.0273602   4.9621214  56.6271459  56.2052201   5.1561261
  55.6718032  55.0829647   4.8100914  48.7030522  53.9374637  -2.3956004
  48.9216532  54.8691744  -2.3767971  49.1156296  53.5782611  -1.6101201
  53.5758387  49.5107842   6.9946745  53.4755114  50.4602199   6.9258836
  53.3579929  49.1826081   6.1222815  53.4389657  52.9404981   5.8111806
  52.9556739  53.7405341   6.0175695  53.5250596  52.9512926   4.8579250
  49.3662995  56.8309516  -2.1519760  50.3206248  56.7993458  -2.2189828
  49.1675518  56.3700140  -1.3369534  49.9562377  55.4010632   0.4151038
  50.7755266  55.8954711   0.4385875  50.2299185  54.4842600   0.3868605
  65.5016068  48.5295524  -5.4492727  66.0960559  48.2891260  -6.1599419
  65.5742652  47.8102655  -4.8219191  47.7213224  62.3729135  -5.1349562
  47.5867692  61.6129536  -5.7011564  47.3045286  63.0970035  -5.6020773
  67.8087141  51.8361725  -6.6749306  67.2486699  51.9054915  -5.9017744
  67.2030644  51.6602710  -7.3949810  50.8782349  63.2698452  -4.9231120
  50.7614734  64.2143885  -5.0252429  50.0574796  62.9672014  -4.5345320
  45.2097291  49.7348766   1.1143235  45.8556155  49.2247720   1.6030460
  45.0014442  50.4717447   1.6886660  57.7350683  56.8029613   6.6135375
  58.6041843  56.9770266   6.2522010  57.2557435  57.6224030   6.4911105
  51.9036864  63.9226714  -1.7075191  52.8064110  63.9550325  -1.3908696
  51.6774234  62.9927165  -1.6928855  53.6590466  62.6757701  -5.0465112
  52.7086097  62.6759562  -5.1600740  53.9622952  61.9290435  -5.5629078
  49.5494782  46.8816383   5.2118249  50.4126244  46.5253188   5.4221573
  48.9760193  46.5430278   5.8993653  69.3943159  68.5118239  -3.9819350
  70.0321569  68.3924987  -4.6856010  69.2764002  69.4599083  -3.9231398
  66.2032865  68.4645667  -4.0457825  65.8651377  68.3486732  -4.9337291
  67.0722634  68.0636832  -4.0656819  66.6852648  69.6180519   1.9128380
  66.6741289  69.2233317   1.0408884  66.8473288  68.8846592   2.5062152
  59.6084113  71.8132335  -5.2176714  60.4005405  71.4723160  -5.6330415
  59.8480763  71.9227310  -4.2974561  63.4059910  72.4017631   0.8607564
  63.1149776  73.3063262   0.7454230  64.0416894  72.4434158   1.5751634
  64.3316116  69.7794479  -2.5491076  64.9279689  69.5550502  -3.2634113
  64.3891088  69.0379225  -1.9465628  71.8718275  59.8866500  -1.5438555
  71.5401600  60.7561911  -1.7677340  71.2763888  59.5702784  -0.8644525
  68.3649795  72.0879046  -2.1442642  68.0650518  72.9904085  -2.2526835
  68.0200854  71.8211230  -1.2921489  61.8162276  68.5392843  -6.1105938
  60.8912773  68.4069057  -5.9028246  62.0646689  69.3187062  -5.6135995
  71.7646938  64.6061587  -4.4645205  70.8563816  64.5376995  -4.7586444
  71.7134534  65.0833531  -3.6363379  59.1771087  68.1826117  -5.2762149
  59.3063468  68.4360596  -4.3622737  58.4968538  68.7753825  -5.5957494
  65.8387804  66.0251232   3.4789692  65.0621138  66.5845152   3.4692557
  66.4778367  66.5108015   4.0004562  73.6308585  62.8078025  -2.6867331
  72.9882965  63.1010558  -3.3327536  73.1263513  62.6930945  -1.8814134
  64.0934176  68.8336685   3.0407659  64.8348861  69.3721729   2.7642483
  63.3871162  69.4602974   3.1979211  69.5689516  70.9765826   1.6379821
  69.9772872  70.5348236   0.8934453  68.8466778  70.4018453   1.8914014
  65.9220586  65.9138433  -0.9886622  66.7681781  66.3377846  -0.8451973
  65.8619224  65.2572057  -0.2948059  69.0720032  63.5742801   0.6694551
  68.8280963  64.3284862   0.1328827  69.3479962  63.9528149   1.5041799
  71.0258494  70.1181413  -0.6528183  71.2375390  70.7613173  -1.3293802
  70.9788243  69.2843730  -1.1206253  68.6284723  62.7299234  -3.7491611
  67.7669202  63.0280488  -3.4574873  68.6547158  62.9469633  -4.6810578
  62.3370374  70.8212906  -4.4038042  62.9071731  71.2500175  -5.0420557
  62.9278486  70.5395491  -3.7053856  62.8295540  65.9876334   3.8422969
  62.1994201  66.6692615   4.0758366  62.7231628  65.8759415   2.8976108
  58.1240513  65.6548130  -5.2311106  57.3339567  65.9105658  -5.7070996
  58.6151760  66.4696468  -5.1259066  60.0755258  66.0192709  -8.2727630
  59.2786421  66.1311403  -7.7544134  59.8480850  66.3579361  -9.1386739
  65.9060926  72.5437412  -0.3245115  65.9705358  73.0057819   0.5113057
  65.1971850  71.9134777  -0.1962805  56.4078216  65.9078620  -2.7996116
  56.6586254  66.7925630  -2.5338540  56.9437764  65.7283222  -3.5721024
  62.1076283  60.2897099   6.2048220  61.7143229  59.7363298   6.8795865
  62.9242423  60.6007678   6.5954738  65.0244244  61.7054979   3.7968477
  65.7653957  62.3062132   3.7172939  65.2562167  60.9632616   3.2386520
  60.1685582  66.8911346   2.0746707  60.0539097  65.9896603   2.3753806
  59.3130100  67.1375043   1.7231523  67.2477420  74.8329086   3.6734207
  66.8041274  74.0465465   3.3555112  67.9094633  75.0208237   3.0078098
  62.0064541  76.3624888  -1.8005114  62.5571966  76.2341951  -2.5728120
  61.1676017  76.6619777  -2.1510221  69.3458658  75.1131886   1.7015609
  69.3277133  75.9340767   1.2095878  70.2678578  74.9885961   1.9265750
  65.8031712  72.6276016   2.5439117  66.3360049  71.8664304   2.3138425
  65.2745793  72.3349667   3.2863271  68.9701407  57.7336082  -1.9267241
  68.6265676  58.6237723  -2.0028131  69.3380370  57.5437739  -2.7897656
  66.5198801  62.5694393  -8.3609568  65.6640397  62.1801244  -8.5403929
  66.9325752  62.6486354  -9.2209782  68.0497947  60.1040737  -3.9618008
  67.5462743  60.0670872  -4.7750203  68.3428554  61.0133479  -3.9021351
  64.2940833  60.1879466  -4.9551826  65.1593830  59.9922275  -5.3145937
  64.3618342  59.9589818  -4.0282470  61.9003152  62.4181674  -7.5835460
  62.4746904  62.1956856  -8.3162267  62.4874135  62.4870369  -6.8306858
  64.2025820  59.2922923  -8.8560390  63.5490232  58.9771940  -9.4803775
  64.1606294  58.6698664  -8.1300567  67.4363560  65.7804857  -4.5312742
  66.5186122  66.0019804  -4.6891054  67.8523704  65.8551167  -5.3901035
  70.7689073  56.9929641  -6.8249504  71.0747949  56.1327004  -7.1123589
  71.4941677  57.5847261  -7.0250510  57.0613429  67.3960327  -8.4367906
  56.8637828  66.8029688  -9.1616839  56.5060093  67.0912537  -7.7191967
  65.0410152  67.2883434  -6.3173313  65.0958762  66.3357270  -6.3930836
  64.2301354  67.4442873  -5.8332014  62.9802512  65.9060494  -8.5582934
  62.1670378  66.2054664  -8.1517742  63.4761506  65.5116182  -7.8408451
  68.5776724  66.3702318   0.2731960  68.9326112  66.5973791   1.1326426
  69.2248855  66.7020695  -0.3490785  62.4716587  63.4778849  -2.9421699
  63.1115966  63.3367608  -3.6398735  61.6394118  63.1913362  -3.3183097
  59.4745203  63.4479174  -8.1648712  59.7352021  64.3624507  -8.2739551
  60.2962376  62.9803617  -8.0152099  60.9470129  64.8616931  -0.9949887
  61.6193182  64.6534293  -1.6437239  60.1199915  64.6639017  -1.4344655
  66.8495701  61.4878872   1.0215773  66.2023616  62.1868822   0.9280250
  67.6196716  61.9215016   1.3892022  70.2574499  71.7527724   4.0966327
  70.1060005  71.5238276   3.1796410  70.2479178  72.7098326   4.1097672
  67.0259835  69.3259637  -0.9187407  67.9551895  69.4770797  -1.0918440
  66.6050865  69.4143658  -1.7738760  65.8248167  73.3510301  -3.1488869
  65.6859253  72.9829086  -2.2762931  65.0362763  73.8657941  -3.3204911
  61.3497626  68.1359534  -0.2347450  61.2117424  67.4039773   0.3664089
  62.2602549  68.0468434  -0.5163263  63.9779927  67.8479494  -0.7463771
  64.6879545  67.2072686  -0.7877152  63.9349235  68.0992388   0.1762410
  71.9666705  74.7846847   2.1742809  71.9079251  74.1006067   1.5073392
  72.3686224  75.5265837   1.7223435  62.6908861  64.8344711   1.0731869
  62.1546218  64.3835450   1.7253465  62.1025569  64.9690620   0.3302333
  71.9684113  72.7486431   0.4056788  71.0810891  72.4112353   0.5283187
  72.5382664  72.0169462   0.6425554  53.6213260  69.0810523  -6.2700160
  54.3084300  68.7672253  -6.8579145  53.4661388  69.9851887  -6.5432909
  58.4247982  63.9700719  -1.8415137  58.3406171  63.3626389  -2.5764727
  57.6030688  64.4609737  -1.8405640  68.5971696  62.4554283  -6.4744942
  69.0940395  61.7024245  -6.7943871  67.8258677  62.4918599  -7.0401732
  65.1806664  64.5971666  -6.7473257  64.8104452  64.0442706  -6.0592351
  65.6765757  63.9929799  -7.2998257  63.0095863  75.0569161   0.3481761
  63.7105323  75.6905644   0.5011155  62.5390978  75.3983892  -0.4122600
  71.0390691  59.4223876  -4.3265583  70.1253770  59.6528103  -4.1583376
  71.4683792  59.5062320  -3.4751550  70.8097149  67.6113768  -1.8265689
  70.1568599  67.8589676  -2.4813236  71.1877529  66.7977906  -2.1603211
  66.8584722  68.3533579   4.6600348  66.1825359  68.2527708   5.3302724
  67.6812356  68.1972793   5.1236346  58.6063581  74.5905516  -2.7187136
  59.1917018  73.8449204  -2.5859232  58.4088420  74.9009472  -1.8350472
  53.1981236  67.1611116  -3.9982693  53.2365335  66.6274707  -3.2045575
  52.6921529  66.6346321  -4.6171716  60.5771998  62.0075656  -0.5020151
  60.6413325  62.8690487  -0.9142753  60.5139118  61.3949658  -1.2347792
  60.0524271  64.0798789   3.1452883  60.6796309  63.6975866   3.7590408
  59.1952190  63.8612991   3.5108576  70.4518379  74.4861764   4.7506619
  70.9958283  75.0991722   4.2561574  69.8705224  75.0441343   5.2673632
  56.8289813  65.8875218 -10.9228762  57.1243255  64.9785896 -10.9761708
  55.9277849  65.8662957 -11.2447759  60.3584060  63.9631215  -4.9401213
  59.6370646  64.5767182  -5.0793740  61.1477316  64.4988979  -5.0184567
  63.1610374  61.2985641   1.3339439  63.6844776  61.5447938   2.0965748
  62.9422707  62.1305676   0.9142576  58.5577655  63.5689316 -10.7989437
  58.2290361  62.6886695 -10.9814331  58.9117026  63.5136984  -9.9113047
  64.3662919  62.2399336  -0.9810891  64.0259739  61.4407149  -0.5790211
  63.6601925  62.5401047  -1.5534058  65.0179391  59.3248649  -2.5283568
  65.8405460  58.8509127  -2.6504678  65.2617454  60.1039132  -2.0284882
  62.5417970  66.0167769  -4.7191589  62.3962550  66.3308072  -3.8267308
  62.0643173  66.6352670  -5.2720691  64.4014352  63.0070317  -4.6710700
  64.3875921  62.1111411  -5.0078402  65.1186781  63.0140981  -4.0372414
  66.2540483  63.4407657  -2.6257572  65.9958261  64.3624728  -2.6273242
  65.7225524  63.0438092  -1.9357108  57.0163632  68.5573114  -1.7803928
  56.4717100  69.3332922  -1.6483654  57.8942982  68.9043918  -1.9384807
  63.8051248  61.8884698  -9.4023130  63.9267160  60.9601344  -9.2032242
  63.5153291  61.9023384 -10.3144814  66.6742439  59.5739608  -6.2656410
  66.6964136  59.6378941  -7.2204430  67.0910498  58.7344117  -6.0715904
  57.8029654  67.6843010   1.1126229  57.0611390  67.8325645   1.6990859
  57.4822398  67.9451276   0.2492978  65.7473316  77.2258988   0.9106619
  66.0560443  76.9808135   1.7829318  66.5448798  77.4305627   0.4225489
  56.4494872  73.4894765  -5.8974443  55.6126781  73.0616939  -6.0790442
  56.4218518  73.6827208  -4.9603652  63.2892328  63.4016695   4.8066803
  63.3380483  64.2778818   4.4244573  63.8314842  62.8594088   4.2338446
  73.7747174  73.9457818   4.0867940  72.9842717  73.9281957   3.5472439
  73.5380528  74.4846112   4.8416977  73.8945049  70.7950285   1.4000669
  73.9443054  70.6300292   2.3416191  73.7858972  69.9277544   1.0098549
  71.1848811  66.7781213   2.7159975  72.0858674  66.6387677   2.4243973
  71.2596786  66.9435667   3.6558153  65.5191616  64.1548067   1.5613162
  64.6494926  64.4481633   1.2895750  65.7551097  64.7388512   2.2820425
  75.3963245  73.2147226   1.6442690  75.1048054  73.5777207   2.4806151
  74.7835377  72.5014234   1.4656022  73.6450434  68.3379841   0.1122748
  74.1204555  68.5307487  -0.6958400  72.7215999  68.3939027  -0.1333868
  68.2230650  60.3727684  -0.9221418  68.7412594  61.1088711  -1.2474929
  67.8685783  60.6791678  -0.0874659  68.4743244  56.7927967  -5.4020521
  68.7544998  56.1251156  -4.7760095  69.2593851  56.9857062  -5.9145858
  72.3452103  65.2145601  -1.6548946  73.2969526  65.3143698  -1.6336722
  72.1755553  64.4223869  -1.1450862  70.3666482  62.3001184  -1.4689545
  69.7716414  62.5806197  -2.1643057  70.0816179  62.7895085  -0.6972804
  74.9734669  65.2262764  -2.4948363  74.4573718  64.4421221  -2.6818435
  75.8574618  64.8981481  -2.3301844  72.6345396  58.9703779  -6.5352551
  72.4370217  58.6618868  -5.6509219  73.2445102  59.6965418  -6.4054621
  66.5462204  71.3565520   4.9621214  67.4665213  71.5344119   5.1561261
  66.5111787  70.4121565   4.8100914  55.7644369  66.5504113  -6.1125511
  55.4447153  65.6969421  -6.4051137  55.2177797  66.7652691  -5.3567544
  59.5424276  69.2666554  -2.3956004  59.7610286  70.1983662  -2.3767971
  59.9550050  68.9074529  -1.6101201  66.4628494  59.7734640 -10.4080316
  65.6529223  59.4281725 -10.0325070  67.1512911  59.4642183  -9.8192704
  68.3919043  58.8512686  -8.7856019  68.9450081  59.2708140  -8.1265996
  68.6289129  57.9248434  -8.7433063  64.4152142  64.8399760   6.9946745
  64.3148869  65.7894117   6.9258836  64.1973684  64.5117999   6.1222815
  55.6332629  70.1707025  -4.1432389  54.9396100  69.7560978  -4.6562435
  56.3805620  70.2127561  -4.7398970  70.2201416  60.3618269  -7.0756035
  70.7201194  60.4734804  -7.8841716  70.8637024  60.0579322  -6.4355226
  64.2783412  68.2696899   5.8111806  63.7950494  69.0697259   6.0175695
  64.3644351  68.2804844   4.8579250  57.5469371  70.1025279  -6.2666374
  57.5240060  70.2012966  -7.2184491  57.8570008  70.9490429  -5.9449208
  60.2056749  72.1601434  -2.1519760  61.1600003  72.1285376  -2.2189828
  60.0069273  71.6992057  -1.3369534  60.7956131  70.7302550   0.4151038
  61.6149020  71.2246628   0.4385875  61.0692939  69.8134518   0.3868605
  56.0491046  65.0640683   1.1143235  56.6949909  64.5539637   1.6030460
  55.8408197  65.8009365   1.6886660  68.5744438  72.1321531   6.6135375
  69.4435598  72.3062183   6.2522010  68.0951189  72.9515948   6.4911105
  62.7430618  79.2518632  -1.7075191  63.6457865  79.2842242  -1.3908696
  62.5167988  78.3219083  -1.6928855  68.3846776  55.9223505  -8.8786932
  67.6179171  55.3681991  -8.7330250  68.7957481  55.9945373  -8.0172781
  60.3888537  62.2108301   5.2118249  61.2519998  61.8545105   5.4221573
  59.8153947  61.8722195   5.8993653  72.9470037  75.6189017   6.2048220
  72.5536983  75.0655216   6.8795865  73.7636178  75.9299596   6.5954738
  75.8637998  77.0346896   3.7968477  76.6047712  77.6354049   3.7172939
  76.0955921  76.2924534   3.2386520  70.8918025  79.4090707   3.1452883
  71.5190064  79.0267784   3.7590408  70.0345944  79.1904909   3.5108576
  74.1286082  78.7308613   4.8066803  74.1774238  79.6070735   4.4244573
  74.6708597  78.1886006   4.2338446  75.2545896  80.1691678   6.9946745
  75.1542623  81.1186035   6.9258836  75.0367438  79.8409917   6.1222815
  66.8884800  80.3932601   1.1143235  67.5343664  79.8831555   1.6030460
  66.6801951  81.1301283   1.6886660  71.2282291  77.5400218   5.2118249
  72.0913753  77.1837023   5.4221573  70.6547702  77.2014113   5.8993653
  71.9666707  51.7908969 -11.1011885  71.9079253  51.1068190 -11.7681302
  72.3686225  52.5327959 -11.5531259  70.4518381  51.4923887  -8.5248075
  70.9958284  52.1053845  -9.0193120  69.8705225  52.0503465  -8.0081062
  73.7747175  50.9519941  -9.1886753  72.9842719  50.9344080  -9.7282254
  73.5380529  51.4908234  -8.4337717  75.3963247  50.2209349 -11.6312003
  75.1048055  50.5839329 -10.7948542  74.7835378  49.5076357 -11.8098671
  68.5744439  49.1383654  -6.6619318  69.4435599  49.3124306  -7.0232683
  68.0951191  49.9578070  -6.7843589  72.9470039  52.6251140  -7.0706473
  72.5536984  52.0717338  -6.3958829  73.7636179  52.9361718  -6.6799955
  75.8638000  54.0409019  -9.4786216  76.6047713  54.6416172  -9.5581754
  76.0955923  53.2986657 -10.0368174  70.8918026  56.4152829 -10.1301810
  71.5190065  56.0329907  -9.5164286  70.0345945  56.1967031  -9.7646118
  74.1286084  55.7370735  -8.4687890  74.1774239  56.6132858  -8.8510121
  74.6708598  55.1948128  -9.0416247  75.2545898  57.1753800  -6.2807949
  75.1542624  58.1248157  -6.3495858  75.0367440  56.8472039  -7.1531879
  66.8884801  57.3994724 -12.1611459  67.5343665  56.8893678 -11.6724234
  66.6801953  58.1363405 -11.5868033  71.2282292  54.5462341  -8.0636444
  72.0913754  54.1899146  -7.8533120  70.6547703  54.2076236  -7.3761040
   4.3554029  99.9975956  46.9697916   3.6017737  99.4283354  46.8141921
   4.4901570  99.9638621  47.9168551   0.7202641 101.4383945  47.2664031
   1.5549533 101.8773749  47.4301591   0.8561770 100.9622598  46.4472277
   4.7660444 100.1551566  49.7018161   5.4963832  99.8936854  50.2625864
   4.1567389  99.4180288  49.7420229   2.8475741  98.2959429  50.2992612
   2.1208905  98.1615394  49.6909103   2.4323028  98.6036257  51.1049330
   0.4653536  94.5171281  47.6526043   1.0598027  94.2767017  46.9419352
   0.5380120  93.7978412  48.2799580   2.7724609  97.8237482  46.4269465
   2.2124167  97.8930671  47.2001027   2.1668112  97.6478466  45.7068961
   3.9338875 103.7211838  51.1751529   3.5903144 104.6113480  51.0990640
   4.3017838 103.5313496  50.3121114   5.7326541 102.9805397  46.2769267
   6.0385417 102.1202761  45.9895182   6.4579145 103.5723017  46.0768261
   3.4380712 102.7803723  47.6998249   3.7182466 102.1126912  48.3258676
   4.2231319 102.9732819  47.1872913   7.5982864 104.9579536  46.5666220
   7.4007685 104.6494624  47.4509552   8.2082570 105.6841175  46.6964149
   3.3484244 101.9099261  44.2231838   2.5816639 101.3557748  44.3688520
   3.7594949 101.9821130  45.0845990   4.3554030  77.0038079  33.6943223
   3.6017738  76.4345477  33.5387227   4.4901571  76.9700743  34.6413858
   0.7202643  78.4446067  33.9909337   1.5549534  78.8835871  34.1546898
   0.8561771  77.9684721  33.1717583   4.7660445  77.1613689  36.4263467
   5.4963834  76.8998977  36.9871171   4.1567391  76.4242411  36.4665535
   2.8475742  75.3021551  37.0237918   2.1208906  75.1677516  36.4154410
   2.4323029  75.6098380  37.8294636   0.4653537  71.5233404  34.3771350
   1.0598028  71.2829140  33.6664658   0.5380121  70.8040534  35.0044886
   2.7724610  74.8299604  33.1514771   2.2124168  74.8992794  33.9246333
   2.1668113  74.6540589  32.4314267   4.3580628  91.5056118  35.8444727
   4.9959038  91.3862866  35.1408067   4.2401471  92.4536962  35.9032679
   1.1670335  91.4583546  35.7806252   0.8288846  91.3424611  34.8926786
   2.0360103  91.0574712  35.7607258   1.6490118  92.6118398  41.7392457
   1.6378758  92.2171196  40.8672961   1.8110757  91.8784471  42.3326229
   3.9121897  89.2307572  32.9197935   4.6984986  88.8126995  32.5688352
   4.1760601  90.1353664  33.0879583   9.3130324  89.1682805  33.8230913
  10.0455496  88.5982022  34.0568743   8.5569680  88.7804406  34.2637419
   0.9306444  91.5910047  31.0194256   0.5664651  91.0640668  31.7307177
   1.7873560  91.2008516  30.8460741   6.8355744  82.8804380  38.2825522
   6.5039069  83.7499790  38.0586737   6.2401358  82.5640664  38.9619552
   3.3287264  95.0816926  37.6821435   3.0287987  95.9841964  37.5737242
   2.9838323  94.8149109  38.5342588   6.7284408  87.5999466  35.3618872
   5.8201285  87.5314874  35.0677633   6.6772003  88.0771411  36.1900698
   8.5946054  85.8015904  37.1396746   7.9520434  86.0948437  36.4936541
   8.0900983  85.6868824  37.9449943   6.2486218  89.5479077  27.8282605
   7.1604074  89.7806464  27.6530303   5.7395865  90.1316122  27.2657684
   4.5326985  93.9703705  41.4643898   4.9410341  93.5286116  40.7198530
   3.8104247  93.3956333  41.7178091   0.8858055  88.9076312  38.8377455
   1.7319251  89.3315725  38.9812104   0.8256693  88.2509936  39.5316018
   4.8555800  94.5304896  35.2196187   4.2264663  94.6950610  34.5172255
   4.4681462  94.9446505  35.9907151   8.7345032  95.4659334  32.5740551
   8.0496070  95.8458235  32.0237584   8.8188881  96.0754660  33.3072498
   4.0357501  86.5680680  40.4958628   3.7918433  87.3222741  39.9592904
   4.3117431  86.9466028  41.3305876   5.9895964  93.1119293  39.1735894
   6.2012859  93.7551053  38.4970275   5.9425712  92.2781609  38.7057824
   3.5922193  85.7237113  36.0772466   2.7306672  86.0218367  36.3689204
   3.6184627  85.9407512  35.1453499   7.1041792  95.9891248  37.3458251
   7.9259235  95.5871435  37.0640933   7.1004194  95.8859482  38.2974367
  15.1947785  92.3329997  33.6943223  14.4411493  91.7637395  33.5387227
  15.3295326  92.2992661  34.6413858   2.2114889  97.8266965  43.4998284
   1.7678743  97.0403344  43.1819189   2.8732103  98.0146116  42.8342175
   4.3096127  98.1069765  41.5279686   4.2914602  98.9278646  41.0359955
   5.2316047  97.9823840  41.7529827   3.9338876  80.7273961  37.8996836
   3.5903146  81.6175602  37.8235946   4.3017839  80.5375618  37.0366421
   1.4836270  85.5632273  31.4654509   0.6277866  85.1739123  31.2860148
   1.8963222  85.6424233  30.6054295   3.0135417  83.0978616  35.8646069
   2.5100212  83.0608751  35.0513874   3.3066023  84.0071359  35.9242726
   8.8723433  93.4714926  28.3422444   8.0952876  93.1326086  27.8977606
   9.5514914  93.4767550  27.6677409   3.6875462  88.5909664  28.2329052
   3.3825598  88.9055813  29.0839195   4.6405904  88.6691084  28.2756385
   7.1114740  92.9448908  34.9989052   6.4538414  93.6348169  35.0869181
   7.9155139  93.3345340  35.3423039   5.9220199  91.2993280  33.0492994
   6.4352080  91.9323272  33.5514704   6.5721423  90.6994476  32.6836354
   2.4001030  88.7742736  35.2951335   1.4823591  88.9957683  35.1373023
   2.8161173  88.8489046  34.4363042   3.1836077  90.1734152  30.4254015
   3.9307896  90.6855549  30.1161137   3.4527667  89.8518204  31.2858408
   6.6881995  96.2799282  31.1772137   6.2344322  95.4390192  31.2337327
   6.0575962  96.9160680  31.5146917   5.6314915  87.2091268  32.4072804
   4.8937671  86.6968654  32.7383047   5.8841688  86.7691649  31.5956081
   5.1314934  98.1175779  32.1121955   5.4237909  98.6780836  31.3934320
   5.6413555  98.4104340  32.8675114   5.7326542  79.9867520  33.0014573
   6.0385419  79.1264883  32.7140488   6.4579147  80.5785140  32.8013567
   3.5414193  89.3640197  40.0996037   3.8963581  89.5911670  40.9590503
   4.1886324  89.6958574  39.4773292   9.2711930  92.4858633  30.8045366
   9.1329829  92.6760229  29.8766555   8.9148149  93.2478016  31.2613417
   9.2981310  94.5535160  35.8156638   9.7317816  94.4610449  36.6639692
  10.0112890  94.5292661  35.1776654   3.0309205  98.1537254  37.3489738
   3.0846227  98.7228190  38.1167454   2.1623986  98.3239139  36.9843775
  10.1596859  94.5958861  38.3489523  10.3532749  95.5004671  38.5948798
  10.0597477  94.1366280  39.1828108   1.8133170  84.4816751  40.8479850
   1.1661085  85.1806701  40.7544327   2.5834185  84.9152895  41.2156099
   5.2211968  94.7465603  43.9230404   5.0697474  94.5176155  43.0060487
   5.2116647  95.7036205  43.9361749   1.9897304  92.3197516  38.9076670
   2.9189364  92.4708676  38.7345637   1.5688334  92.4081537  38.0525317
   2.3390851  95.7229783  34.0664046   2.0040684  95.6830553  34.9621695
   1.8394797  95.0574499  33.5934456   6.9304175  97.7784726  42.0006886
   6.8716721  97.0943946  41.3337469   7.3323693  98.5203716  41.5487512
   6.9321582  95.7424310  40.2320865   6.0448361  95.4050232  40.3547264
   7.5020133  95.0107341  40.4689631   3.5609165  85.4492162  33.3519135
   4.0577865  84.6962124  33.0320206   2.7896147  85.4856478  32.7862345
  11.4138922  91.1532527  34.9937427  11.4028799  92.0357243  34.6231360
  10.5456302  90.8004078  34.7991964   2.9221419 100.3012596  39.3540267
   3.6349391 100.9360061  39.2816169   2.4311447 100.3976462  38.5380269
   4.6438946  94.2063849  30.9257559   3.7095224  94.3265311  30.7562263
   4.8215614  93.3036316  30.6617569   8.0311497  90.0481168  31.4607593
   8.4971949  90.8809160  31.3867896   8.4818998  89.5826150  32.1652851
   6.0987728  96.3924990  28.4593745   6.3747572  96.2781584  29.3687619
   5.2292227  95.9942474  28.4205918   6.0028160  82.4161755  35.4998494
   5.0891240  82.6465982  35.6680701   6.4321261  82.5000199  36.3512527
   5.7734618  90.6051647  37.9998388   5.1206069  90.8527555  37.3450841
   6.1514998  89.7915785  37.6660866   1.8222191  91.3471458  44.4864425
   1.1462828  91.2465588  45.1566801   2.6449825  91.1910672  44.9500423
   0.5644974 102.6538386  38.7222041   1.1163282 102.8170007  39.4871127
   0.9051168 103.2442824  38.0502066   5.4155849  97.4799643  44.5770696
   5.9595753  98.0929602  44.0825651   4.8342693  98.0379222  45.0937709
   3.7013361 100.6020361  35.7085724   3.5764501  99.8010101  35.1996669
   4.3592453 101.0966555  35.2199694   5.7648270  98.4029381  37.3365274
   4.8178605  98.2834733  37.2643600   6.1131043  97.5151879  37.4191535
   2.7694703  98.1982098  33.5369626   2.6219666  97.2698805  33.7177196
   3.5948197  98.2202188  33.0526701   6.3728825  99.0210656  34.6234499
   7.2975372  98.8153518  34.4858950   6.2044128  98.7727057  35.5323840
   2.7656217  86.0519935  28.5301743   2.9819832  86.9344573  28.2290571
   2.2850285  85.6606149  27.8007385   1.2177952  86.4345537  37.2006505
   0.9595730  87.3562607  37.1990835   0.6862993  86.0375971  37.8906969
   6.1624141  99.5396324  29.9796590   6.3361019  98.9742746  29.2270443
   6.6553032 100.3397219  29.7976080   1.6379908  82.5677487  33.5607667
   1.6601605  82.6316820  32.6059647   2.0547967  81.7281996  33.7548173
  12.0163532  92.3032747  31.5986890  12.4594678  91.5540072  31.2006013
  11.1390043  92.2942883  31.2160622   9.0490737  96.3062794  28.6080819
   9.5742061  96.6450066  27.8830139   8.9613089  95.3709809  28.4243954
   0.7110786 100.2196867  40.7370696   1.0197912  99.9746014  41.6093395
   1.5086268 100.4243506  40.2489566   8.7384643  96.9395697  43.9132017
   7.9480187  96.9219836  43.3736516   8.5017997  97.4783991  44.6681054
   8.8582518  93.7888164  41.2264746   8.9080523  93.6238171  42.1680268
   8.7496441  92.9215423  40.8362626   6.1486280  89.7719092  42.5424052
   7.0496143  89.6325557  42.2508050   6.2234255  89.9373547  43.4822230
  10.3600715  96.2085105  41.4706767  10.0685523  96.5715086  42.3070228
   9.7472846  95.4952114  41.2920099  11.5596397  93.7737985  33.9909337
  12.3943288  94.2127789  34.1546898  11.6955526  93.2976638  33.1717583
   8.6087903  91.3317720  39.9386825   9.0842025  91.5245366  39.1305677
   7.6853468  91.3876906  39.6930209   3.1868120  83.3665563  38.9042659
   3.7050063  84.1026590  38.5789148   2.8323252  83.6729557  39.7389418
   3.4380714  79.7865846  34.4243556   3.7182467  79.1189035  35.0503982
   4.2231321  79.9794942  33.9118219   7.3089572  88.2083480  38.1715131
   8.2606995  88.3081578  38.1927355   7.1393022  87.4161749  38.6813215
   5.3303951  85.2939063  38.3574532   4.7353884  85.5744076  37.6621020
   5.0453648  85.7832964  39.1291273   9.7877650  91.4289600  37.2857430
   9.7553970  90.4905600  37.4717114  10.3978273  91.5073636  36.5523255
   9.9372138  88.2200643  37.3315714   9.4211187  87.4359100  37.1445642
  10.8212087  87.8919360  37.4962233   7.5982865  81.9641659  33.2911526
   7.4007686  81.6556747  34.1754858   8.2082571  82.6903298  33.4209456
  15.6054200  92.4905606  36.4263467  16.3357588  92.2290895  36.9871171
  14.9961145  91.7534328  36.4665535  13.6869497  90.6313469  37.0237918
  12.9602660  90.4969434  36.4154410  13.2716784  90.9390298  37.8294636
   1.5099673  94.3503399  44.7885291   2.4302683  94.5281998  44.9825338
   1.4749256  93.4059444  44.6364991   1.4265964  82.7672519  29.4183761
   0.6166692  82.4219604  29.7939007   2.1150380  82.4580062  30.0071373
   3.3556512  81.8450566  31.0408058   3.9087550  82.2646019  31.6998081
   3.5926598  80.9186314  31.0831014   6.7335319  83.9551091  30.5486722
   6.1533988  84.6135895  30.1664774   6.4671252  83.1328435  30.1374139
   5.1838885  83.3556148  32.7508042   5.6838664  83.4672683  31.9422361
   5.8274493  83.0517201  33.3908851   5.5160197  86.1151181  29.6043070
   4.6286052  86.4000832  29.3863265   5.9314186  85.9544944  28.7570347
   8.8674733  86.1397702  33.3197409   9.6435123  86.6294154  33.5922026
   8.1422867  86.5655756  33.7769279  11.3047292  86.8525321  34.3771350
  11.8991783  86.6121057  33.6664658  11.3773875  86.1332452  35.0044886
   5.4901221  91.6305717  29.8193360   5.4336422  92.0874268  28.9800993
   6.0429563  90.8696402  29.6416203   9.3006027  87.4195449  30.6443480
   9.0442961  87.0192085  31.4751687   8.6758895  88.1339243  30.5193619
  13.6118364  90.1591522  33.1514771  13.0517922  90.2284711  33.9246333
  13.0061868  89.9832507  32.4314267   6.2236000  92.8210498  27.1145889
   6.1684804  92.6554770  26.1734334   5.5982055  93.5286531  27.2708079
   3.5381907  95.1259410  46.4399452   4.4073067  95.3000062  46.0786087
   3.0588659  95.9453827  46.3175182   3.3484245  78.9161384  30.9477145
   2.5816641  78.3619871  31.0933827   3.7594950  78.9883253  31.8091296
  15.1974383 106.8348036  35.8444727  15.8352793 106.7154783  35.1408067
  15.0795226 107.7828880  35.9032679  12.0064089 106.7875464  35.7806252
  11.6682601 106.6716529  34.8926786  12.8753857 106.3866629  35.7607258
  12.4883872 107.9410316  41.7392457  12.4772513 107.5463114  40.8672961
  12.6504512 107.2076388  42.3326229  14.7515651 104.5599490  32.9197935
  15.5378741 104.1418913  32.5688352  15.0154356 105.4645582  33.0879583
  20.1524079 104.4974723  33.8230913  20.8849250 103.9273940  34.0568743
  19.3963434 104.1096324  34.2637419  11.7700198 106.9201965  31.0194256
  11.4058405 106.3932586  31.7307177  12.6267314 106.5300434  30.8460741
  17.6749499  98.2096297  38.2825522  17.3432824  99.0791708  38.0586737
  17.0795112  97.8932581  38.9619552  17.5678162 102.9291383  35.3618872
  16.6595040 102.8606792  35.0677633  17.5165758 103.4063328  36.1900698
  11.6419028 104.3481029  43.3053769  10.8652362 104.9074949  43.2956634
  12.2809591 104.8337812  43.8268640  19.4339809 101.1307822  37.1396746
  18.7914189 101.4240355  36.4936541  18.9294737 101.0160742  37.9449943
  17.0879972 104.8770995  27.8282605  17.9997828 105.1098382  27.6530303
  16.5789619 105.4608039  27.2657684  11.7251810 104.2368230  38.8377455
  12.5713005 104.6607643  38.9812104  11.6650448 103.5801854  39.5316018
  14.8751255 101.8972598  40.4958628  14.6312187 102.6514658  39.9592904
  15.1511186 102.2757946  41.3305876  16.8289718 108.4411210  39.1735894
  17.0406613 109.0842970  38.4970275  16.7819466 107.6073527  38.7057824
  14.4315947 101.0529031  36.0772466  13.5700426 101.3510285  36.3689204
  14.4578382 101.2699430  35.1453499   8.6326764 104.3106131  43.6687046
   8.0025425 104.9922411  43.9022443   8.5262852 104.1989212  42.7240185
  26.0341539 107.6621914  33.6943223  25.2805247 107.0929312  33.5387227
  26.1689080 107.6284579  34.6413858   7.9107507  98.6126896  46.0312297
   7.5174452  98.0593095  46.7059942   8.7273647  98.9237475  46.4218815
  10.8275468 100.0284775  43.6232554  11.5685181 100.6291929  43.5437016
  11.0593391  99.2862413  43.0650597  14.7732631  96.0565878  37.8996836
  14.4296900  96.9467520  37.8235946  15.1411593  95.8667536  37.0366421
  12.3230024 100.8924190  31.4654509  11.4671621 100.5031041  31.2860148
  12.7356976 100.9716151  30.6054295  13.8529171  98.4270534  35.8646069
  13.3493967  98.3900669  35.0513874  14.1459778  99.3363276  35.9242726
  10.0972057  98.5109263  34.8712251  10.9625054  98.3152072  34.5118140
  10.1649566  98.2819615  35.7981607  19.7117188 108.8006844  28.3422444
  18.9346630 108.4618004  27.8977606  20.3908669 108.8059467  27.6677409
  14.5269217 103.9201582  28.2329052  14.2219352 104.2347731  29.0839195
  15.4799659 103.9983001  28.2756385  17.9508494 108.2740825  34.9989052
  17.2932169 108.9640087  35.0869181  18.7548894 108.6637257  35.3423039
   7.7034376 100.7411471  32.2428617   8.2778128 100.5186653  31.5101810
   8.2905358 100.8100166  32.9957219  16.7613953 106.6285198  33.0492994
  17.2745835 107.2615190  33.5514704  17.4115177 106.0286394  32.6836354
  10.0057044  97.6152720  30.9703687   9.3521456  97.3001737  30.3460302
   9.9637518  96.9928461  31.6963510  13.2394784 104.1034654  35.2951335
  12.3217345 104.3249601  35.1373023  13.6554928 104.1780964  34.4363042
  14.0229832 105.5026069  30.4254015  14.7701651 106.0147467  30.1161137
  14.2921421 105.1810122  31.2858408  16.4708669 102.5383186  32.4072804
  15.7331426 102.0260572  32.7383047  16.7235443 102.0983567  31.5956081
  16.5720296  95.3159438  33.0014573  16.8779173  94.4556801  32.7140488
  17.2972901  95.9077058  32.8013567  10.8441376 105.6113231  33.5090764
  10.8989986 104.6587067  33.4333241  10.0332578 105.7672670  33.9932063
   8.7833736 104.2290290  31.2681143   7.9701602 104.5284461  31.6746335
   9.2792730 103.8345979  31.9855626  14.3807948 104.6932115  40.0996037
  14.7357335 104.9203588  40.9590503  15.0280079 105.0250492  39.4773292
  20.1105685 107.8150551  30.8045366  19.9723583 108.0052147  29.8766555
  19.7541903 108.5769934  31.2613417   8.2747811 101.8008646  36.8842378
   8.9147190 101.6597405  36.1865342   7.4425341 101.5143159  36.5080980
  20.1375064 109.8827078  35.8156638  20.5711571 109.7902367  36.6639692
  20.8506645 109.8584578  35.1776654   5.2776427 101.7708971  31.6615365
   5.5383244 102.6854304  31.5524526   6.0993600 101.3033413  31.8111978
   6.7501353 103.1846728  38.8314190   7.4224406 102.9764090  38.1826838
   5.9231139 102.9868814  38.3919422  20.9990614 109.9250778  38.3489523
  21.1926504 110.8296589  38.5948798  20.8991232 109.4658197  39.1828108
  12.6526925  99.8108669  40.8479850  12.0054840 100.5098619  40.7544327
  13.4227940 100.2444813  41.2156099  12.8291059 107.6489434  38.9076670
  13.7583119 107.8000594  38.7345637  12.4082089 107.7373455  38.0525317
   9.7811150 106.1709290  39.0800306  10.4910769 105.5302483  39.0386925
   9.7380459 106.4222185  40.0026487   8.4940084 103.1574508  40.8995946
   7.9577441 102.7065247  41.5517542   7.9056793 103.2920417  40.1566410
   4.2279206 102.2930516  37.9848940   4.1437394 101.6856186  37.2499350
   3.4061912 102.7839534  37.9858437  14.4002920 100.7784079  33.3519135
  14.8971619 100.0254042  33.0320206  13.6289901 100.8148396  32.7862345
  22.2532677 106.4824445  34.9937427  22.2422553 107.3649160  34.6231360
  21.3850056 106.1295996  34.7991964  10.9837888 102.9201462  33.0790820
  10.6135676 102.3672503  33.7671726  11.4796981 102.3159596  32.5265820
  18.8705252 105.3773086  31.4607593  19.3365704 106.2101078  31.3867896
  19.3212752 104.9118068  32.1652851  16.8421914  97.7453673  35.4998494
  15.9284994  97.9757900  35.6680701  17.2715016  97.8292117  36.3512527
  16.6128373 105.9343565  37.9998388  15.9599823 106.1819472  37.3450841
  16.9908753 105.1207703  37.6660866  12.6615946 106.6763376  44.4864425
  11.9856583 106.5757505  45.1566801  13.4843580 106.5202590  44.9500423
   6.3803222 100.3305453  39.3243926   6.4444548 101.1920284  38.9121324
   6.3170342  99.7179455  38.5916285   5.8555494 102.4028586  42.9716960
   6.4827533 102.0205663  43.5854485   4.9983413 102.1842788  43.3372653
   6.1615284 102.2861011  34.8862864   5.4401870 102.8996979  34.7470337
   6.9508540 102.8218776  34.8079510   8.9641598  99.6215438  41.1603516
   9.4876000  99.8677735  41.9229825   8.7453931 100.4535473  40.7406653
  10.1694143 100.5629133  38.8453186   9.8290963  99.7636946  39.2473866
   9.4633149 100.8630844  38.2730019  10.8210615  97.6478445  37.2980509
  11.6436684  97.1738924  37.1759399  11.0648678  98.4268929  37.7979195
  13.6049972 101.3811853  28.5301743  13.8213586 102.2636491  28.2290571
  13.1244039 100.9898066  27.8007385   8.3449193 104.3397566  35.1072488
   8.1993774 104.6537869  35.9996769   7.8674397 104.9582466  34.5543386
  10.2045576 101.3300114  35.1553377  10.1907145 100.4341207  34.8185675
  10.9218004 101.3370778  35.7891663  12.0571707 101.7637454  37.2006505
  11.7989485 102.6854525  37.1990835  11.5256747 101.3667889  37.8906969
   9.6082472 100.2114494  30.4240947   9.7298383  99.2831141  30.6231835
   9.3184515 100.2253180  29.5119263  12.4773663  97.8969405  33.5607667
  12.4995359  97.9608738  32.6059647  12.8941722  97.0573913  33.7548173
  22.8557287 107.6324664  31.5986890  23.2988433 106.8831990  31.2006013
  21.9783797 107.6234801  31.2160622   9.0923552 101.7246492  44.6330880
   9.1411707 102.6008615  44.2508650   9.6346066 101.1823885  44.0602523
  19.6976272 109.1180081  41.2264746  19.7474277 108.9530089  42.1680268
  19.5890196 108.2507340  40.8362626  16.9880035 105.1011009  42.5424052
  17.8889898 104.9617474  42.2508050  17.0628009 105.2665464  43.4822230
  11.3222840 102.4777864  41.3877239  10.4526150 102.7711430  41.1159827
  11.5582321 103.0618309  42.1084502  22.3990152 109.1029903  33.9909337
  23.2337043 109.5419707  34.1546898  22.5349280 108.6268556  33.1717583
  19.4481658 106.6609638  39.9386825  19.9235779 106.8537284  39.1305677
  18.5247223 106.7168823  39.6930209  14.0261874  98.6957481  38.9042659
  14.5443818  99.4318508  38.5789148  13.6717007  99.0021474  39.7389418
  14.2774468  95.1157764  34.4243556  14.5576222  94.4480953  35.0503982
  15.0625075  95.3086859  33.9118219  18.1483327 103.5375398  38.1715131
  19.1000749 103.6373495  38.1927355  17.9786777 102.7453666  38.6813215
  16.1697706 100.6230981  38.3574532  15.5747638 100.9035994  37.6621020
  15.8847403 101.1124882  39.1291273  20.6271404 106.7581517  37.2857430
  20.5947724 105.8197518  37.4717114  21.2372028 106.8365554  36.5523255
  20.7765893 103.5492561  37.3315714  20.2604941 102.7651017  37.1445642
  21.6605841 103.2211277  37.4962233  18.4376620  97.2933576  33.2911526
  18.2401441  96.9848665  34.1754858  19.0476325  98.0195215  33.4209456
  26.4447954 107.8197524  36.4263467  27.1751343 107.5582812  36.9871171
  25.8354900 107.0826246  36.4665535  24.5263251 105.9605387  37.0237918
  23.7996415 105.8261352  36.4154410  24.1110538 106.2682215  37.8294636
  12.2659718  98.0964436  29.4183761  11.4560446  97.7511521  29.7939007
  12.9544135  97.7871980  30.0071373  14.1950266  97.1742483  31.0408058
  14.7481305  97.5937937  31.6998081  14.4320353  96.2478231  31.0831014
  10.2183366 103.1629557  46.8210822  10.1180092 104.1123914  46.7522913
  10.0004908 102.8347796  45.9486892  17.5729073  99.2843008  30.5486722
  16.9927742  99.9427812  30.1664774  17.3065006  98.4620353  30.1374139
  16.0232640  98.6848066  32.7508042  16.5232418  98.7964601  31.9422361
  16.6668248  98.3809119  33.3908851  16.3553951 101.4443099  29.6043070
  15.4679806 101.7292749  29.3863265  16.7707941 101.2836862  28.7570347
  19.7068488 101.4689620  33.3197409  20.4828878 101.9586072  33.5922026
  18.9816622 101.8947674  33.7769279  22.1441046 102.1817239  34.3771350
  22.7385537 101.9412975  33.6664658  22.2167630 101.4624370  35.0044886
  16.3294975 106.9597635  29.8193360  16.2730177 107.4166186  28.9800993
  16.8823318 106.1988319  29.6416203  20.1399781 102.7487367  30.6443480
  19.8836715 102.3484002  31.4751687  19.5152649 103.4631160  30.5193619
  24.4512119 105.4883440  33.1514771  23.8911677 105.5576629  33.9246333
  23.8455622 105.3124424  32.4314267  17.0629754 108.1502416  27.1145889
  17.0078558 107.9846687  26.1734334  16.4375810 108.8578449  27.2708079
   1.8522269 103.3870480  40.9407312   2.4981133 102.8769434  41.4294537
   1.6439421 104.1239162  41.5150737  10.3725880  97.6510525  26.6931208
  10.3604550  98.5952365  26.8499479  11.2649302  97.4680670  26.3990669
  14.1877999  94.2453302  30.9477145  13.4210395  93.6911788  31.0933827
  14.5988704  94.3175170  31.8091296   6.1919760 100.5338097  45.0382326
   7.0551222 100.1774902  45.2485650   5.6185171 100.1951992  45.7257730
  25.6126385 111.3857796  37.8996836  25.2690655 112.2759438  37.8235946
  25.9805348 111.1959454  37.0366421  27.4114051 110.6451355  33.0014573
  27.7172928 109.7848719  32.7140488  28.1366656 111.2368975  32.8013567
  25.1168223 110.4449681  34.4243556  25.3969976 109.7772870  35.0503982
  25.9018830 110.6378777  33.9118219  29.2770374 112.6225494  33.2911526
  29.0795195 112.3140582  34.1754858  29.8870080 113.3487133  33.4209456
  25.0271754 109.5745219  30.9477145  24.2604150 109.0203706  31.0933827
  25.4382459 109.6467088  31.8091296   4.3554031  54.0100201  20.4188530
   3.6017740  53.4407600  20.2632534   4.4901573  53.9762866  21.3659164
   0.7202644  55.4508190  20.7154644   1.5549535  55.8897994  20.8792204
   0.8561773  54.9746843  19.8962890   4.7660446  54.1675811  23.1508774
   5.4963835  53.9061100  23.7116477   4.1567392  53.4304533  23.1910842
   2.8475744  52.3083674  23.7483225   2.1208907  52.1739639  23.1399717
   2.4323030  52.6160503  24.5539943   0.4653538  48.5295526  21.1016657
   1.0598029  48.2891262  20.3909965   0.5380122  47.8102657  21.7290193
   2.7724611  51.8361727  19.8760078   2.2124169  51.9054916  20.6491640
   2.1668115  51.6602712  19.1559574   4.3580630  68.5118241  22.5690034
   4.9959040  68.3924988  21.8653374   4.2401473  69.4599085  22.6277986
   1.1670336  68.4645669  22.5051558   0.8288847  68.3486734  21.6172093
   2.0360104  68.0636834  22.4852564   1.6490119  69.6180521  28.4637764
   1.6378760  69.2233319  27.5918267   1.8110758  68.8846593  29.0571535
   3.9121898  66.2369695  19.6443242   4.6984987  65.8189118  19.2933659
   4.1760602  67.1415787  19.8124890   9.3130325  66.1744928  20.5476220
  10.0455497  65.6044145  20.7814050   8.5569681  65.7866528  20.9882726
   0.9306445  68.5972170  17.7439563   0.5664652  68.0702790  18.4552484
   1.7873561  68.2070639  17.5706048   6.8355746  59.8866502  25.0070829
   6.5039070  60.7561913  24.7832044   6.2401359  59.5702786  25.6864859
   3.3287265  72.0879048  24.4066741   3.0287988  72.9904087  24.2982549
   2.9838325  71.8211231  25.2587894   6.7284409  64.6061588  22.0864179
   5.8201286  64.5376997  21.7922940   6.6772005  65.0833533  22.9146004
   8.5946055  62.8078027  23.8642053   7.9520436  63.1010560  23.2181847
   8.0900984  62.6930947  24.6695249   6.2486219  66.5541200  14.5527912
   7.1604075  66.7868587  14.3775609   5.7395866  67.1378244  13.9902991
   4.5326987  70.9765828  28.1889205   4.9410343  70.5348238  27.4443837
   3.8104248  70.4018455  28.4423397   0.8858057  65.9138434  25.5622761
   1.7319252  66.3377848  25.7057410   0.8256694  65.2572059  26.2561325
   4.8555801  71.5367018  21.9441493   4.2264664  71.7012732  21.2417561
   4.4681463  71.9508628  22.7152457   8.7345033  72.4721456  19.2985857
   8.0496071  72.8520358  18.7482890   8.8188883  73.0816783  20.0317805
   4.0357502  63.5742803  27.2203935   3.7918434  64.3284863  26.6838211
   4.3117433  63.9528150  28.0551182   5.9895965  70.1181415  25.8981201
   6.2012860  70.7613175  25.2215582   5.9425713  69.2843732  25.4303131
   3.5922194  62.7299236  22.8017773   2.7306673  63.0280489  23.0934510
   3.6184628  62.9469635  21.8698805   7.1041793  72.9953371  24.0703558
   7.9259237  72.5933558  23.7886240   7.1004196  72.8921605  25.0219674
  15.1947786  69.3392119  20.4188530  14.4411494  68.7699517  20.2632534
  15.3295327  69.3054784  21.3659164   2.2114890  74.8329088  30.2243591
   1.7678744  74.0465466  29.9064495   2.8732104  75.0208238  29.5587482
   4.3096128  75.1131888  28.2524992   4.2914604  75.9340769  27.7605261
   5.2316048  74.9885963  28.4775133   3.9338877  57.7336083  24.6242142
   3.5903147  58.6237725  24.5481253   4.3017840  57.5437741  23.7611727
   1.4836271  62.5694395  18.1899816   0.6277868  62.1801246  18.0105455
   1.8963223  62.6486356  17.3299601   3.0135418  60.1040738  22.5891376
   2.5100213  60.0670874  21.7759181   3.3066025  61.0133481  22.6488032
   8.8723434  70.4777049  15.0667751   8.0952877  70.1388209  14.6222913
   9.5514915  70.4829672  14.3922716   3.6875463  65.5971787  14.9574359
   3.3825599  65.9117936  15.8084502   4.6405905  65.6753206  15.0001692
   7.1114741  69.9511030  21.7234359   6.4538416  70.6410292  21.8114488
   7.9155140  70.3407462  22.0668345   5.9220200  68.3055403  19.7738301
   6.4352082  68.9385395  20.2760010   6.5721424  67.7056599  19.4081661
   2.4001031  65.7804859  22.0196641   1.4823592  66.0019806  21.8618329
   2.8161174  65.8551169  21.1608349   3.1836079  67.1796274  17.1499321
   3.9307898  67.6917671  16.8406443   3.4527668  66.8580327  18.0103715
   6.6881996  73.2861404  17.9017443   6.2344323  72.4452314  17.9582634
   6.0575963  73.9222803  18.2392223   5.6314916  64.2153390  19.1318111
   4.8937673  63.7030777  19.4628353   5.8841689  63.7753772  18.3201388
   5.1314935  75.1237901  18.8367261   5.4237910  75.6842958  18.1179627
   5.6413556  75.4166462  19.5920421   5.7326543  56.9929642  19.7259880
   6.0385420  56.1327006  19.4385795   6.4579148  57.5847263  19.5258874
   3.5414194  66.3702320  26.8241344   3.8963582  66.5973793  27.6835810
   4.1886326  66.7020697  26.2018599   9.2711931  69.4920756  17.5290673
   9.1329830  69.6822352  16.6011862   8.9148150  70.2540138  17.9858724
   9.2981311  71.5597283  22.5401944   9.7317818  71.4672572  23.3884998
  10.0112892  71.5354783  21.9021960   3.0309206  75.1599377  24.0735045
   3.0846228  75.7290313  24.8412761   2.1623987  75.3301262  23.7089082
  10.1596861  71.6020983  25.0734830  10.3532751  72.5066794  25.3194105
  10.0597479  71.1428402  25.9073415   1.8133171  61.4878874  27.5725157
   1.1661086  62.1868824  27.4789634   2.5834187  61.9215018  27.9401405
   5.2211969  71.7527726  30.6475710   5.0697476  71.5238278  29.7305794
   5.2116649  72.7098327  30.6607055   1.9897306  69.3259639  25.6321977
   2.9189366  69.4770798  25.4590944   1.5688336  69.4143660  24.7770623
   2.3390853  72.7291906  20.7909352   2.0040685  72.6892676  21.6867002
   1.8394798  72.0636622  20.3179762   6.9304176  74.7846849  28.7252192
   6.8716722  74.1006069  28.0582775   7.3323694  75.5265839  28.2732818
   6.9321583  72.7486433  26.9566172   6.0448362  72.4112354  27.0792571
   7.5020134  72.0169464  27.1934937   3.5609166  62.4554284  20.0764442
   4.0577866  61.7024247  19.7565512   2.7896148  62.4918601  19.5107651
  11.4138924  68.1594650  21.7182734  11.4028800  69.0419365  21.3476667
  10.5456303  67.8066201  21.5237271   2.9221420  77.3074719  26.0785574
   3.6349392  77.9422184  26.0061475   2.4311449  77.4038585  25.2625576
   4.6438947  71.2125972  17.6502865   3.7095226  71.3327434  17.4807570
   4.8215615  70.3098438  17.3862875   8.0311498  67.0543291  18.1852900
   8.4971951  67.8871282  18.1113202   8.4818999  66.5888272  18.8898158
   6.0987729  73.3987112  15.1839052   6.3747573  73.2843707  16.0932926
   5.2292228  73.0004597  15.1451225   6.0028161  59.4223878  22.2243801
   5.0891241  59.6528105  22.3926008   6.4321263  59.5062322  23.0757833
   5.7734620  67.6113770  24.7243695   5.1206070  67.8589677  24.0696148
   6.1514999  66.7977908  24.3906172   1.8222193  68.3533581  31.2109732
   1.1462830  68.2527710  31.8812107   2.6449826  68.1972795  31.6745729
   0.5644975  79.6600508  25.4467348   1.1163284  79.8232130  26.2116433
   0.9051169  80.2504946  24.7747373   5.4155850  74.4861766  31.3016002
   5.9595754  75.0991724  30.8070957   4.8342695  75.0441344  31.8183015
   3.7013363  77.6082484  22.4331030   3.5764502  76.8072224  21.9241976
   4.3592454  78.1028677  21.9445000   5.7648271  75.4091504  24.0610580
   4.8178607  75.2896855  23.9888907   6.1131044  74.5214002  24.1436842
   2.7694704  75.2044220  20.2614933   2.6219667  74.2760928  20.4422503
   3.5948198  75.2264311  19.7772008   6.3728826  76.0272779  21.3479805
   7.2975374  75.8215640  21.2104256   6.2044130  75.7789180  22.2569147
   2.7656219  63.0582058  15.2547050   2.9819833  63.9406696  14.9535878
   2.2850286  62.6668271  14.5252692   1.2177954  63.4407659  23.9251811
   0.9595732  64.3624730  23.9236142   0.6862994  63.0438094  24.6152275
   6.1624142  76.5458446  16.7041897   6.3361020  75.9804869  15.9515749
   6.6553034  77.3459341  16.5221387   1.6379909  59.5739610  20.2852974
   1.6601606  59.6378943  19.3304953   2.0547968  58.7344118  20.4793480
  12.0163534  69.3094869  18.3232196  12.4594680  68.5602195  17.9251320
  11.1390044  69.3005006  17.9405928   9.0490738  73.3124916  15.3326126
   9.5742062  73.6512189  14.6075446   8.9613091  72.3771932  15.1489260
   0.7110787  77.2258990  27.4616002   1.0197913  76.9808137  28.3338702
   1.5086269  77.4305628  26.9734873   8.7384644  73.9457820  30.6377324
   7.9480188  73.9281959  30.0981823   8.5017999  74.4846114  31.3926360
   8.8582519  70.7950286  27.9510052   8.9080524  70.6300294  28.8925575
   8.7496443  69.9277545  27.5607933   6.1486282  66.7781214  29.2669359
   7.0496144  66.6387679  28.9753357   6.2234256  66.9435669  30.2067536
  10.3600716  73.2147228  28.1952074  10.0685524  73.5777208  29.0315535
   9.7472847  72.5014236  28.0165406  11.5596398  70.7800108  20.7154644
  12.3943290  71.2189912  20.8792204  11.6955527  70.3038761  19.8962890
   8.6087904  68.3379842  26.6632132   9.0842026  68.5307489  25.8550983
   7.6853470  68.3939028  26.4175515   3.1868121  60.3727686  25.6287966
   3.7050065  61.1088713  25.3034454   2.8323254  60.6791679  26.4634725
   3.4380715  56.7927969  21.1488862   3.7182469  56.1251158  21.7749289
   4.2231322  56.9857064  20.6363526   7.3089573  65.2145603  24.8960437
   8.2606996  65.3143700  24.9172661   7.1393024  64.4223871  25.4058522
   5.3303953  62.3001186  25.0819838   4.7353885  62.5806198  24.3866327
   5.0453649  62.7895087  25.8536579   9.7877651  68.4351722  24.0102737
   9.7553971  67.4967723  24.1962421  10.3978275  68.5135759  23.2768562
   9.9372140  65.2262766  24.0561020   9.4211188  64.4421222  23.8690949
  10.8212088  64.8981482  24.2207540   7.5982866  58.9703781  20.0156833
   7.4007688  58.6618869  20.9000165   8.2082572  59.6965420  20.1454763
  15.6054201  69.4967729  23.1508774  16.3357589  69.2353017  23.7116477
  14.9961146  68.7596451  23.1910842  13.6869498  67.6375592  23.7483225
  12.9602662  67.5031557  23.1399717  13.2716785  67.9452420  24.5539943
   1.5099674  71.3565521  31.5130598   2.4302684  71.5344120  31.7070645
   1.4749257  70.4121567  31.3610297   1.4265965  59.7734641  16.1429068
   0.6166693  59.4281726  16.5184314   2.1150382  59.4642185  16.7316679
   3.3556513  58.8512688  17.7653364   3.9087552  59.2708142  18.4243387
   3.5926599  57.9248436  17.8076320   6.7335320  60.9613213  17.2732029
   6.1533989  61.6198017  16.8910081   6.4671253  60.1390558  16.8619446
   5.1838887  60.3618271  19.4753349   5.6838665  60.4734806  18.6667668
   5.8274494  60.0579324  20.1154157   5.5160198  63.1213304  16.3288377
   4.6286053  63.4062954  16.1108572   5.9314187  62.9607067  15.4815654
   8.8674734  63.1459825  20.0442716   9.6435124  63.6356277  20.3167333
   8.1422868  63.5717879  20.5014586  11.3047293  63.8587444  21.1016657
  11.8991784  63.6183180  20.3909965  11.3773877  63.1394574  21.7290193
   5.4901222  68.6367840  16.5438667   5.4336423  69.0936391  15.7046299
   6.0429564  67.8758524  16.3661510   9.3006028  64.4257571  17.3688786
   9.0442962  64.0254207  18.1996994   8.6758896  65.1401365  17.2438926
  13.6118366  67.1653645  19.8760078  13.0517924  67.2346834  20.6491640
  13.0061869  66.9894629  19.1559574   6.2236001  69.8272621  13.8391196
   6.1684805  69.6616892  12.8979640   5.5982057  70.5348654  13.9953386
   3.5381908  72.1321533  33.1644759   4.4073068  72.3062185  32.8031394
   3.0588660  72.9515950  33.0420488   3.3484246  55.9223506  17.6722451
   2.5816642  55.3681993  17.8179134   3.7594951  55.9945375  18.5336603
  15.1974384  83.8410159  22.5690034  15.8352794  83.7216906  21.8653374
  15.0795227  84.7891003  22.6277986  12.0064090  83.7937587  22.5051558
  11.6682602  83.6778651  21.6172093  12.8753859  83.3928752  22.4852564
  12.4883873  84.9472438  28.4637764  12.4772514  84.5525237  27.5918267
  12.6504513  84.2138511  29.0571535   9.2091135  87.7309550  27.4116948
   8.9181001  88.6355181  27.2963614   9.8448119  87.7726078  28.1261017
  10.1347341  85.1086399  24.0018307  10.7310914  84.8842421  23.2875270
  10.1922313  84.3671144  24.6043755  14.7515653  81.5661612  19.6443242
  15.5378742  81.1481036  19.2933659  15.0154357  82.4707705  19.8124890
  20.1524080  81.5036846  20.5476220  20.8849252  80.9336063  20.7814050
  19.3963435  81.1158446  20.9882726  11.7700199  83.9264087  17.7439563
  11.4058407  83.3994708  18.4552484  12.6267315  83.5362556  17.5706048
  17.6749500  75.2158420  25.0070829  17.3432825  76.0853831  24.7832044
  17.0795114  74.8994704  25.6864859  14.1681020  87.4170966  24.4066741
  13.8681743  88.3196005  24.2982549  13.8232079  87.1503149  25.2587894
   7.6193501  83.8684763  20.4403446   6.6943998  83.7360977  20.6481138
   7.8677914  84.6478982  20.9373388  17.5678163  79.9353506  22.0864179
  16.6595041  79.8668914  21.7922940  17.5165759  80.4125451  22.9146004
  11.6419029  81.3543152  30.0299076  10.8652363  81.9137072  30.0201941
  12.2809592  81.8399935  30.5513946  19.4339810  78.1369944  23.8642053
  18.7914190  78.4302478  23.2181847  18.9294738  78.0222865  24.6695249
  17.0879974  81.8833118  14.5527912  17.9997830  82.1160504  14.3775609
  16.5789621  82.4670162  13.9902991   9.8965402  84.1628605  29.5917043
  10.6380086  84.7013649  29.3151867   9.1902387  84.7894894  29.7488595
  15.3720741  86.3057745  28.1889205  15.7804097  85.8640156  27.4443837
  14.6498003  85.7310373  28.4423397  11.7251811  81.2430352  25.5622761
  12.5713006  81.6669766  25.7057410  11.6650449  80.5863976  26.2561325
  15.6949556  86.8658936  21.9441493  15.0658418  87.0304650  21.2417561
  15.3075218  87.2800546  22.7152457  19.5738788  87.8013374  19.2985857
  18.8889826  88.1812275  18.7482890  19.6582637  88.4108701  20.0317805
  14.8751257  78.9034721  27.2203935  14.6312188  79.6576781  26.6838211
  15.1511187  79.2820068  28.0551182  16.8289719  85.4473333  25.8981201
  17.0406615  86.0905093  25.2215582  16.7819468  84.6135649  25.4303131
  14.4315948  78.0591154  22.8017773  13.5700427  78.3572407  23.0934510
  14.4578383  78.2761552  21.8698805  11.2477518  86.6033344  19.2091579
  11.7115863  86.8821047  18.4196201  10.9834316  85.7016789  19.0264669
   8.1401599  86.1504826  22.1471342   8.7102956  86.5792094  21.5088826
   8.7309711  85.8687410  22.8455527   8.6326765  81.3168253  30.3932353
   8.0025426  81.9984534  30.6267750   8.5262853  81.2051335  29.4485491
  17.9435547  88.3245288  24.0703558  18.7652991  87.9225476  23.7886240
  17.9397950  88.2213522  25.0219674  11.7092151  87.8729332  26.2264269
  11.7736583  88.3349739  27.0622440  11.0003075  87.2426697  26.3546578
   2.2109441  81.2370540  23.7513268   2.4617479  82.1217550  24.0170844
   2.7468989  81.0575141  22.9788360  26.0341540  84.6684037  20.4188530
  25.2805249  84.0991435  20.2632534  26.1689082  84.6346701  21.3659164
   7.9107508  75.6189019  32.7557604   7.5174454  75.0655218  33.4305248
   8.7273648  75.9299597  33.1464122  10.8275469  77.0346898  30.3477861
  11.5685182  77.6354051  30.2682323  11.0593392  76.2924536  29.7895903
   5.9716807  82.2203265  28.6256090   5.8570322  81.3188523  28.9263189
   5.1161325  82.4666962  28.2740907  13.0508645  90.1621006  30.2243591
  12.6072499  89.3757384  29.9064495  13.7125858  90.3500156  29.5587482
   7.8095766  91.6916807  24.7504269   8.3603191  91.5633871  23.9781263
   6.9707242  91.9911696  24.3999162  15.1489883  90.4423806  28.2524992
  15.1308358  91.2632687  27.7605261  16.0709803  90.3177881  28.4775133
  11.6062937  87.9567935  29.0948501  12.1391274  87.1956223  28.8647809
  11.0777018  87.6641587  29.8372655  14.7732632  73.0628001  24.6242142
  14.4296901  73.9529643  24.5481253  15.1411595  72.8729659  23.7611727
  12.3230026  77.8986313  18.1899816  11.4671622  77.5093163  18.0105455
  12.7356977  77.9778274  17.3299601  13.8529172  75.4332656  22.5891376
  13.3493968  75.3962791  21.7759181  14.1459779  76.3425399  22.6488032
  10.0972058  75.5171386  21.5957557  10.9625055  75.3214195  21.2363447
  10.1649567  75.2881738  22.5226914  19.7117189  85.8068967  15.0667751
  18.9346632  85.4680126  14.6222913  20.3908670  85.8121590  14.3922716
  14.5269218  80.9263704  14.9574359  14.2219353  81.2409853  15.8084502
  15.4799660  81.0045124  15.0001692  17.9508496  85.2802948  21.7234359
  17.2932170  85.9702209  21.8114488  18.7548895  85.6699380  22.0668345
   7.7034377  77.7473594  18.9673924   8.2778129  77.5248775  18.2347117
   8.2905360  77.8162288  19.7202525  16.7613955  83.6347321  19.7738301
  17.2745836  84.2677313  20.2760010  17.4115178  83.0348516  19.4081661
  10.0057045  74.6214843  17.6948994   9.3521457  74.3063860  17.0705608
   9.9637519  73.9990583  18.4208816  13.2394785  81.1096776  22.0196641
  12.3217347  81.3311723  21.8618329  13.6554929  81.1843087  21.1608349
  14.0229833  82.5088192  17.1499321  14.7701652  83.0209589  16.8406443
  14.2921423  82.1872245  18.0103715  17.5275751  88.6153322  17.9017443
  17.0738078  87.7744232  17.9582634  16.8969717  89.2514721  18.2392223
  16.4708670  79.5445308  19.1318111  15.7331427  79.0322694  19.4628353
  16.7235444  79.1045690  18.3201388  15.9708690  90.4529819  18.8367261
  16.2631664  91.0134876  18.1179627  16.4807311  90.7458380  19.5920421
  16.5720298  72.3221560  19.7259880  16.8779174  71.4618924  19.4385795
  17.2972902  72.9139180  19.5258874  10.8441377  82.6175353  20.2336071
  10.8989987  81.6649190  20.1578548  10.0332579  82.7734792  20.7177369
   8.7833737  81.2352413  17.9926450   7.9701603  81.5346584  18.3991642
   9.2792731  80.8408102  18.7100932  14.3807949  81.6994237  26.8241344
  14.7357337  81.9265711  27.6835810  15.0280080  82.0312614  26.2018599
  20.1105686  84.8212673  17.5290673  19.9723584  85.0114269  16.6011862
  19.7541905  85.5832056  17.9858724   8.2747812  78.8070769  23.6087685
   8.9147191  78.6659528  22.9110648   7.4425343  78.5205282  23.2326287
  20.1375065  86.8889200  22.5401944  20.5711572  86.7964489  23.3884998
  20.8506646  86.8646701  21.9021960  13.8702960  90.4891294  24.0735045
  13.9239983  91.0582231  24.8412761  13.0017742  90.6593179  23.7089082
   5.2776428  78.7771093  18.3860672   5.5383246  79.6916427  18.2769832
   6.0993601  78.3095536  18.5357285   6.7501354  80.1908851  25.5559496
   7.4224407  79.9826213  24.9072145   5.9231140  79.9930937  25.1164729
  20.9990615  86.9312901  25.0734830  21.1926505  87.8358712  25.3194105
  20.8991233  86.4720320  25.9073415  12.6526926  76.8170792  27.5725157
  12.0054841  77.5160741  27.4789634  13.4227941  77.2506936  27.9401405
  16.0605724  87.0819644  30.6475710  15.9091230  86.8530195  29.7305794
  16.0510403  88.0390245  30.6607055  12.8291060  84.6551556  25.6321977
  13.7583120  84.8062716  25.4590944  12.4082090  84.7435577  24.7770623
  11.6279392  88.6802221  23.4020514  11.4890478  88.3121005  24.2746453
  10.8393988  89.1949860  23.2304472  13.1784607  88.0583824  20.7909352
  12.8434440  88.0184594  21.6867002  12.6788553  87.3928540  20.3179762
   7.1528851  83.4651454  26.3161933   7.0148649  82.7331692  26.9173472
   8.0633774  83.3760354  26.0346121   9.7811152  83.1771413  25.8045613
  10.4910770  82.5364605  25.7632231   9.7380460  83.4284308  26.7271794
  17.7697930  90.1138766  28.7252192  17.7110477  89.4297986  28.0582775
  18.1717449  90.8557756  28.2732818   8.4940086  80.1636631  27.6241253
   7.9577443  79.7127369  28.2762849   7.9056794  80.2982540  26.8811717
  17.7715338  88.0778350  26.9566172  16.8842116  87.7404272  27.0792571
  18.3413889  87.3461381  27.1934937   4.2279207  79.2992639  24.7094247
   4.1437396  78.6918308  23.9744657   3.4061913  79.7901657  24.7103743
  11.3016491  92.7379803  23.9227415  11.2286663  93.5434774  24.4346720
  10.8593884  92.9371768  23.0975437  14.4002921  77.7846202  20.0764442
  14.8971620  77.0316164  19.7565512  13.6289902  77.8210519  19.5107651
  22.2532678  83.4886568  21.7182734  22.2422554  84.3711283  21.3476667
  21.3850058  83.1358118  21.5237271  13.7615175  92.6366637  26.0785574
  14.4743147  93.2714101  26.0061475  13.2705203  92.7330503  25.2625576
  15.4832701  86.5417889  17.6502865  14.5488980  86.6619352  17.4807570
  15.6609370  85.6390356  17.3862875  10.9837890  79.9263585  19.8036127
  10.6135677  79.3734625  20.4917032  11.4796982  79.3221719  19.2511127
  18.8705253  82.3835209  18.1852900  19.3365705  83.2163200  18.1113202
  19.3212753  81.9180190  18.8898158   8.8127088  90.3861080  26.8991145
   9.5136548  91.0197563  27.0520539   8.3422203  90.7275812  26.1386784
  16.9381484  88.7279030  15.1839052  17.2141328  88.6135624  16.0932926
  16.0685983  88.3296515  15.1451225  16.8421916  74.7515796  22.2243801
  15.9284995  74.9820022  22.3926008  17.2715017  74.8354240  23.0757833
  16.6128374  82.9405688  24.7243695  15.9599824  83.1881595  24.0696148
  16.9908754  82.1269826  24.3906172  12.6615947  83.6825499  31.2109732
  11.9856584  83.5819628  31.8812107  13.4843581  83.5264712  31.6745729
  11.4038730  94.9892426  25.4467348  11.9557038  95.1524048  26.2116433
  11.7444923  95.5796864  24.7747373   6.3803223  77.3367576  26.0489233
   6.4444550  78.1982407  25.6366630   6.3170343  76.7241577  25.3161591
   5.8555496  79.4090708  29.6962267   6.4827535  79.0267786  30.3099791
   4.9983415  79.1904910  30.0617959  16.2549604  89.8153684  31.3016002
  16.7989508  90.4283642  30.8070957  15.6736449  90.3733262  31.8183015
  14.5407117  92.9374402  22.4331030  14.4158257  92.1364141  21.9241976
  15.1986208  93.4320595  21.9445000   6.1615285  79.2923134  21.6108170
   5.4401871  79.9059102  21.4715644   6.9508541  79.8280899  21.5324816
  16.6042026  90.7383422  24.0610580  15.6572361  90.6188773  23.9888907
  16.9524799  89.8505920  24.1436842   8.9641599  76.6277561  27.8848822
   9.4876001  76.8739857  28.6475131   8.7453932  77.4597595  27.4651960
  13.6088459  90.5336138  20.2614933  13.4613421  89.6052845  20.4422503
  14.4341952  90.5556229  19.7772008  17.2122581  91.3564697  21.3479805
  18.1369128  91.1507558  21.2104256  17.0437884  91.1081098  22.2569147
  10.1694144  77.5691256  25.5698493   9.8290964  76.7699069  25.9719173
   9.4633150  77.8692967  24.9975326  10.8210616  74.6540568  24.0225816
  11.6436685  74.1801046  23.9004706  11.0648679  75.4331052  24.5224502
  13.6049973  78.3873976  15.2547050  13.8213588  79.2698613  14.9535878
  13.1244040  77.9960189  14.5252692   8.3449195  81.3459689  21.8317794
   8.1993775  81.6599992  22.7242076   7.8674398  81.9644589  21.2788693
  10.2045577  78.3362237  21.8798684  10.1907146  77.4403330  21.5430982
  10.9218006  78.3432900  22.5136970  12.0571708  78.7699577  23.9251811
  11.7989486  79.6916648  23.9236142  11.5256749  78.3730011  24.6152275
  17.0017897  91.8750364  16.7041897  17.1754775  91.3096787  15.9515749
  17.4946788  92.6751259  16.5221387   2.8194857  83.8865033  24.7705456
   2.2748325  84.6624841  24.9025730   3.6974207  84.2335838  24.6124577
   9.6082473  77.2176617  17.1486254   9.7298385  76.2893263  17.3477142
   9.3184516  77.2315303  16.2364569  12.4773664  74.9031527  20.2852974
  12.4995361  74.9670861  19.3304953  12.8941723  74.0636036  20.4793480
  22.8557288  84.6386787  18.3232196  23.2988434  83.8894112  17.9251320
  21.9783798  84.6296923  17.9405928   3.6060879  83.0134929  27.6635612
   2.8642615  83.1617565  28.2500243   3.2853623  83.2743195  26.8002362
  19.8884493  88.6416834  15.3326126  20.4135817  88.9804107  14.6075446
  19.8006845  87.7063849  15.1489260  11.5504541  92.5550908  27.4616002
  11.8591668  92.3100054  28.3338702  12.3480023  92.7597546  26.9734873
   9.0923553  78.7308614  31.3576187   9.1411708  79.6070737  30.9753956
   9.6346067  78.1886007  30.7847830  19.5778399  89.2749738  30.6377324
  18.7873942  89.2573876  30.0981823  19.3411753  89.8138031  31.3926360
  19.6976274  86.1242204  27.9510052  19.7474279  85.9592211  28.8925575
  19.5890197  85.2569463  27.5607933  16.9880036  82.1073132  29.2669359
  17.8889899  81.9679597  28.9753357  17.0628011  82.2727587  30.2067536
  11.3222841  79.4839987  28.1122545  10.4526151  79.7773553  27.8405134
  11.5582322  80.0680432  28.8329809  21.1994471  88.5439146  28.1952074
  20.9079279  88.9069126  29.0315535  20.5866602  87.8306154  28.0165406
  22.3990153  86.1092025  20.7154644  23.2337044  86.5481829  20.8792204
  22.5349282  85.6330679  19.8962890  19.4481659  83.6671760  26.6632132
  19.9235780  83.8599406  25.8550983  18.5247224  83.7230946  26.4175515
  14.0261875  75.7019604  25.6287966  14.5443819  76.4380631  25.3034454
  13.6717008  76.0083597  26.4634725  14.2774469  72.1219886  21.1488862
  14.5576223  71.4543075  21.7749289  15.0625076  72.3148982  20.6363526
  18.1483328  80.5437520  24.8960437  19.1000751  80.6435618  24.9172661
  17.9786778  79.7515789  25.4058522  16.1697707  77.6293103  25.0819838
  15.5747639  77.9098116  24.3866327  15.8847404  78.1187004  25.8536579
  20.6271406  83.7643640  24.0102737  20.5947726  82.8259641  24.1962421
  21.2372029  83.8427677  23.2768562  20.7765894  80.5554683  24.0561020
  20.2604943  79.7713140  23.8690949  21.6605843  80.2273400  24.2207540
  18.4376621  74.2995699  20.0156833  18.2401442  73.9910787  20.9000165
  19.0476327  75.0257338  20.1454763  26.4447955  84.8259647  23.1508774
  27.1751344  84.5644935  23.7116477  25.8354901  84.0888369  23.1910842
  24.5263253  82.9667509  23.7483225  23.7996416  82.8323474  23.1399717
  24.1110539  83.2744338  24.5539943  12.3493429  86.6857439  31.5130598
  13.2696438  86.8636038  31.7070645  12.3143012  85.7413484  31.3610297
   5.3455501  84.5958474  24.1553379   5.5641511  85.5275581  24.1741413
   5.7581275  84.2366448  24.9408183  12.2659719  75.1026559  16.1429068
  11.4560448  74.7573644  16.5184314  12.9544136  74.7934103  16.7316679
  14.1950268  74.1804606  17.7653364  14.7481306  74.6000059  18.4243387
  14.4320354  73.2540354  17.8076320  10.2183367  80.1691679  33.5456128
  10.1180094  81.1186036  33.4768219  10.0004909  79.8409918  32.6732198
  17.5729075  76.2905131  17.2732029  16.9927744  76.9489935  16.8910081
  17.3065007  75.4682476  16.8619446  16.0232641  75.6910189  19.4753349
  16.5232419  75.8026723  18.6667668  16.6668249  75.3871242  20.1154157
  10.0814637  83.5988818  32.3621190   9.5981719  84.3989178  32.5685079
  10.1675576  83.6096763  31.4088634   6.0087974  87.4893353  24.3989624
   6.9631228  87.4577295  24.3319555   5.8100498  87.0283977  25.2139849
   6.5987356  86.0594469  26.9660421   7.4180245  86.5538548  26.9895259
   6.8724164  85.1426437  26.9377989  16.3553953  78.4505221  16.3288377
  15.4679808  78.7354872  16.1108572  16.7707942  78.2898985  15.4815654
  19.7068489  78.4751742  20.0442716  20.4828879  78.9648195  20.3167333
  18.9816623  78.9009797  20.5014586  22.1441047  79.1879362  21.1016657
  22.7385538  78.9475097  20.3909965  22.2167631  78.4686492  21.7290193
  16.3294976  83.9659757  16.5438667  16.2730178  84.4228309  15.7046299
  16.8823319  83.2050442  16.3661510  20.1399782  79.7549489  17.3688786
  19.8836717  79.3546125  18.1996994  19.5152650  80.4693283  17.2438926
  24.4512120  82.4945562  19.8760078  23.8911678  82.5638752  20.6491640
  23.8455624  82.3186547  19.1559574  17.0629756  85.1564539  13.8391196
  17.0078560  84.9908810  12.8979640  16.4375811  85.8640571  13.9953386
   1.8522271  80.3932603  27.6652618   2.4981134  79.8831557  28.1539843
   1.6439422  81.1301285  28.2396044  14.3775663  87.4613450  33.1644759
  15.2466823  87.6354103  32.8031394  13.8982414  88.2807867  33.0420488
  10.3725881  74.6572648  13.4176514  10.3604551  75.6014487  13.5744785
  11.2649303  74.4742793  13.1235976   8.5461843  94.5810551  24.8434193
   9.4489090  94.6134162  25.1600687   8.3199213  93.6511002  24.8580528
  14.1878001  71.2515424  17.6722451  13.4210396  70.6973911  17.8179134
  14.5988706  71.3237293  18.5336603   6.1919762  77.5400220  31.7627633
   7.0551223  77.1837025  31.9730957   5.6185172  77.2014115  32.4503037
  26.0368139  99.1702076  22.5690034  26.6746549  99.0508824  21.8653374
  25.9188982 100.1182920  22.6277986  22.8457845  99.1229504  22.5051558
  22.5076356  99.0070569  21.6172093  23.7147613  98.7220670  22.4852564
  23.3277628 100.2764356  28.4637764  23.3166269  99.8817154  27.5918267
  23.4898267  99.5430429  29.0571535  20.0484889 103.0601468  27.4116948
  19.7574755 103.9647099  27.2963614  20.6841873 103.1017996  28.1261017
  20.9741096 100.4378316  24.0018307  21.5704668 100.2134339  23.2875270
  21.0316067  99.6963062  24.6043755  25.5909407  96.8953530  19.6443242
  26.3772496  96.4772953  19.2933659  25.8548111  97.7999622  19.8124890
  30.9917834  96.8328763  20.5476220  31.7243006  96.2627980  20.7814050
  30.2357190  96.4450364  20.9882726  22.6093954  99.2556005  17.7439563
  22.2452161  98.7286626  18.4552484  23.4661070  98.8654474  17.5706048
  28.5143255  90.5450337  25.0070829  28.1826579  91.4145748  24.7832044
  27.9188868  90.2286621  25.6864859  25.0074774 102.7462883  24.4066741
  24.7075497 103.6487922  24.2982549  24.6625834 102.4795067  25.2587894
  18.4587256  99.1976680  20.4403446  17.5337752  99.0652894  20.6481138
  18.7071669  99.9770900  20.9373388  28.4071918  95.2645424  22.0864179
  27.4988795  95.1960832  21.7922940  28.3559514  95.7417369  22.9146004
  22.4812784  96.6835069  30.0299076  21.7046118  97.2428989  30.0201941
  23.1203347  97.1691852  30.5513946  30.2733564  93.4661862  23.8642053
  29.6307945  93.7594395  23.2181847  29.7688493  93.3514782  24.6695249
  27.9273728  97.2125035  14.5527912  28.8391584  97.4452422  14.3775609
  27.4183375  97.7962079  13.9902991  20.7359156  99.4920523  29.5917043
  21.4773840 100.0305567  29.3151867  20.0296141 100.1186811  29.7488595
  26.2114496 101.6349663  28.1889205  26.6197852 101.1932074  27.4443837
  25.4891757 101.0602291  28.4423397  22.5645566  96.5722270  25.5622761
  23.4106761  96.9961683  25.7057410  22.5044203  95.9155894  26.2561325
  26.5343310 102.1950854  21.9441493  25.9052173 102.3596568  21.2417561
  26.1468972 102.6092463  22.7152457  30.4132542 103.1305292  19.2985857
  29.7283580 103.5104193  18.7482890  30.4976392 103.7400618  20.0317805
  25.7145011  94.2326638  27.2203935  25.4705943  94.9868699  26.6838211
  25.9904942  94.6111986  28.0551182  27.6683474 100.7765251  25.8981201
  27.8800369 101.4197010  25.2215582  27.6213222  99.9427567  25.4303131
  25.2709703  93.3883071  22.8017773  24.4094182  93.6864325  23.0934510
  25.2972137  93.6053470  21.8698805  22.0871272 101.9325262  19.2091579
  22.5509618 102.2112965  18.4196201  21.8228070 101.0308706  19.0264669
  18.9795353 101.4796743  22.1471342  19.5496710 101.9084012  21.5088826
  19.5703465 101.1979328  22.8455527  19.4720520  96.6460171  30.3932353
  18.8419180  97.3276452  30.6267750  19.3656608  96.5343252  29.4485491
  28.7829302 103.6537206  24.0703558  29.6046745 103.2517393  23.7886240
  28.7791705 103.5505440  25.0219674  22.5485905 103.2021249  26.2264269
  22.6130338 103.6641657  27.0622440  21.8396829 102.5718614  26.3546578
  13.0503195  96.5662457  23.7513268  13.3011234  97.4509467  24.0170844
  13.5862744  96.3867059  22.9788360  36.8735295  99.9975954  20.4188530
  36.1199003  99.4283353  20.2632534  37.0082836  99.9638619  21.3659164
  18.7501262  90.9480937  32.7557604  18.3568208  90.3947135  33.4305248
  19.5667403  91.2591515  33.1464122  21.6669223  92.3638816  30.3477861
  22.4078937  92.9645969  30.2682323  21.8987146  91.6216454  29.7895903
  16.8110561  97.5495183  28.6256090  16.6964077  96.6480440  28.9263189
  15.9555079  97.7958880  28.2740907  23.8902399 105.4912923  30.2243591
  23.4466253 104.7049302  29.9064495  24.5519613 105.6792074  29.5587482
  18.6489520 107.0208725  24.7504269  19.1996946 106.8925788  23.9781263
  17.8100996 107.3203614  24.3999162  25.9883637 105.7715723  28.2524992
  25.9702113 106.5924604  27.7605261  26.9103557 105.6469798  28.4775133
  22.4456691 103.2859853  29.0948501  22.9785028 102.5248141  28.8647809
  21.9170773 102.9933505  29.8372655  25.6126386  88.3919919  24.6242142
  25.2690656  89.2821560  24.5481253  25.9805349  88.2021576  23.7611727
  23.1623780  93.2278231  18.1899816  22.3065377  92.8385081  18.0105455
  23.5750732  93.3070191  17.3299601  24.6922927  90.7624574  22.5891376
  24.1887722  90.7254709  21.7759181  24.9853534  91.6717317  22.6488032
  20.9365813  90.8463304  21.5957557  21.8018809  90.6506112  21.2363447
  21.0043322  90.6173655  22.5226914  30.5510943 101.1360884  15.0667751
  29.7740386 100.7972044  14.6222913  31.2302424 101.1413508  14.3922716
  25.3662972  96.2555622  14.9574359  25.0613108  96.5701771  15.8084502
  26.3193414  96.3337042  15.0001692  28.7902250 100.6094866  21.7234359
  28.1325925 101.2994127  21.8114488  29.5942649 100.9991298  22.0668345
  18.5428132  93.0765511  18.9673924  19.1171884  92.8540693  18.2347117
  19.1299114  93.1454206  19.7202525  27.6007709  98.9639238  19.7738301
  28.1139591  99.5969230  20.2760010  28.2508933  98.3640434  19.4081661
  20.8450799  89.9506760  17.6948994  20.1915212  89.6355778  17.0705608
  20.8031274  89.3282501  18.4208816  24.0788540  96.4388694  22.0196641
  23.1611101  96.6603641  21.8618329  24.4948683  96.5135004  21.1608349
  24.8623588  97.8380110  17.1499321  25.6095407  98.3501507  16.8406443
  25.1315177  97.5164162  18.0103715  28.3669505 103.9445240  17.9017443
  27.9131832 103.1036150  17.9582634  27.7363472 104.5806638  18.2392223
  27.3102425  94.8737226  19.1318111  26.5725182  94.3614612  19.4628353
  27.5629198  94.4337607  18.3201388  26.8102444 105.7821736  18.8367261
  27.1025419 106.3426794  18.1179627  27.3201065 106.0750297  19.5920421
  27.4114052  87.6513478  19.7259880  27.7172929  86.7910841  19.4385795
  28.1366657  88.2431098  19.5258874  21.6835132  97.9467271  20.2336071
  21.7383742  96.9941107  20.1578548  20.8726334  98.1026710  20.7177369
  19.6227492  96.5644331  17.9926450  18.8095357  96.8638501  18.3991642
  20.1186486  96.1700019  18.7100932  25.2201703  97.0286155  26.8241344
  25.5751091  97.2557628  27.6835810  25.8673835  97.3604532  26.2018599
  30.9499440 100.1504591  17.5290673  30.8117339 100.3406187  16.6011862
  30.5935659 100.9123974  17.9858724  19.1141567  94.1362686  23.6087685
  19.7540946  93.9951445  22.9110648  18.2819097  93.8497200  23.2326287
  30.9768820 102.2181118  22.5401944  31.4105327 102.1256407  23.3884998
  31.6900401 102.1938618  21.9021960  24.7096715 105.8183212  24.0735045
  24.7633737 106.3874148  24.8412761  23.8411496 105.9885097  23.7089082
  16.1170183  94.1063011  18.3860672  16.3777000  95.0208344  18.2769832
  16.9387355  93.6387454  18.5357285  17.5895108  95.5200768  25.5559496
  18.2618162  95.3118130  24.9072145  16.7624895  95.3222854  25.1164729
  31.8384370 102.2604819  25.0734830  32.0320260 103.1650629  25.3194105
  31.7384988 101.8012238  25.9073415  23.4920680  92.1462709  27.5725157
  22.8448595  92.8452659  27.4789634  24.2621696  92.5798853  27.9401405
  26.8999478 102.4111561  30.6475710  26.7484985 102.1822113  29.7305794
  26.8904158 103.3682163  30.6607055  23.6684815  99.9843474  25.6321977
  24.5976875 100.1354634  25.4590944  23.2475845 100.0727495  24.7770623
  22.4673146 104.0094139  23.4020514  22.3284232 103.6412923  24.2746453
  21.6787743 104.5241778  23.2304472  24.0178362 103.3875741  20.7909352
  23.6828194 103.3476511  21.6867002  23.5182307 102.7220457  20.3179762
  17.9922606  98.7943371  26.3161933  17.8542403  98.0623610  26.9173472
  18.9027529  98.7052271  26.0346121  20.6204906  98.5063331  25.8045613
  21.3304525  97.8656523  25.7632231  20.5774214  98.7576225  26.7271794
  28.6091685 105.4430684  28.7252192  28.5504231 104.7589904  28.0582775
  29.0111203 106.1849674  28.2732818  19.3333840  95.4928549  27.6241253
  18.7971197  95.0419287  28.2762849  18.7450549  95.6274457  26.8811717
  28.6109092 103.4070268  26.9566172  27.7235871 103.0696190  27.0792571
  29.1807643 102.6753299  27.1934937  15.0672961  94.6284556  24.7094247
  14.9831150  94.0210226  23.9744657  14.2455668  95.1193575  24.7103743
  22.1410246 108.0671720  23.9227415  22.0680417 108.8726692  24.4346720
  21.6987639 108.2663686  23.0975437  25.2396675  93.1138120  20.0764442
  25.7365375  92.3608082  19.7565512  24.4683657  93.1502436  19.5107651
  33.0926433  98.8178485  21.7182734  33.0816309  99.7003201  21.3476667
  32.2243812  98.4650036  21.5237271  24.6008929 107.9658554  26.0785574
  25.3136901 108.6006019  26.0061475  24.1098958 108.0622420  25.2625576
  26.3226456 101.8709807  17.6502865  25.3882735 101.9911269  17.4807570
  26.5003124 100.9682274  17.3862875  21.8231644  95.2555503  19.8036127
  21.4529432  94.7026543  20.4917032  22.3190736  94.6513636  19.2511127
  29.7099007  97.7127126  18.1852900  30.1759460  98.5455118  18.1113202
  30.1606508  97.2472108  18.8898158  19.6520843 105.7152998  26.8991145
  20.3530302 106.3489481  27.0520539  19.1815958 106.0567729  26.1386784
  27.7775238 104.0570948  15.1839052  28.0535082 103.9427542  16.0932926
  26.9079737 103.6588432  15.1451225  27.6815670  90.0807713  22.2243801
  26.7678750  90.3111940  22.3926008  28.1108772  90.1646157  23.0757833
  27.4522129  98.2697605  24.7243695  26.7993579  98.5173513  24.0696148
  27.8302508  97.4561743  24.3906172  23.5009702  99.0117416  31.2109732
  22.8250339  98.9111546  31.8812107  24.3237335  98.8556630  31.6745729
  22.2432484 110.3184344  25.4467348  22.7950792 110.4815965  26.2116433
  22.5838678 110.9088782  24.7747373  17.2196978  92.6659494  26.0489233
  17.2838304  93.5274324  25.6366630  17.1564098  92.0533495  25.3161591
  16.6949250  94.7382626  29.6962267  17.3221289  94.3559703  30.3099791
  15.8377169  94.5196828  30.0617959  27.0943359 105.1445601  31.3016002
  27.6383263 105.7575559  30.8070957  26.5130204 105.7025180  31.8183015
  25.3800872 108.2666319  22.4331030  25.2552011 107.4656059  21.9241976
  26.0379963 108.7612513  21.9445000  17.0009040  94.6215052  21.6108170
  16.2795626  95.2351019  21.4715644  17.7902296  95.1572817  21.5324816
  27.4435780 106.0675339  24.0610580  26.4966116 105.9480691  23.9888907
  27.7918553 105.1797837  24.1436842  19.8035353  91.9569478  27.8848822
  20.3269755  92.2031775  28.6475131  19.5847687  92.7889513  27.4651960
  24.4482213 105.8628056  20.2614933  24.3007176 104.9344763  20.4422503
  25.2735707 105.8848146  19.7772008  28.0516335 106.6856614  21.3479805
  28.9762883 106.4799476  21.2104256  27.8831639 106.4373015  22.2569147
  21.0087899  92.8983173  25.5698493  20.6684719  92.0990986  25.9719173
  20.3026905  93.1984884  24.9975326  21.6604370  89.9832486  24.0225816
  22.4830440  89.5092964  23.9004706  21.9042434  90.7622970  24.5224502
  24.4443728  93.7165893  15.2547050  24.6607342  94.5990531  14.9535878
  23.9637795  93.3252107  14.5252692  19.1842949  96.6751606  21.8317794
  19.0387530  96.9891909  22.7242076  18.7068153  97.2936507  21.2788693
  21.0439332  93.6654154  21.8798684  21.0300901  92.7695248  21.5430982
  21.7611760  93.6724818  22.5136970  22.8965463  94.0991495  23.9251811
  22.6383241  95.0208565  23.9236142  22.3650503  93.7021929  24.6152275
  27.8411651 107.2042282  16.7041897  28.0148529 106.6388704  15.9515749
  28.3340543 108.0043177  16.5221387  13.6588611  99.2156951  24.7705456
  13.1142079  99.9916759  24.9025730  14.5367961  99.5627755  24.6124577
  20.4476228  92.5468535  17.1486254  20.5692139  91.6185181  17.3477142
  20.1578270  92.5607221  16.2364569  23.3167418  90.2323445  20.2852974
  23.3389115  90.2962778  19.3304953  23.7335477  89.3927954  20.4793480
  33.6951043  99.9678705  18.3232196  34.1382189  99.2186030  17.9251320
  32.8177553  99.9588841  17.9405928  14.4454633  98.3426847  27.6635612
  13.7036369  98.4909482  28.2500243  14.1247377  98.6035113  26.8002362
  30.7278247 103.9708752  15.3326126  31.2529571 104.3096024  14.6075446
  30.6400600 103.0355767  15.1489260  22.3898296 107.8842825  27.4616002
  22.6985422 107.6391972  28.3338702  23.1873778 108.0889464  26.9734873
  19.9317307  94.0600532  31.3576187  19.9805463  94.9362655  30.9753956
  20.4739822  93.5177925  30.7847830  30.4172153 104.6041655  30.6377324
  29.6267697 104.5865794  30.0981823  30.1805508 105.1429949  31.3926360
  30.5370028 101.4534122  27.9510052  30.5868033 101.2884129  28.8925575
  30.4283952 100.5861381  27.5607933  27.8273791  97.4365050  29.2669359
  28.7283653  97.2971515  28.9753357  27.9021765  97.6019505  30.2067536
  22.1616596  94.8131904  28.1122545  21.2919905  95.1065471  27.8405134
  22.3976076  95.3972349  28.8329809  32.0388225 103.8731063  28.1952074
  31.7473033 104.2361044  29.0315535  31.4260356 103.1598071  28.0165406
  33.2383907 101.4383943  20.7154644  34.0730799 101.8773747  20.8792204
  33.3743036 100.9622596  19.8962890  30.2875413  98.9963678  26.6632132
  30.7629535  99.1891324  25.8550983  29.3640979  99.0522864  26.4175515
  24.8655630  91.0311521  25.6287966  25.3837574  91.7672548  25.3034454
  24.5110763  91.3375515  26.4634725  25.1168224  87.4511804  21.1488862
  25.3969978  86.7834993  21.7749289  25.9018831  87.6440900  20.6363526
  28.9877082  95.8729438  24.8960437  29.9394505  95.9727536  24.9172661
  28.8180533  95.0807706  25.4058522  27.0091462  92.9585021  25.0819838
  26.4141394  93.2390034  24.3866327  26.7241158  93.4478922  25.8536579
  31.4665160  99.0935558  24.0102737  31.4341480  98.1551558  24.1962421
  32.0765784  99.1719594  23.2768562  31.6159649  95.8846601  24.0561020
  31.0998697  95.1005058  23.8690949  32.4999597  95.5565318  24.2207540
  29.2770375  89.6287617  20.0156833  29.0795197  89.3202705  20.9000165
  29.8870081  90.3549256  20.1454763  37.2841710 100.1551564  23.1508774
  38.0145098  99.8936853  23.7116477  36.6748655  99.4180286  23.1910842
  35.3657007  98.2959427  23.7483225  34.6390171  98.1615392  23.1399717
  34.9504294  98.6036256  24.5539943  23.1887183 102.0149357  31.5130598
  24.1090193 102.1927956  31.7070645  23.1536766 101.0705402  31.3610297
  16.1849256  99.9250391  24.1553379  16.4035266 100.8567499  24.1741413
  16.5975030  99.5658366  24.9408183  23.1053474  90.4318477  16.1429068
  22.2954202  90.0865562  16.5184314  23.7937891  90.1226020  16.7316679
  25.0344022  89.5096523  17.7653364  25.5875061  89.9291977  18.4243387
  25.2714108  88.5832272  17.8076320  21.0577121  95.4983597  33.5456128
  20.9573848  96.4477954  33.4768219  20.8398663  95.1701836  32.6732198
  28.4122829  91.6197049  17.2732029  27.8321498  92.2781853  16.8910081
  28.1458762  90.7974393  16.8619446  26.8626396  91.0202106  19.4753349
  27.3626174  91.1318641  18.6667668  27.5062003  90.7163159  20.1154157
  20.9208391  98.9280736  32.3621190  20.4375473  99.7281096  32.5685079
  21.0069330  98.9388681  31.4088634  16.8481729 102.8185271  24.3989624
  17.8024982 102.7869213  24.3319555  16.6494252 102.3575894  25.2139849
  17.4381111 101.3886387  26.9660421  18.2574000 101.8830465  26.9895259
  17.7117919 100.4718355  26.9377989  27.1947707  93.7797139  16.3288377
  26.3073562  94.0646790  16.1108572  27.6101696  93.6190902  15.4815654
  30.5462243  93.8043660  20.0442716  31.3222633  94.2940112  20.3167333
  29.8210377  94.2301714  20.5014586  32.9834802  94.5171279  21.1016657
  33.5779293  94.2767015  20.3909965  33.0561386  93.7978410  21.7290193
  27.1688731  99.2951675  16.5438667  27.1123932  99.7520226  15.7046299
  27.7217073  98.5342360  16.3661510  30.9793537  95.0841407  17.3688786
  30.7230471  94.6838042  18.1996994  30.3546405  95.7985201  17.2438926
  35.2905875  97.8237480  19.8760078  34.7305433  97.8930669  20.6491640
  34.6849378  97.6478465  19.1559574  27.9023510 100.4856456  13.8391196
  27.8472314 100.3200728  12.8979640  27.2769566 101.1932489  13.9953386
  12.6916025  95.7224521  27.6652618  13.3374889  95.2123475  28.1539843
  12.4833176  96.4593202  28.2396044  25.2169417 102.7905368  33.1644759
  26.0860577 102.9646020  32.8031394  24.7376169 103.6099785  33.0420488
  21.2119636  89.9864565  13.4176514  21.1998306  90.9306405  13.5744785
  22.1043058  89.8034711  13.1235976  19.3855598 109.9102469  24.8434193
  20.2882844 109.9426079  25.1600687  19.1592968 108.9802920  24.8580528
  25.0271755  86.5807342  17.6722451  24.2604151  86.0265829  17.8179134
  25.4382460  86.6529211  18.5336603  17.0313516  92.8692138  31.7627633
  17.8944978  92.5128942  31.9730957  16.4578927  92.5306032  32.4503037
  36.8761893 114.4993994  22.5690034  37.5140303 114.3800741  21.8653374
  36.7582736 115.4474838  22.6277986  33.6851599 114.4521422  22.5051558
  33.3470111 114.3362487  21.6172093  34.5541368 114.0512587  22.4852564
  34.1671382 115.6056274  28.4637764  34.1560023 115.2109072  27.5918267
  34.3292022 114.8722346  29.0571535  36.4303162 112.2245448  19.6443242
  37.2166251 111.8064871  19.2933659  36.6941866 113.1291540  19.8124890
  41.8311589 112.1620681  20.5476220  42.5636761 111.5919898  20.7814050
  41.0750944 111.7742281  20.9882726  33.4487708 114.5847923  17.7439563
  33.0845916 114.0578544  18.4552484  34.3054824 114.1946392  17.5706048
  39.3537009 105.8742255  25.0070829  39.0220334 106.7437666  24.7832044
  38.7582622 105.5578539  25.6864859  39.2465672 110.5937341  22.0864179
  38.3382550 110.5252750  21.7922940  39.1953268 111.0709286  22.9146004
  33.3206538 112.0126987  30.0299076  32.5439872 112.5720907  30.0201941
  33.9597101 112.4983770  30.5513946  41.1127319 108.7953780  23.8642053
  40.4701699 109.0886313  23.2181847  40.6082247 108.6806700  24.6695249
  38.7667482 112.5416953  14.5527912  39.6785339 112.7744340  14.3775609
  38.2577130 113.1253997  13.9902991  33.4039320 111.9014188  25.5622761
  34.2500515 112.3253601  25.7057410  33.3437958 111.2447812  26.2561325
  36.5538766 109.5618556  27.2203935  36.3099697 110.3160616  26.6838211
  36.8298696 109.9403903  28.0551182  38.5077228 116.1057168  25.8981201
  38.7194124 116.7488928  25.2215582  38.4606977 115.2719485  25.4303131
  36.1103457 108.7174989  22.8017773  35.2487936 109.0156242  23.0934510
  36.1365892 108.9345388  21.8698805  30.3114274 111.9752088  30.3932353
  29.6812935 112.6568369  30.6267750  30.2050362 111.8635170  29.4485491
  47.7129049 115.3267872  20.4188530  46.9592758 114.7575270  20.2632534
  47.8476591 115.2930537  21.3659164  29.5895017 106.2772854  32.7557604
  29.1961963 105.7239053  33.4305248  30.4061157 106.5883433  33.1464122
  32.5062978 107.6930733  30.3477861  33.2472691 108.2937887  30.2682323
  32.7380901 106.9508371  29.7895903  36.4520141 103.7211836  24.6242142
  36.1084410 104.6113478  24.5481253  36.8199104 103.5313494  23.7611727
  34.0017535 108.5570148  18.1899816  33.1459131 108.1676999  18.0105455
  34.4144486 108.6362109  17.3299601  35.5316681 106.0916491  22.5891376
  35.0281477 106.0546627  21.7759181  35.8247288 107.0009234  22.6488032
  31.7759567 106.1755221  21.5957557  32.6412564 105.9798030  21.2363447
  31.8437076 105.9465573  22.5226914  41.3904698 116.4652802  15.0667751
  40.6134141 116.1263962  14.6222913  42.0696179 116.4705425  14.3922716
  36.2056727 111.5847540  14.9574359  35.9006862 111.8993689  15.8084502
  37.1587169 111.6628959  15.0001692  39.6296005 115.9386783  21.7234359
  38.9719679 116.6286045  21.8114488  40.4336404 116.3283215  22.0668345
  29.3821886 108.4057429  18.9673924  29.9565638 108.1832611  18.2347117
  29.9692869 108.4746124  19.7202525  38.4401463 114.2931156  19.7738301
  38.9533345 114.9261148  20.2760010  39.0902687 113.6932352  19.4081661
  31.6844554 105.2798678  17.6948994  31.0308966 104.9647695  17.0705608
  31.6425028 104.6574419  18.4208816  34.9182294 111.7680612  22.0196641
  34.0004856 111.9895559  21.8618329  35.3342438 111.8426922  21.1608349
  35.7017342 113.1672027  17.1499321  36.4489161 113.6793424  16.8406443
  35.9708932 112.8456080  18.0103715  38.1496179 110.2029144  19.1318111
  37.4118936 109.6906530  19.4628353  38.4022953 109.7629525  18.3201388
  38.2507807 102.9805396  19.7259880  38.5566683 102.1202759  19.4385795
  38.9760411 103.5723016  19.5258874  32.5228886 113.2759189  20.2336071
  32.5777496 112.3233025  20.1578548  31.7120088 113.4318628  20.7177369
  30.4621246 111.8936248  17.9926450  29.6489112 112.1930419  18.3991642
  30.9580240 111.4991937  18.7100932  36.0595458 112.3578073  26.8241344
  36.4144846 112.5849546  27.6835810  36.7067589 112.6896450  26.2018599
  41.7893195 115.4796509  17.5290673  41.6511093 115.6698105  16.6011862
  41.4329414 116.2415892  17.9858724  29.9535321 109.4654604  23.6087685
  30.5934700 109.3243363  22.9110648  29.1212852 109.1789117  23.2326287
  41.8162574 117.5473036  22.5401944  42.2499081 117.4548325  23.3884998
  42.5294155 117.5230536  21.9021960  26.9563937 109.4354929  18.3860672
  27.2170755 110.3500262  18.2769832  27.7781110 108.9679371  18.5357285
  28.4288863 110.8492686  25.5559496  29.1011916 110.6410048  24.9072145
  27.6018649 110.6514772  25.1164729  42.6778124 117.5896736  25.0734830
  42.8714014 118.4942547  25.3194105  42.5778742 117.1304155  25.9073415
  34.3314435 107.4754627  27.5725157  33.6842350 108.1744577  27.4789634
  35.1015450 107.9090771  27.9401405  34.5078569 115.3135392  25.6321977
  35.4370629 115.4646551  25.4590944  34.0869599 115.4019413  24.7770623
  31.4598661 113.8355248  25.8045613  32.1698279 113.1948441  25.7632231
  31.4167969 114.0868143  26.7271794  30.1727595 110.8220466  27.6241253
  29.6364952 110.3711205  28.2762849  29.5844303 110.9566375  26.8811717
  25.9066716 109.9576474  24.7094247  25.8224905 109.3502143  23.9744657
  25.0849422 110.4485492  24.7103743  36.0790430 108.4430037  20.0764442
  36.5759129 107.6900000  19.7565512  35.3077411 108.4794354  19.5107651
  43.9320187 114.1470403  21.7182734  43.9210063 115.0295118  21.3476667
  43.0637567 113.7941954  21.5237271  32.6625399 110.5847420  19.8036127
  32.2923186 110.0318461  20.4917032  33.1584491 109.9805554  19.2511127
  40.5492762 113.0419044  18.1852900  41.0153214 113.8747036  18.1113202
  41.0000262 112.5764025  18.8898158  38.5209425 105.4099631  22.2243801
  37.6072504 105.6403858  22.3926008  38.9502526 105.4938075  23.0757833
  38.2915883 113.5989523  24.7243695  37.6387333 113.8465430  24.0696148
  38.6696263 112.7853661  24.3906172  34.3403456 114.3409334  31.2109732
  33.6644093 114.2403463  31.8812107  35.1631090 114.1848548  31.6745729
  28.0590732 107.9951411  26.0489233  28.1232059 108.8566242  25.6366630
  27.9957852 107.3825413  25.3161591  27.5343005 110.0674544  29.6962267
  28.1615044 109.6851621  30.3099791  26.6770924 109.8488746  30.0617959
  27.8402794 109.9506969  21.6108170  27.1189380 110.5642937  21.4715644
  28.6296050 110.4864734  21.5324816  30.6429108 107.2861396  27.8848822
  31.1663510 107.5323692  28.6475131  30.4241441 108.1181431  27.4651960
  31.8481653 108.2275091  25.5698493  31.5078473 107.4282904  25.9719173
  31.1420659 108.5276802  24.9975326  32.4998125 105.3124403  24.0225816
  33.3224194 104.8384882  23.9004706  32.7436188 106.0914887  24.5224502
  35.2837482 109.0457811  15.2547050  35.5001097 109.9282449  14.9535878
  34.8031549 108.6544024  14.5252692  30.0236704 112.0043524  21.8317794
  29.8781284 112.3183827  22.7242076  29.5461907 112.6228424  21.2788693
  31.8833086 108.9946072  21.8798684  31.8694655 108.0987165  21.5430982
  32.6005515 109.0016736  22.5136970  33.7359217 109.4283412  23.9251811
  33.4776995 110.3500483  23.9236142  33.2044258 109.0313847  24.6152275
  31.2869982 107.8760452  17.1486254  31.4085894 106.9477099  17.3477142
  30.9972025 107.8899138  16.2364569  34.1561173 105.5615363  20.2852974
  34.1782870 105.6254696  19.3304953  34.5729232 104.7219871  20.4793480
  44.5344797 115.2970622  18.3232196  44.9775943 114.5477948  17.9251320
  43.6571307 115.2880759  17.9405928  30.7711062 109.3892450  31.3576187
  30.8199217 110.2654573  30.9753956  31.3133576 108.8469843  30.7847830
  41.3763783 116.7826039  27.9510052  41.4261788 116.6176047  28.8925575
  41.2677706 115.9153298  27.5607933  38.6667545 112.7656967  29.2669359
  39.5677408 112.6263432  28.9753357  38.7415520 112.9311422  30.2067536
  33.0010350 110.1423822  28.1122545  32.1313660 110.4357388  27.8405134
  33.2369831 110.7264267  28.8329809  44.0777662 116.7675861  20.7154644
  44.9124553 117.2065665  20.8792204  44.2136791 116.2914514  19.8962890
  41.1269168 114.3255595  26.6632132  41.6023289 114.5183242  25.8550983
  40.2034733 114.3814781  26.4175515  35.7049384 106.3603439  25.6287966
  36.2231328 107.0964466  25.3034454  35.3504517 106.6667432  26.4634725
  35.9561978 102.7803722  21.1488862  36.2363732 102.1126911  21.7749289
  36.7412585 102.9732817  20.6363526  39.8270837 111.2021356  24.8960437
  40.7788260 111.3019453  24.9172661  39.6574287 110.4099624  25.4058522
  37.8485216 108.2876939  25.0819838  37.2535148 108.5681952  24.3866327
  37.5634913 108.7770840  25.8536579  42.3058915 114.4227475  24.0102737
  42.2735235 113.4843476  24.1962421  42.9159538 114.5011512  23.2768562
  42.4553403 111.2138519  24.0561020  41.9392452 110.4296975  23.8690949
  43.3393352 110.8857235  24.2207540  40.1164130 104.9579534  20.0156833
  39.9188951 104.6494622  20.9000165  40.7263836 105.6841173  20.1454763
  48.1235464 115.4843482  23.1508774  48.8538853 115.2228770  23.7116477
  47.5142410 114.7472204  23.1910842  46.2050762 113.6251345  23.7483225
  45.4783925 113.4907310  23.1399717  45.7898048 113.9328173  24.5539943
  33.9447228 105.7610394  16.1429068  33.1347957 105.4157479  16.5184314
  34.6331645 105.4517938  16.7316679  35.8737777 104.8388441  17.7653364
  36.4268815 105.2583895  18.4243387  36.1107863 103.9124189  17.8076320
  31.8970876 110.8275515  33.5456128  31.7967603 111.7769872  33.4768219
  31.6792418 110.4993754  32.6732198  39.2516584 106.9488966  17.2732029
  38.6715253 107.6073770  16.8910081  38.9852516 106.1266311  16.8619446
  37.7020150 106.3494024  19.4753349  38.2019928 106.4610559  18.6667668
  38.3455758 106.0455077  20.1154157  38.0341462 109.1089057  16.3288377
  37.1467317 109.3938707  16.1108572  38.4495451 108.9482820  15.4815654
  41.3855998 109.1335578  20.0442716  42.1616388 109.6232030  20.3167333
  40.6604132 109.5593632  20.5014586  43.8228556 109.8463197  21.1016657
  44.4173047 109.6058933  20.3909965  43.8955140 109.1270327  21.7290193
  38.0082485 114.6243593  16.5438667  37.9517687 115.0812144  15.7046299
  38.5610828 113.8634277  16.3661510  41.8187291 110.4133324  17.3688786
  41.5624226 110.0129960  18.1996994  41.1940159 111.1277118  17.2438926
  46.1299629 113.1529398  19.8760078  45.5699187 113.2222587  20.6491640
  45.5243133 112.9770382  19.1559574  38.7417265 115.8148374  13.8391196
  38.6866069 115.6492645  12.8979640  38.1163320 116.5224407  13.9953386
  23.5309780 111.0516438  27.6652618  24.1768643 110.5415392  28.1539843
  23.3226931 111.7885120  28.2396044  32.0513390 105.3156483  13.4176514
  32.0392060 106.2598323  13.5744785  32.9436812 105.1326628  13.1235976
  35.8665510 101.9099260  17.6722451  35.0997905 101.3557746  17.8179134
  36.2776215 101.9821128  18.5336603  27.8707271 108.1984055  31.7627633
  28.7338732 107.8420860  31.9730957  27.2972681 107.8597950  32.4503037
  47.2913895 119.0503754  24.6242142  46.9478165 119.9405396  24.5481253
  47.6592858 118.8605412  23.7611727  49.0901561 118.3097313  19.7259880
  49.3960438 117.4494677  19.4385795  49.8154166 118.9014933  19.5258874
  46.7955733 118.1095639  21.1488862  47.0757487 117.4418828  21.7749289
  47.5806340 118.3024735  20.6363526  50.9557884 120.2871452  20.0156833
  50.7582706 119.9786540  20.9000165  51.5657590 121.0133091  20.1454763
  46.7059264 117.2391177  17.6722451  45.9391660 116.6849664  17.8179134
  47.1169969 117.3113046  18.5336603   6.9304177  51.7908971  15.4497499
   6.8716723  51.1068191  14.7828082   7.3323696  52.5327961  14.9978125
   5.4155851  51.4923888  18.0261309   5.9595755  52.1053847  17.5316264
   4.8342696  52.0503467  18.5428322   8.7384645  50.9519943  17.3622630
   7.9480189  50.9344081  16.8227130   8.5018000  51.4908236  18.1171667
  10.3600717  50.2209350  14.9197380  10.0685526  50.5839331  15.7560841
   9.7472849  49.5076359  14.7410712   3.5381910  49.1383655  19.8890066
   4.4073069  49.3124308  19.5276700   3.0588661  49.9578072  19.7665795
  15.1974385  60.8472281   9.2935340  15.8352795  60.7279029   8.5898680
  15.0795228  61.7953125   9.3523292  12.0064092  60.7999709   9.2296865
  11.6682603  60.6840774   8.3417400  12.8753860  60.3990874   9.2097871
  12.4883875  61.9534561  15.1883070  12.4772515  61.5587359  14.3163574
  12.6504514  61.2200634  15.7816842   9.2091136  64.7371673  14.1362254
   8.9181002  65.6417304  14.0208921   9.8448120  64.7788200  14.8506324
  10.1347343  62.1148521  10.7263614  10.7310915  61.8904544  10.0120577
  10.1922314  61.3733267  11.3289062  20.1524081  58.5098968   7.2721527
  20.8849253  57.9398185   7.5059356  19.3963437  58.1220569   7.7128032
  17.6749501  52.2220542  11.7316135  17.3432826  53.0915953  11.5077350
  17.0795115  51.9056826  12.4110166  14.1681021  64.4233088  11.1312048
  13.8681744  65.3258127  11.0227855  13.8232080  64.1565272  11.9833201
  17.5678165  56.9415629   8.8109485  16.6595042  56.8731037   8.5168246
  17.5165760  57.4187574   9.6391311  11.6419030  58.3605274  16.7544383
  10.8652365  58.9199194  16.7447247  12.2809594  58.8462057  17.2759253
  19.4339811  55.1432067  10.5887359  18.7914191  55.4364600   9.9427154
  18.9294740  55.0284987  11.3940556   9.8965403  61.1690728  16.3162350
  10.6380087  61.7075771  16.0397173   9.1902388  61.7957016  16.4733901
  15.3720742  63.3119868  14.9134511  15.7804098  62.8702279  14.1689144
  14.6498004  62.7372496  15.1668704  11.7251812  58.2492475  12.2868068
  12.5713008  58.6731888  12.4302717  11.6650450  57.5926099  12.9806631
  15.6949557  63.8721059   8.6686800  15.0658420  64.0366773   7.9662868
  15.3075219  64.2862668   9.4397764  19.5738789  64.8075496   6.0231164
  18.8889827  65.1874398   5.4728197  19.6582638  65.4170823   6.7563112
  14.8751258  55.9096843  13.9449242  14.6312190  56.6638904  13.4083517
  15.1511188  56.2882191  14.7796489  16.8289721  62.4535455  12.6226507
  17.0406616  63.0967215  11.9460888  16.7819469  61.6197772  12.1548437
   8.1401600  63.1566948   8.8716648   8.7102957  63.5854217   8.2334133
   8.7309712  62.8749533   9.5700834   8.6326767  58.3230376  17.1177660
   8.0025427  59.0046657  17.3513056   8.5262854  58.2113457  16.1730798
  17.9435549  65.3307411  10.7948865  18.7652992  64.9287598  10.5131546
  17.9397951  65.2275645  11.7464980  11.7092152  64.8791454  12.9509575
  11.7736584  65.3411861  13.7867747  11.0003076  64.2488819  13.0791885
  26.0341542  61.6746159   7.1433836  25.2805250  61.1053557   6.9877841
  26.1689083  61.6408824   8.0904471   7.9107509  52.6251142  19.4802911
   7.5174455  52.0717340  20.1550555   8.7273650  52.9361720  19.8709428
  10.8275470  54.0409021  17.0723167  11.5685184  54.6416174  16.9927630
  11.0593393  53.2986658  16.5141210   5.9716808  59.2265388  15.3501397
   5.8570323  58.3250645  15.6508496   5.1161326  59.4729085  14.9986213
  13.0508646  67.1683128  16.9488898  12.6072500  66.3819507  16.6309802
  13.7125860  67.3562279  16.2832788   7.8095767  68.6978930  11.4749576
   8.3603192  68.5695993  10.7026570   6.9707243  68.9973819  11.1244469
  15.1489884  67.4485928  14.9770299  15.1308359  68.2694809  14.4850568
  16.0709804  67.3240003  15.2020440  11.6062938  64.9630058  15.8193807
  12.1391275  64.2018346  15.5893115  11.0777019  64.6703709  16.5617962
  17.9508497  62.2865071   8.4479666  17.2932171  62.9764332   8.5359794
  18.7548896  62.6761503   8.7913652  16.7613956  60.6409443   6.4983607
  17.2745838  61.2739435   7.0005317  17.4115180  60.0410639   6.1326967
  13.2394787  58.1158899   8.7441948  12.3217348  58.3373846   8.5863636
  13.6554930  58.1905209   7.8853655  17.5275752  65.6215445   4.6262750
  17.0738079  64.7806355   4.6827940  16.8969719  66.2576843   4.9637530
  15.9708691  67.4591941   5.5612568  16.2631666  68.0196999   4.8424934
  16.4807312  67.7520502   6.3165727  14.3807950  58.7056360  13.5486650
  14.7357338  58.9327833  14.4081116  15.0280081  59.0374737  12.9263906
  20.1105687  61.8274796   4.2535979  19.9723586  62.0176392   3.3257169
  19.7541906  62.5894179   4.7104031  20.1375067  63.8951323   9.2647251
  20.5711573  63.8026612  10.1130305  20.8506647  63.8708823   8.6267267
  13.8702962  67.4953417  10.7980352  13.9239984  68.0644353  11.5658067
  13.0017743  67.6655302  10.4334389   6.7501355  57.1970973  12.2804803
   7.4224408  56.9888335  11.6317452   5.9231142  56.9993059  11.8410035
  20.9990616  63.9375024  11.7980136  21.1926506  64.8420834  12.0439411
  20.8991234  63.4782443  12.6318721  12.6526927  53.8232914  14.2970464
  12.0054842  54.5222864  14.2034940  13.4227942  54.2569058  14.6646712
  16.0605725  64.0881766  17.3721017  15.9091231  63.8592318  16.4551101
  16.0510404  65.0452368  17.3852362  12.8291061  61.6613679  12.3567283
  13.7583121  61.8124839  12.1836251  12.4082091  61.7497700  11.5015930
  11.6279393  65.6864344  10.1265821  11.4890479  65.3183128  10.9991759
  10.8393989  66.2011983   9.9549779  13.1784608  65.0645946   7.5154659
  12.8434441  65.0246716   8.4112309  12.6788554  64.3990662   7.0425069
   7.1528852  60.4713576  13.0407240   7.0148650  59.7393815  13.6418779
   8.0633776  60.3822476  12.7591428   9.7811153  60.1833536  12.5290920
  10.4910771  59.5426728  12.4877538   9.7380461  60.4346430  13.4517100
  17.7697932  67.1200889  15.4497499  17.7110478  66.4360109  14.7828082
  18.1717450  67.8619879  14.9978125   8.4940087  57.1698753  14.3486559
   7.9577444  56.7189492  15.0008155   7.9056795  57.3044662  13.6057023
  17.7715339  65.0840473  13.6811479  16.8842118  64.7466395  13.8037877
  18.3413890  64.3523504  13.9180244  11.3016492  69.7441925  10.6472722
  11.2286664  70.5496897  11.1592026  10.8593885  69.9433891   9.8220743
  22.2532679  60.4948690   8.4428040  22.2422556  61.3773406   8.0721973
  21.3850059  60.1420241   8.2482577  13.7615176  69.6428759  12.8030880
  14.4743148  70.2776224  12.7306782  13.2705204  69.7392625  11.9870882
   8.8127089  67.3923203  13.6236451   9.5136549  68.0259686  13.7765845
   8.3422204  67.7337934  12.8632090  16.6128375  59.9467810  11.4489002
  15.9599826  60.1943718  10.7941454  16.9908755  59.1331948  11.1151479
  12.6615948  60.6887621  17.9355039  11.9856585  60.5881751  18.6057414
  13.4843582  60.5326835  18.3991036  11.4038731  71.9954549  12.1712655
  11.9557039  72.1586170  12.9361740  11.7444925  72.5858986  11.4992680
   5.8555497  56.4152831  16.4207574   6.4827536  56.0329908  17.0345098
   4.9983416  56.1967033  16.7863266  16.2549606  66.8215806  18.0261309
  16.7989510  67.4345764  17.5316264  15.6736450  67.3795385  18.5428322
  14.5407118  69.9436524   9.1576337  14.4158258  69.1426264   8.6487282
  15.1986210  70.4382718   8.6690307  16.6042027  67.7445544  10.7855887
  15.6572362  67.6250895  10.7134214  16.9524800  66.8568042  10.8682148
   8.9641600  53.6339683  14.6094129   9.4876002  53.8801980  15.3720438
   8.7453934  54.4659718  14.1897266  13.6088460  67.5398260   6.9860239
  13.4613423  66.6114968   7.1667809  14.4341954  67.5618351   6.5017314
  17.2122582  68.3626819   8.0725112  18.1369129  68.1569681   7.9349563
  17.0437885  68.1143220   8.9814453  10.1694145  54.5753378  12.2943799
   9.8290966  53.7761191  12.6964479   9.4633152  54.8755089  11.7220633
  12.0571709  55.7761700  10.6497118  11.7989487  56.6978770  10.6481448
  11.5256750  55.3792134  11.3397582  17.0017898  68.8812487   3.4287203
  17.1754776  68.3158909   2.6761056  17.4946789  69.6813382   3.2466693
   2.8194858  60.8927156  11.4950762   2.2748326  61.6686964  11.6271036
   3.6974208  61.2397960  11.3369884  22.8557289  61.6448910   5.0477503
  23.2988435  60.8956235   4.6496626  21.9783800  61.6359046   4.6651235
   3.6060880  60.0197052  14.3880919   2.8642616  60.1679687  14.9745549
   3.2853624  60.2805318  13.5247668  19.8884494  65.6478957   2.0571432
  20.4135818  65.9866229   1.3320752  19.8006846  64.7125972   1.8734567
  11.5504543  69.5613030  14.1861309  11.8591669  69.3162177  15.0584009
  12.3480025  69.7659669  13.6980179   9.0923554  55.7370737  18.0821493
   9.1411710  56.6132860  17.6999263   9.6346068  55.1948130  17.5093136
  19.5778400  66.2811860  17.3622630  18.7873944  66.2635999  16.8227130
  19.3411754  66.8200154  18.1171667  19.6976275  63.1304327  14.6755359
  19.7474280  62.9654334  15.6170882  19.5890198  62.2631586  14.2853240
  16.9880037  59.1135255  15.9914666  17.8889900  58.9741719  15.6998663
  17.0628012  59.2789709  16.9312843  11.3222843  56.4902109  14.8367852
  10.4526152  56.7835675  14.5650440  11.5582323  57.0742554  15.5575116
  21.1994472  65.5501268  14.9197380  20.9079280  65.9131249  15.7560841
  20.5866603  64.8368276  14.7410712  22.3990154  63.1154148   7.4399951
  23.2337045  63.5543952   7.6037511  22.5349283  62.6392801   6.6208196
  19.4481660  60.6733883  13.3877438  19.9235782  60.8661529  12.5796290
  18.5247225  60.7293069  13.1420822  14.0261877  52.7081726  12.3533272
  14.5443820  53.4442753  12.0279761  13.6717009  53.0145720  13.1880031
  18.1483329  57.5499643  11.6205744  19.1000752  57.6497740  11.6417968
  17.9786779  56.7577911  12.1303828  16.1697708  54.6355226  11.8065145
  15.5747641  54.9160239  11.1111634  15.8847405  55.1249127  12.5781886
  20.6271407  60.7705763  10.7348044  20.5947727  59.8321763  10.9207727
  21.2372030  60.8489799  10.0013869  20.7765895  57.5616806  10.7806327
  20.2604944  56.7775263  10.5936256  21.6605844  57.2335523  10.9452846
  26.4447957  61.8321769   9.8754080  27.1751345  61.5707057  10.4361784
  25.8354902  61.0950491   9.9156148  24.5263254  59.9729632  10.4728532
  23.7996417  59.8385597   9.8645023  24.1110541  60.2806461  11.2785250
  12.3493430  63.6919562  18.2375905  13.2696440  63.8698161  18.4315951
  12.3143013  62.7475607  18.0855604   5.3455503  61.6020596  10.8798686
   5.5641513  62.5337704  10.8986720   5.7581277  61.2428571  11.6653490
  10.2183368  57.1753802  20.2701435  10.1180095  58.1248159  20.2013526
  10.0004910  56.8472041  19.3977505  10.0814638  60.6050941  19.0866496
   9.5981720  61.4051301  19.2930385  10.1675577  60.6158886  18.1333940
   6.0087976  64.4955476  11.1234930   6.9631229  64.4639418  11.0564862
   5.8100499  64.0346099  11.9385156   6.5987358  63.0656592  13.6905728
   7.4180247  63.5600670  13.7140565   6.8724165  62.1488560  13.6623295
  22.1441049  56.1941484   7.8261963  22.7385540  55.9537220   7.1155271
  22.2167632  55.4748615   8.4535500  24.4512121  59.5007685   6.6005384
  23.8911679  59.5700874   7.3736947  23.8455625  59.3248670   5.8804881
   1.8522272  57.3994725  14.3897925   2.4981136  56.8893679  14.8785150
   1.6439423  58.1363407  14.9641350  14.3775664  64.4675573  19.8890066
  15.2466824  64.6416225  19.5276700  13.8982416  65.2869990  19.7665795
   8.5461844  71.5872674  11.5679499   9.4489091  71.6196284  11.8845994
   8.3199214  70.6573125  11.5825835   6.1919763  54.5462343  18.4872939
   7.0551225  54.1899147  18.6976264   5.6185174  54.2076237  19.1748343
  26.0368140  76.1764199   9.2935340  26.6746550  76.0570946   8.5898680
  25.9188983  77.1245043   9.3523292  22.8457846  76.1291627   9.2296865
  22.5076358  76.0132692   8.3417400  23.7147614  75.7282792   9.2097871
  23.3277629  77.2826479  15.1883070  23.3166270  76.8879277  14.3163574
  23.4898269  76.5492551  15.7816842  20.0484890  80.0663591  14.1362254
  19.7574756  80.9709221  14.0208921  20.6841875  80.1080118  14.8506324
  20.9741097  77.4440439  10.7263614  21.5704669  77.2196461  10.0120577
  21.0316069  76.7025185  11.3289062  25.5909408  73.9015653   6.3688548
  26.3772498  73.4835076   6.0178965  25.8548113  74.8061745   6.5370197
  30.9917836  73.8390886   7.2721527  31.7243007  73.2690103   7.5059356
  30.2357191  73.4512486   7.7128032  22.6093955  76.2618127   4.4684869
  22.2452162  75.7348748   5.1797791  23.4661071  75.8716597   4.2951355
  28.5143256  67.5512460  11.7316135  28.1826581  68.4207871  11.5077350
  27.9188869  67.2348744  12.4110166  25.0074775  79.7525006  11.1312048
  24.7075498  80.6550045  11.0227855  24.6625835  79.4857189  11.9833201
  18.4587257  76.2038803   7.1648752  17.5337753  76.0715017   7.3726444
  18.7071670  76.9833022   7.6618695  28.4071919  72.2707546   8.8109485
  27.4988797  72.2022955   8.5168246  28.3559515  72.7479491   9.6391311
  22.4812785  73.6897192  16.7544383  21.7046119  74.2491112  16.7447247
  23.1203348  74.1753975  17.2759253  30.2733566  70.4723985  10.5887359
  29.6307946  70.7656518   9.9427154  29.7688494  70.3576905  11.3940556
  27.9273729  74.2187158   1.2773219  28.8391585  74.4514545   1.1020916
  27.4183376  74.8024202   0.7148297  20.7359157  76.4982645  16.3162350
  21.4773842  77.0367689  16.0397173  20.0296143  77.1248934  16.4733901
  26.2114497  78.6411786  14.9134511  26.6197853  78.1994196  14.1689144
  25.4891758  78.0664413  15.1668704  22.5645567  73.5784392  12.2868068
  23.4106762  74.0023806  12.4302717  22.5044205  72.9218017  12.9806631
  26.5343312  79.2012976   8.6686800  25.9052174  79.3658690   7.9662868
  26.1468974  79.6154586   9.4397764  30.4132543  80.1367414   6.0231164
  29.7283582  80.5166316   5.4728197  30.4976393  80.7462741   6.7563112
  25.7145012  71.2388761  13.9449242  25.4705944  71.9930821  13.4083517
  25.9904943  71.6174108  14.7796489  27.6683475  77.7827373  12.6226507
  27.8800370  78.4259133  11.9460888  27.6213223  76.9489690  12.1548437
  25.2709704  70.3945194   9.5263079  24.4094183  70.6926447   9.8179817
  25.2972139  70.6115593   8.5944112  22.0871273  78.9387384   5.9336885
  22.5509619  79.2175087   5.1441508  21.8228072  78.0370829   5.7509976
  18.9795355  78.4858866   8.8716648  19.5496712  78.9146134   8.2334133
  19.5703466  78.2041451   9.5700834  19.4720521  73.6522293  17.1177660
  18.8419182  74.3338574  17.3513056  19.3656609  73.5405375  16.1730798
  28.7829303  80.6599329  10.7948865  29.6046747  80.2579516  10.5131546
  28.7791706  80.5567563  11.7464980  22.5485906  80.2083372  12.9509575
  22.6130339  80.6703779  13.7867747  21.8396830  79.5780737  13.0791885
  13.0503196  73.5724580  10.4758575  13.3011235  74.4571590  10.7416151
  13.5862745  73.3929181   9.7033666  36.8735296  77.0038077   7.1433836
  36.1199004  76.4345475   6.9877841  37.0082837  76.9700742   8.0904471
  18.7501264  67.9543059  19.4802911  18.3568209  67.4009258  20.1550555
  19.5667404  68.2653638  19.8709428  21.6669225  69.3700938  17.0723167
  22.4078938  69.9708091  16.9927630  21.8987148  68.6278576  16.5141210
  16.8110563  74.5557306  15.3501397  16.6964078  73.6542563  15.6508496
  15.9555081  74.8021002  14.9986213  23.8902401  82.4975046  16.9488898
  23.4466255  81.7111424  16.6309802  24.5519614  82.6854196  16.2832788
  18.6489522  84.0270847  11.4749576  19.1996947  83.8987911  10.7026570
  17.8100998  84.3265736  11.1244469  25.9883639  82.7777846  14.9770299
  25.9702114  83.5986727  14.4850568  26.9103559  82.6531921  15.2020440
  22.4456693  80.2921975  15.8193807  22.9785030  79.5310263  15.5893115
  21.9170774  79.9995627  16.5617962  25.6126388  65.3982041  11.3487449
  25.2690657  66.2883683  11.2726560  25.9805350  65.2083699  10.4857034
  23.1623781  70.2340353   4.9145122  22.3065378  69.8447204   4.7350761
  23.5750733  70.3132314   4.0544908  24.6922928  67.7686696   9.3136682
  24.1887724  67.7316832   8.5004487  24.9853535  68.6779439   9.3733339
  20.9365814  67.8525426   8.3202864  21.8018811  67.6568235   7.9608753
  21.0043323  67.6235778   9.2472221  30.5510945  78.1423007   1.7913058
  29.7740387  77.8034167   1.3468220  31.2302426  78.1475630   1.1168023
  25.3662974  73.2617744   1.6819665  25.0613109  73.5763894   2.5329808
  26.3193416  73.3399164   1.7246998  28.7902251  77.6156988   8.4479666
  28.1325926  78.3056250   8.5359794  29.5942651  78.0053420   8.7913652
  18.5428133  70.0827634   5.6919231  19.1171885  69.8602816   4.9592424
  19.1299115  70.1516329   6.4447832  27.6007710  75.9701361   6.4983607
  28.1139592  76.6031353   7.0005317  28.2508934  75.3702556   6.1326967
  20.8450801  66.9568883   4.4194300  20.1915213  66.6417900   3.7950915
  20.8031275  66.3344623   5.1454123  24.0788541  73.4450816   8.7441948
  23.1611102  73.6665764   8.5863636  24.4948685  73.5197127   7.8853655
  24.8623589  74.8442232   3.8744628  25.6095408  75.3563629   3.5651750
  25.1315178  74.5226285   4.7349022  28.3669506  80.9507362   4.6262750
  27.9131834  80.1098272   4.6827940  27.7363473  81.5868761   4.9637530
  27.3102426  71.8799348   5.8563417  26.5725183  71.3676735   6.1873660
  27.5629200  71.4399730   5.0446694  26.8102446  82.7883859   5.5612568
  27.1025420  83.3488916   4.8424934  27.3201066  83.0812420   6.3165727
  27.4114053  64.6575600   6.4505187  27.7172930  63.7972964   6.1631102
  28.1366658  65.2493221   6.2504181  21.6835133  74.9529394   6.9581378
  21.7383743  74.0003230   6.8823854  20.8726335  75.1088833   7.4422676
  19.6227493  73.5706453   4.7171757  18.8095359  73.8700624   5.1236949
  20.1186487  73.1762142   5.4346239  25.2201705  74.0348278  13.5486650
  25.5751092  74.2619751  14.4081116  25.8673836  74.3666655  12.9263906
  30.9499442  77.1566714   4.2535979  30.8117340  77.3468310   3.3257169
  30.5935660  77.9186096   4.7104031  19.1141568  71.1424809  10.3332992
  19.7540947  71.0013568   9.6355955  18.2819098  70.8559322   9.9571594
  30.9768821  79.2243241   9.2647251  31.4105328  79.1318530  10.1130305
  31.6900402  79.2000741   8.6267267  24.7096716  82.8245335  10.7980352
  24.7633738  83.3936271  11.5658067  23.8411498  82.9947220  10.4334389
  16.1170184  71.1125134   5.1105978  16.3777001  72.0270467   5.0015139
  16.9387357  70.6449576   5.2602591  17.5895110  72.5262891  12.2804803
  18.2618163  72.3180253  11.6317452  16.7624896  72.3284977  11.8410035
  31.8384371  79.2666941  11.7980136  32.0320261  80.1712752  12.0439411
  31.7384989  78.8074360  12.6318721  23.4920682  69.1524832  14.2970464
  22.8448597  69.8514782  14.2034940  24.2621697  69.5860976  14.6646712
  26.8999479  79.4173684  17.3721017  26.7484986  79.1884236  16.4551101
  26.8904159  80.3744285  17.3852362  23.6684816  76.9905597  12.3567283
  24.5976876  77.1416756  12.1836251  23.2475846  77.0789618  11.5015930
  22.4673148  81.0156261  10.1265821  22.3284233  80.6475046  10.9991759
  21.6787744  81.5303901   9.9549779  24.0178363  80.3937864   7.5154659
  23.6828195  80.3538634   8.4112309  23.5182308  79.7282580   7.0425069
  17.9922607  75.8005494  13.0407240  17.8542405  75.0685733  13.6418779
  18.9027530  75.7114394  12.7591428  20.6204907  75.5125453  12.5290920
  21.3304526  74.8718645  12.4877538  20.5774216  75.7638348  13.4517100
  28.6091686  82.4492807  15.4497499  28.5504232  81.7652027  14.7828082
  29.0111205  83.1911797  14.9978125  19.3333841  72.4990671  14.3486559
  18.7971198  72.0481410  15.0008155  18.7450550  72.6336580  13.6057023
  28.6109093  80.4132391  13.6811479  27.7235872  80.0758312  13.8037877
  29.1807644  79.6815422  13.9180244  15.0672963  71.6346679  11.4339554
  14.9831151  71.0272348  10.6989964  14.2455669  72.1255697  11.4349050
  22.1410247  85.0733843  10.6472722  22.0680418  85.8788814  11.1592026
  21.6987640  85.2725809   9.8220743  25.2396677  70.1200242   6.8009749
  25.7365376  69.3670205   6.4810819  24.4683658  70.1564559   6.2352958
  33.0926434  75.8240608   8.4428040  33.0816310  76.7065323   8.0721973
  32.2243813  75.4712159   8.2482577  24.6008930  84.9720677  12.8030880
  25.3136903  85.6068142  12.7306782  24.1098959  85.0684543  11.9870882
  26.3226457  78.8771930   4.3748172  25.3882736  78.9973392   4.2052876
  26.5003126  77.9744396   4.1108182  21.8231645  72.2617625   6.5281433
  21.4529433  71.7088666   7.2162339  22.3190738  71.6575759   5.9756433
  29.7099009  74.7189249   4.9098206  30.1759461  75.5517240   4.8358509
  30.1606509  74.2534230   5.6143465  19.6520844  82.7215120  13.6236451
  20.3530303  83.3551603  13.7765845  19.1815959  83.0629852  12.8632090
  27.7775240  81.0633070   1.9084358  28.0535084  80.9489665   2.8178232
  26.9079738  80.6650555   1.8696531  27.6815671  67.0869836   8.9489108
  26.7678751  67.3174063   9.1171314  28.1108773  67.1708280   9.8003140
  27.4522130  75.2759728  11.4489002  26.7993580  75.5235635  10.7941454
  27.8302510  74.4623866  11.1151479  23.5009703  76.0179539  17.9355039
  22.8250340  75.9173668  18.6057414  24.3237337  75.8618753  18.3991036
  22.2432486  87.3246466  12.1712655  22.7950794  87.4878088  12.9361740
  22.5838679  87.9150904  11.4992680  17.2196979  69.6721616  12.7734539
  17.2838305  70.5336447  12.3611937  17.1564099  69.0595618  12.0406898
  16.6949251  71.7444749  16.4207574  17.3221290  71.3621826  17.0345098
  15.8377170  71.5258951  16.7863266  27.0943360  82.1507724  18.0261309
  27.6383264  82.7637682  17.5316264  26.5130205  82.7087302  18.5428322
  25.3800873  85.2728442   9.1576337  25.2552012  84.4718182   8.6487282
  26.0379964  85.7674635   8.6690307  17.0009041  71.6277174   8.3353477
  16.2795627  72.2413142   8.1960950  17.7902297  72.1634939   8.2570123
  27.4435781  83.0737462  10.7855887  26.4966117  82.9542813  10.7134214
  27.7918554  82.1859960  10.8682148  19.8035355  68.9631601  14.6094129
  20.3269757  69.2093897  15.3720438  19.5847688  69.7951636  14.1897266
  24.4482215  82.8690178   6.9860239  24.3007177  81.9406886   7.1667809
  25.2735708  82.8910269   6.5017314  28.0516337  83.6918737   8.0725112
  28.9762884  83.4861598   7.9349563  27.8831640  83.4435138   8.9814453
  21.0087900  69.9045296  12.2943799  20.6684720  69.1053109  12.6964479
  20.3026906  70.2047007  11.7220633  21.6604372  66.9894608  10.7471122
  22.4830441  66.5155087  10.6250013  21.9042435  67.7685092  11.2469809
  24.4443729  70.7228016   1.9792356  24.6607343  71.6052654   1.6781185
  23.9637796  70.3314229   1.2497998  19.1842950  73.6813729   8.5563101
  19.0387531  73.9954032   9.4487382  18.7068154  74.2998629   8.0034000
  21.0439333  70.6716277   8.6043991  21.0300902  69.7757370   8.2676288
  21.7611761  70.6786941   9.2382277  22.8965464  71.1053617  10.6497118
  22.6383242  72.0270688  10.6481448  22.3650504  70.7084052  11.3397582
  27.8411653  84.2104404   3.4287203  28.0148530  83.6450827   2.6761056
  28.3340544  85.0105299   3.2466693  13.6588613  76.2219073  11.4950762
  13.1142081  76.9978881  11.6271036  14.5367962  76.5689878  11.3369884
  20.4476229  69.5530657   3.8731561  20.5692140  68.6247303   4.0722448
  20.1578272  69.5669343   2.9609876  23.3167420  67.2385568   7.0098281
  23.3389116  67.3024901   6.0550260  23.7335479  66.3990076   7.2038787
  33.6951044  76.9740827   5.0477503  34.1382190  76.2248152   4.6496626
  32.8177554  76.9650964   4.6651235  14.4454634  75.3488970  14.3880919
  13.7036370  75.4971605  14.9745549  14.1247379  75.6097235  13.5247668
  30.7278248  80.9770874   2.0571432  31.2529572  81.3158147   1.3320752
  30.6400601  80.0417890   1.8734567  22.3898297  84.8904948  14.1861309
  22.6985423  84.6454095  15.0584009  23.1873779  85.0951586  13.6980179
  19.9317309  71.0662655  18.0821493  19.9805464  71.9424777  17.6999263
  20.4739823  70.5240048  17.5093136  30.4172154  81.6103778  17.3622630
  29.6267698  81.5927917  16.8227130  30.1805509  82.1492072  18.1171667
  30.5370029  78.4596244  14.6755359  30.5868034  78.2946252  15.6170882
  30.4283953  77.5923503  14.2853240  27.8273792  74.4427172  15.9914666
  28.7283655  74.3033637  15.6998663  27.9021766  74.6081627  16.9312843
  22.1616597  71.8194027  14.8367852  21.2919907  72.1127593  14.5650440
  22.3976078  72.4034472  15.5575116  32.0388226  80.8793186  14.9197380
  31.7473035  81.2423166  15.7560841  31.4260358  80.1660194  14.7410712
  33.2383909  78.4446066   7.4399951  34.0730800  78.8835870   7.6037511
  33.3743037  77.9684719   6.6208196  30.2875415  76.0025800  13.3877438
  30.7629536  76.1953447  12.5796290  29.3640980  76.0584986  13.1420822
  24.8655631  68.0373644  12.3533272  25.3837575  68.7734671  12.0279761
  24.5110764  68.3437637  13.1880031  25.1168225  64.4573927   7.8734169
  25.3969979  63.7897116   8.4994595  25.9018832  64.6503022   7.3608833
  28.9877084  72.8791560  11.6205744  29.9394506  72.9789658  11.6417968
  28.8180534  72.0869829  12.1303828  27.0091463  69.9647144  11.8065145
  26.4141395  70.2452156  11.1111634  26.7241160  70.4541045  12.5781886
  31.4665161  76.0997680  10.7348044  31.4341481  75.1613681  10.9207727
  32.0765785  76.1781717  10.0013869  31.6159650  72.8908724  10.7806327
  31.0998698  72.1067180  10.5936256  32.4999598  72.5627440  10.9452846
  29.2770377  66.6349739   6.7402140  29.0795198  66.3264827   7.6245471
  29.8870082  67.3611378   6.8700069  37.2841711  77.1613687   9.8754080
  38.0145100  76.8998975  10.4361784  36.6748657  76.4242409   9.9156148
  35.3657008  75.3021550  10.4728532  34.6390172  75.1677515   9.8645023
  34.9504295  75.6098378  11.2785250  23.1887185  79.0211479  18.2375905
  24.1090194  79.1990078  18.4315951  23.1536768  78.0767525  18.0855604
  16.1849257  76.9312514  10.8798686  16.4035267  77.8629622  10.8986720
  16.5975031  76.5720488  11.6653490  23.1053475  67.4380599   2.8674374
  22.2954203  67.0927684   3.2429620  23.7937892  67.1288143   3.4561986
  25.0344023  66.5158646   4.4898671  25.5875062  66.9354099   5.1488694
  25.2714110  65.5894394   4.5321627  21.0577123  72.5045720  20.2701435
  20.9573849  73.4540077  20.2013526  20.8398665  72.1763959  19.3977505
  28.4122830  68.6259171   3.9977335  27.8321499  69.2843975   3.6155388
  28.1458763  67.8036516   3.5864753  26.8626397  68.0264229   6.1998655
  27.3626175  68.1380763   5.3912974  27.5062005  67.7225282   6.8399464
  20.9208393  75.9342859  19.0866496  20.4375474  76.7343219  19.2930385
  21.0069332  75.9450803  18.1333940  16.8481730  79.8247393  11.1234930
  17.8024984  79.7931336  11.0564862  16.6494254  79.3638017  11.9385156
  17.4381112  78.3948509  13.6905728  18.2574001  78.8892588  13.7140565
  17.7117920  77.4780477  13.6623295  27.1947708  70.7859262   3.0533683
  26.3073563  71.0708912   2.8353878  27.6101698  70.6253025   2.2060960
  30.5462245  70.8105783   6.7688023  31.3222635  71.3002235   7.0412639
  29.8210379  71.2363837   7.2259892  32.9834803  71.5233402   7.8261963
  33.5779294  71.2829138   7.1155271  33.0561387  70.8040532   8.4535500
  27.1688732  76.3013798   3.2683974  27.1123934  76.7582349   2.4291606
  27.7217075  75.5404482   3.0906816  30.9793538  72.0903529   4.0934093
  30.7230472  71.6900165   4.9242301  30.3546406  72.8047323   3.9684232
  35.2905876  74.8299603   6.6005384  34.7305434  74.8992792   7.3736947
  34.6849379  74.6540587   5.8804881  27.9023511  77.4918579   0.5636503
  27.8472315  77.3262850  -0.3775053  27.2769567  78.1994612   0.7198692
  12.6916026  72.7286643  14.3897925  13.3374890  72.2185597  14.8785150
  12.4833178  73.4655325  14.9641350  25.2169419  79.7967491  19.8890066
  26.0860578  79.9708143  19.5276700  24.7376170  80.6161907  19.7665795
  21.2119637  66.9926688   0.1421821  21.1998307  67.9368528   0.2990092
  22.1043059  66.8096833  -0.1518718  19.3855599  86.9164592  11.5679499
  20.2882846  86.9488202  11.8845994  19.1592969  85.9865043  11.5825835
  25.0271756  63.5869464   4.3967758  24.2604152  63.0327951   4.5424440
  25.4382461  63.6591333   5.2581910  17.0313517  69.8754260  18.4872939
  17.8944979  69.5191065  18.6976264  16.4578928  69.5368155  19.1748343
  36.8761894  91.5056117   9.2935340  37.5140304  91.3862864   8.5898680
  36.7582737  92.4536961   9.3523292  33.6851601  91.4583545   9.2296865
  33.3470112  91.3424609   8.3417400  34.5541369  91.0574710   9.2097871
  34.1671384  92.6118396  15.1883070  34.1560024  92.2171195  14.3163574
  34.3292023  91.8784469  15.7816842  30.8878645  95.3955508  14.1362254
  30.5968511  96.3001139  14.0208921  31.5235629  95.4372036  14.8506324
  31.8134852  92.7732357  10.7263614  32.4098424  92.5488379  10.0120577
  31.8709823  92.0317102  11.3289062  36.4303163  89.2307570   6.3688548
  37.2166252  88.8126994   6.0178965  36.6941867  90.1353663   6.5370197
  41.8311590  89.1682804   7.2721527  42.5636762  88.5982020   7.5059356
  41.0750946  88.7804404   7.7128032  33.4487710  91.5910045   4.4684869
  33.0845917  91.0640666   5.1797791  34.3054826  91.2008514   4.2951355
  39.3537010  82.8804378  11.7316135  39.0220335  83.7499789  11.5077350
  38.7582624  82.5640662  12.4110166  35.8468530  95.0816924  11.1312048
  35.5469253  95.9841963  11.0227855  35.5019589  94.8149107  11.9833201
  29.2981011  91.5330721   7.1648752  28.3731508  91.4006935   7.3726444
  29.5465425  92.3124940   7.6618695  39.2465674  87.5999464   8.8109485
  38.3382551  87.5314872   8.5168246  39.1953269  88.0771409   9.6391311
  33.3206539  89.0189110  16.7544383  32.5439874  89.5783030  16.7447247
  33.9597103  89.5045892  17.2759253  41.1127320  85.8015902  10.5887359
  40.4701700  86.0948435   9.9427154  40.6082249  85.6868823  11.3940556
  38.7667484  89.5479076   1.2773219  39.6785340  89.7806462   1.1020916
  38.2577131  90.1316120   0.7148297  31.5752912  91.8274563  16.3162350
  32.3167596  92.3659607  16.0397173  30.8689897  92.4540852  16.4733901
  37.0508251  93.9703703  14.9134511  37.4591607  93.5286114  14.1689144
  36.3285513  93.3956331  15.1668704  33.4039321  88.9076310  12.2868068
  34.2500517  89.3315724  12.4302717  33.3437959  88.2509934  12.9806631
  37.3737066  94.5304894   8.6686800  36.7445929  94.6950608   7.9662868
  36.9862728  94.9446504   9.4397764  41.2526298  95.4659332   6.0231164
  40.5677336  95.8458233   5.4728197  41.3370147  96.0754658   6.7563112
  36.5538767  86.5680678  13.9449242  36.3099699  87.3222739  13.4083517
  36.8298697  86.9466026  14.7796489  38.5077230  93.1119291  12.6226507
  38.7194125  93.7551051  11.9460888  38.4606978  92.2781607  12.1548437
  36.1103459  85.7237111   9.5263079  35.2487938  86.0218365   9.8179817
  36.1365893  85.9407510   8.5944112  32.9265028  94.2679302   5.9336885
  33.3903373  94.5467005   5.1441508  32.6621826  93.3662747   5.7509976
  29.8189109  93.8150784   8.8716648  30.3890466  94.2438052   8.2334133
  30.4097221  93.5333368   9.5700834  30.3114276  88.9814211  17.1177660
  29.6812936  89.6630492  17.3513056  30.2050363  88.8697293  16.1730798
  39.6223058  95.9891246  10.7948865  40.4440501  95.5871434  10.5131546
  39.6185460  95.8859480  11.7464980  33.3879661  95.5375290  12.9509575
  33.4524093  95.9995697  13.7867747  32.6790585  94.9072654  13.0791885
  23.8896951  88.9016498  10.4758575  24.1404989  89.7863507  10.7416151
  24.4256499  88.7221099   9.7033666  47.7129051  92.3329995   7.1433836
  46.9592759  91.7637393   6.9877841  47.8476592  92.2992659   8.0904471
  29.5895018  83.2834977  19.4802911  29.1961964  82.7301175  20.1550555
  30.4061159  83.5945555  19.8709428  32.5062979  84.6992856  17.0723167
  33.2472693  85.3000009  16.9927630  32.7380902  83.9570494  16.5141210
  27.6504317  89.8849223  15.3501397  27.5357832  88.9834480  15.6508496
  26.7948835  90.1312920  14.9986213  34.7296155  97.8266964  16.9488898
  34.2860009  97.0403342  16.6309802  35.3913369  98.0146114  16.2832788
  29.4883276  99.3562765  11.4749576  30.0390701  99.2279829  10.7026570
  28.6494752  99.6557654  11.1244469  36.8277393  98.1069763  14.9770299
  36.8095868  98.9278645  14.4850568  37.7497313  97.9823839  15.2020440
  33.2850447  95.6213893  15.8193807  33.8178784  94.8602181  15.5893115
  32.7564528  95.3287545  16.5617962  36.4520142  80.7273959  11.3487449
  36.1084412  81.6175601  11.2726560  36.8199105  80.5375617  10.4857034
  34.0017536  85.5632271   4.9145122  33.1459132  85.1739121   4.7350761
  34.4144488  85.6424232   4.0544908  35.5316683  83.0978614   9.3136682
  35.0281478  83.0608749   8.5004487  35.8247289  84.0071357   9.3733339
  31.7759568  83.1817344   8.3202864  32.6412565  82.9860152   7.9608753
  31.8437077  82.9527696   9.2472221  41.3904699  93.4714925   1.7913058
  40.6134142  93.1326084   1.3468220  42.0696180  93.4767548   1.1168023
  36.2056728  88.5909662   1.6819665  35.9006864  88.9055811   2.5329808
  37.1587170  88.6691082   1.7246998  39.6296006  92.9448906   8.4479666
  38.9719680  93.6348167   8.5359794  40.4336405  93.3345338   8.7913652
  29.3821888  85.4119552   5.6919231  29.9565639  85.1894733   4.9592424
  29.9692870  85.4808246   6.4447832  38.4401465  91.2993279   6.4983607
  38.9533346  91.9323270   7.0005317  39.0902689  90.6994474   6.1326967
  31.6844555  82.2860801   4.4194300  31.0308968  81.9709818   3.7950915
  31.6425029  81.6636541   5.1454123  34.9182296  88.7742734   8.7441948
  34.0004857  88.9957681   8.5863636  35.3342439  88.8489045   7.8853655
  35.7017343  90.1734150   3.8744628  36.4489162  90.6855547   3.5651750
  35.9708933  89.8518203   4.7349022  39.2063261  96.2799280   4.6262750
  38.7525588  95.4390190   4.6827940  38.5757228  96.9160678   4.9637530
  38.1496181  87.2091266   5.8563417  37.4118937  86.6968652   6.1873660
  38.4022954  86.7691648   5.0446694  37.6496200  98.1175777   5.5612568
  37.9419175  98.6780834   4.8424934  38.1594821  98.4104338   6.3165727
  38.2507808  79.9867518   6.4505187  38.5566685  79.1264882   6.1631102
  38.9760413  80.5785138   6.2504181  32.5228888  90.2821311   6.9581378
  32.5777497  89.3295148   6.8823854  31.7120090  90.4380750   7.4422676
  30.4621247  88.8998371   4.7171757  29.6489113  89.1992541   5.1236949
  30.9580242  88.5054060   5.4346239  36.0595459  89.3640195  13.5486650
  36.4144847  89.5911669  14.4081116  36.7067590  89.6958572  12.9263906
  41.7893196  92.4858631   4.2535979  41.6511095  92.6760227   3.3257169
  41.4329415  93.2478014   4.7104031  29.9535322  86.4716726  10.3332992
  30.5934702  86.3305486   9.6355955  29.1212853  86.1851240   9.9571594
  41.8162576  94.5535158   9.2647251  42.2499082  94.4610447  10.1130305
  42.5294156  94.5292659   8.6267267  35.5490471  98.1537252  10.7980352
  35.6027493  98.7228189  11.5658067  34.6805252  98.3239137  10.4334389
  26.9563939  86.4417051   5.1105978  27.2170756  87.3562385   5.0015139
  27.7781111  85.9741494   5.2602591  28.4288864  87.8554809  12.2804803
  29.1011917  87.6472171  11.6317452  27.6018651  87.6576895  11.8410035
  42.6778125  94.5958859  11.7980136  42.8714015  95.5004669  12.0439411
  42.5778743  94.1366278  12.6318721  34.3314436  84.4816750  14.2970464
  33.6842351  85.1806699  14.2034940  35.1015451  84.9152893  14.6646712
  37.7393234  94.7465602  17.3721017  37.5878740  94.5176153  16.4551101
  37.7297913  95.7036203  17.3852362  34.5078570  92.3197514  12.3567283
  35.4370630  92.4708674  12.1836251  34.0869600  92.4081535  11.5015930
  33.3066902  96.3448179  10.1265821  33.1677988  95.9766963  10.9991759
  32.5181498  96.8595818   9.9549779  34.8572117  95.7229782   7.5154659
  34.5221950  95.6830552   8.4112309  34.3576063  95.0574497   7.0425069
  28.8316361  91.1297412  13.0407240  28.6936159  90.3977650  13.6418779
  29.7421285  91.0406312  12.7591428  31.4598662  90.8417371  12.5290920
  32.1698280  90.2010563  12.4877538  31.4167970  91.0930266  13.4517100
  39.4485441  97.7784724  15.4497499  39.3897987  97.0943944  14.7828082
  39.8504959  98.5203714  14.9978125  30.1727596  87.8282589  14.3486559
  29.6364953  87.3773327  15.0008155  29.5844304  87.9628498  13.6057023
  39.4502848  95.7424308  13.6811479  38.5629627  95.4050230  13.8037877
  40.0201399  95.0107339  13.9180244  25.9066717  86.9638596  11.4339554
  25.8224906  86.3564266  10.6989964  25.0849424  87.4547615  11.4349050
  32.9804001 100.4025761  10.6472722  32.9074173 101.2080732  11.1592026
  32.5381394 100.6017726   9.8220743  36.0790431  85.4492160   6.8009749
  36.5759131  84.6962122   6.4810819  35.3077413  85.4856477   6.2352958
  43.9320188  91.1532526   8.4428040  43.9210065  92.0357241   8.0721973
  43.0637568  90.8004076   8.2482577  35.4402685 100.3012595  12.8030880
  36.1530657 100.9360059  12.7306782  34.9492713 100.3976461  11.9870882
  37.1620212  94.2063847   4.3748172  36.2276490  94.3265310   4.2052876
  37.3396880  93.3036314   4.1108182  32.6625400  87.5909543   6.5281433
  32.2923187  87.0380583   7.2162339  33.1584492  86.9867676   5.9756433
  40.5492763  90.0481167   4.9098206  41.0153215  90.8809158   4.8358509
  41.0000264  89.5826148   5.6143465  30.4914598  98.0507038  13.6236451
  31.1924058  98.6843521  13.7765845  30.0209713  98.3921770  12.8632090
  38.6168994  96.3924988   1.9084358  38.8928838  96.2781582   2.8178232
  37.7473493  95.9942473   1.8696531  38.5209426  82.4161754   8.9489108
  37.6072506  82.6465980   9.1171314  38.9502527  82.5000198   9.8003140
  38.2915884  90.6051645  11.4489002  37.6387335  90.8527553  10.7941454
  38.6696264  89.7915784  11.1151479  34.3403457  91.3471457  17.9355039
  33.6644094  91.2465586  18.6057414  35.1631091  91.1910670  18.3991036
  33.0826240 102.6538384  12.1712655  33.6344548 102.8170005  12.9361740
  33.4232434 103.2442822  11.4992680  28.0590733  85.0013534  12.7734539
  28.1232060  85.8628365  12.3611937  27.9957854  84.3887535  12.0406898
  27.5343006  87.0736666  16.4207574  28.1615045  86.6913744  17.0345098
  26.6770925  86.8550868  16.7863266  37.9337115  97.4799641  18.0261309
  38.4777019  98.0929600  17.5316264  37.3523959  98.0379220  18.5428322
  36.2194627 100.6020360   9.1576337  36.0945767  99.8010099   8.6487282
  36.8773719 101.0966553   8.6690307  27.8402796  86.9569092   8.3353477
  27.1189381  87.5705060   8.1960950  28.6296051  87.4926857   8.2570123
  38.2829536  98.4029380  10.7855887  37.3359871  98.2834731  10.7134214
  38.6312309  97.5151878  10.8682148  30.6429109  84.2923519  14.6094129
  31.1663511  84.5385815  15.3720438  30.4241442  85.1243553  14.1897266
  35.2875969  98.1982096   6.9860239  35.1400932  97.2698803   7.1667809
  36.1129463  98.2202187   6.5017314  38.8910091  99.0210655   8.0725112
  39.8156638  98.8153516   7.9349563  38.7225394  98.7727056   8.9814453
  31.8481654  85.2337214  12.2943799  31.5078475  84.4345027  12.6964479
  31.1420661  85.5338924  11.7220633  32.4998126  82.3186526  10.7471122
  33.3224195  81.8447004  10.6250013  32.7436190  83.0977010  11.2469809
  35.2837483  86.0519933   1.9792356  35.5001098  86.9344571   1.6781185
  34.8031551  85.6606147   1.2497998  30.0236705  89.0105647   8.5563101
  29.8781286  89.3245950   9.4487382  29.5461908  89.6290547   8.0034000
  31.8833088  86.0008195   8.6043991  31.8694656  85.1049288   8.2676288
  32.6005516  86.0078858   9.2382277  33.7359218  86.4345535  10.6497118
  33.4776996  87.3562606  10.6481448  33.2044259  86.0375969  11.3397582
  38.6805407  99.5396322   3.4287203  38.8542285  98.9742744   2.6761056
  39.1734298 100.3397217   3.2466693  24.4982367  91.5510991  11.4950762
  23.9535835  92.3270799  11.6271036  25.3761717  91.8981796  11.3369884
  31.2869984  84.8822575   3.8731561  31.4085895  83.9539221   4.0722448
  30.9972026  84.8961261   2.9609876  34.1561174  82.5677485   7.0098281
  34.1782871  82.6316818   6.0550260  34.5729233  81.7281994   7.2038787
  44.5344798  92.3032745   5.0477503  44.9775944  91.5540070   4.6496626
  43.6571309  92.2942881   4.6651235  25.2848389  90.6780887  14.3880919
  24.5430125  90.8263523  14.9745549  24.9641133  90.9389153  13.5247668
  41.5672003  96.3062792   2.0571432  42.0923327  96.6450065   1.3320752
  41.4794355  95.3709807   1.8734567  33.2292052 100.2196866  14.1861309
  33.5379178  99.9746012  15.0584009  34.0267534 100.4243504  13.6980179
  30.7711063  86.3954572  18.0821493  30.8199219  87.2716695  17.6999263
  31.3133577  85.8531965  17.5093136  41.2565909  96.9395696  17.3622630
  40.4661453  96.9219834  16.8227130  41.0199263  97.4783989  18.1171667
  41.3763784  93.7888162  14.6755359  41.4261789  93.6238169  15.6170882
  41.2677707  92.9215421  14.2853240  38.6667546  89.7719090  15.9914666
  39.5677409  89.6325555  15.6998663  38.7415521  89.9373545  16.9312843
  33.0010352  87.1485945  14.8367852  32.1313661  87.4419511  14.5650440
  33.2369832  87.7326390  15.5575116  42.8781981  96.2085103  14.9197380
  42.5866789  96.5715084  15.7560841  42.2654112  95.4952112  14.7410712
  44.0777663  93.7737983   7.4399951  44.9124554  94.2127787   7.6037511
  44.2136792  93.2976636   6.6208196  41.1269169  91.3317718  13.3877438
  41.6023291  91.5245364  12.5796290  40.2034734  91.3876904  13.1420822
  35.7049385  83.3665562  12.3533272  36.2231329  84.1026589  12.0279761
  35.3504518  83.6729555  13.1880031  35.9561980  79.7865844   7.8734169
  36.2363733  79.1189033   8.4994595  36.7412587  79.9794940   7.3608833
  39.8270838  88.2083478  11.6205744  40.7788261  88.3081576  11.6417968
  39.6574288  87.4161747  12.1303828  37.8485217  85.2939061  11.8065145
  37.2535150  85.5744074  11.1111634  37.5634914  85.7832962  12.5781886
  42.3058916  91.4289598  10.7348044  42.2735236  90.4905599  10.9207727
  42.9159539  91.5073635  10.0013869  42.4553404  88.2200641  10.7806327
  41.9392453  87.4359098  10.5936256  43.3393353  87.8919358  10.9452846
  40.1164131  81.9641657   6.7402140  39.9188952  81.6556745   7.6245471
  40.7263837  82.6903296   6.8700069  48.1235466  92.4905605   9.8754080
  48.8538854  92.2290893  10.4361784  47.5142411  91.7534327   9.9156148
  46.2050763  90.6313467  10.4728532  45.4783926  90.4969432   9.8645023
  45.7898050  90.9390296  11.2785250  34.0280939  94.3503397  18.2375905
  34.9483949  94.5281996  18.4315951  33.9930522  93.4059442  18.0855604
  27.0243012  92.2604432  10.8798686  27.2429022  93.1921539  10.8986720
  27.4368786  91.9012406  11.6653490  33.9447230  82.7672517   2.8674374
  33.1347958  82.4219602   3.2429620  34.6331646  82.4580061   3.4561986
  35.8737778  81.8450564   4.4898671  36.4268816  82.2646017   5.1488694
  36.1107864  80.9186312   4.5321627  31.8970877  87.8337637  20.2701435
  31.7967604  88.7831994  20.2013526  31.6792419  87.5055876  19.3977505
  39.2516585  83.9551089   3.9977335  38.6715254  84.6135893   3.6155388
  38.9852518  83.1328434   3.5864753  37.7020151  83.3556147   6.1998655
  38.2019930  83.4672681   5.3912974  38.3455759  83.0517199   6.8399464
  31.7602147  91.2634776  19.0866496  31.2769229  92.0635136  19.2930385
  31.8463086  91.2742721  18.1333940  27.6875485  95.1539311  11.1234930
  28.6418738  95.1223253  11.0564862  27.4888008  94.6929935  11.9385156
  28.2774867  93.7240427  13.6905728  29.0967756  94.2184506  13.7140565
  28.5511674  92.8072395  13.6623295  38.0341463  86.1151179   3.0533683
  37.1467318  86.4000830   2.8353878  38.4495452  85.9544943   2.2060960
  41.3855999  86.1397700   6.7688023  42.1616389  86.6294153   7.0412639
  40.6604133  86.5655754   7.2259892  43.8228558  86.8525319   7.8261963
  44.4173048  86.6121055   7.1155271  43.8955141  86.1332450   8.4535500
  38.0082487  91.6305715   3.2683974  37.9517688  92.0874267   2.4291606
  38.5610829  90.8696400   3.0906816  41.8187293  87.4195447   4.0934093
  41.5624227  87.0192083   4.9242301  41.1940161  88.1339241   3.9684232
  46.1299630  90.1591520   6.6005384  45.5699188  90.2284710   7.3736947
  45.5243134  89.9832505   5.8804881  38.7417266  92.8210496   0.5636503
  38.6866070  92.6554768  -0.3775053  38.1163321  93.5286529   0.7198692
  23.5309781  88.0578561  14.3897925  24.1768645  87.5477515  14.8785150
  23.3226932  88.7947242  14.9641350  36.0563173  95.1259408  19.8890066
  36.9254333  95.3000061  19.5276700  35.5769925  95.9453825  19.7665795
  32.0513391  82.3218605   0.1421821  32.0392061  83.2660445   0.2990092
  32.9436813  82.1388751  -0.1518718  30.2249353 102.2456509  11.5679499
  31.1276600 102.2780120  11.8845994  29.9986723 101.3156960  11.5825835
  35.8665511  78.9161382   4.3967758  35.0997907  78.3619869   4.5424440
  36.2776216  78.9883251   5.2581910  27.8707272  85.2046178  18.4872939
  28.7338734  84.8482983  18.6976264  27.2972683  84.8660073  19.1748343
  47.7155649 106.8348034   9.2935340  48.3534059 106.7154782   8.5898680
  47.5976492 107.7828878   9.3523292  44.5245355 106.7875462   9.2296865
  44.1863867 106.6716527   8.3417400  45.3935123 106.3866627   9.2097871
  45.0065138 107.9410314  15.1883070  44.9953779 107.5463112  14.3163574
  45.1685778 107.2076387  15.7816842  41.7272399 110.7247426  14.1362254
  41.4362265 111.6293057  14.0208921  42.3629384 110.7663954  14.8506324
  42.6528606 108.1024274  10.7263614  43.2492178 107.8780297  10.0120577
  42.7103578 107.3609020  11.3289062  50.1930765  98.2096295  11.7316135
  49.8614090  99.0791706  11.5077350  49.5976378  97.8932579  12.4110166
  46.6862284 110.4108841  11.1312048  46.3863007 111.3133880  11.0227855
  46.3413344 110.1441025  11.9833201  40.1374766 106.8622638   7.1648752
  39.2125262 106.7298852   7.3726444  40.3859179 107.6416858   7.6618695
  50.0859428 102.9291382   8.8109485  49.1776306 102.8606790   8.5168246
  50.0347024 103.4063327   9.6391311  44.1600294 104.3481027  16.7544383
  43.3833628 104.9074947  16.7447247  44.7990857 104.8337810  17.2759253
  51.9521075 101.1307820  10.5887359  51.3095455 101.4240353   9.9427154
  51.4476003 101.0160740  11.3940556  42.4146666 107.1566481  16.3162350
  43.1561351 107.6951525  16.0397173  41.7083652 107.7832769  16.4733901
  47.8902006 109.2995621  14.9134511  48.2985362 108.8578032  14.1689144
  47.1679267 108.7248249  15.1668704  44.2433076 104.2368228  12.2868068
  45.0894271 104.6607641  12.4302717  44.1831714 103.5801852  12.9806631
  47.3932521 101.8972596  13.9449242  47.1493453 102.6514657  13.4083517
  47.6692452 102.2757944  14.7796489  49.3470984 108.4411209  12.6226507
  49.5587879 109.0842968  11.9460888  49.3000732 107.6073525  12.1548437
  46.9497213 101.0529029   9.5263079  46.0881692 101.3510283   9.8179817
  46.9759648 101.2699428   8.5944112  40.6582863 109.1442701   8.8716648
  41.2284221 109.5729970   8.2334133  41.2490975 108.8625286   9.5700834
  41.1508030 104.3106129  17.1177660  40.5206691 104.9922410  17.3513056
  41.0444118 104.1989210  16.1730798  44.2273415 110.8667207  12.9509575
  44.2917848 111.3287614  13.7867747  43.5184339 110.2364572  13.0791885
  34.7290705 104.2308415  10.4758575  34.9798744 105.1155425  10.7416151
  35.2650254 104.0513017   9.7033666  40.4288773  98.6126895  19.4802911
  40.0355718  98.0593093  20.1550555  41.2454913  98.9237473  19.8709428
  43.3456734 100.0284774  17.0723167  44.0866447 100.6291927  16.9927630
  43.5774657  99.2862411  16.5141210  38.4898072 105.2141141  15.3501397
  38.3751587 104.3126398  15.6508496  37.6342589 105.4604838  14.9986213
  45.5689909 113.1558881  16.9488898  45.1253764 112.3695260  16.6309802
  46.2307123 113.3438032  16.2832788  40.3277031 114.6854683  11.4749576
  40.8784456 114.5571746  10.7026570  39.4888507 114.9849572  11.1244469
  47.6671148 113.4361681  14.9770299  47.6489623 114.2570562  14.4850568
  48.5891068 113.3115756  15.2020440  44.1244202 110.9505811  15.8193807
  44.6572538 110.1894099  15.5893115  43.5958283 110.6579462  16.5617962
  47.2913897  96.0565877  11.3487449  46.9478166  96.9467518  11.2726560
  47.6592859  95.8667534  10.4857034  44.8411290 100.8924188   4.9145122
  43.9852887 100.5031039   4.7350761  45.2538242 100.9716149   4.0544908
  46.3710437  98.4270532   9.3136682  45.8675233  98.3900667   8.5004487
  46.6641044  99.3363274   9.3733339  42.6153323  98.5109261   8.3202864
  43.4806320  98.3152070   7.9608753  42.6830832  98.2819613   9.2472221
  40.2215642 100.7411469   5.6919231  40.7959394 100.5186651   4.9592424
  40.8086624 100.8100164   6.4447832  42.5238310  97.6152718   4.4194300
  41.8702722  97.3001735   3.7950915  42.4818784  96.9928459   5.1454123
  45.7576050 104.1034652   8.7441948  44.8398611 104.3249599   8.5863636
  46.1736194 104.1780962   7.8853655  49.0901562  95.3159436   6.4505187
  49.3960439  94.4556799   6.1631102  49.8154167  95.9077056   6.2504181
  43.3622642 105.6113229   6.9581378  43.4171252 104.6587065   6.8823854
  42.5513844 105.7672668   7.4422676  41.3015002 104.2290289   4.7171757
  40.4882868 104.5284459   5.1236949  41.7973996 103.8345977   5.4346239
  46.8989214 104.6932113  13.5486650  47.2538601 104.9203586  14.4081116
  47.5461345 105.0250490  12.9263906  40.7929077 101.8008644  10.3332992
  41.4328456 101.6597403   9.6355955  39.9606607 101.5143158   9.9571594
  37.7957693 101.7708969   5.1105978  38.0564510 102.6854302   5.0015139
  38.6174865 101.3033412   5.2602591  39.2682618 103.1846726  12.2804803
  39.9405672 102.9764088  11.6317452  38.4412405 102.9868812  11.8410035
  45.1708191  99.8108667  14.2970464  44.5236106 100.5098617  14.2034940
  45.9409206 100.2444811  14.6646712  48.5786988 110.0757519  17.3721017
  48.4272495 109.8468071  16.4551101  48.5691668 111.0328121  17.3852362
  45.3472325 107.6489432  12.3567283  46.2764385 107.8000592  12.1836251
  44.9263355 107.7373453  11.5015930  44.1460657 111.6740097  10.1265821
  44.0071742 111.3058881  10.9991759  43.3575253 112.1887736   9.9549779
  39.6710116 106.4589329  13.0407240  39.5329914 105.7269568  13.6418779
  40.5815039 106.3698229  12.7591428  42.2992416 106.1709289  12.5290920
  43.0092035 105.5302481  12.4877538  42.2561725 106.4222183  13.4517100
  50.2879195 113.1076642  15.4497499  50.2291741 112.4235862  14.7828082
  50.6898713 113.8495632  14.9978125  41.0121350 103.1574506  14.3486559
  40.4758707 102.7065245  15.0008155  40.4238059 103.2920415  13.6057023
  50.2896602 111.0716226  13.6811479  49.4023381 110.7342148  13.8037877
  50.8595153 110.3399257  13.9180244  36.7460472 102.2930514  11.4339554
  36.6618660 101.6856184  10.6989964  35.9243178 102.7839532  11.4349050
  46.9184185 100.7784078   6.8009749  47.4152885 100.0254040   6.4810819
  46.1471167 100.8148394   6.2352958  43.5019154 102.9201461   6.5281433
  43.1316942 102.3672501   7.2162339  43.9978247 102.3159594   5.9756433
  41.3308353 113.3798956  13.6236451  42.0317812 114.0135439  13.7765845
  40.8603468 113.7213687  12.8632090  49.3603180  97.7453671   8.9489108
  48.4466260  97.9757898   9.1171314  49.7896282  97.8292115   9.8003140
  49.1309639 105.9343563  11.4489002  48.4781089 106.1819471  10.7941454
  49.5090019 105.1207701  11.1151479  45.1797212 106.6763374  17.9355039
  44.5037849 106.5757504  18.6057414  46.0024846 106.5202588  18.3991036
  38.8984488 100.3305451  12.7734539  38.9625814 101.1920282  12.3611937
  38.8351608  99.7179453  12.0406898  38.3736760 102.4028584  16.4207574
  39.0008799 102.0205661  17.0345098  37.5164679 102.1842786  16.7863266
  48.7730869 112.8091559  18.0261309  49.3170773 113.4221517  17.5316264
  48.1917714 113.3671138  18.5428322  38.6796550 102.2861010   8.3353477
  37.9583136 102.8996977   8.1960950  39.4689806 102.8218775   8.2570123
  41.4822864  99.6215436  14.6094129  42.0057266  99.8677733  15.3720438
  41.2635197 100.4535471  14.1897266  42.6875409 100.5629131  12.2943799
  42.3472229  99.7636944  12.6964479  41.9814415 100.8630842  11.7220633
  43.3391881  97.6478444  10.7471122  44.1617950  97.1738922  10.6250013
  43.5829944  98.4268927  11.2469809  40.8630459 104.3397564   8.5563101
  40.7175040 104.6537867   9.4487382  40.3855663 104.9582465   8.0034000
  42.7226842 101.3300112   8.6043991  42.7088411 100.4341206   8.2676288
  43.4399270 101.3370776   9.2382277  44.5752973 101.7637453  10.6497118
  44.3170751 102.6854523  10.6481448  44.0438013 101.3667887  11.3397582
  35.3376121 106.8802909  11.4950762  34.7929590 107.6562717  11.6271036
  36.2155471 107.2273713  11.3369884  42.1263738 100.2114493   3.8731561
  42.2479649  99.2831139   4.0722448  41.8365781 100.2253179   2.9609876
  44.9954929  97.8969403   7.0098281  45.0176625  97.9608736   6.0550260
  45.4122988  97.0573912   7.2038787  36.1242143 106.0072805  14.3880919
  35.3823879 106.1555440  14.9745549  35.8034888 106.2681071  13.5247668
  44.0685806 115.5488783  14.1861309  44.3772932 115.3037930  15.0584009
  44.8661288 115.7535422  13.6980179  41.6104818 101.7246490  18.0821493
  41.6592973 102.6008613  17.6999263  42.1527332 101.1823883  17.5093136
  52.0959663 112.2687613  17.3622630  51.3055207 112.2511752  16.8227130
  51.8593018 112.8075907  18.1171667  52.2157538 109.1180080  14.6755359
  52.2655543 108.9530087  15.6170882  52.1071462 108.2507339  14.2853240
  49.5061301 105.1011008  15.9914666  50.4071164 104.9617472  15.6998663
  49.5809275 105.2665462  16.9312843  43.8404106 102.4777862  14.8367852
  42.9707416 102.7711428  14.5650440  44.0763587 103.0618307  15.5575116
  53.7175735 111.5377021  14.9197380  53.4260544 111.9007002  15.7560841
  53.1047867 110.8244029  14.7410712  51.9662923 106.6609636  13.3877438
  52.4417045 106.8537282  12.5796290  51.0428489 106.7168822  13.1420822
  46.5443140  98.6957479  12.3533272  47.0625084  99.4318506  12.0279761
  46.1898273  99.0021473  13.1880031  46.7955734  95.1157762   7.8734169
  47.0757488  94.4480951   8.4994595  47.5806341  95.3086857   7.3608833
  50.6664592 103.5375396  11.6205744  51.6182015 103.6373494  11.6417968
  50.4968043 102.7453664  12.1303828  48.6878972 100.6230979  11.8065145
  48.0928904 100.9035992  11.1111634  48.4028669 101.1124880  12.5781886
  53.2947159 103.5492559  10.7806327  52.7786207 102.7651016  10.5936256
  54.1787107 103.2211276  10.9452846  50.9557886  97.2933575   6.7402140
  50.7582707  96.9848663   7.6245471  51.5657591  98.0195213   6.8700069
  44.8674694 109.6795315  18.2375905  45.7877703 109.8573914  18.4315951
  44.8324277 108.7351360  18.0855604  37.8636766 107.5896349  10.8798686
  38.0822776 108.5213457  10.8986720  38.2762540 107.2304324  11.6653490
  44.7840984  98.0964435   2.8674374  43.9741712  97.7511520   3.2429620
  45.4725401  97.7871978   3.4561986  46.7131532  97.1742481   4.4898671
  47.2662571  97.5937935   5.1488694  46.9501619  96.2478230   4.5321627
  42.7364632 103.1629555  20.2701435  42.6361358 104.1123912  20.2013526
  42.5186174 102.8347794  19.3977505  48.5413906  98.6848064   6.1998655
  49.0413684  98.7964599   5.3912974  49.1849514  98.3809117   6.8399464
  42.5995902 106.5926694  19.0866496  42.1162983 107.3927054  19.2930385
  42.6856841 106.6034639  18.1333940  38.5269239 110.4831229  11.1234930
  39.4812493 110.4515171  11.0564862  38.3281763 110.0221852  11.9385156
  39.1168621 109.0532345  13.6905728  39.9361510 109.5476423  13.7140565
  39.3905429 108.1364313  13.6623295  34.3703535 103.3870479  14.3897925
  35.0162399 102.8769433  14.8785150  34.1620687 104.1239160  14.9641350
  46.8956928 110.4551326  19.8890066  47.7648087 110.6291978  19.5276700
  46.4163679 111.2745743  19.7665795  41.0643108 117.5748427  11.5679499
  41.9670355 117.6072037  11.8845994  40.8380478 116.6448878  11.5825835
  46.7059265  94.2453300   4.3967758  45.9391661  93.6911786   4.5424440
  47.1169970  94.3175169   5.2581910  38.7101026 100.5338096  18.4872939
  39.5732488 100.1774900  18.6976264  38.1366437 100.1951990  19.1748343
  51.2682527 113.9418812  19.4802911  50.8749473 113.3885011  20.1550555
  52.0848668 114.2529391  19.8709428  54.1850488 115.3576691  17.0723167
  54.9260202 115.9583844  16.9927630  54.4168411 114.6154329  16.5141210
  49.2130515 117.7320502  16.4207574  49.8402554 117.3497579  17.0345098
  48.3558434 117.5134704  16.7863266  52.4498572 117.0538408  18.0821493
  52.4986728 117.9300530  17.6999263  52.9921086 116.5115801  17.5093136
  53.5758386 118.4921473  20.2701435  53.4755113 119.4415830  20.2013526
  53.3579928 118.1639712  19.3977505  45.2097290 118.7162396  14.3897925
  45.8556154 118.2061350  14.8785150  45.0014441 119.4531078  14.9641350
  49.5494781 115.8630013  18.4872939  50.4126242 115.5066818  18.6976264
  48.9760192 115.5243908  19.1748343  28.6091687  59.4554929   2.1742806
  28.5504234  58.7714149   1.5073389  29.0111206  60.1973919   1.7223432
  27.0943361  59.1569846   4.7506616  27.6383265  59.7699805   4.2561571
  26.5130206  59.7149425   5.2673629  30.4172156  58.6165900   4.0867937
  29.6267699  58.5990039   3.5472436  30.1805510  59.1554194   4.8416974
  32.0388228  57.8855308   1.6442687  31.7473036  58.2485289   2.4806148
  31.4260359  57.1722317   1.4656019  25.2169420  56.8029613   6.6135372
  26.0860580  56.9770266   6.2522007  24.7376171  57.6224030   6.4911101
  36.8761896  68.5118239  -3.9819353  37.5140306  68.3924987  -4.6856013
  36.7582739  69.4599083  -3.9231401  33.6851602  68.4645667  -4.0457828
  33.3470113  68.3486732  -4.9337294  34.5541370  68.0636832  -4.0656822
  34.1671385  69.6180519   1.9128377  34.1560026  69.2233317   1.0408881
  34.3292024  68.8846592   2.5062148  30.8878646  72.4017631   0.8607561
  30.5968512  73.3063262   0.7454227  31.5235630  72.4434158   1.5751631
  31.8134853  69.7794479  -2.5491079  32.4098425  69.5550502  -3.2634116
  31.8709824  69.0379225  -1.9465631  41.8311591  66.1744926  -6.0033167
  42.5636763  65.6044143  -5.7695337  41.0750947  65.7866527  -5.5626661
  39.3537012  59.8866500  -1.5438558  39.0220336  60.7561911  -1.7677343
  38.7582625  59.5702784  -0.8644528  35.8468531  72.0879046  -2.1442645
  35.5469254  72.9904085  -2.2526838  35.5019591  71.8211230  -1.2921492
  39.2465675  64.6061587  -4.4645208  38.3382552  64.5376995  -4.7586447
  39.1953271  65.0833531  -3.6363382  33.3206541  66.0251232   3.4789689
  32.5439875  66.5845152   3.4692554  33.9597104  66.5108015   4.0004559
  41.1127321  62.8078025  -2.6867334  40.4701702  63.1010558  -3.3327539
  40.6082250  62.6930945  -1.8814137  31.5752913  68.8336685   3.0407656
  32.3167597  69.3721729   2.7642480  30.8689898  69.4602974   3.1979208
  37.0508253  70.9765826   1.6379818  37.4591609  70.5348236   0.8934450
  36.3285514  70.4018453   1.8914011  33.4039323  65.9138433  -0.9886625
  34.2500518  66.3377846  -0.8451976  33.3437960  65.2572057  -0.2948062
  37.3737067  71.5367017  -4.6067893  36.7445930  71.7012731  -5.3091825
  36.9862729  71.9508626  -3.8356929  41.2526299  72.4721454  -7.2523530
  40.5677337  72.8520356  -7.8026496  41.3370149  73.0816781  -6.5191582
  36.5538768  63.5742801   0.6694548  36.3099700  64.3284862   0.1328824
  36.8298699  63.9528149   1.5041795  38.5077231  70.1181413  -0.6528186
  38.7194126  70.7613173  -1.3293805  38.4606979  69.2843730  -1.1206256
  29.8189110  70.8212906  -4.4038045  30.3890467  71.2500175  -5.0420560
  30.4097222  70.5395491  -3.7053859  30.3114277  65.9876334   3.8422966
  29.6812937  66.6692615   4.0758363  30.2050365  65.8759415   2.8976105
  39.6223059  72.9953369  -2.4805829  40.4440502  72.5933556  -2.7623147
  39.6185462  72.8921603  -1.5289713  33.3879662  72.5437412  -0.3245118
  33.4524095  73.0057819   0.5113054  32.6790586  71.9134777  -0.1962808
  47.7129052  69.3392117  -6.1320857  46.9592760  68.7699515  -6.2876853
  47.8476593  69.3054782  -5.1850223  29.5895020  60.2897099   6.2048217
  29.1961965  59.7363298   6.8795862  30.4061160  60.6007678   6.5954735
  32.5062980  61.7054979   3.7968474  33.2472694  62.3062132   3.7172936
  32.7380903  60.9632616   3.2386516  27.6504319  66.8911346   2.0746704
  27.5357834  65.9896603   2.3753803  26.7948836  67.1375043   1.7231520
  34.7296156  74.8329086   3.6734204  34.2860010  74.0465465   3.3555109
  35.3913370  75.0208237   3.0078095  29.4883277  76.3624888  -1.8005117
  30.0390703  76.2341951  -2.5728123  28.6494753  76.6619777  -2.1510224
  36.8277394  75.1131886   1.7015605  36.8095870  75.9340767   1.2095875
  37.7497314  74.9885961   1.9265747  33.2850448  72.6276016   2.5439114
  33.8178785  71.8664304   2.3138422  32.7564530  72.3349667   3.2863268
  39.6296007  69.9511029  -4.8275028  38.9719682  70.6410290  -4.7394899
  40.4336406  70.3407460  -4.4841041  38.4401466  68.3055401  -6.7771086
  38.9533348  68.9385393  -6.2749376  39.0902690  67.7056597  -7.1427726
  34.9182297  65.7804857  -4.5312746  34.0004858  66.0019804  -4.6891057
  35.3342440  65.8551167  -5.3901038  39.2063262  73.2861403  -8.6491943
  38.7525589  72.4452313  -8.5926753  38.5757229  73.9222801  -8.3117163
  37.6496201  75.1237899  -7.7142125  37.9419176  75.6842956  -8.4329760
  38.1594822  75.4166460  -6.9588966  36.0595460  66.3702318   0.2731957
  36.4144848  66.5973791   1.1326423  36.7067592  66.7020695  -0.3490788
  41.7893197  69.4920754  -9.0218714  41.6511096  69.6822350  -9.9497525
  41.4329416  70.2540137  -8.5650663  41.8162577  71.5597281  -4.0107442
  42.2499084  71.4672570  -3.1624388  42.5294158  71.5354781  -4.6487426
  35.5490472  75.1599375  -2.4774342  35.6027494  75.7290311  -1.7096626
  34.6805253  75.3301260  -2.8420305  28.4288865  64.8616931  -0.9949891
  29.1011919  64.6534293  -1.6437242  27.6018652  64.6639017  -1.4344658
  42.6778127  71.6020982  -1.4774557  42.8714017  72.5066792  -1.2315282
  42.5778745  71.1428401  -0.6435972  34.3314437  61.4878872   1.0215770
  33.6842352  62.1868822   0.9280247  35.1015453  61.9215016   1.3892019
  37.7393235  71.7527724   4.0966324  37.5878742  71.5238276   3.1796407
  37.7297915  72.7098326   4.1097669  34.5078572  69.3259637  -0.9187410
  35.4370632  69.4770797  -1.0918443  34.0869602  69.4143658  -1.7738763
  33.3066903  73.3510301  -3.1488872  33.1677989  72.9829086  -2.2762934
  32.5181500  73.8657941  -3.3204914  34.8572119  72.7291904  -5.7600035
  34.5221951  72.6892674  -4.8642385  34.3576064  72.0636620  -6.2329624
  28.8316363  68.1359534  -0.2347453  28.6936160  67.4039773   0.3664086
  29.7421286  68.0468434  -0.5163266  31.4598663  67.8479494  -0.7463774
  32.1698282  67.2072686  -0.7877155  31.4167971  68.0992388   0.1762407
  39.4485442  74.7846847   2.1742806  39.3897988  74.1006067   1.5073389
  39.8504960  75.5265837   1.7223432  30.1727597  64.8344711   1.0731866
  29.6364954  64.3835450   1.7253462  29.5844306  64.9690620   0.3302330
  39.4502849  72.7486431   0.4056785  38.5629628  72.4112353   0.5283184
  40.0201400  72.0169462   0.6425551  32.9804003  77.4087883  -2.6281972
  32.9074174  78.2142855  -2.1162667  32.5381396  77.6079849  -3.4533950
  43.9320190  68.1594648  -4.8326653  43.9210066  69.0419364  -5.2032720
  43.0637569  67.8066199  -5.0272116  35.4402686  77.3074717  -0.4723813
  36.1530658  77.9422182  -0.5447911  34.9492715  77.4038583  -1.2883811
  30.4914600  75.0569161   0.3481758  31.1924059  75.6905644   0.5011152
  30.0209715  75.3983892  -0.4122603  38.2915886  67.6113768  -1.8265692
  37.6387336  67.8589676  -2.4813239  38.6696265  66.7977906  -2.1603214
  34.3403459  68.3533579   4.6600345  33.6644096  68.2527708   5.3302721
  35.1631092  68.1972793   5.1236343  33.0826241  79.6600507  -1.1042039
  33.6344549  79.8232128  -0.3392953  33.4232435  80.2504944  -1.7762014
  27.5343007  64.0798789   3.1452880  28.1615046  63.6975866   3.7590405
  26.6770926  63.8612991   3.5108573  37.9337116  74.4861764   4.7506616
  38.4777020  75.0991722   4.2561571  37.3523961  75.0441343   5.2673629
  36.2194629  77.6082482  -4.1178357  36.0945768  76.8072222  -4.6267411
  36.8773720  78.1028675  -4.6064387  38.2829537  75.4091502  -2.4898806
  37.3359873  75.2896853  -2.5620480  38.6312310  74.5214000  -2.4072545
  30.6429110  61.2985641   1.3339435  31.1663512  61.5447938   2.0965745
  30.4241444  62.1305676   0.9142573  35.2875970  75.2044218  -6.2894454
  35.1400933  74.2760926  -6.1086884  36.1129464  75.2264309  -6.7737379
  38.8910092  76.0272777  -5.2029581  39.8156640  75.8215638  -5.3405130
  38.7225396  75.7789178  -4.2940240  31.8481656  62.2399336  -0.9810894
  31.5078476  61.4407149  -0.5790214  31.1420662  62.5401047  -1.5534061
  33.7359220  63.4407657  -2.6257575  33.4776998  64.3624728  -2.6273245
  33.2044260  63.0438092  -1.9357111  38.6805408  76.5458445  -9.8467490
  38.8542286  75.9804867 -10.5993638  39.1734300  77.3459339 -10.0288000
  24.4982368  68.5573114  -1.7803931  23.9535836  69.3332922  -1.6483657
  25.3761718  68.9043918  -1.9384810  44.5344800  69.3094868  -8.2277190
  44.9775946  68.5602193  -8.6258067  43.6571310  69.3005004  -8.6103458
  25.2848390  67.6843010   1.1126226  24.5430126  67.8325645   1.6990856
  24.9641134  67.9451276   0.2492975  41.5672004  73.3124915 -11.2183261
  42.0923328  73.6512187 -11.9433941  41.4794357  72.3771930 -11.4020126
  33.2292053  77.2258988   0.9106616  33.5379179  76.9808135   1.7829315
  34.0267535  77.4305627   0.4225486  30.7711064  63.4016695   4.8066800
  30.8199220  64.2778818   4.4244570  31.3133579  62.8594088   4.2338443
  41.2565910  73.9457818   4.0867937  40.4661454  73.9281957   3.5472436
  41.0199265  74.4846112   4.8416974  41.3763785  70.7950285   1.4000666
  41.4261790  70.6300292   2.3416188  41.2677709  69.9277544   1.0098546
  38.6667548  66.7781213   2.7159972  39.5677410  66.6387677   2.4243970
  38.7415522  66.9435667   3.6558150  33.0010353  64.1548067   1.5613159
  32.1313662  64.4481633   1.2895747  33.2369833  64.7388512   2.2820422
  42.8781982  73.2147226   1.6442687  42.5866790  73.5777207   2.4806148
  42.2654113  72.5014234   1.4656019  44.0777664  70.7800106  -5.8354743
  44.9124556  71.2189910  -5.6717182  44.2136793  70.3038759  -6.6546497
  41.1269170  68.3379841   0.1122745  41.6023292  68.5307487  -0.6958404
  40.2034736  68.3939027  -0.1333871  35.7049387  60.3727684  -0.9221421
  36.2231331  61.1088711  -1.2474932  35.3504520  60.6791678  -0.0874662
  39.8270839  65.2145601  -1.6548949  40.7788262  65.3143698  -1.6336725
  39.6574290  64.4223869  -1.1450865  37.8485219  62.3001184  -1.4689548
  37.2535151  62.5806197  -2.1643060  37.5634915  62.7895085  -0.6972807
  42.3058917  68.4351720  -2.5406650  42.2735237  67.4967721  -2.3546966
  42.9159541  68.5135757  -3.2740825  42.4553406  65.2262764  -2.4948366
  41.9392454  64.4421221  -2.6818438  43.3393354  64.8981481  -2.3301847
  48.1235467  69.4967727  -3.4000613  48.8538855  69.2353015  -2.8392910
  47.5142412  68.7596449  -3.3598545  46.2050764  67.6375590  -2.8026162
  45.4783928  67.5031555  -3.4109670  45.7898051  67.9452419  -1.9969444
  34.0280940  71.3565520   4.9621211  34.9483950  71.5344119   5.1561258
  33.9930523  70.4121565   4.8100911  27.0243013  69.2666554  -2.3956008
  27.2429023  70.1983662  -2.3767974  27.4368787  68.9074529  -1.6101204
  31.8970878  64.8399760   6.9946741  31.7967605  65.7894117   6.9258833
  31.6792420  64.5117999   6.1222812  31.7602148  68.2696899   5.8111803
  31.2769230  69.0697259   6.0175692  31.8463087  68.2804844   4.8579247
  27.6875486  72.1601434  -2.1519763  28.6418739  72.1285376  -2.2189832
  27.4888009  71.6992057  -1.3369537  28.2774868  70.7302550   0.4151035
  29.0967757  71.2246628   0.4385872  28.5511676  69.8134518   0.3868602
  43.8228559  63.8587442  -5.4492730  44.4173050  63.6183178  -6.1599422
  43.8955143  63.1394573  -4.8219194  46.1299632  67.1653643  -6.6749309
  45.5699190  67.2346832  -5.9017747  45.5243135  66.9894628  -7.3949813
  23.5309782  65.0640683   1.1143232  24.1768646  64.5539637   1.6030457
  23.3226933  65.8009365   1.6886657  36.0563174  72.1321531   6.6135372
  36.9254334  72.3062183   6.2522007  35.5769926  72.9515948   6.4911101
  30.2249355  79.2518632  -1.7075194  31.1276601  79.2842242  -1.3908699
  29.9986725  78.3219083  -1.6928858  27.8707273  62.2108301   5.2118246
  28.7338735  61.8545105   5.4221570  27.2972684  61.8722195   5.8993650
  47.7155650  83.8410157  -3.9819353  48.3534060  83.7216904  -4.6856013
  47.5976493  84.7891001  -3.9231401  44.5245356  83.7937585  -4.0457828
  44.1863868  83.6778650  -4.9337294  45.3935125  83.3928750  -4.0656822
  45.0065139  84.9472437   1.9128377  44.9953780  84.5525235   1.0408881
  45.1685779  84.2138509   2.5062148  41.7272401  87.7309549   0.8607561
  41.4362267  88.6355179   0.7454227  42.3629385  87.7726076   1.5751631
  42.6528607  85.1086397  -2.5491079  43.2492180  84.8842419  -3.2634116
  42.7103579  84.3671143  -1.9465631  50.1930766  75.2158418  -1.5438558
  49.8614091  76.0853829  -1.7677343  49.5976379  74.8994702  -0.8644528
  46.6862286  87.4170964  -2.1442645  46.3863009  88.3196003  -2.2526838
  46.3413345  87.1503147  -1.2921492  40.1374767  83.8684761  -6.1105941
  39.2125264  83.7360975  -5.9028249  40.3859180  84.6478980  -5.6135998
  50.0859429  79.9353504  -4.4645208  49.1776307  79.8668913  -4.7586447
  50.0347025  80.4125449  -3.6363382  44.1600295  81.3543150   3.4789689
  43.3833629  81.9137070   3.4692554  44.7990858  81.8399933   4.0004559
  51.9521076  78.1369943  -2.6867334  51.3095456  78.4302476  -3.3327539
  51.4476004  78.0222863  -1.8814137  42.4146668  84.1628603   3.0407656
  43.1561352  84.7013647   2.7642480  41.7083653  84.7894892   3.1979208
  47.8902007  86.3057744   1.6379818  48.2985363  85.8640154   0.8934450
  47.1679269  85.7310371   1.8914011  44.2433077  81.2430350  -0.9886625
  45.0894272  81.6669764  -0.8451976  44.1831715  80.5863975  -0.2948062
  47.3932523  78.9034719   0.6694548  47.1493454  79.6576779   0.1328824
  47.6692453  79.2820066   1.5041795  49.3470985  85.4473331  -0.6528186
  49.5587881  86.0905091  -1.3293805  49.3000734  84.6135648  -1.1206256
  46.9497214  78.0591152  -3.7491614  46.0881693  78.3572405  -3.4574876
  46.9759649  78.2761551  -4.6810581  40.6582865  86.1504824  -4.4038045
  41.2284222  86.5792092  -5.0420560  41.2490977  85.8687409  -3.7053859
  41.1508031  81.3168251   3.8422966  40.5206692  81.9984532   4.0758363
  41.0444119  81.2051333   2.8976105  44.2273417  87.8729330  -0.3245118
  44.2917849  88.3349737   0.5113054  43.5184341  87.2426695  -0.1962808
  34.7290707  81.2370538  -2.7996119  34.9798745  82.1217548  -2.5338543
  35.2650255  81.0575139  -3.5721027  40.4288774  75.6189017   6.2048217
  40.0355720  75.0655216   6.8795862  41.2454914  75.9299596   6.5954735
  43.3456735  77.0346896   3.7968474  44.0866448  77.6354049   3.7172936
  43.5774658  76.2924534   3.2386516  38.4898073  82.2203264   2.0746704
  38.3751588  81.3188521   2.3753803  37.6342591  82.4666960   1.7231520
  45.5689911  90.1621004   3.6734204  45.1253765  89.3757382   3.3555109
  46.2307124  90.3500154   3.0078095  40.3277032  91.6916805  -1.8005117
  40.8784457  91.5633869  -2.5728123  39.4888508  91.9911694  -2.1510224
  47.6671149  90.4423804   1.7015605  47.6489624  91.2632685   1.2095875
  48.5891069  90.3177879   1.9265747  44.1244203  87.9567933   2.5439114
  44.6572540  87.1956221   2.3138422  43.5958284  87.6641585   3.2863268
  47.2913898  73.0627999  -1.9267244  46.9478167  73.9529641  -2.0028134
  47.6592861  72.8729657  -2.7897659  44.8411292  77.8986311  -8.3609571
  43.9852888  77.5093161  -8.5403932  45.2538243  77.9778272  -9.2209785
  46.3710438  75.4332654  -3.9618011  45.8675234  75.3962790  -4.7750206
  46.6641045  76.3425397  -3.9021354  42.6153324  75.5171384  -4.9551829
  43.4806321  75.3214193  -5.3145940  42.6830833  75.2881736  -4.0282473
  40.2215643  77.7473592  -7.5835463  40.7959395  77.5248773  -8.3162270
  40.8086626  77.8162287  -6.8306861  42.5238311  74.6214841  -8.8560393
  41.8702723  74.3063858  -9.4803778  42.4818785  73.9990581  -8.1300570
  45.7576051  81.1096774  -4.5312746  44.8398613  81.3311721  -4.6891057
  46.1736195  81.1843085  -5.3901038  49.0901564  72.3221558  -6.8249507
  49.3960440  71.4618922  -7.1123592  49.8154168  72.9139179  -7.0250513
  43.3622643  82.6175351  -6.3173316  43.4171253  81.6649188  -6.3930839
  42.5513845  82.7734791  -5.8332017  41.3015003  81.2352411  -8.5582937
  40.4882869  81.5346582  -8.1517745  41.7973997  80.8408100  -7.8408455
  46.8989215  81.6994236   0.2731957  47.2538603  81.9265709   1.1326423
  47.5461346  82.0312612  -0.3490788  40.7929078  78.8070767  -2.9421702
  41.4328457  78.6659526  -3.6398739  39.9606609  78.5205280  -3.3183100
  37.7957694  78.7771092  -8.1648715  38.0564512  79.6916425  -8.2739555
  38.6174867  78.3095534  -8.0152102  39.2682620  80.1908849  -0.9949891
  39.9405673  79.9826211  -1.6437242  38.4412406  79.9930935  -1.4344658
  45.1708192  76.8170790   1.0215770  44.5236107  77.5160739   0.9280247
  45.9409207  77.2506934   1.3892019  48.5786990  87.0819642   4.0966324
  48.4272496  86.8530194   3.1796407  48.5691669  88.0390243   4.1097669
  45.3472326  84.6551555  -0.9187410  46.2764386  84.8062714  -1.0918443
  44.9263356  84.7435576  -1.7738763  44.1460658  88.6802219  -3.1488872
  44.0071744  88.3121004  -2.2762934  43.3575254  89.1949859  -3.3204914
  39.6710117  83.4651452  -0.2347453  39.5329915  82.7331691   0.3664086
  40.5815040  83.3760352  -0.5163266  42.2992418  83.1771411  -0.7463774
  43.0092036  82.5364603  -0.7877155  42.2561726  83.4284306   0.1762407
  50.2879196  90.1138765   2.1742806  50.2291743  89.4297985   1.5073389
  50.6898715  90.8557755   1.7223432  41.0121352  80.1636629   1.0731866
  40.4758709  79.7127368   1.7253462  40.4238060  80.2982538   0.3302330
  50.2896604  88.0778348   0.4056785  49.4023382  87.7404270   0.5283184
  50.8595155  87.3461380   0.6425551  36.7460473  79.2992637  -1.8415140
  36.6618662  78.6918306  -2.5764730  35.9243179  79.7901655  -1.8405643
  46.9184187  77.7846200  -6.4744945  47.4152886  77.0316163  -6.7943874
  46.1471168  77.8210517  -7.0401735  43.5019156  79.9263583  -6.7473260
  43.1316943  79.3734624  -6.0592354  43.9978248  79.3221717  -7.2998260
  41.3308354  90.3861078   0.3481758  42.0317814  91.0197561   0.5011152
  40.8603469  90.7275810  -0.4122603  49.3603182  74.7515794  -4.3265586
  48.4466261  74.9820021  -4.1583379  49.7896283  74.8354238  -3.4751553
  49.1309640  82.9405686  -1.8265692  48.4781090  83.1881593  -2.4813239
  49.5090020  82.1269824  -2.1603214  45.1797213  83.6825497   4.6600345
  44.5037850  83.5819626   5.3302721  46.0024847  83.5264711   5.1236343
  38.8984489  77.3367574  -0.5020154  38.9625816  78.1982405  -0.9142756
  38.8351609  76.7241576  -1.2347795  38.3736762  79.4090707   3.1452880
  39.0008801  79.0267784   3.7590405  37.5164681  79.1904909   3.5108573
  48.7730870  89.8153682   4.7506616  49.3170774  90.4283640   4.2561571
  48.1917715  90.3733260   5.2673629  38.6796551  79.2923132  -4.9401216
  37.9583137  79.9059100  -5.0793743  39.4689807  79.8280897  -5.0184570
  41.4822865  76.6277559   1.3339435  42.0057267  76.8739855   2.0965745
  41.2635198  77.4597594   0.9142573  42.6875410  77.5691254  -0.9810894
  42.3472230  76.7699067  -0.5790214  41.9814416  77.8692965  -1.5534061
  43.3391882  74.6540566  -2.5283571  44.1617951  74.1801045  -2.6504681
  43.5829945  75.4331050  -2.0284885  40.8630461  81.3459687  -4.7191592
  40.7175041  81.6599990  -3.8267311  40.3855664  81.9644587  -5.2720694
  42.7226843  78.3362235  -4.6710703  42.7088412  77.4403328  -5.0078405
  43.4399272  78.3432899  -4.0372417  44.5752974  78.7699575  -2.6257575
  44.3170752  79.6916646  -2.6273245  44.0438015  78.3730010  -1.9357111
  35.3376123  83.8865031  -1.7803931  34.7929591  84.6624839  -1.6483657
  36.2155473  84.2335836  -1.9384810  42.1263739  77.2176615  -9.4023133
  42.2479651  76.2893261  -9.2032245  41.8365782  77.2315301 -10.3144817
  44.9954930  74.9031526  -6.2656413  45.0176627  74.9670859  -7.2204433
  45.4122989  74.0636034  -6.0715907  36.1242145  83.0134928   1.1126226
  35.3823881  83.1617563   1.6990856  35.8034889  83.2743193   0.2492975
  44.0685807  92.5550906   0.9106616  44.3772934  92.3100053   1.7829315
  44.8661289  92.7597544   0.4225486  41.6104819  78.7308613   4.8066800
  41.6592974  79.6070735   4.4244570  42.1527333  78.1886006   4.2338443
  52.0959665  89.2749736   4.0867937  51.3055208  89.2573875   3.5472436
  51.8593019  89.8138030   4.8416974  52.2157540  86.1242202   1.4000666
  52.2655545  85.9592210   2.3416188  52.1071463  85.2569461   1.0098546
  49.5061302  82.1073130   2.7159972  50.4071165  81.9679595   2.4243970
  49.5809277  82.2727585   3.6558150  43.8404107  79.4839985   1.5613159
  42.9707417  79.7773551   1.2895747  44.0763588  80.0680430   2.2820422
  53.7175737  88.5439144   1.6442687  53.4260545  88.9069124   2.4806148
  53.1047868  87.8306152   1.4656019  51.9662925  83.6671758   0.1122745
  52.4417046  83.8599405  -0.6958404  51.0428490  83.7230944  -0.1333871
  46.5443141  75.7019602  -0.9221421  47.0625085  76.4380629  -1.2474932
  46.1898274  76.0083595  -0.0874662  46.7955735  72.1219884  -5.4020524
  47.0757489  71.4543074  -4.7760098  47.5806342  72.3148980  -5.9145861
  50.6664594  80.5437518  -1.6548949  51.6182017  80.6435616  -1.6336725
  50.4968044  79.7515787  -1.1450865  48.6878973  77.6293102  -1.4689548
  48.0928905  77.9098114  -2.1643060  48.4028670  78.1187003  -0.6972807
  53.2947160  80.5554682  -2.4948366  52.7786209  79.7713138  -2.6818438
  54.1787109  80.2273398  -2.3301847  50.9557887  74.2995697  -6.5352554
  50.7582708  73.9910785  -5.6509222  51.5657593  75.0257336  -6.4054624
  44.8674695  86.6857437   4.9621211  45.7877704  86.8636036   5.1561258
  44.8324278  85.7413483   4.8100911  37.8636767  84.5958472  -2.3956008
  38.0822777  85.5275580  -2.3767974  38.2762541  84.2366446  -1.6101204
  44.7840985  75.1026557 -10.4080319  43.9741714  74.7573642 -10.0325073
  45.4725402  74.7934101  -9.8192708  46.7131534  74.1804604  -8.7856022
  47.2662572  74.6000057  -8.1265999  46.9501620  73.2540352  -8.7433066
  42.7364633  80.1691678   6.9946741  42.6361360  81.1186035   6.9258833
  42.5186175  79.8409917   6.1222812  48.5413907  75.6910187  -7.0756038
  49.0413685  75.8026721  -7.8841719  49.1849515  75.3871240  -6.4355229
  42.5995903  83.5988817   5.8111803  42.1162985  84.3989177   6.0175692
  42.6856842  83.6096761   4.8579247  38.5269240  87.4893351  -2.1519763
  39.4812494  87.4577294  -2.2189832  38.3281764  87.0283975  -1.3369537
  39.1168622  86.0594467   0.4151035  39.9361511  86.5538546   0.4385872
  39.3905430  85.1426435   0.3868602  34.3703537  80.3932601   1.1143232
  35.0162400  79.8831555   1.6030457  34.1620688  81.1301283   1.6886657
  46.8956929  87.4613449   6.6135372  47.7648089  87.6354101   6.2522007
  46.4163680  88.2807865   6.4911101  41.0643109  94.5810550  -1.7075194
  41.9670356  94.6134160  -1.3908699  40.8380479  93.6511001  -1.6928858
  46.7059267  71.2515422  -8.8786935  45.9391662  70.6973909  -8.7330253
  47.1169972  71.3237291  -8.0172784  38.7101028  77.5400218   5.2118246
  39.5732489  77.1837023   5.4221570  38.1366438  77.2014113   5.8993650
  51.2682528  90.9480935   6.2048217  50.8749474  90.3947133   6.8795862
  52.0848669  91.2591513   6.5954735  54.1850489  92.3638814   3.7968474
  54.9260203  92.9645967   3.7172936  54.4168412  91.6216452   3.2386516
  49.2130516  94.7382624   3.1452880  49.8402555  94.3559702   3.7590405
  48.3558435  94.5196826   3.5108573  52.4498573  94.0600530   4.8066800
  52.4986729  94.9362653   4.4244570  52.9921088  93.5177923   4.2338443
  53.5758387  95.4983595   6.9946741  53.4755114  96.4477952   6.9258833
  53.3579929  95.1701834   6.1222812  45.2097291  95.7224519   1.1143232
  45.8556155  95.2123473   1.6030457  45.0014442  96.4593200   1.6886657
  49.5494782  92.8692136   5.2118246  50.4126244  92.5128941   5.4221570
  48.9760193  92.5306031   5.8993650  50.2879198  67.1200887 -11.1011888
  50.2291744  66.4360107 -11.7681305  50.6898716  67.8619877 -11.5531262
  48.7730872  66.8215804  -8.5248078  49.3170776  67.4345763  -9.0193123
  48.1917716  67.3795383  -8.0081065  52.0959666  66.2811858  -9.1886756
  51.3055210  66.2635997  -9.7282257  51.8593020  66.8200152  -8.4337720
  53.7175738  65.5501266 -11.6312006  53.4260546  65.9131247 -10.7948545
  53.1047869  64.8368275 -11.8098674  46.8956930  64.4675571  -6.6619321
  47.7648090  64.6416223  -7.0232686  46.4163682  65.2869988  -6.7843592
  51.2682530  67.9543057  -7.0706476  50.8749475  67.4009256  -6.3958832
  52.0848670  68.2653636  -6.6799958  54.1850491  69.3700937  -9.4786219
  54.9260204  69.9708090  -9.5581757  54.4168414  68.6278574 -10.0368177
  49.2130517  71.7444747 -10.1301813  49.8402556  71.3621824  -9.5164289
  48.3558436  71.5258949  -9.7646121  52.4498575  71.0662653  -8.4687893
  52.4986730  71.9424776  -8.8510124  52.9921089  70.5240046  -9.0416250
  53.5758389  72.5045718  -6.2807952  53.4755115  73.4540075  -6.3495861
  53.3579931  72.1763957  -7.1531882  45.2097292  72.7286641 -12.1611462
  45.8556156  72.2185595 -11.6724237  45.0014444  73.4655323 -11.5868037
  49.5494783  69.8754258  -8.0636448  50.4126245  69.5191063  -7.8533123
  48.9760194  69.5368153  -7.3761043
 122.0102186 122.0102186 122.0102186 109.4712190 109.4712190 109.4712190
