default_name
127261
  76.2784807  33.1081158  48.1395229  75.8058634  33.2564540  47.2593356
  75.6741245  33.4151231  48.8882554  76.6598795  32.1729512  48.1496091
  77.4856017  34.0356358  48.1906746  77.3790411  34.7804055  48.9793837
  78.8590052  33.3202600  48.3357554  79.6444747  34.0426192  48.1136401
  79.0659108  32.7608601  49.7358164  78.2810317  32.0380311  49.9584907
  80.0375749  32.2700902  49.7916230  79.0275317  33.5732165  50.4615597
  79.0173398  32.2569693  47.2524162  78.1130812  32.2695492  46.6439283
  79.1067226  31.2910585  47.7495357  80.2089987  32.4790436  46.3779803
  81.1137428  32.4661318  46.9857395  80.2634210  31.6885586  45.6294678
  80.1201023  33.4446242  45.8801336  77.6597947  34.9252118  46.9904328
  77.1708350  34.6825873  45.8804121  78.4610584  35.9280946  47.2335512
  79.0284121  35.9175770  48.0690741  78.5696653  37.0304237  46.3681057
  78.6895712  36.7025285  45.3355330  77.2753854  37.8607422  46.4740760
  76.4742119  37.1691125  46.7345921  77.4194585  38.5719898  47.2873839
  76.9085200  38.6019421  45.2203796  76.8595895  39.6679381  45.4425487
  77.6762656  38.4230898  44.4675977  75.5852677  38.1403491  44.7013224
  74.8051288  38.3949837  45.4187089  75.3774947  38.6304549  43.7501514
  75.5770367  36.7155543  44.4974276  76.3454569  36.1708160  44.8619684
  74.5876484  36.0846237  43.8984290  73.5592851  36.7768815  43.4112124
  73.5425703  37.7825487  43.5031596  72.8009329  36.2929621  42.9520572
  74.6439549  34.7702099  43.7391430  75.4455048  34.2574348  44.0777867
  73.8850602  34.2872875  43.2798355  79.7956841  37.8776927  46.8105165
  79.8015642  38.4366256  47.9090439  80.7920512  37.9919163  45.9266277
  80.7110504  37.5212089  45.0366992  81.9695465  38.7688511  46.1796617
  81.8388552  39.4050340  47.0550418  83.1098831  37.8114824  46.4439787
  82.8574208  37.3923814  47.4179994  83.0663400  37.0265516  45.6889373
  84.5254868  38.3962630  46.4912966  84.8791091  38.4645279  45.4625148
  84.6111976  39.7702962  47.1506572  84.2581524  39.7027299  48.1796824
  85.6458168  40.1132497  47.1438245  83.9909130  40.4774638  46.5999655
  85.4363140  37.4098422  47.2179614  85.4451461  36.4604496  46.6825409
  86.4484748  37.8121809  47.2598583  85.0665578  37.2516097  48.2310467
  82.2638861  39.6026261  44.9542994  82.7262386  39.0677818  43.9742578
  81.9342607  40.9104982  44.9896500  80.8069283  41.5267085  45.7085739
  81.1427662  41.8420366  46.6964410  80.0070604  40.7937900  45.8141231
  80.4064497  42.6992660  44.8257829  79.9829863  43.5062102  45.4237953
  79.6821570  42.3864610  44.0736829  81.6633906  43.1006716  44.2031159
  82.2484598  43.7028522  44.8982214  81.5272427  43.6509111  43.2720951
  82.3836377  41.7764836  43.9272567  82.0774176  41.3303270  42.9810687
  83.8631385  41.9731501  43.9280068  84.4445722  42.4928533  44.9241420
  84.4416138  41.5267395  42.8005575  83.8210048  41.2705392  42.0460344
  85.8604785  41.4443865  42.5747322  86.3765513  41.0546878  43.4521733
  86.1447120  40.5410980  41.3734024  85.5150630  40.8512739  40.5394758
  87.6122187  40.6398829  40.9665493  88.2425183  40.3294026  41.7998711
  87.7969338  39.9909383  40.1104816  87.8468738  41.6699658  40.6982855
  85.7741728  39.0951924  41.7147976  86.4755520  38.7598639  42.4788151
  84.7668954  39.1155725  42.1308221  85.8155015  38.1331824  40.5285368
  86.8226497  38.1119146  40.1122436  85.5393872  37.1327245  40.8616195
  85.1139942  38.4676249  39.7642491  86.3288174  42.8186488  42.2413019
  85.8369689  43.3962963  41.2661874  87.3473231  43.2962105  42.9660350
  87.7719295  42.7319614  43.6881373  87.9092735  44.6113548  42.6984452
  87.1218121  45.2590376  42.3130742  88.5375699  45.2758793  43.8865848
  89.5121618  44.8349163  44.0959207  88.7096781  46.7562125  43.5558622
  87.7353912  47.1980028  43.3468472  89.1657135  47.2677708  44.4034708
  89.3509941  46.8613620  42.6807856  87.6786322  45.0936143  45.1150727
  87.5652563  44.0300947  45.3252489  88.1522099  45.5831543  45.9660570
  86.6975274  45.5358380  44.9419471  89.0079152  44.5546810  41.7218903
  89.0743065  45.3759886  40.8345194  89.9668762  43.6754478  41.9659166
  90.0570935  43.2448253  42.8750505  91.0127260  43.4251125  40.9724729
  90.5871239  43.4433566  39.9691638  92.1127822  44.5262156  41.0671904
  91.6936883  45.3660932  41.6213251  92.9478290  44.1034589  41.6258258
  92.6102232  45.0154037  39.6909650  91.8052387  44.9604175  38.7341378
  93.8012774  45.4533884  39.5862352  91.6217925  41.9758325  41.0262375
  91.5862194  41.2578160  42.0610166  92.1859943  41.5954248  39.8843004
  92.1172825  42.2248120  39.0973762  92.8794059  40.3360755  39.6985566
  92.7193932  39.6814673  40.5552849  92.3317666  39.6449358  38.4451249
  92.7919807  38.6573036  38.4153789  91.2577492  39.5402584  38.5988429
  92.5916853  40.3744357  37.1078657  93.6395538  40.6745164  37.1029586
  92.4168107  39.6541530  36.3086700  91.7067399  41.6064094  36.8875426
  90.7213862  41.2689124  36.5661817  91.6168944  42.1389633  37.8343338
  92.2889938  42.5335447  35.8402959  91.6252482  43.3898708  35.7209315
  93.2665339  42.8766515  36.1791058  92.4345125  41.8325198  34.5337679
  91.5287521  41.5148856  34.2194332  92.8235732  42.4682144  33.8521344
  93.0498567  41.0392440  34.6440591  94.3744392  40.6399985  39.5472845
  94.7634283  41.4686248  38.6905915  95.1982043  40.0989135  40.4458250
  94.8490483  39.5682360  41.2310453  96.6355165  40.3641746  40.3717962
  96.8209100  41.0053781  39.5100616  97.1972369  41.0520487  41.6254677
  98.1719175  41.3133978  41.2134075  96.6612652  41.9621913  41.8946792
  97.3847724  40.1932684  42.8591491  96.2878235  39.7619425  43.6045082
  95.2865264  39.9432212  43.2138144  96.4527422  39.1079940  44.8313767
  95.5779889  38.7841451  45.3953184  97.7421846  38.8671948  45.3352298
  97.9222259  38.2020734  46.5561420  97.0942938  37.9508281  46.9720793
  98.8393582  39.2997828  44.6063740  99.8475572  39.0968972  44.9675841
  98.6520256  39.9993462  43.4027413  99.5111645  40.4064277  42.8695763
  97.3283820  39.0972118  40.0810870  97.7360776  38.4021176  40.9871324
  97.4081484  38.7583921  38.8065912  97.1472748  39.3738933  38.0494898
  97.9166569  37.4666574  38.4827785  97.1825787  36.6975453  38.7229763
  98.2146737  37.4052940  36.9949783  97.3492074  37.8215992  36.4794619
  99.0826788  38.0402966  36.8176678  98.4926130  36.0137713  36.4702199
  99.1539167  35.5087029  37.1742684  97.5466316  35.4755268  36.4109397
  99.1473962  36.0456528  35.0901052  99.5246673  37.0557688  34.9306336
  99.9823195  35.3451719  35.1082464  98.1976039  35.6740162  33.9581715
  98.7803218  35.1224722  33.2203777  97.4361222  35.0194065  34.3821185
  97.5415203  36.8380650  33.3023159  98.2469360  37.4445463  32.9090365
  96.9313074  36.5104291  32.5672003  97.0011642  37.3490290  33.9857120
  99.1662061  37.3454921  39.2760886 100.0828025  38.1354193  39.1504222
  99.1776280  36.3220566  40.1060538  98.3961436  35.6835515  40.0649122
 100.2783999  35.9998135  40.9799060 101.2199621  36.2393777  40.4857716
 100.1936855  36.7892274  42.2674549 100.5742931  37.7880146  42.0537700
  99.1487795  36.8562751  42.5704007 101.0028000  36.1703467  43.3838605
 100.7387998  35.0181018  43.7910873 101.9079805  36.8566256  43.8806406
  99.9509951  34.5825939  41.2599862  98.8181084  34.1855848  41.0550928
 100.9221603  33.7884962  41.7048707 101.8458401  34.1730634  41.8427948
 100.7063908  32.3701459  42.0114515 101.6189242  31.7982894  42.1798623
  99.7991518  32.2061593  43.2225356 100.3057630  32.5842235  44.1105175
  98.8771640  32.7657988  43.0649221  99.4704626  30.7295177  43.4151937
  98.9633876  30.3508361  42.5277389 100.3919853  30.1692601  43.5733369
  98.3913464  30.5179602  44.8528481  98.1853870  28.7501010  44.8272543
  99.1581185  28.2689503  44.9291690  97.5422185  28.4467232  45.6533274
  97.7295224  28.4505237  43.8835688 100.0554659  31.8118522  40.7630213
 100.4251139  32.2295464  39.6620113  99.0578059  30.9487918  40.9122294
  98.7664303  30.5806987  41.8064928  98.3514113  30.5134751  39.7291351
  99.0236258  30.2007076  38.9301336  97.6378246  29.7159011  39.9359420
  97.5907419  31.7552436  39.2796275  97.6300334  32.1606020  38.1223735
  96.9063814  32.3691285  40.2439827  96.9373437  31.9706945  41.1715554
  96.1301239  33.5862177  40.0401028  96.7688124  34.3311237  39.5654541
  94.9127510  33.3421149  39.1429812  94.3163129  32.5339038  39.5662502
  94.0727777  34.5871838  39.0456866  94.6684434  35.3957674  38.6220423
  93.2121082  34.3962799  38.4046696  93.7285907  34.8724939  40.0397862
  95.3520516  32.9892008  37.8323113  94.5894558  32.8361001  37.2696318
  95.6270134  34.0889627  41.3791451  95.6581393  33.3573549  42.3614598
  95.1344229  35.3189640  41.4246690  95.1802391  35.9501922  40.6375533
  94.5514358  35.8184605  42.6934249  93.8630513  35.0660391  43.0782471
  95.6266046  36.1339231  43.8049824  96.0070190  37.1390305  43.6229295
  95.0586861  36.0525019  45.2270893  94.6784722  35.0474834  45.4100545
  95.8454128  36.2793555  45.9466024  94.2479175  36.7727102  45.3368883
  96.7752058  35.1601080  43.7186954  97.2456230  35.2382447  42.7385401
  97.5075130  35.3917619  44.4921050  96.4037050  34.1455806  43.8629936
  93.7261759  37.0615062  42.4218764  93.9982429  37.8365541  41.4710739
  92.7816757  37.2649599  43.3435400  92.8433775  36.7254140  44.1951165
  91.6745596  38.1414548  43.1797855  91.8698413  38.9811932  42.5128494
  90.5034068  37.3346919  42.6193705  90.7426335  36.2763991  42.7237073
  89.2026929  37.6309322  43.3362820  88.9625511  38.6890229  43.2319888
  88.4025754  37.0326230  42.9004626  89.3054570  37.3846685  44.3931147
  90.3694974  37.5966860  41.1272642  91.2881858  37.2991419  40.6217138
  89.5338622  37.0203551  40.7302048  90.1903363  38.6586044  40.9589448
  91.3285303  38.8050520  44.5079630  91.3323126  38.1807639  45.5632147
  90.9145311  40.0530155  44.4075563  90.7728415  40.4344787  43.4831596
  90.6062259  40.8996872  45.5633110  90.9437846  40.4453653  46.4948393
  91.3467585  42.1958507  45.3640008  91.3727281  42.3230791  44.2817634
  90.7965478  43.0225359  45.8134001  92.7480964  42.1789191  45.8988974
  92.9535090  41.2031584  46.3391217  93.7376991  42.4453721  44.7705347
  93.5331948  43.4212246  44.3300932  94.7531933  42.4315820  45.1663658
  93.6353592  41.6741153  44.0071279  92.8128556  43.2126798  47.0370832
  92.1016163  42.9403345  47.8168692  93.8195158  43.2314997  47.4546741
  92.5633669  44.1994407  46.6470096  89.1199641  41.2767200  45.7363120
  88.4410788  41.6062063  44.7666041  88.6984779  41.5030590  46.9628013
  89.2022958  41.2116158  47.7882271  87.4551546  42.2021390  47.1350730
  87.5659755  43.1784102  46.6631487  86.6886797  41.6308958  46.6113394
  87.0340061  42.3934342  48.5525644  87.8237125  42.1831130  49.4708099
  85.8230878  42.9368556  48.7097587  85.4409457  43.5052046  47.9674339
  85.0136753  42.7302000  49.9131398  85.6551810  42.3668570  50.7159794
  84.3382378  44.0183494  50.3738971  85.1175714  44.7548171  50.5697383
  83.7005229  44.3716769  49.5636012  83.4978859  43.8201707  51.6329190
  82.5270737  43.4270823  51.3310811  84.0045415  43.0901879  52.2642090
  83.3012123  45.1159498  52.4121475  82.9706258  45.8849765  51.7140004
  82.5265119  44.9478449  53.1602648  84.5908420  45.5755420  53.1059633
  84.9707218  44.7203523  53.6649287  85.2973624  45.8369012  52.3181692
  84.4216711  46.7412785  54.0314024  83.7673576  46.4991573  54.7617111
  85.3135227  46.9766627  54.4428573  84.0700783  47.5339490  53.5135656
  83.9359992  41.7344123  49.6340374  83.2496112  41.8238799  48.6094682
  83.6755518  40.9093112  50.6429231  84.0698223  41.1224388  51.5480346
  82.8645935  39.7026074  50.5078695  82.7886176  39.3993144  49.4636759
  83.5462963  38.5758851  51.2977676  84.5469715  38.6583405  50.8735631
  83.5676026  38.8899333  52.3413287  83.0726634  37.1167728  51.2119634
  83.9212476  36.4870511  50.9446502  82.4984399  36.6550643  52.5419900
  81.6494669  37.2840652  52.8097613  82.1698968  35.6192760  52.4565334
  83.2637239  36.7303939  53.3144965  82.0941624  36.8650502  50.0793697
  82.5669139  37.1113474  49.1286104  81.8016534  35.8150324  50.0778655
  81.2101972  37.4877363  50.2170886  81.4558537  39.9520335  51.0423533
  81.2560539  39.9750611  52.2624676  80.4987283  40.1576275  50.1325051
  80.6960915  39.9988555  49.1547840  79.2023914  40.7756681  50.4959629
  79.2805744  41.1923134  51.5001508  78.7927408  41.9085740  49.5200450
  78.2971999  41.4209847  48.6805243  78.0729151  42.5259773  50.0574129
  79.9439301  42.7992549  48.9927683  80.8139429  42.1500047  49.0910162
  79.7727321  43.0195083  47.9390705  80.1968338  44.1227283  49.7631524
  79.3336163  44.5971452  50.5526453  81.2581223  44.7459629  49.5091398
  78.0140966  39.7751190  50.6967582  77.1606477  40.0092724  51.5356379
  77.9976373  38.6475075  49.9939172  78.5758293  38.5299737  49.1741738
  77.0758367  37.5608713  50.3587274  76.4435027  37.8981906  51.1799878
  76.1747113  37.1341081  49.1879917  75.6210766  38.0108073  48.8518571
  76.8158783  36.7786478  48.3813611  75.2474779  36.0933883  49.5588170
  74.7080047  35.8601076  48.7997725  77.8460752  36.3488635  50.8809656
  78.5601819  35.6894129  50.1348600  77.6631566  36.0405172  52.1601248
  77.3970749  36.7612166  52.8157865  77.8363033  34.6691935  52.6634711
  77.1615481  34.5554227  53.5119173  77.5289958  33.9964923  51.8627624
  79.2484050  34.3057048  53.1012940  80.1037452  35.1683814  53.2638710
  79.4383178  33.0199231  53.3930619  78.6743386  32.3720006  53.2640984
  80.6901380  32.5112411  53.9259728  81.3465583  33.3457667  54.1725058
  80.4523130  31.6774487  55.2020114  79.6910995  32.1752489  55.8027179
  80.0944874  30.6907574  54.9079008  81.6393177  31.5414306  55.9627701
  81.4582634  31.0191288  56.7476395  81.3605309  31.6712532  52.8586984
  80.7091110  31.1111784  51.9778544  82.6738050  31.5900392  52.9479197
  83.1610583  31.9961973  53.7338708  83.4584975  31.0623153  51.8525425
  82.9162840  30.3611129  51.2181776  84.0228369  32.2016834  50.9901182
  83.1919207  32.7650581  50.5655153  84.8934807  33.1320343  51.8219671
  85.7249300  32.5694323  52.2465512  85.2811819  33.9302634  51.1890225
  84.2988679  33.5637726  52.6270366  84.7424684  31.6355670  49.7644679
  85.8153978  31.6665860  49.9541020  84.4273123  30.6006359  49.6314500
  84.4300256  32.4209036  48.5141084  84.7453439  33.4559033  48.6462065
  84.9614989  31.9848490  47.6682409  83.3572573  32.3899550  48.3235559
  84.5452406  30.0766871  52.3227409  85.5404534  30.4584277  52.9602285
  84.2830544  28.7921061  52.0557127  83.5123758  28.5733415  51.4406551
  85.0583834  27.6876742  52.6138884  85.4046159  27.9539091  53.6125581
  84.2000224  26.3979464  52.7138455  83.9711728  26.0527139  51.7056086
  84.7770761  25.6349913  53.2363477  82.5852227  26.5097136  53.5945061
  82.2460122  25.2348906  53.4252106  86.2350475  27.4669647  51.6735385
  86.1217595  27.7992297  50.4820810  87.3812641  27.0194979  52.2311395
  87.4062145  26.8754116  53.2304973  88.6337160  26.7766658  51.4474798
  88.8907726  27.6836551  50.9003128  89.8198826  26.3957240  52.3541072
  90.0121736  27.2034640  53.0602796  89.5810864  25.4841039  52.9018527
  91.0601938  26.1636558  51.4977213  90.8688092  25.3556876  50.7915626
  91.2998991  27.0750475  50.9499910  92.2341928  25.7866196  52.3950479
  92.4264836  26.5943581  53.1012219  91.9953962  24.8749987  52.9427913
  93.4745044  25.5545536  51.5386611  93.2831205  24.7465863  50.8325013
  93.7142095  26.4659461  50.9909344  94.6061614  25.1911136  52.4036251
  94.3844182  24.3463815  52.9109291  95.4276142  25.0374185  51.8364453
  94.7839404  25.9398441  53.0577631  88.3824225  25.6762129  50.4211557
  87.6676267  24.7127511  50.7124672  88.8643376  25.8828048  49.1941225
  89.4430476  26.6935645  49.0272012  88.5878278  24.9728822  48.0604981
  89.2047225  25.3548226  47.2470722  88.9736218  24.0066568  48.3855687
  87.1417086  24.7909671  47.5515373  86.8906501  23.8700858  46.7591257
  86.2133319  25.6884843  47.9415113  86.5276928  26.5103741  48.4372671
  84.7418631  25.5306806  47.6856079  84.4599834  24.4940806  47.8702793
  83.9279499  26.4425219  48.6385144  84.1552566  26.1832460  49.6725390
  84.1925979  27.4845865  48.4591746  82.4378158  26.2453179  48.3811522
  82.2096483  26.5048552  47.3473820  82.1723052  25.2035159  48.5607484
  81.6020033  27.1254871  49.2994137  82.1441616  27.8692868  50.1138252
  80.2764598  27.0393437  49.1662323  79.6755759  27.6021195  49.7513163
  79.8805640  26.4117917  48.4809978  84.3553977  25.8957744  46.2475287
  84.1716633  27.0601379  45.9661741  84.1838885  24.9167056  45.3502022
  84.2317154  23.9482406  45.6328462  83.9244469  25.2216142  43.9155417
  84.8564393  25.5055693  43.4268097  83.3498363  24.0056170  43.1992460
  82.6702069  23.5144189  43.8956134  82.7867157  24.3745415  42.3419888
  84.4005933  23.0070766  42.7252282  85.2844713  23.1043779  43.3556194
  83.9937710  22.0006416  42.8236461  84.8088917  23.2257037  41.2809859
  86.0112394  23.2855820  40.9603996  83.8098710  23.3469326  40.3896122
  84.0232627  23.4940182  39.4134302  82.8504649  23.2903723  40.7001638
  82.9406443  26.3630003  43.7669342  81.9787372  26.4255430  44.5257664
  83.1942876  27.2593481  42.8017132  83.9769366  27.0978980  42.1840615
  82.3761961  28.4740074  42.5942258  81.3694521  28.2952227  42.9718523
  82.9637408  29.6890264  43.3216907  83.9626633  29.7497735  42.8897615
  82.3914099  30.5721880  43.0378549  83.0706313  29.6198826  44.8397723
  83.6825911  28.7617497  45.1176462  83.7080123  30.8902055  45.3747903
  83.0963331  31.7487876  45.0976910  83.7802245  30.8315465  46.4608130
  84.7056142  31.0033605  44.9504239  81.7270246  29.3579045  45.5402726
  81.3184212  28.4065870  45.1994829  81.8800360  29.3215085  46.6188662
  81.0288633  30.1596537  45.2997151  82.2970327  28.8201354  41.1432336
  82.8965905  28.1481667  40.2933020  81.5976615  29.9096527  40.8591107
  81.0968650  30.3977589  41.5878457  81.5213888  30.4287431  39.5045272
  82.3251028  30.0394960  38.8795235  80.1768046  30.0897667  38.8428335
  79.3785117  30.4515991  39.4908342  80.0384582  30.7284566  37.4575287
  80.8361912  30.3667239  36.8087818  79.0726978  30.4613331  37.0285156
  80.1078967  31.8124686  37.5480703  80.0183597  28.5758363  38.7477810
  80.0479528  28.1433961  39.7478918  79.0637837  28.3386814  38.2780556
  80.8299478  28.1619184  38.1493684  81.6833031  31.9209509  39.5504158
  81.5834953  32.5336739  40.6191828  81.9778311  32.4952094  38.3870713
  81.9977902  31.9363689  37.5460016  82.2998263  33.8996489  38.2839471
  81.8392910  34.4617688  39.0963679  83.7940690  34.0578840  38.3760849
  84.1444967  33.4017226  39.1727981  84.2171901  33.7325828  37.4256914
  84.2294703  35.4696975  38.6615642  83.6060436  36.1808729  38.1196514
  84.1750218  35.6798312  39.7297314  85.8989645  35.6351293  38.1230704
  85.6573463  35.4297763  36.3411443  84.9892981  36.2081597  35.9724577
  86.6184130  35.5056331  35.8325214  85.2186084  34.4516863  36.1437859
  81.8008758  34.5019661  36.9817729  82.1048804  34.0159568  35.8774491
  81.0515891  35.5826705  37.1191638  81.1992492  36.2387779  37.8727014
  79.9442376  35.7746998  36.2762644  79.6027309  34.8164454  35.8848300
  78.7967727  36.4215492  37.0558342  79.0291661  36.3159922  38.1155277
  78.7845125  37.4787251  36.7906385  77.4190839  35.8067095  36.7706489
  76.8915697  35.8062322  37.7244987  76.9248423  36.4930371  36.0830577
  77.3855566  34.1186069  36.0636408  76.0088116  34.2806512  34.9182170
  76.2316425  35.0599340  34.1894072  75.8525462  33.3340436  34.4009009
  75.1065472  34.5463390  35.4690619  80.3763157  36.5590997  35.0644371
  81.5388408  36.6395833  34.7773557  79.4408676  37.2395074  34.4310721
  79.6625601  38.6763392  34.6246567  80.7327267  38.8656706  34.7083067
  79.1649774  38.9954831  35.5404392  79.0568396  39.3043746  33.3909861
  79.6687944  40.1501533  33.0775078  78.0486747  39.6506156  33.6186309
  79.0308399  38.2469841  32.3614526  79.9603214  38.1490469  31.8005859
  78.2085501  38.4347999  31.6710438  78.7658270  36.9726243  33.1501410
  77.7076839  36.8771581  33.3936935  79.2251434  35.7280856  32.3501480
  78.4728807  35.2289832  31.4821926  80.4217020  35.2196766  32.6455340
  80.9221367  35.5505361  33.4580588  81.0709119  34.2307956  31.7869871
  80.6501324  34.2556310  30.7817871  82.5544627  34.5641735  31.7019084
  83.0182764  34.3882005  32.6724801  83.0135172  33.9139697  30.9571909
  82.7993438  36.0099088  31.3015215  81.9080891  36.6821179  30.7804630
  84.0086975  36.4971611  31.5520984  84.2257554  37.4524797  31.3064319
  84.7060576  35.9102642  31.9872327  80.8884915  32.7721091  32.2507138
  81.4131322  31.8327791  31.6377218  80.1708939  32.6022704  33.3555629
  79.8060398  33.4145689  33.8321674  79.8606159  31.2978491  33.8907925
  79.3450193  31.4115379  34.8443827  78.9495537  30.4950154  32.9278264
  79.2100653  30.8323988  31.9246288  79.2409399  29.4514378  33.0467376
  77.4543651  30.6279624  33.1325827  76.9494603  30.0606124  32.3507349
  77.2028830  30.2071841  34.1061352  77.0065936  32.0710312  33.0767337
  75.9175847  32.0613437  33.0312953  77.3267013  32.5364176  34.0089601
  77.5606830  32.8704345  31.8896683  77.3464755  33.9169194  32.1066591
  78.6389974  32.7114863  31.8982001  77.0196686  32.5218879  30.5506852
  76.0205498  32.6695134  30.5424356  77.4522388  33.1068590  29.8501197
  77.2184275  31.5523446  30.3492413  81.1254772  30.5083006  34.0658069
  81.1171721  29.3406816  33.7696536  82.2442705  31.1209564  34.4277604
  82.3264484  32.1250118  34.5000032  83.4494994  30.3092951  34.6214564
  83.4306696  29.4846590  33.9089116  84.7399722  31.1007418  34.4180525
  84.4299710  32.1430501  34.4928302  85.5443932  30.9096196  35.1283195
  85.3198538  30.9262914  33.0625536  86.1579142  29.8810734  32.7535761
  86.4922779  29.1943810  33.4144500  86.4486456  29.9250505  31.4642029
  87.1095636  29.1804468  31.0205234  85.8204980  30.9582919  30.9270402
  85.0803082  31.5812868  31.8992754  84.4555238  32.4372001  31.6440144
  83.4503117  29.6306021  35.9817593  83.4060155  30.2982324  37.0240000
  83.4885215  28.2962016  35.9540410  83.2593156  27.8111450  35.0983050
  83.8495615  27.5039287  37.1211947  83.0863138  27.6251089  37.8898737
  83.9625401  26.0221118  36.7756147  84.3226773  25.9240231  35.7515156
  84.6779531  25.5622768  37.4574034  82.6650041  25.3051100  36.8938007
  81.6027321  25.9095133  37.1345324  82.7259885  23.9996917  36.7199476
  81.8846251  23.4447679  36.7852705  83.6137899  23.5605780  36.5222393
  85.1644092  27.9534260  37.6688012  85.9957902  28.5087878  36.9382344
  85.3906729  27.6121075  38.9253394  84.6918499  27.1024000  39.4468221
  86.6179160  27.9453945  39.5816732  87.4858184  27.5262209  39.0726170
  86.7846526  29.4703648  39.6612866  86.6535000  29.8818293  38.6604893
  85.7745267  30.1003367  40.6034576  85.9053760  29.6896786  41.6046266
  85.9264517  31.1793413  40.6311772  84.7654883  29.8849267  40.2519728
  88.1847578  29.8170181  40.0905916  88.8963385  29.4173483  39.3680827
  88.2913408  30.9004999  40.1435715  88.3821269  29.3846386  41.0715066
  86.5772439  27.3694359  40.9696471  85.5434499  27.4180274  41.6146081
  87.6640318  26.7661131  41.4224236  88.4456633  26.5607394  40.8166405
  87.7253033  26.3075432  42.8223309  86.7307874  26.3529059  43.2661547
  88.2679670  24.8543265  42.9643744  87.6050267  24.1655687  42.4407122
  89.2670396  24.7951796  42.5325695  88.3288226  24.4804268  44.4260844
  88.9919854  25.1685091  44.9503541  87.3299731  24.5388958  44.8584966
  88.8607858  23.0558728  44.5653271  90.1080181  22.9150434  44.6756906
  88.0148392  22.1220923  44.5600002  88.5826532  27.3034228  43.5715465
  89.5821186  27.8178375  43.0263928  88.1540002  27.6438008  44.7868672
  87.2252767  27.4004862  45.1005071  89.0469477  28.3134008  45.7247609
  89.3503363  29.2784781  45.3189528  88.4384813  28.5366463  47.1255139
  88.0406371  27.5927231  47.4981104  89.5107695  29.0531753  48.0876390
  89.9087861  29.9973738  47.7159227  89.0714551  29.2075114  49.0731763
  90.3168483  28.3230390  48.1600247  87.2733177  29.5112009  47.0726638
  86.4975603  29.1156264  46.4170546  86.8668460  29.6470426  48.0748750
  87.6187682  30.4708246  46.6881028  90.2164111  27.3985937  45.9217420
  90.0277384  26.1975049  46.1780118  91.4165808  27.9475584  45.7296889
  91.5231067  28.7357416  45.1071788  92.6051730  27.4027241  46.3596010
  92.4531381  26.3434939  46.5670040  93.8344400  27.5534662  45.4496921
  94.1401259  28.5775068  45.6641595  94.5853198  26.8627777  45.8333963
  93.6971228  27.3680520  43.9322839  93.2386700  28.2530013  43.4909376
  95.0868528  27.1643861  43.3357224  95.5457854  26.2792913  43.7762754
  95.0038483  27.0312632  42.2570707  95.7049936  28.0369228  43.5471039
  92.7786981  26.2185205  43.5593368  91.7829975  26.4027092  43.9627649
  92.7209218  26.1363642  42.4739735  93.1717177  25.2898376  43.9730791
  92.8275619  28.1149123  47.7032279  92.6565294  27.5113229  48.7717590
  93.0959006  29.4213641  47.6399580  92.7972895  29.9547043  46.8359187
  93.8170969  30.1193600  48.7078717  93.8861999  29.4426900  49.5596003
  94.8185395  30.3440552  48.3408236  93.1538736  31.4092214  49.1544558
  92.9202822  32.3211886  48.3511277  92.9729448  31.5272344  50.4598793
  93.3425801  30.8293549  51.0895089  92.2325368  32.6121536  51.0131697
  91.9686842  33.3604457  50.2658143  90.9752583  32.0947566  51.6732517
  91.2438409  31.3678116  52.4397467  90.2104060  33.2535204  52.3155727
  89.9410590  33.9807012  51.5495694  89.3053123  32.8737256  52.7895579
  90.8391072  33.7329397  53.0659000  90.1624469  31.3458180  50.6165406
  90.0570050  32.0144092  49.7621586  90.7463695  30.4730297  50.3243515
  88.7991003  30.9050510  51.0798197  88.2143914  31.7773970  51.3717577
  88.2909074  30.3822398  50.2695680  88.9037560  30.2360188  51.9339525
  93.0715840  33.3516879  52.0109211  93.1572733  32.9613939  53.1778645
  93.6992969  34.4239262  51.5254828  93.4773837  34.7233383  50.5867569
  94.7332548  35.1765512  52.2779905  95.1478350  34.5252726  53.0474440
  95.9315028  35.6916541  51.3415480  95.3457745  36.4721974  50.8559826
  96.5942778  36.1420213  52.0804653  96.8028960  34.9191059  50.2447476
  97.3380231  34.1322582  50.7763589  96.0097575  34.3024732  49.0797908
  95.4746958  35.0888265  48.5473846  96.6964325  33.8037082  48.3958233
  95.2953530  33.5773388  49.4695431  97.9218833  35.7946602  49.6425962
  98.5967321  36.1184102  50.4349751  98.4789710  35.2167947  48.9051505
  97.4814644  36.6681007  49.1617306  94.0788110  36.3917731  52.9815685
  94.7399426  37.4302496  53.1264978  92.8725743  36.1860468  53.4876306
  92.4799456  35.2555082  53.4813055  92.0932158  37.2518314  54.0616988
  91.6753372  37.8815032  53.2762115  90.9439174  36.6582378  54.8747755
  90.1484076  36.3852547  54.1814187  91.3135874  35.7624080  55.3737074
  90.4371276  37.5634341  55.8429143  89.7198982  37.1466723  56.3261239
  92.9184671  38.0982075  54.9683926  93.6038189  37.6304130  55.8642426
  92.8530568  39.3828392  54.6520525  92.2739885  39.6559827  53.8709176
  93.5418116  40.4072729  55.3773238  93.3242806  41.3875030  54.9531440
  93.0786772  40.3900266  56.8164857  92.0691155  39.9811156  56.8574285
  93.7570254  39.7374007  57.3660520  93.0896668  41.7532247  57.4332160
  94.1905179  42.3235990  57.5723886  91.9988218  42.2618629  57.7598876
  94.9939894  40.0365422  55.2773814  95.4062952  39.3958843  54.3188986
  95.7717957  40.3992278  56.2822453  95.4407177  40.9644913  57.0509870
  97.1491053  40.0080101  56.2712357  97.6303415  40.2101020  55.3143294
  97.9516850  40.6955922  57.3767698  97.9687538  41.7708587  57.1989779
  97.4872091  40.4948098  58.3421965  99.3807368  40.1575045  57.3781059
 100.2229737  40.7580966  56.6587119  99.6165020  39.1510074  58.0985072
  97.1321830  38.4940764  56.4438403  97.8968689  37.7711220  55.8203643
  96.2364987  38.0240384  57.3040641  95.6292231  38.6664415  57.7925657
  96.1449023  36.5815226  57.6339494  97.1127852  36.1032078  57.7840052
  95.2890900  36.3879534  58.9211267  95.7436697  36.9632283  59.7276719
  93.8509241  36.8537072  58.7125188  93.3955033  36.2785293  57.9063778
  93.2831132  36.7038454  59.6307958  93.8454518  37.9118972  58.4511656
  95.3201472  34.9488386  59.4094750  96.3474509  34.6636418  59.6362173
  94.7110854  34.8565307  60.3087094  94.9242102  34.2928982  58.6341834
  95.5687062  35.7374089  56.4745892  94.9449330  36.2722193  55.5610205
  95.8345099  34.4318369  56.4817417  96.6569600  34.0831925  56.9530403
  94.9890770  33.4786533  55.7684849  94.3862290  34.0019778  55.0263225
  95.8557029  32.4258245  55.0463270  95.5467771  32.4490370  54.0012790
  96.8843483  32.7768820  55.1284682  95.7630821  30.9984314  55.5713950
  96.7733236  30.6059564  55.6874820  95.2832047  31.0597463  56.5481536
  94.9573252  30.0693349  54.6662173  95.4315965  28.9422676  54.4042632
  93.8428855  30.4472520  54.2354786  94.0598269  32.8632198  56.8115241
  94.4207994  32.7971439  57.9804038  92.8341494  32.5144615  56.4155136
  92.4298471  32.9427146  55.5950026  92.0166949  31.5537925  57.1766445
  92.6471366  30.9783113  57.8544820  90.9062618  32.2524582  58.0052522
  90.4085305  31.5026626  58.6202078  91.4924110  33.3549353  58.9125820
  91.9899358  34.1053874  58.2982610  90.6888478  33.8248784  59.4796259
  92.2129818  32.9142219  59.6015305  89.9322965  32.8208404  57.1239383
  89.2470466  33.2521114  57.6397273  91.3866577  30.5273201  56.2117463
  91.4844749  30.6724159  54.9918578  90.8213336  29.4566751  56.7668056
  90.8112285  29.3646435  57.7725528  90.2454768  28.3625880  55.9573414
  90.8834250  28.1772334  55.0931858  90.1329109  27.0619837  56.7738348
  90.2942839  27.3151487  57.8216733  89.1249200  26.6670307  56.6470816
  91.1346231  26.0240206  56.3493088  92.3434069  26.3511417  56.3459493
  90.7141938  24.8905855  56.0148267  88.8723369  28.7347035  55.4133792
  88.5606957  28.4528911  54.2582534  88.0284766  29.2838087  56.2793049
  88.2708246  29.3232961  57.2590026  86.7522661  29.8391611  55.8625274
  86.7150562  29.9236524  54.7764446  85.5589207  28.9716462  56.3324962
  84.6869871  29.2303949  55.7317625  85.8570036  27.4715764  56.1825414
  86.7285951  27.2119651  56.7833989  84.9971909  26.8940376  56.5220561
  86.0569568  27.2432187  55.1356546  85.2526683  29.2600342  57.7049447
  84.5123525  28.7184738  57.9882204  86.6238579  31.2133971  56.4664353
  87.2427562  31.5081940  57.4792604  85.7958014  32.0494434  55.8666663
  85.2686869  31.7676134  55.0525277  85.6575465  33.4164344  56.3371068
  85.6397976  33.4937904  57.4242131  86.7991337  34.3100464  55.7964058
  87.7558071  33.8445513  56.0334493  86.6772801  34.4782368  54.2914342
  85.7209873  34.9441274  54.0536298  87.4885375  35.1095912  53.9290070
  86.7347637  33.5018320  53.8103613  86.8328788  35.6556318  56.5051252
  86.9908544  35.5008446  57.5724521  87.6460771  36.2590332  56.1017458
  85.8859161  36.1725605  56.3497315  84.3105051  33.9523682  55.9035097
  83.8176178  33.5989240  54.8327388  83.7202997  34.7947413  56.7525222
  84.2521522  35.1420186  57.5377805  82.3205168  35.2121546  56.6217406
  81.7685729  34.5611145  55.9437997  81.6572061  35.1626648  57.9917445
  82.1932893  35.8167688  58.6793947  80.6225160  35.4948954  57.9072494
  81.6803926  34.1408595  58.3705263  82.2672942  36.6290504  56.0272933
  83.3054865  37.2732040  55.9089382  81.0633143  37.1147005  55.6409185
  79.7540542  36.6071738  56.0766336  79.6462247  36.7563317  57.1509822
  79.6830764  35.5435574  55.8490782  78.7808733  37.4303518  55.2787729
  77.8449578  37.5240730  55.8295700  78.5914118  36.9447946  54.3214642
  79.4240296  38.7397613  55.0854106  79.2064781  39.3727734  55.9456815
  79.1048949  39.2445396  54.1735709  80.9344503  38.4442828  55.0213969
  81.3265147  38.3766484  54.0066016  81.6714380  39.5152916  55.7713530
  81.9348983  39.3775584  56.9655822  81.9099559  40.6269134  55.0979356
  81.6557109  40.6974697  54.1230096  82.5432266  41.7803756  55.7341103
  82.0721820  42.6943612  55.3723833  82.4165455  41.7099605  56.8144311
  84.0144663  41.8279173  55.4152300  84.5040456  42.7945905  54.8311606
  84.7016804  40.7355176  55.6984057  84.2437996  39.9297018  56.0997851
  86.1260666  40.7178385  55.5828700  86.5540941  41.5287892  56.1721497
  86.6898530  39.3902705  56.0955484  86.1512689  38.5845422  55.5967215
  87.7436382  39.3471152  55.8202769  86.5512324  39.2322890  57.6218272
  86.7236993  40.2310634  58.0228332  85.5348215  38.9171145  57.8577784
  87.5470278  38.2526790  58.2475611  87.0911267  37.3896813  59.0456847
  88.7777612  38.3754284  57.9878885  86.6073392  41.0539522  54.1557350
  85.8158026  41.2421841  53.2067858  87.9167521  41.2350960  54.0620070
  88.4827016  41.0158244  54.8692990  88.5786807  41.7258694  52.8734444
  87.8442295  41.9900477  52.1125959  89.3940203  42.9779877  53.2237102
  89.7190238  42.8488282  54.2560812  90.2667444  43.0789794  52.5785332
  88.5750072  44.2448069  53.1301022  87.8723604  44.4582233  52.1418421
  88.7100071  45.1277726  54.1244093  88.1830420  45.9892009  54.1057306
  89.3383668  44.9295180  54.8898896  89.5038066  40.6467051  52.3399826
  90.6848271  40.6087474  52.6774655  88.9919401  39.8456906  51.4220994
  88.0972531  40.0524677  51.0015312  89.7017906  38.6910050  50.9707840
  90.3448723  38.3073223  51.7628274  88.7231958  37.6247829  50.5908307
  88.1497587  38.1055258  49.7982681  89.2833266  36.7866828  50.1761723
  87.7798443  37.1204517  51.6604675  88.2052084  36.1958122  52.0506060
  87.5503619  38.0985341  52.8087956  87.1245499  39.0233092  52.4194705
  86.8622835  37.6577598  53.5301602  88.5000792  38.3142653  53.2982827
  86.4602316  36.7549407  50.9976152  86.6303555  35.9779907  50.2522925
  85.7636573  36.3881965  51.7515278  86.0398439  37.6363760  50.5134201
  90.5256924  38.9992383  49.7410775  90.0300278  39.5841916  48.7684253
  91.7540891  38.5131940  49.7392259  92.3119058  38.4950267  50.5810156
  92.3482453  38.0335060  48.5138853  91.8587116  38.5043406  47.6613768
  93.8478547  38.3664890  48.4646111  94.3092213  37.8053478  49.2772369
  94.2108747  37.9866870  47.5095891  94.2118884  39.8450957  48.5960439
  93.7881268  40.3720897  47.7411730  93.7606683  40.2212468  49.5142012
  95.7449973  40.0797841  48.6397533  96.1679546  39.4288600  49.4049356
  96.1587005  39.8129481  47.6672578  96.0937882  41.5399564  48.9606454
  95.5304188  42.1590268  48.2624568  95.7468178  41.7307213  49.9761845
  97.5402844  41.8714036  48.8608279  97.8618926  41.6951145  47.9197700
  97.6787244  42.8459885  49.0869221  98.0624469  41.2981689  49.5080122
  92.1213729  36.5068271  48.4184366  92.1455320  35.7772726  49.4374698
  91.8592811  36.0379142  47.2019900  91.9579221  36.6466680  46.4021224
  91.4964759  34.6447922  46.9699001  91.7587472  34.0062438  47.8134455
  89.9835766  34.4819910  46.6475622  89.7713707  34.9784028  45.7006492
  89.6021483  33.0011934  46.5444071  89.8136511  32.5041798  47.4911619
  88.5394004  32.9141025  46.3183922  90.1817341  32.5306467  45.7501998
  89.0777738  35.2203142  47.6683125  89.6450884  36.0867318  48.0082765
  88.2022145  35.5553715  47.1122261  88.6323165  34.4038004  48.8698107
  89.5073782  34.0687598  49.4266902  88.0050562  35.0186691  49.5152410
  88.0645059  33.5373978  48.5306392  92.2363250  34.1530022  45.7568928
  92.0271176  34.6714426  44.6514537  93.0733481  33.1356423  45.9423685
  93.4010028  32.8834880  46.8638673  93.6333923  32.4339558  44.7936703
  93.8450473  33.1615574  44.0101542  94.9341192  31.6807864  45.1303516
  95.4705550  32.2782404  45.8674979  94.6483368  30.7273358  45.5746041
  95.8494885  31.4263884  43.9077676  95.5588501  30.4653684  43.4834201
  95.6481303  32.2176516  43.1856460  97.3433162  31.4065444  44.2388796
  97.6012223  30.4058786  44.5856524  97.8966085  31.6280881  43.3262540
  97.7309848  32.3774517  45.2720422  97.9756222  33.2996086  44.9405628
  97.8071290  32.1299743  46.5840418  97.5146361  30.9242031  47.0722199
  97.2311135  30.1843448  46.4458617  97.5779326  30.7562112  48.0661374
  98.1535515  33.1070199  47.4205472  98.3565614  34.0282724  47.0597413
  98.2116213  32.9221080  48.4117758  92.6150721  31.4967022  44.1615938
  92.0335083  30.6397970  44.8236558  92.4517082  31.6693439  42.8528085
  93.0790976  32.3112077  42.3896749  91.4597418  30.9618085  42.0417461
  90.7616255  30.4214964  42.6811173  90.6691798  31.9816844  41.2015735
  91.4098957  32.7686761  41.0598582  90.4347526  31.5265412  40.2392906
  89.3954554  32.5823311  41.8060067  88.6594388  31.7879793  41.9300453
  89.6812375  33.2262232  43.1593258  90.4168760  34.0210366  43.0360116
  88.7600176  33.6442580  43.5651604  90.0712815  32.4740442  43.8450319
  88.7610427  33.5721659  40.8246395  88.5072583  33.0550234  39.8992982
  87.8568952  33.9923608  41.2651561  89.4667927  34.3746249  40.6099875
  92.1641616  30.0145835  41.0773424  93.2170699  30.3751320  40.5488634
  91.5836601  28.8314685  40.8127657  90.8151679  28.5060579  41.3816480
  92.0289934  27.9830075  39.6805501  92.8508349  28.4706939  39.1563004
  92.5047804  26.6359415  40.1784665  93.4522126  26.7959005  40.6931358
  91.7628646  26.2716380  40.8890607  92.6959185  25.6064275  39.0717379
  92.5966995  26.1169722  38.1138233  93.7016102  25.1957950  39.1615548
  91.6777640  24.4769461  39.1524052  90.6937112  24.8922400  38.9349885
  91.9340248  23.7356468  38.3955001  91.6573957  23.8136620  40.5275725
  92.2923755  24.3982962  41.1932331  90.6315879  23.8322957  40.8956354
  92.1467996  22.3993561  40.4862493  93.0974690  22.3819071  40.1456280
  92.1147787  22.0047581  41.4154248  91.5582902  21.8573509  39.8698192
  90.9239385  27.7220312  38.7139307  89.9522465  27.0981527  39.0900214
  91.1165768  28.0711692  37.4445473  92.0185761  28.3897679  37.1205233
  90.0155590  28.0012469  36.4781682  89.5131154  27.0405555  36.5909576
  89.3121389  28.8059140  36.6922016  90.4984080  28.1375291  35.0603557
  91.6923447  28.3117216  34.8387569  89.5923902  27.9882458  34.0898773
  88.6628586  27.6575934  34.3060701  89.9564532  28.1782431  32.6681199
  90.9574707  27.8003454  32.4601380  88.9189177  27.5189910  31.6541457
  87.9106229  27.7540938  31.9949809  89.1099398  28.0416412  30.2195446
  90.1179228  27.8064842  29.8778252  88.3833147  27.5674784  29.5597822
  88.9640905  29.1217175  30.2033511  88.9794209  25.9555755  31.6898713
  89.4488611  25.6966955  32.6389276  87.9434014  25.6168250  31.6932283
  89.7311513  25.2784995  30.5503756  90.7674388  25.6164261  30.5466631
  89.7025242  24.1975057  30.6872413  89.2619800  25.5365577  29.6009631
  90.1486018  29.6928973  32.4286630  90.8506138  30.0829166  31.4967869
  89.6299815  30.5317246  33.3378087  89.0931716  30.1686790  34.1124908
  89.7412282  32.0011512  33.1879863  90.3466067  32.2433666  32.3145175
  88.3463913  32.6160469  33.0040423  87.7180297  31.8540363  32.5429556
  87.9644870  32.8484211  33.9981506  88.3288640  33.8809386  32.1426668
  87.5180217  34.5326303  32.4681410  89.2852252  34.3640932  32.3427523
  88.1972729  33.6145676  30.6460963  87.0607148  33.3434141  30.1855549
  89.2149609  33.7346016  29.9238047  90.4836868  32.6937102  34.3553402
  89.9087102  32.8442431  35.4641047  91.7161469  33.1829710  34.0688267
  91.9645629  33.3056458  33.0975699  92.7779922  33.3794967  35.1020422
  92.3321991  33.5036127  36.0889378  93.6755759  32.1609957  35.1265344
  94.2245086  32.1305766  34.1853401  94.3773641  32.2786886  35.9522109
  92.8958224  30.8594034  35.3031015  92.4147691  30.6855421  34.3405732
  93.5986459  30.0519824  35.5085514  91.8188375  30.9032965  36.4185543
  92.1829981  30.9734447  37.6081182  90.5968173  30.8201198  36.1133738
  93.6081219  34.7035671  35.0424408  94.2868015  35.0753428  35.9743371
  93.5057606  35.4186431  33.9520788  93.6112303  34.9571645  33.0598832
  93.2860204  36.8549619  33.9630219  92.7562491  37.1436290  34.8708285
  94.6303946  37.5962145  33.9226309  94.4876425  38.4868057  34.5346509
  95.3420086  36.9305514  34.4110961  95.1766311  38.0060700  32.5373868
  94.5511013  38.7335418  32.0200879  96.0818968  38.4959114  32.8960630
  95.5672034  36.8425195  31.5392042  94.8137487  36.6250617  30.5399899
  96.7117644  36.2917618  31.6173073  92.4221272  36.7950222  32.6656242
  92.0765948  35.6915187  32.2690571  91.9559605  37.9286853  32.2037718
  92.3201267  38.8108284  32.5343863  90.9129279  37.9496309  31.2217162
  91.0211998  38.8489398  30.6153996  90.9484848  36.7413561  30.3068027
  91.8653433  36.8011785  29.7203804  90.9787651  35.8531648  30.9379124
  89.7465247  36.6566289  29.3655922  90.0856267  36.1063874  28.4878992
  88.9533154  36.0965680  29.8608195  89.2146986  38.0182284  28.9367076
  90.0229274  38.9549527  28.8081978  87.9872103  38.1541855  28.7591179
  89.5769824  37.9742573  32.0433780  88.5068134  37.7085271  31.5197725
  89.6697338  38.2751950  33.3430840  90.6043366  38.4098592  33.7015285
  88.5504384  38.4277035  34.2603588  87.6291175  38.2018394  33.7234675
  88.6772184  37.4958157  35.4722214  87.6988401  37.3545363  35.9314779
  89.2132483  36.1653175  35.0144798  90.1918800  36.3057359  34.5554992
  89.3064417  35.4966865  35.8702533  88.5300216  35.7289798  34.2858441
  89.6105356  38.0268626  36.5564378  90.5860915  38.1931734  36.0995657
  89.2057196  38.9774678  36.9036743  89.7565659  37.0911274  37.7197966
  90.1617945  36.1403946  37.3733909  90.4327380  37.5274133  38.4550144
  88.7814215  36.9246873  38.1774984  88.6671482  39.8874021  34.6538877
  89.7540428  40.3248601  34.9659894  87.5849962  40.6398214  34.6581600
  86.6714793  40.2526773  34.4692005  87.6831140  42.0561033  34.9600082
  88.7195226  42.3360153  35.1487031  87.1754375  42.8500188  33.7727295
  86.1590273  42.4753513  33.6517589  87.1425113  43.8897285  34.0983359
  87.9071513  42.7585708  32.4509288  88.8216226  43.3478316  32.5188620
  88.2551874  41.3247312  32.1128403  87.3411260  40.7349096  32.0442763
  88.7798626  41.2931222  31.1579489  88.8955451  40.9122084  32.8924989
  87.0325068  43.3708171  31.3765208  86.8331227  44.4142815  31.6205036
  87.5434540  43.3141892  30.4153614  86.0906254  42.8252002  31.3194193
  86.8786964  42.5038499  36.1370283  85.9440210  41.8476215  36.5344791
  87.2332490  43.6393704  36.7068078  88.6197460  44.1874261  36.7538161
  88.7517598  44.9045404  35.9436187  89.3339260  43.3723396  36.6368551
  88.6990808  44.8274145  38.1082447  89.3736481  45.6831965  38.0818788
  89.0552085  44.1072788  38.8449121  87.2730487  45.2542308  38.4124707
  86.9765273  46.2066182  37.9730025  87.1463264  45.2986718  39.4941666
  86.4176459  44.1245176  37.8322810  86.3868214  43.3022448  38.5471346
  84.9765604  44.5820361  37.5120010  84.6851108  45.2658943  36.4868312
  84.0960730  44.2290352  38.4481417  84.4320856  43.8963023  39.3406010
  82.6623994  44.3033366  38.2371125  82.1525405  44.3292306  39.2001663
  82.4224492  45.2059684  37.6751702  82.1924433  43.1186186  37.4728268
  81.3109582  43.2365052  36.6191918  82.9705375  42.0488613  37.5985790
  83.9713888  42.1276900  37.4882068  82.4156486  40.7520369  37.8844859
  81.3831137  40.7357026  37.5356248  83.1898114  39.5857933  37.2024363
  84.2027044  39.4953790  37.5948292  82.6404698  38.6654289  37.4005603
  83.3166824  39.6992656  35.6974147  82.5712433  40.6295940  34.9581242
  81.8353678  41.2468296  35.4734953  82.7617053  40.7722999  33.5741588
  82.1951487  41.5237071  33.0241575  83.6688055  39.9595060  32.9059273
  83.7999846  40.0456931  31.8272875  84.4164381  39.0254571  33.6283849
  85.1413248  38.3970768  33.1109124  84.2373675  38.8948005  35.0121221
  84.8180803  38.1600794  35.5698473  82.4652350  40.5711877  39.3905612
  83.0434664  41.3950339  40.1335861  81.9849351  39.3843375  39.7675075
  81.8939244  38.7090365  39.0219977  81.6577459  38.9606550  41.1336182
  82.2997033  39.4962733  41.8329771  80.1725149  39.2509199  41.4698162
  79.7919580  38.4377332  42.0878811  80.0201423  40.5619520  42.2115246
  80.4000863  41.3757280  41.5938581  78.9667731  40.7350403  42.4318754
  80.5837111  40.5203150  43.1435953  79.3476825  39.3231456  40.1831690
  79.6996697  40.1949080  39.6315931  79.5703206  38.4200489  39.6148837
  77.8541457  39.4300045  40.3943819  77.6306779  40.3331665  40.9622380
  77.3523353  39.4756737  39.4278418  77.5013292  38.5583078  40.9455310
  81.8509952  37.4288900  41.1365762  81.7854033  36.7937179  40.0957731
  82.1199074  36.8328952  42.2754917  82.4216248  37.3365367  43.0973257
  81.9826308  35.4022634  42.3636828  82.2893568  34.9403644  41.4252439
  82.8473766  34.8667287  43.4668370  82.6269642  35.4859986  44.3363325
  82.6060861  33.8276535  43.6908944  84.3153167  34.9805626  43.1268745
  84.5099466  35.9744782  42.7239455  85.1690461  34.7604993  44.3689906
  84.9752938  33.7665471  44.7722498  86.2233091  34.8460557  44.1057217
  84.9203318  35.5111941  45.1191232  84.6977222  34.0077340  42.0236897
  84.1147741  34.2251037  41.1286917  85.7593296  34.1111848  41.7992148
  84.4937222  32.9881868  42.3508081  80.5236417  35.1223985  42.6484765
  79.8026829  36.0143233  43.0970727  80.0515302  33.9210182  42.3384361
  80.5967169  33.2639478  41.7988720  78.6983979  33.5374694  42.7350912
  78.4356103  34.0771844  43.6448987  77.6458077  33.8546025  41.6521663
  77.7664463  33.1469797  40.8319130  76.6531753  33.7395728  42.0875386
  77.6777742  35.5255988  40.8918824  76.6484988  35.3257500  40.0736216
  78.6576351  32.0718761  43.0518098  79.1672662  31.2426343  42.2964475
  78.0500365  31.7679995  44.1915887  78.0094874  32.4731924  44.9135015
  77.4669734  30.4396035  44.4759309  78.2544298  29.7318552  44.7349750
  76.4823633  30.5422544  45.6670105  77.0565527  30.5145405  46.5930978
  75.9802664  31.5058153  45.5801236  75.4360988  29.4201511  45.6806002
  75.8052292  28.2794450  46.0231238  74.2413578  29.6812730  45.3679868
  76.7360337  29.8646946  43.2376773  75.8790442  30.5315475  42.6499689
  77.0443524  28.6111923  42.8711290  78.1292536  27.7839087  43.4331620
  77.9569768  27.6427917  44.5001704  79.0820896  28.2916601  43.2835257
  78.0374970  26.5096355  42.6650016  77.4389148  25.7964020  43.2316554
  79.0409037  26.1085362  42.5221881  77.4023382  26.8342396  41.3547748
  76.7865877  26.0175794  40.9779242  78.1820345  27.0655048  40.6290408
  76.5274769  28.0793880  41.6015787  76.7419156  28.8327413  40.8435726
  75.0064808  27.7412343  41.5810684  74.4049974  27.6571877  40.5015352
  74.3806408  27.6167054  42.7480992  74.8858574  27.7219189  43.6163075
  72.9672665  27.2230704  42.8084121  72.7592736  26.4796453  42.0388946
  72.6339773  26.6214940  44.1702139  72.5306797  27.3861539  44.9400997
  71.6837913  26.1023805  44.0446443  73.6708147  25.6256752  44.6172698
  74.6053252  25.3130899  43.8719340  73.5624593  25.1763957  45.8623823
  74.2315133  24.5066233  46.2143361  72.8115028  25.5065712  46.4515761
  72.0425121  28.3936052  42.4751708  71.5800908  28.5082661  41.3403737
  71.7826262  29.2668897  43.4479028  71.8748720  29.0029365  44.4184278
  71.2947585  30.6018344  43.1398287  70.7116342  30.5677410  42.2195555
  70.4065050  31.1517167  44.2627946  70.5794263  30.5594991  45.1613912
  70.6760430  32.1901855  44.4552313  68.9178288  31.0893598  43.9151154
  68.2897347  30.0086528  43.8906399  68.3464225  32.2496178  43.6356564
  67.3654130  32.2815615  43.3975392  68.8939090  33.0979564  43.6617507
  72.4951015  31.4888389  42.8913214  73.2258250  31.8286658  43.8183477
  72.8090534  31.6635605  41.6102357  72.3242934  31.1175803  40.9123727
  73.8853524  32.5516928  41.1714291  74.5459946  32.7671825  42.0112000
  74.7174528  31.8976883  40.0429509  75.4384043  32.6851366  39.8232843
  75.2305215  31.0550026  40.5063528  74.0505780  31.4361570  38.7385595
  73.3294257  30.6571497  38.9859215  73.3411733  32.5729953  38.0158275
  74.0618170  33.3522320  37.7677110  72.8864488  32.1945234  37.1003574
  72.5666482  32.9872849  38.6612540  75.0881883  30.8018111  37.8243434
  75.5357617  29.9422290  38.3232382  74.6091639  30.4764859  36.9008714
  75.8640619  31.5316135  37.5930265  73.2938805  33.9011572  40.7352560
  72.1097395  34.1527138  40.9417949  74.1197705  34.7659772  40.1501557
  75.0169345  34.4493263  39.8111450  73.8002464  36.1831872  40.0387917
  73.1147104  36.4779054  40.8333235  75.0777167  37.0104269  40.1647020
  75.7324017  36.8608938  39.3061412  74.8532559  38.0719261  40.2692809
  76.0522862  36.5561085  41.6255330  77.0311714  37.4321376  41.4175544
  73.0853383  36.4794875  38.7307850  73.3392489  35.8243025  37.7137029
  72.1020220  37.3805520  38.8005105  71.8636588  37.7905683  39.6922330
  71.3731894  37.8310369  37.6116643  71.1289020  36.9648048  36.9967945
  70.0622063  38.5649839  37.9740318  70.2441178  39.5014539  38.5013187
  69.5382288  38.7701020  37.0405039  69.1242137  37.7697757  38.8254029
  68.7156729  36.4954204  38.4884476  69.0068544  35.9984876  37.6587664
  67.8932612  36.0410675  39.4173090  67.4694765  35.0396352  39.3422170
  67.7382615  36.9827676  40.3337542  68.4689067  38.0861598  39.9706286
  68.4362765  38.9871727  40.5831743  72.2950988  38.7924269  36.9318884
  73.1859678  39.3393334  37.5804035  72.0763670  39.0190513  35.6394822
  71.3724149  38.4926225  35.1420653  72.9005457  39.9595294  34.8841060
  72.9714752  40.9074559  35.4174948  74.3050389  39.3934972  34.7077667
  75.0294505  40.2014143  34.8107084  74.4855835  38.6439481  35.4782729
  74.4379199  38.8096558  33.4538916  75.3259639  38.4580699  33.3571184
  72.2624083  40.3124123  33.5292199  71.0294510  40.3024966  33.4043674
  73.0871389  40.6322771  32.5343240  74.0749008  40.4386888  32.6176868
  72.6047726  41.2648461  31.3041414  73.1912931  40.9477117  30.4418661
  71.5528531  41.0379406  31.1307099  72.7617357  42.7473288  31.4833001
  73.3861543  43.1475575  32.4359367  72.1553873  43.5578447  30.6071858
  71.4195166  43.1775951  30.0292551  72.6482960  44.9375402  30.3103315
  73.2216697  45.3089912  31.1596642  73.5631493  44.9490434  29.0485141
  74.1886873  45.8326142  29.1754161  74.1757679  44.0532006  29.1498266
  72.9147813  44.9739525  27.6437126  72.2239050  45.8157306  27.5968044
  73.7020596  45.1089703  26.9020488  72.1530280  43.6683667  27.3511591
  72.4384809  43.3088528  26.3625412  72.4274827  42.9258425  28.1004467
  70.6769275  43.8546834  27.3828799  70.3275922  44.6337238  26.8432872
  69.7900615  43.0791572  28.0439048  70.1755605  42.0269818  28.7684499
  71.1561433  41.7935294  28.8321475  69.4849925  41.4688721  29.2498323
  68.4906034  43.3715169  27.9920950  68.1766565  44.1702422  27.4595770
  67.8258839  42.7929796  28.4855942  71.6046552  46.0763530  30.2333884
  71.9661694  47.2348727  30.0821218  70.3168197  45.7319304  30.2894405
  70.0504009  44.7633462  30.1847257  69.2621142  46.7204842  30.5298974
  69.7215825  47.7019887  30.4131198  68.0109984  46.6331700  29.5750113
  67.3683119  45.8135390  29.8963515  67.2324677  47.9366636  29.6262002
  67.8744062  48.7567508  29.3045301  66.3688418  47.8708866  28.9644428
  66.8947622  48.1189483  30.6464100  68.3802072  46.4096047  28.1991722
  67.5881336  46.3639590  27.6586760  68.7805020  46.4705719  31.9123310
  68.8135541  45.3348029  32.3736360  68.2906886  47.5333675  32.5577621
  68.5102169  48.4479189  32.1896556  67.5440745  47.4498118  33.8558837
  66.7356174  46.7260845  33.7523698  68.4625175  47.0066368  35.0403171
  67.9304208  46.7607139  35.9592808  68.9970992  46.1261397  34.6838799
  69.4999003  48.0180650  35.4046945  70.6676528  48.0948880  34.6857853
  70.8452382  47.3876212  33.8756391  71.5994013  49.0438832  34.9774818
  72.5325366  49.0728792  34.4148821  71.3692775  49.9611824  35.9737706
  72.1113659  50.7245246  36.2076798  70.2054547  49.9109058  36.6691457
  70.0174852  50.6333011  37.4634458  69.2624527  48.9504911  36.3739918
  68.3169609  48.9303404  36.9159689  66.7865390  48.7617850  34.2283782
  67.1181774  49.8682310  33.7670169  65.7936974  48.5833806  35.1071293
  65.6532023  47.6470601  35.4587888  64.9378450  49.6436214  35.6103739
  64.9402242  50.4957500  34.9306899  63.5108832  49.1104716  35.7195944
  63.6251890  48.2384936  36.3635571  62.8387013  49.8258291  36.1934459
  62.9249309  48.6753802  34.3687545  63.1350985  49.4056118  33.3648394
  62.1591010  47.6615608  34.3397058  65.3997747  50.0564881  36.9937478
  65.7619018  49.2066351  37.8217211  65.3267392  51.3357737  37.2983443
  65.0747395  52.0611830  36.6423132  65.6939210  51.7178116  38.6170154
  65.1918782  51.0478680  39.3150324  67.1788038  51.5880415  38.8104421
  67.6951432  52.2596805  38.1245888  67.4362442  51.8494373  39.8368421
  67.4833881  50.5607648  38.6103666  65.2604318  53.0811834  38.9265722
  64.9577706  53.8783310  38.0299553  65.3139916  53.3499440  40.2212136
  65.8773521  52.7374906  40.7935990  64.6778557  54.4784733  40.8501578
  63.9529380  54.9290595  40.1722451  63.9459423  54.0171670  42.1124958
  63.5454759  53.0313324  41.8761571  64.7145260  53.9222145  42.8795441
  62.8336393  54.9032628  42.6217033  63.2824400  55.7321636  43.1690627
  62.2602200  55.2922587  41.7802911  61.8718844  54.1491740  43.5684765
  62.2172794  53.1144351  44.1539581  60.6461955  54.6684066  43.7006362
  59.9735142  54.2196077  44.3057649  60.3990314  55.5068762  43.1946914
  65.8065436  55.3771957  41.2323336  66.6337290  55.0222082  42.0664842
  65.7930687  56.5793639  40.6924863  64.9127998  56.9970540  40.4264772
  67.0011287  57.2977468  40.4051431  67.8749654  56.9318299  40.9442289
  67.2542310  57.1974932  38.8900254  66.4150477  56.6601993  38.4482258
  67.3968685  58.5751046  38.2112659  68.2361977  59.1128405  38.6522501
  67.5737288  58.4385121  37.1444183  66.4816267  59.1489186  38.3567616
  68.4893080  56.3228582  38.6377949  69.3357922  56.8399911  39.0896123
  68.3178065  55.3819838  39.1607119  68.7930768  56.0387368  37.1607108
  68.9651610  56.9791766  36.6372035  69.6829718  55.4137609  37.0859367
  67.9471737  55.5211710  36.7083024  66.8905975  58.7619254  40.8880727
  66.4224846  59.6248261  40.1560408  67.3554776  59.0692479  42.0912723
  67.8292117  58.3999001  42.6808899  67.1471838  60.4238907  42.6071779
  66.7364129  61.3563215  42.2199579  67.1442999  60.4858013  44.1324253
  66.2580221  61.0618812  44.3984008  67.1332520  59.1777900  44.8752083
  68.0195248  58.6013099  44.6100815  67.1322835  59.3687670  45.9483473
  66.2399297  58.6141337  44.6061943  67.4983987  61.7904215  44.8089526
  66.7937050  62.5629142  44.5011153  67.4491079  61.6645243  45.8905347
  68.5080749  62.0858801  44.5237175  68.2095214  61.3926572  42.1137982
  69.3421333  61.3580174  42.5325191  67.7689072  62.3314238  41.3089365
  66.7923022  62.3119732  41.0521025  68.5839733  63.3927254  40.7990611
  69.5122574  63.0283453  40.3590441  67.7926869  64.1625793  39.7492759
  66.8129137  64.4078681  40.1591275  68.4945569  65.4111498  39.3664715
  69.4742938  65.1666257  38.9560762  67.9090734  65.9422171  38.6159535
  68.6170525  66.0438583  40.2455471  67.5601169  63.2626215  38.5481831
  66.5850698  62.7968777  38.6912448  67.5271825  63.9119491  37.6733182
  68.6084857  62.1862965  38.3394290  68.6416813  61.5362516  39.2137513
  68.3543578  61.5968240  37.4584974  69.5837950  62.6513235  38.1958269
  68.9536909  64.3482029  41.9005441  68.0765654  65.0186236  42.4853346
  70.2390563  64.3848442  42.2226607  70.8904782  63.7604387  41.7689354
  70.7359425  65.2518967  43.2722768  69.8678870  65.5738345  43.8475462
  71.7031226  64.5123421  44.1851336  71.8398130  65.0882364  45.1004269
  71.1626809  63.1507794  44.5259062  71.0261537  62.5740918  43.6110880
  71.8652051  62.6335666  45.1793979  70.2044528  63.2565125  45.0345501
  73.0189815  64.2802852  43.5071595  72.8575520  63.6563926  42.6280694
  73.4313769  65.2411623  43.1993532  73.9807266  63.5976852  44.4347007
  73.5691979  62.6364632  44.7425906  74.9296307  63.4387677  43.9224257
  74.1430209  64.2212324  45.3138760  71.4099845  66.5121826  42.7981852
  71.2887946  67.5535211  43.4198185  72.1525784  66.4076540  41.7144023
  72.2439614  65.5411074  41.2036721  72.8353642  67.5695290  41.2132396
  72.4752948  68.4774541  41.6971004  74.3031991  67.4073007  41.5236613
  74.3564328  66.9762666  42.5233988  74.6896522  66.6909656  40.7986661
  75.1317298  68.6689375  41.4750369  75.3093477  68.9221857  40.4298489
  74.5732988  69.4735281  41.9534593  76.4594377  68.4856223  42.1827806
  77.3127707  69.3809870  42.0868745  76.6621533  67.4429835  42.8361900
  72.7163894  67.7430915  39.7499915  73.1185679  66.8789985  39.0123304
  72.1603621  68.8525750  39.3189032  71.6382994  69.4616329  39.9325792
  72.1328232  69.1213484  37.9073596  73.1512671  69.0841368  37.5207247
  71.3066699  68.1375692  37.1632775  71.7012414  67.1330920  37.3163730
  70.2630294  68.1690135  37.4762083  71.3183414  68.3787635  35.7050762
  70.9264331  69.5796452  35.1592693  70.6060211  70.3785402  35.6876656
  71.0382406  69.5124956  33.8472007  70.7634079  70.3627271  33.2229634
  71.5034187  68.3181766  33.5286468  71.6901066  67.5923243  34.6748558
  72.0759974  66.5744711  34.6186026  71.7620223  70.5305617  37.5705011
  70.8532749  71.0841460  38.1333301  72.4779566  71.1053993  36.6365413
  73.2734707  70.6185481  36.2489428  72.2431243  72.4679816  36.2251704
  72.1639191  73.0094981  37.1678186  73.4445204  72.9982068  35.4599190
  74.3490091  72.8391238  36.0470237  73.5316908  72.4718579  34.5094148
  73.2635464  74.4899228  35.1998112  72.3594410  74.6497666  34.6123214
  73.1767618  75.0170338  36.1499293  74.4689712  75.0219269  34.4319911
  75.3734607  74.8628428  35.0190941  74.5561395  74.4955788  33.4814867
  74.2879972  76.5136439  34.1718856  73.3838916  76.6734887  33.5843967
  74.2012158  77.0407529  35.1220036  75.4499468  77.0264598  33.4317558
  75.5302868  76.5384576  32.5511316  75.3300899  78.0144167  33.2594899
  76.2877649  76.8788276  33.9761496  70.9905997  72.7282329  35.4405937
  70.4315862  73.8031589  35.4940339  70.5791576  71.7600228  34.6558029
  71.0432481  70.8636432  34.6208311  69.4456704  71.9809812  33.7815981
  68.9024547  72.8720065  34.0963835  69.9156622  72.1791608  32.3478354
  69.0531639  72.4565978  31.7418447  70.6430065  72.9909179  32.3368550
  70.5134586  70.9971828  31.8119682  70.7957489  71.1623372  30.9093963
  68.5396298  70.7614011  33.9126508  68.0737887  70.4975248  35.0295655
  68.4343998  69.9306229  32.8567464  69.1831907  69.8974392  32.1797601
  67.2983193  68.9970386  32.6924467  66.8372322  68.7529571  33.6494849
  66.2057615  69.5371884  31.7098967  66.1524942  68.8654086  30.8531733
  64.8267173  69.6200549  32.3817198  64.8790829  70.2920651  33.2383182
  64.0961033  69.9992579  31.6672207  64.5250956  68.6277226  32.7169814
  66.5928148  70.8761155  31.1104494  66.1597070  71.6599001  31.7318994
  67.6798267  70.9530599  31.1346155  66.1057422  71.0370379  29.6803860
  65.0187062  70.9606683  29.6554811  66.4097505  72.0122336  29.3000290
  66.5388245  70.2538260  29.0581974  67.6346779  67.6679173  32.0641399
  67.1121637  67.3915545  30.9595800  68.1357348  66.7347707  32.8700515
  68.3854863  66.9399897  33.8269260  68.3928596  65.3461142  32.3471751
  69.0151653  65.4038640  31.4541467  69.0334125  64.3747523  33.3571613
  69.7644306  63.7646317  32.8266278  69.7119026  65.1015669  34.4853797
  68.9813751  65.7115844  35.0167072  70.1494590  64.3780927  35.1732971
  70.4973552  65.7425836  34.0850538  67.9903142  63.4126462  33.8873987
  67.0986468  63.9755698  34.1633461  67.7396886  62.6969589  33.1044057
  68.5025133  62.6877018  35.0727951  68.7529339  63.4027481  35.8564393
  67.7381668  62.0018722  35.4381873  69.3939776  62.1241387  34.7974991
  67.1519533  64.5816495  31.8090156  66.1188640  64.5433846  32.4516416
  67.3588868  63.7955522  30.7501707  68.2890196  63.4458823  30.5693859
  66.3322459  63.5772767  29.7430435  65.4582347  63.0725415  30.1546817
  65.9099096  64.9728806  29.2570478  65.0028695  65.2682372  29.7844394
  66.7080507  65.6796577  29.4840654  65.5612359  65.1644238  27.5400260
  65.2601022  66.4583612  27.6028166  66.7758338  62.5399798  28.6229904
  67.9083423  62.5575700  28.1661315  65.8812950  61.5818695  28.2657397
  64.5547392  61.9794169  27.7221675  64.6750075  62.8875723  27.1314989
  63.8783030  62.1747355  28.5542635  64.1147693  60.7956109  26.8859027
  64.4299122  60.9239915  25.8503823  63.0310157  60.6856036  26.9243469
  64.7943500  59.6221909  27.5231284  64.9261346  58.8755354  26.7400338
  64.2805719  59.1709233  28.3719448  66.1656388  60.1631661  27.9663835
  66.6072622  59.7009880  28.8492530  67.0903706  60.0389453  26.8366662
  66.9099079  60.7055729  25.8319658  68.0369736  59.1512155  26.9442040
  67.9863326  58.3799126  27.5943016  69.2152654  59.2656050  26.1013324
  69.6770223  58.2798318  26.0453759  68.8817611  59.5669267  25.1083171
  70.2552175  60.2767952  26.6076653  71.1766862  60.6681429  25.8681767
  70.0980089  60.6821865  27.8732767  69.1766955  60.6302101  28.2838609
  71.1958308  61.2088767  28.6921231  71.6392133  62.0662913  28.1858117
  70.7059748  61.6598930  30.0955352  69.8742333  62.3563437  29.9894141
  70.3404084  60.7176979  30.5038606  71.7433812  62.2500566  31.0352951
  72.3276816  63.4933733  30.7332049  72.0427423  63.9920739  29.8068105
  73.2540427  64.0895203  31.5903385  73.6956032  65.0537256  31.3384770
  73.5759159  63.4631215  32.8166595  74.5393648  64.1017425  33.6048406
  74.8741023  64.9089685  33.2074283  72.9745201  62.2218440  33.1662112
  73.2195300  61.7289236  34.1070088  72.0571594  61.6329861  32.2843417
  71.5736140  60.6925786  32.5487612  72.2183005  60.1261227  28.8448699
  71.9236590  58.9942269  29.3184597  73.4377017  60.5167051  28.5068196
  73.5833413  61.3709902  27.9880851  74.5465106  59.6859749  28.7481868
  74.2268339  58.6587998  28.9237357  75.4316635  59.7107740  27.5515622
  74.9239356  60.5366745  27.0533654  76.4968755  59.9303421  27.6237651
  75.2542960  58.4817311  26.7342084  74.4954224  58.5071801  25.7706021
  75.6711662  57.3389069  27.2971100  75.5786447  56.4683528  26.7934483
  76.0759017  57.3535498  28.2223535  75.2944748  60.0098488  30.0177073
  75.4426857  61.1886927  30.3706616  75.7041575  58.9582442  30.7394557
  75.4211221  58.0278040  30.4669281  76.5087324  59.1133376  31.9659724
  77.2755204  59.8639401  31.7743185  75.6408351  59.5883095  33.1295346
  74.8738107  58.8428162  33.3393286  76.2625642  59.7279705  34.0138693
  75.1658595  60.5335945  32.8669821  77.2104283  57.8264975  32.3372005
  76.9332877  56.7925289  31.7781727  78.1115028  57.9137302  33.3034024
  78.2624523  58.8078088  33.7483037  78.8205883  56.7436882  33.8345949
  78.9775571  55.9735649  33.0793664  80.1996711  57.0906695  34.4894502
  80.0231711  57.5821180  35.4462289  81.0243111  55.8209090  34.7129994
  81.2016233  55.3291205  33.7565448  81.9791592  56.0827346  35.1688644
  80.4802983  55.1452516  35.3730288  81.0074893  58.1435331  33.6981317
  80.4344467  59.0684816  33.6333676  81.9513901  58.3364556  34.2079668
  81.2073268  57.7694777  32.6940160  78.0086155  56.1925348  34.9673452
  77.3312822  56.9355507  35.6512369  78.2092607  54.9259472  35.2614377
  78.9710802  54.4134354  34.8406503  77.3538070  54.2395649  36.1675924
  76.7797895  54.9554378  36.7559198  76.3720014  53.3443904  35.3864354
  75.4958607  53.9769064  35.2436063  76.8367646  53.1449026  34.4208786
  75.9448137  52.0156829  36.0338805  76.7961654  51.3353800  36.0559953
  75.4604803  52.2647560  37.4488436  74.6087877  52.9446554  37.4275044
  75.1594345  51.3202043  37.9019377  76.2645258  52.7087285  38.0357846
  74.8565096  51.3649631  35.2148159  75.2263632  51.1691845  34.2083475
  74.5618427  50.4253893  35.6822277  73.9943686  52.0297792  35.1616048
  78.1821013  53.4136939  37.0754286  78.6910213  52.3907851  36.6852425
  78.2882369  53.8021494  38.3181480  77.8405411  54.6340271  38.6754258
  79.1237384  53.0234604  39.2242775  79.8301083  52.4226666  38.6514009
  79.9050183  53.9423426  40.1474147  79.2145747  54.5717984  40.7088167
  80.5146774  53.3637945  40.8414594  80.8267246  54.8559812  39.4339674
  82.1565422  54.9632714  39.7676482  82.6113413  54.4639390  40.5185974
  82.7323675  55.8229114  38.9460319  83.7909187  56.0603067  39.0519180
  81.8252637  56.2599870  38.0843930  80.6145689  55.7005202  38.3928244
  79.7265123  55.9748834  37.8234550  78.3144775  52.0837069  40.0351418
  77.7658101  52.4870978  41.0407724  78.3568072  50.8189365  39.7004045
  78.9041151  50.4852018  38.9199082  77.6953891  49.8587987  40.5222673
  77.0827426  50.3473678  41.2799372  76.8312535  48.9637781  39.6809625
  77.4636574  48.3636800  39.0267088  76.0197609  48.0539626  40.5676736
  75.3867184  48.6533724  41.2219410  75.3951839  47.4074065  39.9512571
  76.6897917  47.4423281  41.1718765  75.9504239  49.8311751  38.8121728
  75.5521657  50.6310582  39.4364149  76.5751124  50.2595128  38.0283421
  74.8177544  49.0730772  38.1893418  74.1923182  48.6448062  38.9726128
  74.2206244  49.7489516  37.5771910  75.2152654  48.2732589  37.5645414
  78.7753849  48.9994994  41.0989949  79.5316035  48.3974437  40.3672563
  78.8761938  48.9689827  42.4118206  78.3759765  49.6598044  42.9527896
  79.8626953  48.1466118  43.0890376  80.0896330  48.6135333  44.0474649
  79.4090646  46.7106766  43.3411221  80.2664587  46.1918691  43.7698569
  78.5664192  46.6494927  44.0298203  79.0179136  45.9510557  42.1203671
  79.5106916  44.6976959  41.8500046  80.1768731  44.2067127  42.4290016
  78.9795650  44.2498296  40.7296532  79.2564180  43.2725815  40.3341315
  78.1439296  45.1615133  40.2746583  78.1341626  46.2255055  41.1382064
  77.4809655  47.0768413  40.9467330  81.2298841  48.2567773  42.4559971
  81.6785361  49.3464273  42.1592040  81.8765038  47.1289847  42.2139295
  81.4795328  46.2263974  42.4326750  83.1781366  47.1715942  41.6037931
  83.8439979  47.8088538  42.1857107  83.8142055  45.7939606  41.4730185
  84.8530124  45.9153689  41.1660324  83.7618339  45.0558904  42.7707209
  82.7232491  44.9336825  43.0781402  84.2223922  44.0753195  42.6504469
  84.3015909  45.6193578  43.5318171  83.1408442  45.0506447  40.4569402
  83.5429401  44.1826950  40.3758081  83.0704637  47.7360152  40.2207813
  83.8941144  48.5131726  39.8118976  82.0433657  47.3560077  39.4942188
  81.3614813  46.7053874  39.8572974  81.9139061  47.7897171  38.1192579
  82.8315560  47.5719766  37.5728086  80.7736339  47.0684124  37.4514219
  81.0016701  46.0110869  37.3166572  79.8528667  47.1706537  38.0257340
  80.4145101  47.7110423  35.8186886  79.4118609  46.8768706  35.5583997
  81.7426860  49.2602858  37.8909674  81.2785160  49.9661050  38.7414358
  82.1362302  49.6923637  36.7002464  82.5882781  49.0472902  36.0680817
  82.0335202  51.0615797  36.3106859  81.1419521  51.4715029  36.7852050
  83.3016302  51.8671120  36.7906784  84.0941601  51.1632352  37.0447533
  83.7805997  52.7899638  35.7032948  82.9887146  53.4944822  35.4489870
  84.6561822  53.3382640  36.0508906  84.0444087  52.2067049  34.8210743
  82.9932552  52.7735423  38.0220301  83.4623528  53.7331989  37.8049880
  81.9099695  52.8937257  38.0341732  83.4668867  52.2715427  39.3914079
  84.5502039  52.1515527  39.3801804  83.1897744  52.9936625  40.1594255
  82.9978219  51.3120778  39.6093646  81.8187837  51.1603179  34.8061096
  82.7809921  51.2693843  34.0437838  80.5809023  51.0097045  34.3596643
  79.8126312  50.7993092  34.9806253  80.3251631  51.0302938  32.9308212
  81.2700752  51.1805974  32.4086631  79.6904033  49.7362745  32.4279375
  80.2308123  48.9044606  32.8797594  78.6542151  49.7220854  32.7658913
  79.7315520  49.6026797  30.8989256  78.7372514  49.9283992  30.5933542
  80.4789960  50.2748700  30.4775151  79.9856875  48.1518728  30.3807823
  81.0552064  47.5377565  30.7206417  79.1573693  47.6602584  29.5603713
  79.5050154  52.1933703  32.5044413  78.7040757  52.6861566  33.2315721
  79.7759102  52.6720370  31.3103122  80.4837747  52.2353714  30.7372936
  79.0911382  53.8150473  30.7889756  79.0994337  54.6227222  31.5208853
  79.7826036  54.2999628  29.5210199  80.7820254  54.6293687  29.8051802
  79.8596853  53.4450390  28.8492583  79.0621949  55.4262179  28.8207580
  78.2610395  55.7642455  29.4780162  79.7618357  56.2446171  28.6509798
  78.4755919  54.9818195  27.4981485  79.2843602  54.6701302  26.5881855
  77.2202011  54.9596749  27.3606000  77.6979251  53.3570218  30.5066730
  77.4757371  52.1630580  30.3426335  76.7474940  54.2860212  30.5729056
  77.0200162  55.2488196  30.7102017  75.3044270  53.9627847  30.5456490
  75.0807345  53.1474224  29.8577209  74.7761615  53.5772731  31.9661128
  75.3895295  52.7613723  32.3484539  74.8342190  54.7481881  32.9302360
  74.2206754  55.5643689  32.5487730  74.4580595  54.4362556  33.9045576
  75.8656751  55.0859830  33.0307075  73.3739672  53.0391461  31.8876559
  73.3597921  52.1513742  31.2553883  73.0280198  52.7778813  32.8877363
  72.7163951  53.7976176  31.4628963  74.4652700  55.1196144  29.9536139
  74.9283779  56.2818671  29.8341873  73.2562123  54.7616236  29.5360269
  72.9905044  53.7912995  29.6252999  72.2814552  55.6983418  28.9840608
  72.5992296  56.7277618  29.1496296  72.1710119  55.4577449  27.4807473
  73.1329336  55.7491660  27.0589897  72.0316754  54.3836282  27.3584417
  71.0643102  56.1931649  26.7643711  70.1199995  55.9692067  27.2605775
  71.2667501  57.2618695  26.8349944  70.9744720  55.7851991  25.2831507
  72.0078655  55.3351090  24.7111947  69.8613237  55.9098069  24.6881660
  70.9492852  55.4133855  29.6425348  70.6266304  54.2623290  29.9321895
  70.1919652  56.4428097  29.9578015  70.5145348  57.3988932  29.9136127
  68.8716826  56.1914241  30.4713318  68.7909976  55.1441876  30.7626816
  68.5153533  57.0742972  31.6539964  67.6813413  56.6221480  32.1907324
  69.6995254  57.2255247  32.5936961  70.5338381  57.6780663  32.0577584
  69.4191605  57.8622494  33.4327896  69.9963747  56.2449119  32.9656881
  68.0553398  58.4395571  31.1907092  68.7969859  58.8184565  30.4875043
  67.1016416  58.3120549  30.6785546  67.8881090  59.4313399  32.3355666
  68.8415706  59.5597207  32.8479426  67.5567444  60.3913771  31.9398074
  67.1462275  59.0533175  33.0389944  67.9523022  56.3755650  29.3006616
  67.8890097  57.4352908  28.6871298  67.3559955  55.2609726  28.9248381
  67.1485202  54.5626831  29.6244417  66.9624551  55.0007457  27.5600660
  67.6658390  55.4830513  26.8812940  66.9414897  53.4938138  27.2564651
  66.3990484  53.3173552  26.3276379  68.3394866  52.9952978  27.1174668
  68.8824566  53.1710019  28.0461279  68.3250692  51.9268645  26.9021960
  68.8345937  53.5229997  26.3022980  66.2914384  52.7762560  28.3122995
  66.2873177  51.8385521  28.1066427  65.5881416  55.5072899  27.2851179
  65.3662309  56.0915465  26.2205670  64.6213042  55.1039273  28.1272141
  64.4222027  54.1208728  28.2457972  63.7121603  56.0770935  28.7432773
  64.2043147  57.0246824  28.5242832  62.2981728  56.0967936  28.1131477
  61.7893301  55.1579514  28.3316759  61.7255986  56.9253695  28.5299462
  62.3826415  56.2209486  27.0335414  63.6478829  55.9533170  30.2564755
  64.1448243  54.9873726  30.8824417  63.2820203  57.1018116  30.8080456
  63.5429479  57.9477425  30.3218182  62.6240252  57.2228266  32.0861046
  62.9161979  56.4018876  32.7409279  63.0298648  58.5461412  32.7479548
  62.2961847  58.6926842  33.5406325  64.0147184  58.3924412  33.1890212
  63.0619199  59.7854721  31.8463521  63.9200081  59.6761590  31.1831508
  61.7946502  59.9891614  31.0114035  60.9361426  60.0990234  31.6739696
  61.9004162  60.8871390  30.4026748  61.6439946  59.1265244  30.3623575
  63.2723440  60.9857634  32.7080524  64.2169118  60.8883892  33.2432246
  63.2984319  61.8803245  32.0858136  62.4555854  61.0664279  33.4253374
  61.0755178  57.0916654  31.9460988  60.4887630  57.3444914  30.8527819
  60.4658092  56.7460782  33.0963070  60.8439765  57.1578335  33.9374647
  59.2378723  55.9011328  33.2109688  58.8912273  55.5903954  32.2253834
  59.4167790  54.6374549  34.1247103  59.6480398  54.9439393  35.1448506
  58.1197734  53.8527109  34.1149443  57.8880751  53.5454634  33.0951328
  58.2241440  52.9694834  34.7451161  57.3132064  54.4781399  34.4975505
  60.6057535  53.7722837  33.7185351  61.2092806  54.3694378  33.0349688
  61.1748455  53.5747247  34.6269426  60.2397940  52.4514987  33.0512827
  59.6710440  52.6482751  32.1424911  61.1496725  51.9068721  32.7990880
  59.6366066  51.8535628  33.7344646  58.1268031  56.6792226  33.9158372
  57.1709900  57.1218594  33.3045689  58.2715070  56.7912385  35.2218308
  59.1248944  56.4732970  35.6585716  57.2991938  57.3826648  36.0250685
  56.6000927  57.9490151  35.4097603  56.5394440  56.3309582  36.7660176
  56.5454326  55.3759024  36.2407255  56.9176526  56.1904755  37.7785999
  54.8201930  56.7913066  36.9383033  54.4505926  55.7014572  37.6050281
  57.9973615  58.2239542  37.0021105  58.6991936  57.7253884  37.8539773
  57.7089713  59.5014907  36.9594777  57.2330168  59.8815001  36.1537733
  58.0731054  60.4070500  38.0343147  59.1493796  60.5773166  38.0615581
  57.3828815  61.7235536  37.7687014  57.2176876  61.6983497  36.6915872
  56.4290813  61.8575622  38.2790021  58.2981890  62.8679374  38.1086366
  58.8233176  62.6216084  39.0314924  59.3301198  63.1405099  36.9842590
  58.8057119  63.3873785  36.0611388  59.9701127  63.9745554  37.2721443
  59.9411112  62.2515112  36.8278257  57.4128911  64.0593811  38.4913003
  56.7967188  63.7937664  39.3502998  58.0414096  64.9128259  38.7456577
  56.7701315  64.3199670  37.6504352  57.6578525  59.8601760  39.4243762
  56.8791662  58.9568645  39.4658237  58.2230143  60.3512024  40.5392669
  59.1399020  60.7725451  40.4958315  57.6028816  60.1522973  41.8720584
  56.5253630  60.3014175  41.9414564  57.9575345  58.7885899  42.5215948
  57.0377443  58.2113976  42.6161162  58.9640506  58.0038406  41.7061356
  59.8843356  58.5802372  41.6115661  59.1778071  57.0581702  42.2042483
  58.5554126  57.8075405  40.7148824  58.3080979  58.8959413  44.0195287
  57.4573202  59.3058051  44.5638549  58.5455947  57.9061737  44.4094709
  59.1695115  59.5518336  44.1455159  57.8419498  61.2499776  42.8779165
  58.9882242  61.6668944  43.0932240  56.7615228  61.6836800  43.5364767
  55.8561117  61.2942210  43.3159053  56.8263311  62.7943891  44.4894790
  57.5914689  63.5000056  44.1657991  55.4800162  63.5392677  44.5900276
  55.4183930  64.3210935  43.8330267  54.7339186  62.7725389  44.3813043
  55.2104015  64.1585280  46.0024788  56.1203890  64.8092173  46.5997143
  54.0378585  64.0527629  46.4834712  57.3141754  62.2909216  45.8466568
  57.0317318  61.1489574  46.2967339  58.1396375  63.1415342  46.4442357
  58.2247689  64.0801964  46.0812407  58.9797271  62.7579726  47.5618559
  59.3525783  61.7440862  47.4165433  60.1893079  63.7186939  47.6746648
  59.7975672  64.7356761  47.6550254  60.6628207  63.5308360  48.6383012
  61.2072989  63.5506571  46.5729630  61.4200144  62.4893454  46.4446263
  60.7978692  63.9532512  45.6464710  62.4840144  64.2817733  46.9187385
  62.2307259  65.3243721  47.1109149  62.8905905  63.8340836  47.8255843
  63.5307892  64.2080045  45.7984075  63.4224544  63.2243545  45.3414646
  63.2598946  64.9762939  45.0742206  64.9647756  64.4069902  46.2306064
  65.2161262  63.6949174  46.9013336  65.5712853  64.3404914  45.4257313
  65.0654691  65.3185742  46.6536602  58.1634756  62.7395289  48.8524922
  58.2744864  61.8378479  49.6627619  57.3283914  63.7358787  49.0259815
  57.2574442  64.4943611  48.3628296  56.5341529  63.7940056  50.2043619
  57.1659637  63.9308039  51.0819727  55.5814044  64.9646933  50.1075045
  55.2342511  65.0118988  49.0753439  54.7387396  64.7483604  50.7641750
  56.1971445  66.3000158  50.4965405  56.7292026  66.1857678  51.4409781
  56.8974750  66.6093674  49.7206920  55.1052794  67.3627454  50.6514222
  55.1783564  68.0418497  49.8019659  54.1408161  66.8554182  50.6284185
  55.2317781  68.1580487  51.9519450  56.0949467  67.7700048  52.4927431
  55.4091960  69.1998678  51.6850460  54.0070869  68.0652368  52.8274279
  53.8427605  67.0999902  53.0752094  54.1512345  68.6084206  53.6666376
  53.2072216  68.4251526  52.3266534  55.7566050  62.4778658  50.4327895
  55.7940986  61.9129931  51.5227881  55.1101868  61.9679521  49.3783775
  55.2048641  62.4135545  48.4769485  54.1594306  60.8525451  49.5087376
  53.7844605  60.8203443  50.5317038  52.9443128  61.0072990  48.5355157
  52.5055199  60.0179109  48.4063982  52.2224807  61.6637196  49.0214895
  53.2896556  61.5419240  47.2639260  52.5012414  61.6094772  46.7203826
  54.8393063  59.4864750  49.3400652  54.9670959  58.7355016  50.3083053
  55.3443565  59.2155410  48.1248167  55.6970440  59.9819908  47.5696000
  55.4108236  57.8371410  47.5526100  56.4550868  57.5585524  47.4111815
  54.9397316  57.1393755  48.2449213  54.6863247  57.7647842  46.1994264
  54.6633395  56.7028863  45.4986171  54.0641856  58.8910129  45.8501233
  54.3054214  59.7726223  46.2798553  53.0380143  58.8795756  44.8631645
  52.3769585  58.0340003  45.0531827  52.1978467  60.1737955  44.8711226
  51.5632992  60.1489712  45.7570303  52.8883293  61.0141467  44.9428428
  51.3212472  60.3363313  43.6172357  51.9730377  60.7013512  42.8234911
  50.9613061  59.3397424  43.3615951  50.1348669  61.2798073  43.7739804
  49.5422936  61.5937468  42.7161218  49.7892505  61.7024521  44.9242541
  53.7416452  58.7308659  43.5682421  54.3373238  59.6767364  43.0803610
  53.7017976  57.5421440  42.9978832  53.4606219  56.7005099  43.5014561
  54.0514828  57.4280474  41.6028494  55.1067591  57.6634619  41.4647516
  53.8031996  56.0242027  41.1138282  53.1932815  55.5214040  41.8643564
  53.2431309  56.0987318  40.1816971  55.0709891  55.2290942  40.8785811
  54.8719135  54.5035224  40.0899016  55.8458084  55.9208332  40.5480448
  55.5450794  54.4954795  42.1402962  55.8603732  55.2328658  42.8785037
  54.7157043  53.9126573  42.5409890  56.7228585  53.5569010  41.8172054
  57.5726023  54.1913930  41.5653008  56.9428652  53.0007620  42.7284714
  56.4651436  52.5885992  40.6865173  56.2616832  53.1037330  39.8419223
  57.2834126  52.0144830  40.5418574  55.6780555  52.0002846  40.9199211
  53.2609857  58.4017502  40.7556031  52.3634343  59.0615383  41.2273860
  53.6492719  58.5454024  39.5113291  54.3003831  57.9175454  39.0619414
  53.1334613  59.6241790  38.7609530  52.6191730  60.3151389  39.4289210
  54.2201312  60.3651017  38.0521060  54.9370688  60.7621774  38.7707371
  54.7341811  59.7043769  37.3540405  53.6283130  61.4296058  37.3420305
  54.3089806  61.9216949  36.8771221  52.1863890  59.1496618  37.7488282
  52.1880877  57.9960738  37.3607562  51.4816479  60.0973364  37.1787145
  51.8102868  61.0523536  37.1848767  50.2382562  59.8067976  36.5098181
  49.7447080  58.9511350  36.9706335  49.3214391  61.0205475  36.6284080
  49.7467449  61.8187394  36.0200465  48.3464626  60.7405590  36.2295003
  49.1604442  61.5113594  38.0785919  48.2396059  62.0925512  38.1273129
  49.0676427  60.6306155  38.7140289  50.3277138  62.3668257  38.5628038
  50.9579517  61.7695242  39.2216892  50.9106051  62.6943347  37.7019467
  49.8163299  63.5755989  39.3143116  48.8518764  63.3417679  39.7651476
  50.5266391  63.8445163  40.0961323  49.6591802  64.7207789  38.3700105
  49.0007043  64.4719547  37.6457207  49.3176672  65.5273622  38.8728943
  50.5528359  64.9378891  37.9524678  50.5770988  59.5562305  35.1065238
  50.5424735  58.4279524  34.6272707  51.1704665  60.5842637  34.5471307
  51.1515668  61.4813577  35.0107733  51.7665202  60.5037689  33.2587571
  51.2715393  59.7620647  32.6318856  51.6766897  61.8921774  32.5536150
  52.6419910  62.1269313  32.1050794  50.5625789  61.8660157  31.4257348
  49.5968484  61.6317667  31.8736093  50.5112466  62.8416003  30.9423107
  50.8126576  61.1066676  30.6848221  51.3793327  62.9183010  33.5252879
  51.3254288  63.7697683  33.0851764  53.2336809  59.9897300  33.3424457
  53.7988426  59.7874657  34.4281300  53.7739822  59.6786820  32.1631723
  53.1417530  59.5512953  31.3858962  55.2260350  59.6183050  31.9016454
  55.6842789  58.8657807  32.5433765  55.4993976  59.2435011  30.4288199
  54.5188775  59.1040043  29.9736053  55.9833248  60.1151019  29.9881087
  56.3518891  58.0123364  30.1805845  57.3859073  58.2525972  30.4279344
  55.9998965  57.2116153  30.8310067  56.2683859  57.5533137  28.7079694
  55.3285593  57.9056181  28.2828736  57.1017713  57.9885428  28.1564769
  56.3264749  56.1085780  28.5750466  55.6746487  55.6837151  27.9310641
  57.1481511  55.3096863  29.2756166  58.0735854  55.8062175  30.0983286
  58.1666492  56.8063561  30.2039785  58.6768959  55.1797106  30.6117535
  57.0818803  53.9868782  29.1230647  56.4126701  53.5886841  28.4798702
  57.7011882  53.3890261  29.6513916  55.7462219  60.9746358  32.0701157
  55.0250774  61.9277095  31.7944214  57.0440734  61.0733677  32.3544719
  57.8876624  60.1403674  33.1238365  58.6647468  59.7204130  32.4851829
  57.2801840  59.3337722  33.5342912  58.4407772  61.0378788  34.1888996
  59.4870244  60.7777791  34.3495666  57.8796522  60.8689419  35.1079755
  58.2918068  62.4790812  33.7179332  59.3070418  62.8589313  33.6034311
  57.7282030  63.1421631  34.3742660  57.6126461  62.3957084  32.3547950
  56.8230120  63.1315853  32.2029349  58.6144834  62.5071069  31.2530299
  59.3611376  61.5627119  31.0080574  58.5760998  63.6286084  30.5435434
  57.8206411  64.2805227  30.6997139  59.5189738  63.9021149  29.4444839
  59.4645113  63.0415762  28.7776960  59.0513679  65.1602465  28.6687677
  58.0220437  65.0220055  28.3378894  59.1089465  66.0319167  29.3206693
  59.9506983  65.3728695  27.4556639  60.9801886  65.5116537  27.7857996
  59.8932848  64.5017445  26.8030178  59.4907115  66.6105072  26.6925846
  58.4613869  66.4722681  26.3617075  59.5482922  67.4821767  27.3444865
  60.3423122  66.8488481  25.5058365  61.1024462  66.2097297  25.3219251
  60.1523599  67.8661988  24.6704825  59.1732430  68.7490187  24.8461517
  58.5481473  68.6551831  25.6339018  59.0592970  69.5092080  24.1909966
  60.9777910  67.9859666  23.6345192  61.7202989  67.3138422  23.5040167
  60.8583229  68.7484923  22.9830742  61.0509918  64.0219095  29.9183668
  61.9787914  63.9511301  29.0860375  61.2770973  64.0957028  31.2450201
  60.5103475  63.9091994  31.8754252  62.5907896  64.3812763  31.8174791
  63.2807253  63.5588987  31.6283152  63.1289799  65.6069932  31.1810042
  64.1005114  65.8798394  31.5930488  63.2234943  65.4418489  30.1077408
  62.2628678  66.7686961  31.3498447  62.2760391  67.4831727  32.5370851
  62.9038643  67.1345688  33.3570916  61.5181503  68.6080446  32.6884847
  61.5460168  69.1695531  33.6223114  60.7243952  69.0277701  31.6653277
  60.1075280  69.9195118  31.7765558  60.7033820  68.3132690  30.4753480
  60.0803156  68.6623852  29.6519365  61.4585481  67.1759056  30.3303943
  61.4116198  66.6050702  29.4030084  62.5658679  64.6718702  33.3139644
  61.5758406  65.0741092  33.8571169  63.6966320  64.6298939  33.9497746
  64.5836066  64.5252790  33.4781485  63.7010629  64.8271820  35.3502887
  63.1711120  65.4411921  36.0784664  64.1950717  63.5377732  36.0554455
  63.4288396  63.3124693  36.7972176  64.4468866  62.3400124  35.2288264
  65.2133952  62.5644197  34.4870671  64.7864121  61.5231935  35.8657172
  63.5269585  62.0472012  34.7227675  64.8053622  63.6332563  37.4115663
  64.0822219  64.0596684  38.1067948  65.0929684  62.6385242  37.7519931
  65.6879321  64.2715211  37.3692653  64.7106721  65.9006322  35.6005043
  65.8706178  65.6720689  35.2512913  64.3508357  66.9720808  36.3461507
  63.3678595  67.1297553  36.5164326  65.3480935  67.9854487  36.8870734
  66.1973124  68.0583838  36.2076567  64.7113978  69.3652371  37.0214485
  64.1688859  69.3648549  37.9668479  65.5319638  70.0807631  37.0743073
  63.7687278  69.7585954  35.8973256  64.3088183  70.4181912  35.2181081
  63.4773230  68.8518255  35.3672749  62.4960674  70.4841122  36.4216631
  61.6767697  70.2192144  35.7533223  62.2915432  70.0940255  37.4187096
  62.6291796  72.0192889  36.4879260  61.7452046  72.4031163  36.9972052
  63.5159776  72.2460119  37.0797749  62.7498924  72.6685387  35.1344615
  61.9280690  72.4589316  34.5860355  62.8333802  73.6687569  35.2471255
  63.5691801  72.3133291  34.6625580  65.9856943  67.6166725  38.2655415
  65.9703056  66.4733977  38.7126286  66.5654037  68.5958291  38.9350445
  66.5278481  69.5588919  38.6330527  67.3538992  68.2710457  40.1337645
  68.0576730  67.4730970  39.8969530  68.1560259  69.5084471  40.6424564
  68.4325541  70.0621184  39.7451942  67.4449184  70.0938734  41.2252962
  69.4235574  69.2385144  41.4940410  69.1914268  68.9594784  42.5218324
  69.9410032  68.4146759  41.0024701  70.3615788  70.4690926  41.5155605
  71.0720737  70.7503129  40.5472314  70.2897986  71.2343917  42.5742771
  70.8786687  72.0520402  42.6434466  69.6458500  71.0039655  43.3174698
  66.4282698  67.7582747  41.1779317  65.2309461  67.8254018  41.0190107
  66.9748443  67.3884117  42.3154060  67.9034352  66.9930369  42.3540970
  66.2285952  67.5473620  43.5792830  66.7988420  67.1162992  44.4021454
  65.9826113  69.0612246  43.8811406  66.2856048  69.5584541  42.9596977
  64.9282816  69.2616045  44.0717627  66.8330376  69.5993650  45.0627725
  66.7223792  68.9930141  46.1640196  67.5280338  70.6783585  44.9052310
  64.8607522  66.8537953  43.5287274  63.9787584  67.2046703  44.3555549
  64.7839947  65.7816925  42.6855194  65.6738136  65.3502973  42.4800447
  63.5370487  65.1805637  42.0741143  62.6794960  65.3350991  42.7289589
  63.2599056  65.8520187  40.7489088  63.1999956  66.9174190  40.9712422
  64.1405134  65.6581463  40.1365009  62.0099530  65.4204398  39.9916346
  62.0774930  64.3808545  39.6710076  61.1532047  65.5406927  40.6546757
  61.7994385  66.3037426  38.7523308  62.6761290  67.0718258  38.3997716
  60.6862133  66.1731999  38.0817271  60.5236037  66.7421994  37.2632534
  59.9932114  65.5038658  38.3847808  63.7486349  63.6821473  41.8172924
  64.8474126  63.2645941  41.6521807  62.7139290  62.8666166  41.8074611
  61.7695333  63.2142014  41.8934896  62.9147265  61.3987869  41.6498816
  63.9708453  61.1757675  41.4983080  62.4085238  60.5868577  42.8569462
  61.3216328  60.6583867  42.8975760  62.8185306  59.1173775  42.7356673
  63.9053818  59.0450049  42.6954460  62.4497987  58.5642621  43.5994963
  62.3928437  58.6947781  41.8255564  62.9315362  61.1558153  44.1553229
  62.5935980  62.1864725  44.2632379  62.5576265  60.5621643  44.9895109
  64.0212191  61.1298367  44.1511877  62.1573972  60.8941073  40.4405492
  61.1482035  61.4743666  40.0797955  62.6567869  59.8364485  39.7906563
  63.5235723  59.4327627  40.1159564  61.9721624  59.1994211  38.6273574
  60.9040241  59.4095908  38.6822071  62.5071640  59.7280866  37.2929260
  61.9868323  59.2543135  36.4605239  62.3784300  60.8088185  37.2333759
  64.3245817  59.4075029  37.0168756  64.3877492  59.9861393  35.8210127
  62.2659837  57.7371402  38.7042832  63.0214081  57.2976125  39.5818084
  61.6429431  56.9736378  37.8195835  60.9067208  57.3583835  37.2450865
  62.0001107  55.5477164  37.6410975  62.9019477  55.3323129  38.2141511
  60.8789789  54.5501083  38.0456831  60.6892902  53.8610016  37.2227307
  61.3226451  53.7621112  39.2774326  61.5120875  54.4505516  40.1009993
  60.5379943  53.0616087  39.5633000  62.2347805  53.2112804  39.0478818
  59.5910920  55.3278801  38.2991931  59.8655304  56.1495336  38.9607593
  59.2895283  55.7270342  37.3307743  58.4487723  54.5602905  38.9018281
  58.7494504  54.1611935  39.8705458  57.5934887  55.2233064  39.0322088
  58.1734498  53.7386922  38.2405613  62.2901124  55.3956954  36.1942116
  61.7136684  56.1108599  35.3870307  63.3428643  54.6631394  35.8807596
  63.8269343  54.0822502  36.5503440  63.8466602  54.7332901  34.5758801
  63.0359696  54.8021780  33.8505288  64.7068284  55.9412000  34.4441023
  65.5284841  55.8824007  35.1579122  65.1084078  55.9932636  33.4321124
  64.1142794  56.8335893  34.6456622  64.5875850  53.5116378  34.2694780
  65.0025187  52.7931424  35.1907876  64.6197929  53.2075101  32.9698296
  64.1250373  53.8022297  32.3205032  65.2996127  52.0476701  32.4519365
  65.5661538  51.3821452  33.2729917  64.4093946  51.2884571  31.4803820
  63.4404830  51.1598255  31.9628377  64.2933231  51.9117968  30.5937732
  64.9657190  49.9105412  31.0701029  65.9445093  50.0913303  30.6258218
  65.0849619  49.3381060  31.9899948  64.0842346  49.1089585  30.0720998
  64.6547945  48.9753026  29.1530260  63.8767258  48.1349509  30.5152124
  62.8068328  49.7587275  29.7433114  62.8673858  50.6230762  29.2243374
  61.6035066  49.3147868  30.0997056  61.4803486  48.1556746  30.7419182
  62.3034981  47.6121390  30.9589295  60.5642985  47.8248626  31.0093416
  60.5105382  50.0216960  29.7816088  60.6042526  50.8889282  29.2724665
  59.5979784  49.6840778  30.0524359  66.5866776  52.4506175  31.7536047
  66.6905216  53.5426803  31.1906470  67.5660945  51.5491145  31.7859458
  67.3298278  50.5713721  31.8770349  68.9745338  51.9131768  31.6794258
  69.0850895  52.8669285  31.1634469  69.5643083  52.0477034  33.0913739
  68.8880260  51.4812708  33.7316048  70.5279378  51.5405849  33.0429062
  69.7550957  53.4469447  33.6661799  70.1968838  54.0850871  32.9008707
  68.4551317  54.0197430  34.0977405  68.0129242  53.3823490  34.8634299
  68.6146454  55.0182964  34.5046154  67.7820732  54.0797119  33.2424648
  70.6807149  53.4294398  34.8715274  71.6554488  53.0411795  34.5761509
  70.7953467  54.4425407  35.2569979  70.2561264  52.7920269  35.6471100
  69.7341275  50.7985167  30.9123121  69.6720420  49.6372457  31.3209342
  70.4310606  51.1479331  29.8091596  70.2905495  52.0709954  29.4240468
  71.3318059  50.1946192  29.0683833  71.2442689  49.2054823  29.5178773
  70.9691724  50.0892633  27.5640987  70.9678313  51.1016146  27.1600661
  71.7546741  49.5072726  27.0820469  69.6031791  49.4281877  27.2969539
  69.3450492  48.8759642  28.2005683  68.8901914  50.2397422  27.1515924
  69.5550740  48.4828396  26.0887620  69.8823881  47.4951939  26.4136012
  68.5242770  48.4265744  25.7389176  70.4071727  48.9180604  24.9743295
  71.2255568  48.3559558  24.7888971  70.1908622  49.9968431  24.2186030
  69.1354675  50.7837709  24.4226808  68.4823438  50.5659357  25.1616512
  68.9932913  51.5945986  23.8374936  71.0301437  50.2771193  23.2313235
  71.8226031  49.6748348  23.0599711  70.8731993  51.0916322  22.6550979
  72.8144501  50.5421582  29.2168547  73.2846996  51.5880401  28.7739318
  73.5472808  49.6101389  29.7852676  73.0979020  48.7804793  30.1455773
  74.9885058  49.7105799  29.8891518  75.2876130  50.7296372  30.1344194
  75.5252642  48.7595837  30.9869157  76.5123308  49.1012981  31.2984140
  74.6045765  48.7454067  32.1712747  73.6173670  48.4033311  31.8606281
  74.9996519  48.0712237  32.9312035  74.5268096  49.7513516  32.5837402
  75.6617681  47.4203842  30.4723214  75.9949958  46.8441893  31.1641010
  75.6239501  49.2946977  28.5636607  75.5273496  48.1335999  28.1657460
  76.3607108  50.1953751  27.9249206  76.5251787  51.1090419  28.3227430
  76.8596090  49.9252865  26.5611748  75.9665081  49.7251911  25.9692021
  77.5679667  51.1516628  25.9789278  78.4693135  51.3591652  26.5556571
  77.8381102  50.9571577  24.9410017  76.9014236  52.0128770  26.0250757
  77.7718077  48.6860869  26.4589548  78.3709835  48.4418735  25.3890795
  77.8800596  47.9196581  27.5508008  77.6675272  48.3043009  28.4601848
  78.3023600  46.5218304  27.4707142  78.3408233  46.2433631  26.4175876
  79.3006392  46.4482791  27.9021399  77.3746544  45.5631769  28.2028343
  76.2904881  45.2148426  27.6890087  77.8502665  45.0626696  29.3511446
  78.7381283  45.3981016  29.6965230  77.1455807  44.0353252  30.1262615
  76.0716029  44.2211119  30.1138411  77.4078492  42.6094705  29.5787712
  77.9974478  42.7084401  28.6673555  78.1641303  41.6965247  30.5895011
  77.5748894  41.5967010  31.5010547  78.3171695  40.7123002  30.1468043
  79.1302295  42.1409082  30.8288256  76.1597593  42.0108397  29.2436821
  76.3104600  41.1260589  28.9030170  77.5974876  44.0969628  31.5436612
  78.7701035  44.3432461  31.8292846  76.6875270  43.8049027  32.4340356
  75.7907529  43.4310308  32.1581456  76.9195622  44.0524589  33.8188207
  77.9418050  44.4010017  33.9659150  75.9323083  45.1404180  34.2920433
  74.9489024  44.9005387  33.8877277  75.8491709  45.2306218  35.7941633
  76.8321716  45.4709465  36.1991995  75.1411213  46.0109536  36.0731774
  75.5140081  44.2752967  36.1980433  76.3497875  46.5099522  33.7906699
  76.2192157  46.5172588  32.7085431  75.6807322  47.2427175  34.2418011
  77.7853909  46.8614818  34.1285304  78.4551109  46.1293713  33.6773218
  78.0180024  47.8533289  33.7409347  77.9166278  46.8548278  35.2105805
  76.7387863  42.7333641  34.5397972  76.5840506  41.7073745  33.8909341
  76.8542715  42.7309681  35.8658452  77.5723934  43.2817865  36.3141749
  76.0662174  41.7962887  36.6973619  75.2413402  41.3873403  36.1138914
  76.9400148  40.6463959  37.1762957  76.8200222  40.4676826  38.2448286
  76.7311859  39.7271791  36.6290015  78.6895152  40.9932735  36.9211418
  79.1336679  39.8445355  37.4231654  75.2623959  42.4461970  37.8818180
  75.7731344  42.6128833  39.0141342  73.9736610  42.7140239  37.6002080
  73.6256590  42.4337924  36.6944132  73.0522944  43.3597405  38.5239697
  73.5339448  44.2021648  39.0203903  71.8609821  43.8737222  37.7462410
  71.5593680  43.0217842  37.1368726  71.0432589  44.1518438  38.4111298
  72.1992955  45.0440434  36.8453829  73.2788885  45.0943113  36.7037747
  71.5168206  44.8576738  35.4919238  70.4370999  44.8077785  35.6326804
  71.7596165  45.6991781  34.8430621  71.8659551  43.9328583  35.0326615
  71.8237755  46.3713411  37.5215652  72.3765219  46.4730616  38.4554944
  72.0740280  47.2004444  36.8597021  70.7539528  46.3836223  37.7299577
  72.5199112  42.4302734  39.5843494  72.4860296  41.2202298  39.3866187
  72.0650215  43.0277820  40.6917743  72.5331868  43.8640772  41.0104137
  70.9298323  42.5254901  41.4734994  70.4460256  41.7113805  40.9338182
  71.3922685  42.0032587  42.8327610  71.8763058  42.8353674  43.3440362
  70.4968242  41.7116445  43.3816150  72.3539069  40.8204433  42.7637303
  73.1477424  41.1017949  42.0718002  72.7725522  40.6867314  43.7612054
  71.7154337  39.5133460  42.3007987  70.4890634  39.3027044  42.5502279
  72.4811496  38.7039430  41.6864649  69.9166776  43.6334521  41.6925036
  70.2499003  44.8014809  41.6389364  68.6826420  43.2631457  42.0025411
  68.4122405  42.2911876  41.9547930  67.6659950  44.2515616  42.3957938
  67.7945916  45.1515327  41.7944502  66.2273736  43.7263317  42.1966276
  65.5327398  44.5631656  42.2693827  66.0799848  43.0564877  40.8204439
  66.7740259  42.2192129  40.7471139  65.0593453  42.6933304  40.6999827
  66.3019551  43.7814027  40.0372913  65.9136713  42.7712752  43.2076330
  65.0186031  42.4496181  43.0772870  67.8769010  44.6035733  43.8415920
  68.2674329  43.7653265  44.6275718  67.6057670  45.8441407  44.1587542
  67.1748268  46.4719818  43.4952744  67.7863628  46.2935415  45.4871145
  68.8330470  46.1949811  45.7749289  67.3897702  47.7429142  45.6019318
  67.7785335  48.2772660  44.7350810  66.3062702  47.8550509  45.6413423
  67.9348808  48.4329095  46.8089492  68.5398074  47.7367755  47.8166110
  68.6333609  46.6538115  47.7357618  69.0246425  48.3834640  48.9165705
  69.5209021  47.8185094  49.7056544  68.8881251  49.7383748  49.0287693
  69.2713142  50.2562214  49.9080309  68.2708008  50.4428892  48.0375412
  68.1527009  51.5232442  48.1211220  67.7995154  49.7877615  46.9361036
  67.3059536  50.3452595  46.1400555  66.7316766  45.4285052  46.0638939
  66.0083880  44.8093684  45.3086427  66.6801837  45.3066250  47.3776605
  67.3232258  45.8130504  47.9693780  65.6881661  44.4585579  48.0085203
  65.6140809  44.6180520  49.0842397  64.3059595  44.6544172  47.3898751
  63.9613685  45.6702586  47.5833243  64.3621331  44.4890617  46.3139559
  63.3276594  43.6601127  48.0062449  63.6713651  42.6439705  47.8127966
  63.2705977  43.8251680  49.0821644  61.9472185  43.8557199  47.3883891
  61.6026274  44.8715616  47.5818361  62.0033931  43.6903624  46.3124705
  60.9689184  42.8614161  48.0047612  61.3126238  41.8452737  47.8113143
  60.9118559  43.0264746  49.0806789  59.6382649  43.0499678  47.4091870
  59.6908346  42.8966439  46.4122778  58.9903408  42.3914465  47.8174076
  59.3194128  43.9913549  47.5886939  66.1361973  43.0550667  47.7832723
  66.3506731  42.3200500  48.7284493  66.3085340  42.6735275  46.5296280
  66.1362551  43.2895592  45.7480115  66.7781967  41.3312360  46.2554138
  66.0926018  40.6082578  46.6974107  66.8563776  41.0752857  44.7638555
  65.9556666  41.4771558  44.2998303  67.7290828  41.6030043  44.3791495
  66.9744251  39.6138008  44.4433736  67.2479645  38.8252499  45.3656033
  66.7892114  39.2480589  43.2702224  68.1549054  41.2679045  46.8707247
  68.5342748  40.2919308  47.4916660  68.8858415  42.3546173  46.6887142
  68.4742943  43.1122537  46.1626768  70.2180374  42.5368243  47.2273799
  70.2932206  42.0065122  48.1767038  71.2822680  42.0107607  46.2954918
  70.8754726  41.7777927  45.3114478  72.0751329  42.7518392  46.1941613
  71.9188086  40.7773405  46.7914360  72.5281825  40.7703421  48.0193119
  72.5454052  41.6859806  48.6104206  73.1120114  39.6286602  48.5061706
  73.5955930  39.6339626  49.4830131  73.0860438  38.4757426  47.7584944
  73.5497390  37.5652573  48.1381037  72.4724688  38.4732967  46.5277623
  72.4487505  37.5629971  45.9286862  71.8877798  39.6238318  46.0535084
  71.3936547  39.6235486  45.0819425  70.3573330  44.0175550  47.3567411
  69.6065985  44.7342858  46.7093581  71.3185673  44.4832841  48.2349473
  72.2645400  43.9848937  49.3111292  73.2814015  43.9343106  48.9218553
  71.9568112  42.9962369  49.6516578  72.1059332  45.0324900  50.3760399
  73.0978198  45.3666512  50.6803365  71.5972290  44.5826016  51.2286370
  71.3041441  46.1535555  49.8091358  71.7692556  47.1045587  50.0686803
  70.2605191  46.1623060  50.1235717  71.3912575  45.9293093  48.3165461
  70.5690133  46.3261824  47.7211434  72.6945120  46.5109084  47.8243489
  72.7009158  47.3683908  46.9612655  73.8014016  46.0238419  48.3463093
  73.7648219  45.2995186  49.0492439  75.0954230  46.5802258  47.9986837
  75.0969231  47.6540360  48.1858432  76.1932403  45.9408883  48.8312632
  77.0785966  45.8876391  48.1976956  76.3856913  46.6124745  49.6679440
  75.8667283  44.5615130  49.3574186  75.0292161  44.1597185  48.7871245
  76.7343775  43.9135537  49.2331785  75.4887894  44.5856660  50.8155229
  75.5727642  45.6172817  51.4675851  75.0780767  43.4470604  51.3370757
  74.8124166  43.4078501  52.3107228  75.0309046  42.6190218  50.7606833
  75.4405923  46.4777167  46.5387165  76.2541054  47.2227014  46.0284516
  74.8331109  45.5283154  45.8743450  74.1675911  44.9315269  46.3444792
  75.1047937  45.2835092  44.4814619  76.0263900  45.7833782  44.1833169
  75.2620741  43.8166260  44.2524165  74.3025533  43.4293868  43.9096850
  76.0085164  43.6809904  43.4697755  75.6953107  43.0639741  45.5020253
  76.4268176  43.6768272  46.0287221  74.8176856  42.9238748  46.1330945
  76.4213797  41.4615152  45.1356926  76.0437694  41.2350788  43.3749237
  76.4971667  42.0417521  42.7988958  76.4434883  40.2789377  43.0371080
  74.9635516  41.2483657  43.2298230  74.0171226  45.8017572  43.5767478
  74.1103017  45.6851419  42.3513056  73.0078689  46.4220280  44.1729894
  72.9335017  46.4144839  45.1802193  71.9785731  47.1306802  43.4050108
  72.2619583  47.0365085  42.3567151  71.0458232  46.5939863  43.5783216
  71.7699944  48.6102626  43.7333396  70.7947238  49.2091703  43.2942886
  72.5686229  49.1566721  44.6371593  73.1523308  48.5965484  45.2418459
  72.5947625  50.5846930  44.7966933  71.6585719  50.9877866  44.4104786
  72.7613215  51.0416018  46.2633707  72.3627268  52.0549273  46.3122858
  72.1371124  50.3769688  46.8606361  74.1988053  51.0286638  46.8152239
  74.8606038  50.6700378  46.0268642  74.4692260  52.0511828  47.0787189
  74.3398160  50.1279974  48.0503182  73.8147974  49.1985875  47.8297465
  75.4028784  49.9229915  48.1766921  73.8178286  50.6749038  49.2977120
  73.3707781  51.5799813  49.2648496  73.8916788  50.0435383  50.4707703
  73.3985350  50.6204971  51.5721680  72.9712062  51.5336660  51.5120625
  73.4557513  50.1403485  52.4588941  74.4501864  48.8289602  50.5510838
  74.8171417  48.3892244  49.7191726  74.5018826  48.3582567  51.4431962
  73.7325655  50.9830493  43.9598632  74.5805284  50.1831408  43.6535622
  73.6198810  52.1546160  43.4118909  72.8645459  52.7765624  43.6623921
  74.5669589  52.6003808  42.4726576  75.5801910  52.3779598  42.8073049
  74.3200794  51.8794646  41.1722052  75.2020463  51.9311606  40.5338001
  74.0762662  50.8357179  41.3703160  73.1957365  52.4351387  40.3867407
  73.3591399  53.5398729  39.6141045  74.3191173  54.0552113  39.5829666
  72.3078639  54.0055296  38.8710677  72.4716942  54.8660275  38.2223738
  71.0587949  53.4101307  38.9293646  70.2246164  53.7982176  38.3448693
  70.8831022  52.3369093  39.7226628  69.9031721  51.8689785  39.8168855
  71.9650040  51.8272355  40.4240515  71.8496250  50.9237527  41.0228055
  74.4156894  54.0670660  42.2376665  73.3182500  54.6098997  42.3580344
  75.4460002  54.6659849  41.6950831  76.2422248  54.1449353  41.3565080
  75.4579050  56.0702158  41.5575373  74.5050212  56.5172394  41.8408772
  76.5439582  56.6525913  42.4329401  76.1218744  56.8642117  43.4153669
  77.7195841  55.6820664  42.5810179  78.1425098  55.4703202  41.5989807
  78.4836612  56.1303027  43.2161317  77.3704075  54.7539158  43.0334697
  76.9860875  57.8755659  41.8827540  77.6758429  58.2456736  42.4385041
  75.7411006  56.3211219  40.1257998  76.7875579  55.9676930  39.6568581
  74.8255474  56.9391678  39.4057389  73.8548758  56.9806284  39.6817406
  75.2285675  57.6288893  38.1771889  75.6487256  56.8987183  37.4855122
  74.0733038  58.3232698  37.5016354  73.3317437  58.4949439  38.2818378
  74.4153275  59.2809003  37.1091259  73.4491592  57.5106834  36.3803273
  74.1754515  57.3741081  35.5791110  73.0380107  56.1811585  36.9088519
  72.3113246  56.3169106  37.7098497  72.5893315  55.5939919  36.1075885
  73.9118986  55.6576871  37.2966640  72.2512904  58.1968355  35.7508834
  72.5587865  59.1559748  35.3342331  71.8480621  57.5687264  34.9565364
  71.4852152  58.3594586  36.5090268  76.2195251  58.6742086  38.5306992
  76.1625471  59.1785029  39.6362604  77.0988107  59.0238745  37.5863467
  76.9816730  58.6543107  36.6537156  78.2471093  59.9158659  37.8470972
  77.9495932  60.7229314  38.5165959  79.3746483  59.1319398  38.5016999
  78.9279814  58.2594133  38.9784446  80.0467090  58.8071310  37.7073866
  80.1518262  59.9217550  39.5260789  81.2149068  59.8172558  39.3091909
  79.8660492  60.9703773  39.4434677  79.8750378  59.4353212  40.9229638
  80.2930722  60.1516140  41.6302621  78.7957762  59.3747533  41.0630537
  80.4619894  58.1079528  41.1915411  79.9471515  57.3072715  40.8539752
  81.6059672  57.8977109  41.8625807  82.3456165  58.9293148  42.2949708
  82.0411581  59.8754155  42.1152531  83.2037906  58.7554920  42.7983818
  82.0329908  56.6465349  42.0885463  81.4915272  55.8629731  41.7524687
  82.8940771  56.4935992  42.5937589  78.6945372  60.4935764  36.5055627
  78.6903809  59.8003971  35.5168347  78.8704078  61.7980586  36.4157078
  78.7435217  62.3982287  37.2180762  79.2062397  62.4235981  35.1183288
  79.7614074  61.7103240  34.5091260  77.9283294  62.8541153  34.3399213
  77.2515870  62.0096216  34.2097314  77.4582077  63.6004134  34.9803313
  78.2435184  63.4875012  32.9478782  78.6254357  62.7645448  31.9858625
  78.0343398  64.7045325  32.7969372  80.1048178  63.6106539  35.3995423
  79.9045715  64.3145783  36.4104092  81.1229272  63.8139851  34.5566548
  81.1620571  63.3404106  33.6654222  82.1807587  64.7745919  34.8797401
  83.0100803  64.6593880  34.1818483  81.6487124  66.2165469  34.7782237
  80.8060176  66.2698923  35.4675124  82.4545118  66.8551041  35.1402072
  81.2065672  66.6899815  33.3978164  82.1177034  66.9521419  32.8600399
  80.7051906  65.8698422  32.8839172  80.2691308  67.9145482  33.4482973
  80.2722646  68.6905781  32.4770251  79.5546247  68.1274967  34.4634785
  82.6184035  64.5464582  36.3453076  82.7544310  65.5092944  37.1034164
  82.6341581  63.2925914  36.8020643  82.2451308  62.5404596  36.2515600
  83.2139653  62.9690064  38.1112095  83.3253900  61.8854418  38.1508519
  84.1979439  63.4364972  38.1477857  82.3994974  63.4295774  39.3190764
  82.5470808  62.8590890  40.4152165  81.4514579  64.3529373  39.0930378
  81.4653352  64.8907068  38.2382216  80.3526907  64.5893086  40.0511861
  80.7759213  64.8629237  41.0176797  79.4322294  65.7000818  39.5944818
  79.3407789  65.6175117  38.5114683  78.4604421  65.5227320  40.0552165
  79.9094512  67.0711275  39.9507991  79.0815969  67.6441082  40.3684726
  80.7071349  66.9948216  40.6897038  80.4350983  67.7726372  38.7087712
  81.5240538  67.7271364  38.7230771  80.0613966  67.2445788  37.8315023
  79.9880571  69.2302096  38.6532573  80.5707664  69.7308505  37.8800115
  78.9328225  69.2475588  38.3807169  80.1778084  69.9390745  39.9581964
  81.1556094  69.9234865  40.2107077  79.8682190  70.8963493  39.8694315
  79.6376021  69.4755814  40.6747510  79.4775302  63.3935200  40.2192035
  79.2451945  62.6360915  39.2855771  78.8069314  63.3770936  41.3498547
  79.1257609  63.9282743  42.1338489  77.6378289  62.5152426  41.5368126
  77.7163396  61.6483729  40.8807088  77.5419258  62.0215981  42.9978340
  77.2745296  62.8687092  43.6295003  76.5158867  60.9403865  43.1521141
  76.7828722  60.0926936  42.5210554  76.4786011  60.6200549  44.1933137
  75.5388023  61.3208386  42.8543511  78.8287919  61.4977558  43.3973323
  78.7804515  61.1878706  44.3046551  76.3645338  63.2273176  41.1314599
  75.9950051  64.2434333  41.6969000  75.6814290  62.6302254  40.1850432
  75.9404120  61.6972942  39.8975250  74.6152870  63.2732531  39.5026903
  74.4299168  64.2894527  39.8506494  74.9441108  63.2983061  38.0332509
  76.0121942  63.4778742  37.9105578  74.5735243  61.9642776  37.3822835
  73.5054302  61.7842251  37.5041723  74.8169848  61.9975569  36.3203418
  75.1337579  61.1592758  37.8578984  74.2448577  64.4700763  37.3610927
  73.1700554  64.3406643  37.4881886  74.5617672  65.3851996  37.8613098
  74.5714273  64.5633847  35.8817983  74.2543649  63.6487449  35.3807940
  74.0487020  65.4152341  35.4468155  75.6460777  64.6932780  35.7539152
  73.2248637  62.5936792  39.7342258  72.1822936  63.1640722  39.3599566
  73.2244819  61.3875475  40.3415214  74.1215473  60.9551709  40.5101141
  71.9979220  60.6602367  40.7720744  71.3423071  61.3240895  41.3356059
  71.2426743  60.1431389  39.5674808  71.8831956  59.4696859  38.9980130
  70.3541443  59.6054559  39.8984064  70.9457722  60.9811879  38.9369079
  72.3626702  59.4660453  41.6693675  73.4741999  58.9563503  41.6357711
  71.3981400  58.9633269  42.4199591  70.5888590  59.5095809  42.6783583
  71.5629130  57.6388119  43.0224257  72.2236621  57.0661900  42.3715694
  72.1490211  57.6813981  44.4318205  71.6307559  56.9685988  45.0732397
  73.6141256  57.3142534  44.3514240  74.1331782  58.0269258  43.7105003
  74.0507938  57.3391933  45.3498225  73.7157214  56.3116863  43.9359284
  72.0211629  59.0615498  45.0381164  72.8219070  59.1788958  45.7682805
  72.1509913  59.7893595  44.2371563  70.7099852  59.2839217  45.7013159
  70.5796355  58.5567281  46.5027510  70.6785253  60.2911798  46.1166961
  69.9087194  59.1671894  44.9716266  70.3142402  56.8022485  43.0134802
  69.1977895  57.3167580  43.1388786  70.5170943  55.5008439  42.8372070
  71.3811595  55.0858027  43.1553761  69.5255451  54.6339737  42.1921122
  68.5322421  55.0474780  42.3666474  69.7253840  54.6098011  41.1208608
  69.5734646  53.2153321  42.7364114  70.6647256  52.6428815  42.8340473
  68.4220967  52.7022982  43.2126323  67.6264220  53.3110526  43.3407689
  68.2723821  51.2841868  43.5469566  69.2322999  50.8859471  43.8756848
  67.2380207  51.0811523  44.6809555  66.3014362  51.4782589  44.2895286
  67.1521743  50.0011962  44.8010607  67.5418455  51.7348438  46.0632131
  68.1917776  51.0345075  46.5878255  68.0940678  52.6490961  45.8457386
  66.3016986  52.0746940  46.9659277  66.5451230  51.7385542  47.9738233
  66.1970732  53.1596481  46.9606664  64.9550407  51.4183646  46.5079515
  64.8037996  51.7768251  45.4897507  65.1603139  50.3480353  46.4890476
  63.7171606  51.6760554  47.3180287  63.5265303  52.6677515  47.3353126
  62.9354727  51.1901421  46.9021532  63.8569404  51.3435839  48.2614392
  67.7899325  50.6488407  42.2403799  67.1157844  51.3188922  41.4351313
  68.2314399  49.4136985  41.9676862  68.9273078  48.9673189  42.5478693
  67.7850750  48.7204703  40.7689639  67.3617122  49.4074017  40.0361690
  68.8513650  47.8419236  40.0661464  69.0462748  48.2870839  39.0904715
  70.1524448  47.7248164  40.8371154  69.9583949  47.2792807  41.8127914
  70.8484791  47.0952835  40.2827463  70.5867237  48.7156164  40.9706031
  68.2997881  46.4675595  39.7230322  67.4454972  46.5748410  39.0546163
  69.0732239  45.8774332  39.2314554  67.9845758  45.9635322  40.6366506
  66.5900017  47.9040964  41.1360949  66.4832722  47.3562390  42.2485697
  65.6531883  47.8721798  40.2111100  65.8412594  48.2373964  39.2884262
  64.3296870  47.3493536  40.4865843  64.2016195  47.1826989  41.5561282
  63.2850750  48.3569259  40.0222538  63.5021935  48.5062415  38.9645848
  62.2810393  47.9471400  40.1321989  63.3707910  49.6885034  40.7495151
  64.4134263  50.0016960  40.8035788  62.5627567  50.7419605  40.0039630
  61.5198529  50.4296671  39.9498955  62.6297660  51.6930800  40.5321506
  62.9594006  50.8583190  38.9953825  62.9038499  49.5207358  42.1972710
  63.5392343  48.7933464  42.7025341  62.9675832  50.4786467  42.7134551
  61.8716927  49.1705556  42.2084171  64.1222108  46.0245177  39.7865812
  63.9865560  45.0092225  40.4355377  64.0719358  46.0639196  38.4505741
  64.1417217  46.9591861  37.9882679  63.8995991  44.8656123  37.6229240
  63.6675745  44.0153978  38.2643281  62.7525081  45.0416264  36.6018862
  62.1353223  45.8688658  36.9523943  63.2095285  45.3083143  35.6489382
  61.8753910  43.7894743  36.4175226  62.5358901  42.9230217  36.3843330
  61.2194209  43.7126319  37.2846446  61.0269367  43.8361583  35.1359376
  60.7857327  44.8789642  34.9298422  61.6276405  43.4345819  34.3198551
  59.7328116  43.0287654  35.2615959  59.2646161  42.9631974  34.2794582
  59.9783049  42.0269830  35.6141071  58.7914943  43.6741198  36.2176506
  58.5635502  44.6022460  35.8909659  57.9474102  43.1233033  36.2826364
  59.2249816  43.7345860  37.1278878  65.1995242  44.6041192  36.8959129
  66.2394233  45.1773894  37.2215968  65.1517916  43.6967479  35.9411250
  64.3364479  43.1074305  35.8515764  66.2426021  43.4988857  35.0196474
  66.8364777  44.4094293  34.9401402  67.1611457  42.3484084  35.5278290
  66.5474274  41.4829083  35.2781120  68.0447094  42.3629195  34.8897031
  67.6020966  42.2597829  37.0268557  67.5256101  43.2651768  37.4409014
  66.7621362  41.2844470  37.8839416  66.8385066  40.2786922  37.4707543
  67.1359382  41.2853966  38.9078420  65.7190707  41.6008040  37.8782082
  69.0779399  41.8817943  37.0939620  69.6712880  42.6398050  36.5826333
  69.3903379  41.8186821  38.1363274  69.2285895  40.9163349  36.6109589
  65.5793461  43.1595467  33.6738683  64.7369446  42.2896291  33.5995306
  65.8724595  43.9126124  32.6349022  66.6237841  44.5864339  32.6745921
  65.0284491  43.8890183  31.4489167  64.1309654  43.2855559  31.5847675
  64.6065130  45.3281174  31.1147104  65.5101909  45.9201374  30.9698730
  63.7447365  45.4020151  29.8600685  62.8405901  44.8105687  30.0043298
  63.4725194  46.4395223  29.6662202  64.3038168  45.0088845  29.0109636
  63.8584822  45.9018386  32.3058694  64.5096877  45.8995018  33.1799564
  63.5516060  46.9241157  32.0847900  62.9766429  45.2941522  32.5087918
  65.7547171  43.1471174  30.3087869  67.0077502  43.1892312  30.2437283
  64.9801842  42.4213797  29.4387131  64.4272168  42.9775226  28.1817066
  64.8338741  43.9761852  28.0223232  63.3418415  43.0364459  28.2628689
  64.8796777  41.9798928  27.1100043  65.4723575  42.5118303  26.3657784
  63.9964664  41.5541898  26.6337521  65.6889321  40.9104532  27.7956225
  66.7604463  41.1019021  27.7381466  65.4749561  39.9210361  27.3914349
  65.2206303  40.9921783  29.2596432  64.2615351  40.4928726  29.3972238
  66.2463302  40.3904830  30.2107265  65.8606015  39.8573887  31.2474617
  67.4489603  40.5051065  29.9849275  47.4293215  40.1691529  66.5467066
  48.2065481  39.5252100  66.5098645  46.9652479  40.1694857  65.6496358
  46.9005388  39.9918807  67.3887653  47.9771958  41.5488015  66.7079875
  47.6661563  42.1738382  65.8709195  47.4503932  42.1793773  68.0180650
  47.4929877  41.4484870  68.8255823  48.0935629  43.0254347  68.2601800
  45.9903632  42.6881704  67.8862658  45.7345507  43.7526220  67.3116531
  45.0343591  41.9116079  68.3936748  44.0682992  42.1998277  68.3323777
  45.2799547  41.0381535  68.8373650  49.5121123  41.5849213  66.5894988
  50.1362804  40.5748139  66.1908870  50.0763101  42.7902023  66.7329893
  49.5070612  43.5444649  67.0895604  51.4584077  43.0947932  66.3125294
  52.0203197  42.1673318  66.2022144  51.4698211  43.8494940  64.9483074
  52.2426799  43.3473434  64.3663853  50.5254557  43.8129259  64.4052266
  51.8707628  45.3215482  65.0292639  51.2102229  46.2018977  65.8799653
  50.4074702  45.8269767  66.5148843  51.5631784  47.5459569  65.9264026
  51.0777550  48.2076705  66.6437589  52.5258466  48.0443131  65.0672822
  52.7804461  49.1040142  65.0849629  53.1660382  47.1938712  64.1840312
  53.9358129  47.5781011  63.5147671  52.8258417  45.8467200  64.1511085
  53.3051798  45.1809447  63.4334190  52.1791466  43.8915202  67.4173749
  51.5233810  44.4005687  68.3358536  53.5155929  43.9269377  67.3589034
  53.9974488  43.5260318  66.5669510  54.3192108  44.4468755  68.4724572
  53.8518280  44.1570240  69.4135409  55.7428602  43.9083101  68.4502107
  55.6680533  42.8269161  68.3357987  56.2745541  44.3276022  67.5960469
  56.5034952  44.2318561  69.7301878  55.8975661  44.1619280  70.8302387
  57.6963180  44.5856896  69.6350203  54.3324448  45.9831789  68.5124531
  55.0010423  46.6527702  67.7076830  53.6049281  46.5258180  69.4852683
  53.1416029  45.9302664  70.1566455  53.3636338  47.9904071  69.5580273
  53.1141089  48.3939983  68.5767269  52.2170950  48.3545635  70.5535899
  51.5321709  49.0323348  70.0440751  51.4418109  47.1114355  71.0428357
  52.1260344  46.4333670  71.5528954  50.6562486  47.4206226  71.7323241
  50.9952676  46.6018125  70.1890301  52.7504043  49.0651152  71.6784844
  52.0391630  49.2847203  72.2847101  54.5984608  48.8472042  69.9090618
  54.5560853  50.0679322  69.8135559  55.6892539  48.2010100  70.3226466
  55.6530723  47.2017604  70.4650911  56.9487259  48.9047735  70.6245759
  56.7336598  49.8928174  71.0315340  57.7633106  48.1162186  71.6571140
  58.7994713  48.4517800  71.6138843  57.3578290  48.3174956  72.6486644
  57.7066521  46.7228700  71.3973631  58.2233252  46.2532757  72.0562485
  57.8122727  49.1323366  69.3711713  58.7136487  49.9633717  69.3854495
  57.4767853  48.4179557  68.3002291  56.7139887  47.7589266  68.3628492
  58.2599465  48.4608005  67.0581068  59.2927453  48.3060808  67.3703367
  57.8535289  47.3102029  66.1050496  57.9356097  46.3577880  66.6287556
  56.8244937  47.4561289  65.7765801  58.7779281  47.3043121  64.8921705
  58.6960455  48.2563002  64.3676567  60.2176629  47.0995140  65.3513527
  60.3004366  46.1474478  65.8755830  60.8788309  47.0952251  64.4847852
  60.5042410  47.9092807  66.0223603  58.3776372  46.1710630  63.9534807
  57.3486028  46.3169910  63.6250105  59.0380758  46.1664035  63.0863588
  58.4597159  45.2186478  64.4771862  58.2006677  49.8307747  66.3262670
  59.2307656  50.3443694  65.8602586  57.0000732  50.4195225  66.2151183
  55.6733689  49.8948427  66.5658542  55.4421145  50.1462979  67.6009349
  55.6643591  48.8116090  66.4449303  54.7686789  50.5873751  65.5884225
  53.7768527  50.7012694  66.0259246  54.6967554  49.9965864  64.6752429
  55.3984880  51.9086103  65.3181706  55.0914165  52.6071899  66.0964975
  55.1488486  52.3216650  64.3408449  56.9057697  51.6575504  65.4094989
  57.3718711  51.4679459  64.4425978  57.5966394  52.8438426  66.0838252
  58.1302951  53.6950192  65.3921324  57.6019338  52.8841095  67.4179270
  57.1454725  52.1463790  67.9351272  58.1983548  53.9863820  68.1655275
  57.9505646  54.9441290  67.7079032  57.6791764  53.9856861  69.6222438
  56.5900138  54.0220576  69.5998301  58.1340233  52.7306467  70.3844453
  59.2231532  52.6938269  70.4076801  57.7503321  52.7651875  71.4040958
  57.7515695  51.8417292  69.8827925  58.1562553  55.1454173  70.3035721
  57.8321344  55.1416536  71.2071936  59.7477954  53.9655071  68.1903241
  60.3926091  54.9775377  68.5037685  60.3223540  52.8097619  67.8707850
  59.7386636  51.9954415  67.7431639  61.7776578  52.6389409  67.8075623
  62.2647008  53.4064767  68.4090413  62.1852824  51.2589464  68.3483111
  63.1960770  51.0395345  68.0044332  62.1732767  51.2989670  69.4375100
  61.3075054  50.2458514  67.9052366  61.5901620  49.3998281  68.2601304
  62.3569294  52.8723026  66.4034328  63.5586639  52.6970107  66.1940334
  61.4968833  53.2277997  65.4457754  60.5125543  53.1233424  65.6464854
  61.8914918  53.6595059  64.0957662  61.0350128  53.5957992  63.4245849
  62.3828972  55.0816251  64.1145953  63.2170742  55.1369897  64.8140114
  62.7071204  55.4321206  63.1347319  61.3640720  56.0442541  64.5931667
  60.6267564  56.8251517  63.7355825  60.7178301  56.8208685  62.7297063
  59.7928887  57.5698903  64.4353496  59.1299100  58.2767864  63.9364947
  59.9457581  57.2802897  65.7142602  60.9137328  56.3178101  65.8383124
  61.1746789  55.9310793  66.8234254  62.9094700  52.7777980  63.4261449
  63.9191835  53.2516761  62.8823158  62.6143423  51.4819471  63.4261933
  61.7432226  51.1611321  63.8240972  63.5588939  50.4858526  62.9374980
  64.5227042  50.6400786  63.4226611  63.0912277  49.0382152  63.2163605
  63.1664412  48.4605161  62.2951076  63.9554313  48.3870183  64.2983733
  63.8803574  48.9639380  65.2201255  63.6082162  47.3695162  64.4779013
  64.9941722  48.3630932  63.9689109  61.7288049  49.0406320  63.6514907
  61.4459063  48.1393354  63.8224679  63.8394502  50.6587765  61.4369869
  64.8835868  50.2204498  60.9531797  62.9188291  51.3135922  60.7270896
  62.0844511  51.6089190  61.2136025  63.0307447  51.6105959  59.2968247
  63.2131779  50.6976296  58.7299826  61.7181204  52.2336115  58.8121081
  61.7878575  52.2942978  57.7260357  60.9036999  51.5631329  59.0864760
  61.4475089  53.6198777  59.3812813  60.8087678  53.7873543  60.6118366
  60.4988755  52.9030971  61.1687526  60.5688610  55.0415054  61.1234965
  60.0866783  55.1610287  62.0937108  60.9323646  56.1546062  60.3912453
  60.6929149  57.4152085  60.8763501  60.2667738  57.4114154  61.7365762
  61.5517070  56.0220831  59.1702786  61.8352459  56.9040125  58.5959035
  61.8134051  54.7628933  58.6740377  62.3146994  54.6492309  57.7128483
  64.1795155  52.5758016  58.9422708  64.4011467  52.8788823  57.7618770
  64.8690983  53.0800110  59.9615080  64.6550367  52.7728495  60.8995532
  65.8975042  54.0654720  59.7863420  65.7312738  54.6416648  58.8761395
  65.8616472  55.0082043  60.9684279  65.3295464  54.4617109  61.7470890
  66.8923662  55.1744802  61.2815902  65.1854563  56.3389572  60.7358907
  64.1154033  56.1937197  60.5875886  65.4147907  57.2177462  61.9679741
  66.4846751  57.3638226  62.1166614  64.9337188  58.1845751  61.8199455
  64.9895234  56.7315292  62.8459497  65.7212641  57.0354908  59.4841675
  65.5445719  56.4047102  58.6129643  65.2101103  57.9890076  59.3513941
  66.7915230  57.2098787  59.5947739  67.2688304  53.4224833  59.6797210
  68.2454235  54.0557701  59.3482898  67.3469803  52.1659648  60.0436673
  66.5214574  51.6267645  60.2624690  68.6333346  51.5178632  60.1405546
  68.6875839  50.7714133  59.3481098  69.3985946  52.2766767  59.9772193
  68.8839577  50.8466996  61.4631904  68.3126554  51.1663350  62.4905618
  69.7718422  49.8649560  61.4406839  70.4837112  49.8199670  60.7256189
  69.7094567  48.7977350  62.4137026  68.6732543  48.4703776  62.4986782
  70.5561787  47.6198287  61.9201261  71.5980661  47.9295692  61.8386922
  70.4774313  46.7937479  62.6268719  70.1962015  47.2970888  60.9432154
  70.1775725  49.2225980  63.8015283  69.5084857  49.0047522  64.8194059
  71.3638525  49.8161048  63.8306382  71.9462256  49.8035805  63.0055418
  71.8810256  50.4491496  65.0268791  71.0862933  50.5028615  65.7709320
  73.0308438  49.5802388  65.5929084  72.6599630  48.5766151  65.8009616
  73.8381958  49.5245579  64.8627150  73.5544072  50.2066963  66.8833198
  73.0099350  49.8460473  67.9608559  74.4938279  51.0399119  66.7792030
  72.3889789  51.8938827  64.7739881  73.0511697  52.1758689  63.7792937
  72.0247764  52.7956268  65.6793102  71.3526805  52.5547869  66.3937208
  72.6180187  54.0897500  65.7191451  73.2861461  54.2208887  64.8679649
  71.5377539  55.1594248  65.6585919  71.3129861  55.4491233  66.6850681
  71.9577003  56.0118897  65.1246925  70.2630610  54.7097905  64.9697495
  70.5293543  53.9500410  64.2349234  69.6108265  54.2712485  65.7249800
  69.3909194  56.0561677  64.1418929  68.1408245  55.0217344  63.3776438
  67.5791565  54.4981008  64.1512302  67.4616386  55.6429884  62.7938197
  68.6208805  54.2945628  62.7227629  73.3051475  54.2089094  67.0558668
  72.8954517  53.5677165  68.0070319  74.3349623  55.0395483  67.1416245
  74.7226753  55.4424176  66.3005096  74.9618220  55.3816995  68.4360578
  75.3045083  54.4781394  68.9402844  76.1736018  56.3305291  68.2411400
  76.9275832  55.8365899  67.6282491  75.8445454  57.2438613  67.7455129
  76.7655594  56.6739411  69.5871544  76.0122495  57.1683607  70.2004849
  77.0952892  55.7610906  70.0832203  77.9583186  57.6078809  69.3952967
  77.7261930  58.8463141  69.3967769  79.0902000  57.0739636  69.2490881
  73.9213497  56.0510046  69.3355205  73.2204817  56.9528416  68.9354330
  73.8275409  55.5884589  70.5799953  74.4269013  54.8319699  70.8776372
  72.7868846  56.0566425  71.5036882  72.1005491  56.7167031  70.9732519
  71.9866755  54.8779373  72.0819645  72.6088993  54.4179346  72.8496456
  71.0922689  55.2970686  72.5429047  71.5777595  53.8097243  71.0422325
  70.6364031  53.3700077  71.3717750  71.4211497  54.3406553  70.1032517
  72.6275650  52.6862009  70.8319784  73.4081382  52.4054456  71.7777305
  72.6720559  52.0627143  69.7289159  73.4017724  56.9431485  72.5822039
  74.5758979  56.7790261  72.9909323  72.6076564  57.8899633  73.0615916
  71.6463483  57.9444024  72.7565957  73.0858895  58.8790708  74.0288085
  74.0880308  58.6141881  74.3659272  73.1367130  60.2611531  73.3894342
  72.1448834  60.3766607  72.9523630  73.3434197  61.1046777  74.0480986
  74.1025331  60.3485975  72.2749034  73.8626651  59.6541757  71.1195127
  72.9349392  59.0938037  71.0037210  74.7640423  59.6631807  70.1354094
  74.5588022  59.1449438  69.1987090  75.9686677  60.3368400  70.3080500
  76.7008350  60.3205657  69.5007297  76.2426378  61.0129647  71.4678296
  77.1726582  61.5651679  71.6028622  75.3244839  60.9832696  72.4588940
  75.5390315  61.4605411  73.4150745  72.1297652  58.8857001  75.2045450
  70.9590416  59.2379357  75.0559970  72.6524629  58.4744937  76.3720464
  73.5823889  58.0803931  76.3766973  71.8999653  58.4824106  77.6182918
  70.8940001  58.1058264  77.4330419  72.5760311  57.5831088  78.6668810
  72.6344822  56.5628162  78.2878220  73.5811128  57.9529380  78.8697039
  71.8660718  57.5095781  79.9975397  72.3499359  56.7399465  81.0490345
  73.1873458  56.1754508  81.0352897  71.5228435  56.8763547  82.0686973
  71.7190463  56.3514157  83.0035997  70.5500750  57.6831314  81.7238314
  70.7248090  58.1009280  80.4414454  70.0047392  58.7814700  79.9870630
  71.7346648  59.9485339  78.1035755  72.6375154  60.5366474  78.7389599
  70.5734561  60.5044937  77.7978306  70.0065875  60.1314744  77.0497558
  70.0786801  61.6659316  78.5266768  69.0046368  61.7096827  78.3460775
  70.2612262  61.4687551  79.5830374  70.6977095  63.0067158  78.1589742
  70.5471105  63.4945709  77.0320504  71.5168748  63.5642836  79.0513600
  72.4946301  63.5799435  78.7986771  71.1108937  64.1798869  80.3522727
  70.1918469  63.7460780  80.7463057  72.2477010  63.8696030  81.3163382
  72.1232031  64.5088316  82.1904013  72.1525164  62.8253669  81.6140142
  73.6492852  64.1048483  80.7005312  74.2713093  64.4895215  81.5087474
  74.0130362  63.1226485  80.3987521  73.7155984  65.0770894  79.4878619
  73.3737590  64.5693036  78.5859760  73.0863182  65.9472026  79.6749689
  75.0786652  65.5256173  79.2801248  75.5837102  65.1439284  78.4931416
  75.6943470  66.4096433  80.0614230  76.9793448  66.6794906  79.8612027
  77.4804232  66.2130073  79.1186303  77.4494989  67.3499292  80.4524445
  75.0279671  67.0322695  81.0439521  74.0499048  66.8297000  81.1938186
  75.5070025  67.7010998  81.6298614  70.8695182  65.6904371  80.5427670
  70.8580046  66.1705477  81.6768262  70.7895126  66.4334544  79.4626279
  70.6230073  66.0143626  78.5588927  71.0090084  67.8853643  79.5276597
  71.5282520  68.1424816  80.4509018  71.8550437  68.4119610  78.3122189
  72.8545032  68.6467606  78.6783473  71.9572801  67.3723353  77.1505154
  70.9581713  67.1373760  76.7835338  72.5527328  67.7908152  76.3390908
  72.4323649  66.4624526  77.5172694  71.2705905  69.6179943  77.7959068
  71.7917922  69.9341280  77.0542811  69.6712207  68.6235460  79.5950957
  68.9405271  68.6550935  78.5985850  69.3319181  69.1796019  80.7735581
  69.7455469  68.8331268  81.6273529  68.2649941  70.1854435  80.8743409
  67.9281913  70.4562394  79.8736748  67.0532196  69.6458767  81.6755927
  67.5472477  69.1102968  82.4862650  66.4479263  70.4523735  82.0894562
  66.1342109  68.6586618  80.8826837  66.0362441  69.0269286  79.8614673
  66.7124715  67.2332426  80.8601484  66.8103032  66.8640986  81.8810601
  66.0448222  66.5785542  80.3000339  67.6925838  67.2456968  80.3833623
  64.6593912  68.6365626  81.3495770  64.2269327  69.6306635  81.2362526
  64.0969414  67.9251357  80.7449091  64.6137576  68.3382973  82.3969806
  68.8077575  71.4863842  81.4273321  69.6573408  71.4794466  82.2873379
  68.3487427  72.6129964  80.8581851  67.5601725  72.5311417  80.2324406
  68.8156552  73.9468891  81.2096675  69.8414364  73.8707429  81.5703248
  68.7821664  74.9393988  80.0116524  67.8338475  75.3409111  79.6544713
  69.3553944  75.7336877  80.4897892  69.5540651  74.5244096  78.8007580
  70.8890163  74.1772766  78.8540314  71.4281631  74.0875568  79.7033669
  71.3380064  73.9843479  77.6226130  72.3573510  73.6381856  77.4517113
  70.3675090  74.2785057  76.7732516  69.2553631  74.6665946  77.4846921
  68.3628823  75.0056488  76.9587438  67.8004217  74.5541957  82.1681234
  66.5809051  74.4683436  81.9255254  68.2944588  75.1702720  83.2241259
  69.2914478  75.2689477  83.3520925  67.4081892  75.5966152  84.3122181
  66.6519176  74.8300898  84.4813074  68.1895424  75.8185918  85.6279782
  69.2179542  76.0286312  85.3341213  67.7789559  76.6809428  86.1532112
  68.1619016  74.5804154  86.5654861  67.1430226  74.3648122  87.2697742
  69.1794057  73.8593138  86.6178692  66.5605733  76.8363442  83.9196151
  66.9181203  77.6014063  82.9968918  65.4232235  76.9825578  84.5936649
  65.2641286  76.4729671  85.4510478  64.3178155  77.7399876  84.0259826
  64.2067307  77.5085879  82.9666368  63.0273361  77.3728765  84.7414346
  62.8551851  78.0343065  85.5905363  62.2407245  77.5202352  84.0014160
  63.0135200  75.9062261  85.2212291  64.1025552  75.3698684  85.5490592
  61.9134897  75.3192511  85.3332054  64.5923282  79.2634942  83.9788713
  65.3858495  79.8489052  84.7545903  63.9558337  79.8803614  83.0031508
  63.5033140  79.2747350  82.3334180  64.0228419  81.3367617  82.7048351
  63.3799459  81.5517079  81.8512649  63.5614799  82.2074797  83.9053713
  64.0554050  81.8959420  84.8257416  63.8862734  83.2141120  83.6421213
  61.9887605  82.1985484  84.1201550  61.2870728  81.4838472  83.3805831
  61.4710747  82.8445818  85.0845695  65.3636539  81.7907785  82.1230544
  65.5115623  82.9508555  81.7461972  66.2984892  80.8431520  81.9599930
  66.0934546  79.8999167  82.2572593  67.6258062  81.1285674  81.4384322
  68.0950995  81.9167566  82.0271773  68.5102239  79.8654170  81.5112368
  69.5205372  80.1449755  81.2125509  68.5197968  79.5211092  82.5453841
  68.0443080  78.8330130  80.6781680  68.6239979  78.0718821  80.7571563
  67.5942358  81.6713817  79.9921705  66.5615158  81.6202628  79.2955521
  68.7223861  82.2696606  79.5714314  69.4325116  82.5380317  80.2376132
  68.8886485  82.6759731  78.1857536  67.9852645  82.4128113  77.6355332
  69.1327614  84.1650503  78.0328620  69.8530470  84.5444207  78.7576833
  69.4558269  84.4317994  77.0265948  67.6015713  85.0758053  78.3249600
  68.1191828  86.2849350  78.1275214  69.9537117  81.8550152  77.5176926
  71.1229603  81.8956690  77.8863470  69.5209807  81.0991062  76.5163283
  68.5509109  81.1628855  76.2424740  70.3789206  80.1763144  75.7981595
  71.3915309  80.2107819  76.2000695  69.8433744  78.7617527  75.9512591
  68.9771253  78.6859808  75.2940146  70.6279264  78.0936732  75.5959453
  69.4472223  78.3707757  77.3502250  68.8484859  79.0859960  77.9142067
  68.8641439  77.4662640  77.1770776  70.6450067  78.0167315  78.1536267
  70.8043973  76.8764285  78.5865941  71.5812811  78.9238913  78.2020244
  72.4235185  78.7482334  78.7310631  71.4595276  79.7976265  77.7102275
  70.4231095  80.5465056  74.3081394  69.4831367  81.1200509  73.7529342
  71.4969551  80.1358522  73.6660238  72.3561093  79.9842023  74.1749006
  71.5464769  80.1326975  72.2206617  70.6169141  80.4427935  71.7433225
  72.6817688  81.0231279  71.7060423  73.2688143  81.3449522  72.5662201
  73.5918325  80.3063454  70.7075820  73.0055427  79.9846088  69.8468551
  74.3772041  80.9864713  70.3778537  74.0422948  79.4363605  71.1854017
  72.0815679  82.3165731  71.1321788  71.5296854  82.8394245  71.9133025
  72.8826994  82.9570134  70.7632287  71.4060798  82.0718264  70.3124741
  71.4939135  78.6914856  71.7108681  72.2763573  77.8301713  72.1220158
  70.4847025  78.4058777  70.9150973  69.7585078  79.0888351  70.7528944
  70.3561321  77.0852951  70.2768337  71.2219683  76.4698879  70.5211715
  69.1068768  76.4235670  70.7980555  68.2447409  76.8750753  70.3071762
  69.1181520  74.9340950  70.5279462  69.9798098  74.4817850  71.0189270
  68.2031283  74.4869328  70.9163766  69.1796497  74.7595626  69.4537695
  69.0059228  76.6355704  72.2986170  69.8604942  76.1402109  72.7595154
  69.0645688  77.7080072  72.4844650  67.7197205  76.0874895  72.8964823
  67.6605859  75.0149426  72.7114255  67.7106098  76.2713461  73.9708254
  66.8646600  76.5827377  72.4363730  70.3049700  77.1866216  68.7394748
  69.6458610  78.0478013  68.2026826  71.0721191  76.3328867  68.0294403
  71.8648114  75.2237481  68.5923447  71.4104113  74.8675198  69.5168566
  72.8842566  75.5534383  68.7926816  71.7985431  74.2146881  67.4954940
  70.8884161  73.6197751  67.5719558  72.6662624  73.5556391  67.5241127
  71.8027849  75.0480835  66.2562350  71.3990456  74.4664928  65.4274734
  72.7827487  75.4386394  65.9819419  70.8768996  76.1768540  66.5840742
  71.0994923  77.1394027  66.1235847  69.4823018  75.7425683  66.1934503
  68.9052852  74.9499626  66.8886467  68.9552249  76.2499461  65.0956690
  69.4725492  76.9450950  64.5767828  67.6874938  75.7586684  64.5318321
  67.2223085  74.9969966  65.1575779  66.6860688  76.9237732  64.3440216
  67.1083362  77.6479731  63.6473696  65.3612004  76.3998539  63.7925480
  64.9380684  75.6758932  64.4889251  64.6663083  77.2299491  63.6653965
  65.5326026  75.9193752  62.8292915  66.4521837  77.6944743  65.6415160
  67.3961845  78.1116420  65.9921376  65.7428877  78.5024174  65.4619984
  66.0503080  77.0202321  66.3978190  67.9170878  75.2482237  63.1731070
  68.2861969  76.0695853  62.3339642  67.6181039  73.9579840  62.9088910
  67.2748765  73.3260846  63.6181141  67.7774991  73.4366858  61.5044458
  68.7396415  73.7949643  61.1383616  67.7293289  71.9121421  61.3449585
  66.7086870  71.7822972  60.9850563  68.4285266  71.7126239  60.5329146
  67.9905283  70.9435731  62.4877494  67.3828993  71.2485771  63.3397238
  67.6450686  69.5014869  62.1049558  68.2526728  69.1955948  61.2532833
  67.8464510  68.8426249  62.9496136  66.5898605  69.4384173  61.8391394
  69.4348987  71.0042624  62.9414720  69.6670675  72.0131736  63.2824928
  69.5892704  70.3003435  63.7592549  70.0889005  70.7429919  62.1095355
  66.7206435  73.8996564  60.5645775  65.5618862  73.7646381  60.8552328
  67.1218159  74.2625680  59.3935242  68.3249222  73.6704058  58.8144895
  68.1483357  72.6219909  58.5741905  69.1553624  73.7468678  59.5163596
  68.5333277  74.5294735  57.5709723  68.6884708  73.8779763  56.7109833
  69.4136613  75.1558385  57.7151283  67.2696123  75.3891205  57.4033669
  66.9019529  75.2699555  56.3841882  67.4184115  76.4481953  57.6138875
  66.2690047  74.8002529  58.3861454  65.6230636  75.5447981  58.8514528
  65.3858971  73.6962590  57.7021436  65.7191636  72.4522023  57.6422913
  64.2290966  74.1092396  57.2755413  63.9588631  75.0816345  57.3145469
  63.3173814  73.1528564  56.6034844  62.6520821  73.7153843  55.9484741
  64.0561544  72.0911602  55.7618903  64.4546418  71.3996949  56.5043072
  63.2600852  71.6018038  55.2007271  65.1562081  72.5025872  54.8176257
  64.9178323  73.4542681  54.3426717  66.0741819  72.6057390  55.3962325
  65.3817177  71.4529580  53.7247529  66.4979678  70.9528939  53.5326290
  64.3009307  71.0893809  53.0217812  64.3877406  70.4009408  52.2878767
  63.4041678  71.5053507  53.2288725  62.5600122  72.2987615  57.5687568
  61.7148775  71.5185656  57.1086386  62.9148686  72.2615480  58.8476117
  63.7010525  72.7602697  59.2391356  62.1263176  71.4351540  59.7233892
  61.7246370  70.5995296  59.1502542  62.9165339  70.8738081  60.9273310
  63.0109884  71.6474907  61.6892975  62.1877323  69.6804221  61.5079393
  62.0932958  68.9060798  60.7466399  62.7490568  69.2886977  62.3562125
  61.1954226  69.9861345  61.8395461  64.3069917  70.4556000  60.4981676
  64.8386207  71.3181790  60.0963840  64.8502381  70.0626025  61.3575487
  64.2345410  69.6845199  59.7311687  61.0282857  72.3152151  60.1881454
  61.2946388  73.3605601  60.7348766  59.8012274  71.9627058  59.8888459
  59.6123419  71.1253254  59.3566659  58.6847259  72.7720665  60.3085431
  59.0363899  73.4990043  61.0406586  58.0206087  73.5352218  59.1313213
  58.5578501  73.2581951  58.2242781  56.9898345  73.1874616  59.0630025
  58.0356955  75.0552971  59.2877226  56.9888471  75.3555469  59.2423436
  58.4210177  75.2333668  60.2916749  58.9977426  76.0466961  58.0901153
  60.5327574  75.1407343  57.8388633  60.3096804  74.1488231  57.4458648
  61.1611087  75.6792043  57.1294091  61.0583195  75.0447988  58.7889592
  57.6947046  71.8671139  60.9232453  57.1439501  71.0349667  60.2677368
  57.5204634  71.9962486  62.2251217  57.9677531  72.7621471  62.7082685
  56.7121555  71.0960361  62.9847162  55.7204695  71.0439486  62.5353334
  57.3116538  69.6698516  63.0266043  56.6068369  69.0234800  62.5035976
  58.2474870  69.7121228  62.4693528  57.5777008  69.1059488  64.4329911
  58.5401770  69.4918210  64.7689122  56.7902019  69.4717217  65.0918976
  57.6090968  67.2945946  64.4903768  56.3389940  66.9979780  65.7032133
  55.3947773  67.4125599  65.3501189  56.2283307  65.9248875  65.8591970
  56.6154653  67.4747003  66.6436391  56.7001750  71.7221083  64.3615695
  57.6541919  72.4382687  64.7328781  55.5969272  71.5983724  65.0784012
  54.7571081  71.1654440  64.7215032  55.5461481  72.2171903  66.3703544
  56.4097547  72.8776377  66.4484051  54.2739048  73.0249444  66.5514328
  53.4068693  72.3647652  66.5287788  54.3372403  73.7178627  67.8730673
  55.2038220  74.3786173  67.8963084  53.4300862  74.3039011  68.0204822
  54.4241007  72.9774657  68.6682822  54.1677721  74.1010809  65.4284804
  53.6046960  74.9306411  65.8561204  55.1879638  74.4238709  65.2208392
  53.4948083  73.6453794  64.1148187  52.4743571  73.3228580  64.3216012
  53.4769144  74.4751838  63.4082753  54.0576241  72.8160857  63.6863211
  55.7442558  71.1000639  67.3391593  54.9592276  70.1514369  67.3444089
  56.8626304  71.1147598  68.0438807  57.3998539  71.9633008  68.1509714
  57.3640457  69.8945999  68.6691706  56.8905186  69.0152989  68.2324775
  58.8583316  69.8072322  68.4333705  58.9004260  70.1370288  67.3953139
  59.3474730  70.5455656  69.0687479  59.5725664  68.4665788  68.5698627
  60.0337639  68.1940185  67.6205953  60.6550361  68.5940180  69.6446798
  60.1945196  68.8661248  70.5944068  61.1742507  67.6417517  69.7528737
  61.3682251  69.3650531  69.3531892  58.6346655  67.2756883  68.8356739
  57.9277099  67.1783501  68.0117573  59.2222328  66.3614472  68.9195137
  58.0888400  67.4426198  69.7642789  57.0549983  69.9206515  70.1695166
  57.1281676  70.9956981  70.8006504  56.6442832  68.7888386  70.7253311
  56.7087011  67.9125622  70.2272454  56.1403255  68.7713402  72.0853261
  56.0515435  69.7867409  72.4715621  54.8069459  68.0763330  72.1891085
  54.9149356  67.0318777  71.8966160  54.3117690  68.1518933  73.6293653
  54.2030844  69.1961124  73.9224435  53.3473203  67.6503487  73.7093174
  55.0304404  67.6633089  74.2873134  53.7888362  68.6882550  71.2235061
  53.2394360  69.4619948  71.7597774  54.3379970  69.1397418  70.3972607
  52.8094144  67.6556155  70.6780580  52.2595163  67.2039970  71.5037412
  52.1092316  68.1415736  69.9985817  53.3580782  66.8817424  70.1412261
  57.0844633  67.9939024  72.9721268  57.5663311  66.9333150  72.5856146
  57.3697373  68.5349741  74.1602591  57.2115926  69.9391732  74.5288715
  56.1563577  70.2093781  74.4892607  57.7723506  70.5635622  73.8333230
  57.7733273  69.9924489  75.9345691  57.1332080  70.6146974  76.5599915
  58.7779139  70.4147265  75.9103036  57.8006607  68.5719920  76.4202687
  56.8299148  68.2691899  76.8127764  58.5698644  68.3825447  77.1689576
  58.1050586  67.8072462  75.1709250  59.1637434  67.8690855  74.9190109
  57.6946995  66.3520165  75.2715622  56.4908825  66.0409866  75.3733616
  58.6798633  65.4571199  75.1815255  59.6286961  65.7692160  75.0318204
  58.4323725  64.0214963  75.2932310  59.3145819  63.5675443  75.7445992
  57.5756373  63.8835271  75.9528283  58.1520691  63.3452710  73.9785453
  58.2762794  62.1229169  73.8795842  57.7481072  64.1282696  72.9661097
  57.6749816  65.1258368  73.1061508  57.4424237  63.5925914  71.6487166
  56.7469695  62.7594746  71.7504951  56.8104080  64.6465167  70.7530037
  55.8521721  64.9425117  71.1799346  57.4708092  65.5125380  70.7085339
  56.5962383  64.1097795  69.3685798  57.5414163  64.1846879  68.8308735
  56.2889259  63.0651811  69.4183333  55.5646333  64.8725734  68.6227899
  54.6995249  64.2728764  67.9320309  55.6398984  66.2080840  68.7162592
  54.9664204  66.7839291  68.2315621  56.3697238  66.6321008  69.2709357
  58.7229669  63.1547307  70.9966573  59.7408834  63.7765665  71.1811352
  58.6710067  62.1110812  70.1898977  57.8636227  61.5061495  70.1420646
  59.8413905  61.7270266  69.4872933  60.7104704  62.2184465  69.9246784
  60.0633876  60.2357193  69.5207593  59.5603584  59.8217476  70.3946525
  59.4997213  59.5761772  68.2417399  60.0026313  59.9893378  67.3673948
  59.6684604  58.5000937  68.2826108  58.4299700  59.7732866  68.1718786
  61.4667678  59.9869876  69.6273213  61.6231150  59.0400691  69.6497077
  59.8425030  62.3028806  68.0647214  58.8104815  62.4292939  67.4386212
  61.0227360  62.6973722  67.5861450  61.8476937  62.5717875  68.1551551
  61.1771396  63.3111515  66.2650498  60.2426388  63.2089570  65.7133580
  61.5305163  64.8105743  66.3632843  60.5756697  65.2594830  66.6368683
  62.2446739  64.9545433  67.1740567  62.0695925  65.4870937  65.0724492
  62.9445745  64.9288500  64.7394759  61.0242080  65.5183493  63.9477255
  60.1490598  66.0768578  64.2798139  61.4503577  66.0009809  63.0682006
  60.7302317  64.4994223  63.6958007  62.5819120  66.8915872  65.3579259
  63.3903699  66.8427147  66.0873823  62.9522751  67.3383329  64.4352392
  61.7705105  67.5009719  65.7558916  62.3025672  62.6051401  65.4859416
  63.4598068  62.7254789  65.8517558  61.9578845  61.9371861  64.3653407
  60.6429971  61.6066712  63.8098474  60.2045531  62.5001521  63.3653713
  59.9955294  61.2433339  64.6078891  60.9530440  60.5247091  62.7713162
  60.8914273  60.9418118  61.7661656  60.2455259  59.7010018  62.8663210
  62.3165460  60.0828233  63.0853975  62.7813021  59.7414633  62.1604250
  62.4228560  59.3135497  63.8502609  62.9727310  61.3642871  63.5478670
  63.8633758  61.1869020  64.1506808  63.3224458  62.3337465  62.3781491
  62.4524336  63.1210924  61.9065908  64.5958016  62.3193156  61.9677519
  65.2648062  61.7025458  62.4060751  65.0631720  63.2202574  60.9586718
  64.2418357  63.6278998  60.3693216  65.7364086  64.3355936  61.6687798
  66.0251549  63.9551625  62.6485742  66.6146963  64.7343955  61.1611699
  64.7159742  65.4270514  61.8361254  63.7692719  64.9735826  62.1297609
  65.1478933  66.4375195  62.8988657  66.0943565  66.8917759  62.6056810
  64.3875520  67.2126884  62.9942345  65.2701729  65.9295924  63.8555047
  64.4856921  66.0613033  60.4344151  64.1216646  65.2990744  59.7455097
  63.7488932  66.8606766  60.5133518  65.4249385  66.4691881  60.0608578
  65.9850909  62.5536041  59.9342207  66.5927173  61.5097358  60.2181011
  66.0253734  63.1017735  58.7202831  65.2844577  63.7219921  58.4262218
  67.0110694  62.6991211  57.7419731  67.8911180  62.3510536  58.2827713
  66.5574201  61.6045323  56.8013331  65.5104725  61.7903343  56.5615882
  67.1566098  61.6817252  55.8940773  66.7030964  60.2072259  57.3879337
  67.7253404  60.1117045  57.7539853  66.0066929  60.0534254  58.2122333
  66.4590594  59.1287980  56.3355283  67.3135136  58.8818569  55.4719815
  65.2917586  58.5196758  56.3679483  65.0828747  57.7986815  55.6921997
  64.6109090  58.7763861  57.0684089  67.5339045  63.8907025  57.0168811
  66.7857501  64.7018699  56.4364688  68.8464237  64.0628772  57.1523581
  69.4025756  63.3859989  57.6549814  69.4945871  65.3036800  56.7065278
  68.7522932  65.9999405  56.3162454  70.1979433  65.9536559  57.8803368
  70.9852955  65.2812382  58.2209687  70.6351691  66.9122690  57.6010617
  69.1836015  66.1648105  59.0088067  68.6366023  65.2317654  59.1441570
  69.8307268  66.5595273  60.3086392  70.3775688  67.4927933  60.1741873
  69.0632940  66.6952380  61.0706958  70.5207597  65.7768879  60.6239653
  68.1878509  67.2377120  58.5916530  67.6683199  66.9201944  57.6875681
  67.4632874  67.3922785  59.3911642  68.7178378  68.1700999  58.3970621
  70.4036205  65.0632968  55.5088926  71.1277740  64.0617791  55.4277758
  70.2817971  65.9409065  54.5136779  69.7624087  66.7970337  54.6455160
  70.9111458  65.7019482  53.2073391  71.4200976  64.7381368  53.1957266
  69.8417765  65.6930332  52.1516375  69.1739281  66.5524015  52.2113358
  70.3483860  65.6935992  51.1865227  68.9861584  64.4906232  52.1787107
  68.4427268  64.0195966  53.3794196  68.6513046  64.5592915  54.3031754
  67.6573723  62.8955407  53.4043310  67.2383414  62.5275883  54.3408804
  67.3961751  62.2190830  52.2072587  66.8327044  61.2865594  52.2388878
  67.8491802  62.7257147  50.9756091  67.5840098  62.2445458  50.0341946
  68.6456254  63.8567405  50.9740091  69.0140429  64.2625427  50.0318344
  71.9256434  66.8101779  52.8518556  73.0475345  66.5226336  52.3660626
  71.5614900  68.0420108  53.1827680  70.6502925  68.2372435  53.5722583
  72.4283890  69.1607412  52.8675135  72.9106903  68.9910974  51.9048580
  71.6438608  70.4370518  52.7922820  71.2901196  71.0486745  53.6222724
  72.4491036  70.9584628  52.2747738  70.5222352  70.3343228  51.8344487
  69.2993671  69.8449967  52.2282096  69.0349422  69.6655070  53.1863133
  68.5429349  69.6524212  51.1672053  67.5049607  69.3354877  51.2685048
  69.2696733  69.9081895  50.0952888  70.5318956  70.2762050  50.4883596
  71.3044901  70.4568422  49.7409848  73.5654025  69.2363631  53.8370266
  73.3916016  69.0237127  55.0457859  74.7820091  69.4636373  53.2948791
  75.0763266  69.9873860  51.9606466  74.3780383  70.7886383  51.7188027
  74.9819739  69.1893251  51.2242395  76.4821235  70.4733215  52.0967929
  76.4853168  71.5280967  52.3716349  77.0129384  70.3424947  51.1538076
  77.0832719  69.6318652  53.1654888  77.8963687  70.1883039  53.6316954
  77.4465642  68.6533132  52.8515554  75.9454968  69.4691322  54.1443284
  76.0139645  68.5152364  54.6672943  75.8413221  70.5899467  55.1535144
  76.4067436  70.4057126  56.2401188  75.0742548  71.6778228  54.8521998
  74.7535014  71.8408525  53.9084637  74.7537935  72.6808192  55.8814602
  75.7001981  73.1564117  56.1388109  73.7264795  73.7818648  55.5325095
  73.0466852  73.8352868  56.3828771  74.2953527  74.7091108  55.4639670
  72.9553212  73.5908905  54.3030102  72.5424831  72.5833568  54.3534235
  72.1481779  74.3062310  54.1451821  73.8870398  73.6646847  53.1493288
  74.0014839  72.7231420  52.3770925  74.6572872  74.7588377  53.0788588
  75.3106375  74.8644593  52.3159178  74.5810128  75.4729672  53.7890015
  74.2550437  72.0365252  57.1489222  74.9042820  72.1551780  58.1932862
  73.1009454  71.3559365  57.0467160  72.5941468  71.3932597  56.1738693
  72.4979131  70.6350247  58.1691233  72.2999517  71.3222772  58.9916769
  71.1700168  69.9976920  57.7313740  71.4268659  69.1921594  57.0434459
  70.7189724  69.5772231  58.6301870  70.1559927  70.9643282  57.0444078
  69.6311457  71.4882340  57.8432564  70.7504320  71.6769015  56.4725858
  69.1141066  70.2769588  56.0989938  69.2325686  69.0571282  55.7631158
  68.1557273  70.9832651  55.6927641  73.4808067  69.5909047  58.7323432
  73.7396861  69.5714302  59.9211053  74.0416076  68.7731697  57.8479141
  73.8576883  68.9408645  56.8690620  74.9083375  67.6593003  58.2065758
  74.4567602  66.8745679  58.8135125  75.3611495  67.0566981  56.8974265
  75.6014675  67.8701233  56.2128200  76.5787387  66.1661830  57.0721410
  76.3390355  65.3522038  57.7563055  76.8698436  65.7541704  56.1059091
  77.4025424  66.7520729  57.4797955  74.2033459  66.3249308  56.2700155
  73.3858724  67.0232121  56.0904544  74.5200202  65.8860145  55.3238815
  73.8652604  65.5353671  56.9411252  76.1467262  68.0857374  59.0265703
  76.6589813  67.3240684  59.8795675  76.6048651  69.3161723  58.7929882
  76.2227144  69.8595367  58.0321891  77.6569740  69.9190660  59.6182633
  78.4994874  69.2340411  59.7131909  78.1585885  71.2365474  58.9513339
  78.4344851  70.9944328  57.9250002  77.3220361  71.9353041  58.9469362
  79.2800038  71.8367557  59.6194772  79.5351586  72.6392109  59.1584333
  77.1579070  70.2548623  60.9943163  77.7676388  69.8633103  62.0227322
  76.0561206  70.9909826  61.0246431  75.6588242  71.2705539  60.1391519
  75.4739681  71.4981850  62.2117232  76.1040444  72.2310021  62.7157888
  74.1941632  72.2029506  61.7221257  74.3012495  73.2442860  62.0258565
  74.2239465  72.1373479  60.6345094  72.8827760  71.6696345  62.2192850
  72.1098890  71.8535926  61.4730236  72.9701000  70.5973503  62.3944512
  72.4279330  72.4819608  63.7514066  73.8493927  73.5651814  64.1166383
  73.9850803  74.2749713  63.3006198  73.6641142  74.1086224  65.0431611
  74.7495984  72.9601563  64.2246917  75.2642411  70.3930525  63.2845377
  75.5056673  70.6033012  64.4522122  74.8449249  69.2213518  62.8431702
  74.8020961  69.1159208  61.8396019  74.5634398  68.0749850  63.6607112
  73.9448842  68.2686493  64.5370572  73.8482461  67.0495658  62.7731193
  74.4462561  66.8793171  61.8778547  73.6611054  65.7307956  63.5177893
  73.0627571  65.9001712  64.4129944  73.1517871  65.0166585  62.8707163
  74.6349128  65.3322443  63.8023197  72.5318703  67.6051633  62.2661604
  72.7180981  68.5067111  61.6825228  72.0407224  66.8616077  61.6384673
  71.8890313  67.8471914  63.1124944  75.8347421  67.3564308  64.1240298
  76.0190452  67.0662886  65.3220848  76.7014731  67.0602531  63.1534969
  76.4557580  67.2578284  62.1939723  77.9501008  66.3495433  63.4162605
  77.7194712  65.3452244  63.7715811  78.8334585  66.2352881  62.1453415
  78.1737809  66.4207788  61.2976872  79.5705933  67.0353596  62.2132965
  79.5634372  64.8720753  61.9467439  80.4730915  64.8957808  62.5468006
  78.9035266  64.0884841  62.3190406  79.9267111  64.5819467  60.4716723
  79.6674255  65.4606678  59.8811478  81.0019157  64.4118118  60.4160968
  79.2308310  63.4066294  59.9032206  78.6749826  62.8495680  60.5363197
  79.2824906  63.0480160  58.6126248  79.9892648  63.7666063  57.7346315
  80.4894200  64.5874059  58.0448456  80.0199085  63.4854827  56.7650284
  78.6364106  61.9578272  58.1932573  78.1079678  61.4032126  58.8514754
  78.6789594  61.6925463  57.2196484  78.6940486  67.0158104  64.5843323
  79.1839856  66.3167332  65.4984700  78.7211947  68.3470895  64.5808601
  78.3810764  68.8492526  63.7732395  79.2967612  69.1153473  65.6824667
  80.1882278  68.6209805  66.0684566  79.6812772  70.4726589  65.1821132
  78.7655211  70.8863460  64.7597946  80.0516185  71.1351583  65.9644442
  80.7316866  70.3863926  64.0785035  80.4006479  70.1361374  62.9158356
  82.0160054  70.4849652  64.4589160  82.7498309  70.4340069  63.7668156
  82.2421363  70.6096023  65.4353540  78.3975901  69.2614016  66.9096620
  78.8749774  69.3816028  68.0287179  77.0927961  69.2694796  66.6818255
  76.7503625  69.2546200  65.7317635  76.1174075  69.3145586  67.7692642
  76.2757172  70.2212395  68.3531880  74.7148315  69.3147835  67.2588697
  74.7017777  69.7289447  66.2507034  74.2626261  68.3230557  67.2495810
  73.9288311  70.2192573  68.1863282  74.0331923  69.8367137  69.2016458
  74.4187065  71.6648053  68.1344908  74.3142179  72.0482141  67.1195136
  73.8252789  72.2747322  68.8156176  75.4667624  71.7046748  68.4312898
  72.4752924  70.1361097  67.8024952  72.1309206  69.1067672  67.9023035
  71.8885722  70.7801147  68.4575664  72.3526210  70.4611674  66.7693504
  76.2891241  68.1172651  68.6872977  76.1784665  68.2528153  69.9041979
  76.5939247  66.9649865  68.1043092  76.5993317  66.8815166  67.0977791
  76.8011781  65.7749026  68.8895152  75.9111931  65.6270690  69.5012105
  77.0347756  64.5895338  68.0795263  77.9814100  64.6689471  67.5450385
  77.0873687  63.3989535  69.0322374  76.1408465  63.3186099  69.5667850
  77.2616526  62.4854380  68.4637173  77.8972319  63.5410470  69.7478003
  75.8992677  64.4346566  67.0932705  75.5861417  65.4284586  66.7732540
  76.2672397  63.8756240  66.2329341  74.7297622  63.7118641  67.6963035
  74.3609257  64.2705743  68.5564793  73.9360098  63.6217466  66.9547273
  75.0420247  62.7177400  68.0161617  77.9087754  65.9218633  69.9181423
  77.8062398  65.3922600  71.0162575  78.9673217  66.5969274  69.5426506
  79.0637637  66.9918931  68.6180965  80.0654197  66.7191125  70.4497502
  80.3904572  65.7353057  70.7882379  81.2194789  67.3930212  69.7460803
  81.0115792  68.4616569  69.6922790  82.1227703  67.2282581  70.3334625
  81.4205313  66.8468845  68.3470879  80.6357898  67.2638741  67.7158975
  82.3946789  67.1449897  67.9594388  81.3247126  65.3419650  68.3044831
  80.9159702  64.7655846  67.3051201  81.6693481  64.7022000  69.4091767
  81.6253750  63.6936157  69.4396003  81.9749747  65.2250662  70.2174494
  79.7025376  67.4560618  71.6897153  80.0821084  67.0480176  72.7726372
  78.9507439  68.5307398  71.5503221  78.7075572  68.9023741  70.6432127
  78.5980558  69.2990108  72.7224931  79.3289908  69.0015279  73.4743821
  78.7615216  70.7960235  72.4466621  79.7667402  70.9893564  72.0721530
  78.0302111  71.1108152  71.7022219  78.5412304  71.5777352  73.7374073
  77.5359901  71.3852549  74.1122995  79.2725200  71.2637990  74.4822304
  78.7040573  73.0689165  73.4626513  79.7092749  73.2622502  73.0881403
  77.9727453  73.3837072  72.7182125  78.4837680  73.8506274  74.7533978
  77.4785283  73.6581469  75.1282913  79.2150593  73.5366923  75.4982178
  78.6407205  75.2880280  74.4885500  77.9628955  75.5792199  73.7987237
  78.4948253  75.8057518  75.3434048  79.5722723  75.4666584  74.1415609
  77.2289993  68.9625493  73.2942745  77.0260064  67.8890238  73.8349869
  76.3016873  69.8939792  73.1661657  76.5677509  70.7352232  72.6746192
  74.9537346  69.8018317  73.6906782  74.9661986  69.6385003  74.7682991
  74.2401675  71.1158113  73.4061250  74.6934623  71.5424974  72.5113837
  73.1887297  70.9024116  73.2136690  74.3522650  72.0915411  74.5356219
  74.3868348  71.6453730  75.6957184  74.3915616  73.3061935  74.2655028
  74.0458946  68.7195829  73.1787708  73.2007189  68.2144912  73.8943498
  74.1645347  68.4037225  71.9150783  74.8781649  68.8024100  71.3218839
  73.1847814  67.4855166  71.3085905  73.5023590  67.2763184  70.2870819
  73.0365854  66.1423647  72.0657442  72.5740442  66.3979678  73.0190658
  72.3398454  65.5513270  71.4713303  74.2792093  65.3482187  72.3121264
  74.8957806  65.3643473  71.4134159  74.8304040  65.7972149  73.1383763
  73.9303639  63.9198867  72.6573358  73.4354829  63.4614346  71.8011737
  74.8490033  63.3767264  72.8790967  73.0457064  63.8306370  73.8104072
  72.0620442  63.9674635  73.6265956  73.4326401  63.5794059  75.0701691
  74.7190256  63.4114680  75.3904661  75.4271490  63.4732299  74.6729378
  74.9773240  63.2235376  76.3486225  72.5204403  63.5002655  76.0307588
  71.5439176  63.6293440  75.8075050  72.8069085  63.3113214  76.9806718
  71.7509639  68.0062400  71.1344998  70.8853426  67.2957604  70.6290944
  71.4918661  69.2362158  71.5764656  72.2413961  69.7825818  71.9762009
  70.1601899  69.8381243  71.4976646  69.4649692  69.0985608  71.1004075
  69.5635240  70.4222730  72.8416926  68.7530219  71.1015194  72.5774754
  69.0423445  69.3555300  73.7642653  69.8524402  68.6761216  74.0293102
  68.6462916  69.8180555  74.6683180  68.2499391  68.7979825  73.2649306
  70.5291621  71.2014151  73.5383860  70.1415372  71.5425655  74.3476843
  70.1589962  70.9905266  70.5514757  71.0765384  71.8561870  70.5717325
  69.1183413  70.9930943  69.7299741  68.4518405  70.2373003  69.7981751
  68.8701120  72.0418775  68.7636242  69.5901079  72.8466084  68.9123295
  69.0005605  71.5355354  67.3568539  68.7073910  72.3541195  66.6995329
  70.0077428  71.2071173  67.1002893  68.1070003  70.4177439  67.0570049
  68.2529397  69.2140186  67.7247183  68.9223007  69.1514387  68.5827041
  67.5691036  68.1168402  67.3171246  67.7212033  67.1540152  67.8049100
  66.6770284  68.2272016  66.2781245  66.1328942  67.3455777  65.9393662
  66.4685995  69.4417560  65.6658167  65.7308389  69.5349190  64.8688663
  67.1871947  70.5287766  66.0583231  67.0275609  71.4917649  65.5732762
  67.4458041  72.5140333  68.9668633  66.7139785  71.9061494  69.7334182
  67.0711424  73.5582262  68.2478711  67.6541265  73.8612160  67.4807817
  65.8615747  74.3009044  68.5246308  65.3871425  73.9826673  69.4529295
  66.2385606  75.7507240  68.6502721  66.7066648  76.0864663  67.7249313
  65.3442081  76.3440592  68.8405016  66.9385416  75.8743720  69.4766116
  64.8250381  74.1047866  67.3828183  65.1573021  74.1738158  66.1809462
  63.5826250  73.8404078  67.7757603  63.3552161  73.7747302  68.7576314
  62.5271050  73.6689259  66.8205883  62.8340057  73.7236188  65.7761173
  61.9390090  72.3293240  67.0727110  61.5704416  72.2787302  68.0972585
  60.7978573  72.0996952  66.1171528  61.1657598  72.1496844  65.0923359
  60.3631444  71.1168215  66.2990445  60.0375600  72.8661473  66.2674888
  63.0410550  71.2790236  66.9604892  63.8172303  71.4858932  67.6972788
  62.6211315  70.2900034  67.1438000  63.4728397  71.3101446  65.9601420
  61.5000819  74.7433128  67.0547708  61.1056424  74.9807967  68.2084778
  61.0147110  75.3706213  65.9752444  61.3164998  75.0954859  65.0514894
  60.1904410  76.5672321  66.1057616  60.1084298  76.8381277  67.1583721
  60.8063861  77.7579912  65.3357160  60.7720885  77.4338162  64.2956037
  60.1687672  78.6326304  65.4643562  62.2791846  78.1253482  65.7191837
  62.9153668  77.2769929  65.4668619  62.7733057  79.3613800  64.9919317
  62.1378519  80.2103151  65.2441351  63.7992930  79.5743481  65.2920906
  62.7383497  79.1889478  63.9162246  62.5268629  78.3369743  67.2015153
  62.2833809  77.4240814  67.7450615  63.5754686  78.5867581  67.3631798
  61.8998715  79.1522866  67.5624122  58.7173134  76.3190842  65.7469933
  58.4149966  75.6988531  64.7693493  57.8422388  76.8966348  66.5479688
  58.1528305  77.2029095  67.4589177  56.4633496  77.0862736  66.2002466
  56.0599795  76.2550320  65.6219482  55.6465107  77.2430934  67.4475540
  56.0326924  78.0775810  68.0328695  54.6078126  77.4373740  67.1802312
  55.7042957  76.3285050  68.0377135  56.3723577  78.3535333  65.2980014
  56.8823198  79.4485433  65.6232962  55.8712194  78.1387018  64.1097936
  55.7381570  77.1932643  63.7803370  55.4622615  79.2272061  63.2516638
  55.7596295  80.1882943  63.6711646  56.1577137  79.0484525  61.8902548
  56.0471654  78.0427439  61.4847570  55.5438023  79.7412243  61.3146854
  57.6174090  79.4724151  61.8040268  58.6579308  78.5738436  62.0746589
  58.4202922  77.5686313  62.4227619  59.9764621  78.9524694  61.9037769
  60.7903879  78.2608691  62.1212980  60.2576485  80.2310970  61.4203002
  61.5439541  80.6679378  61.2947892  62.1907521  80.0135054  61.5685964
  59.2483898  81.1006907  61.0794121  59.4748994  82.0882940  60.6776242
  57.9429699  80.7121620  61.2504487  57.1327682  81.3772115  60.9514797
  53.9249292  79.0946259  63.0950115  53.4597029  78.0681287  62.5687548
  53.1419674  80.1524232  63.4049429  53.3868365  80.7799390  64.1575134
  51.8697689  80.4059298  62.6537496  51.2566427  79.5053691  62.6878925
  51.0561660  81.5804479  63.2456604  50.4330658  81.2009887  64.0555099
  51.7501494  82.3231168  63.6392719  50.2198966  82.1893565  62.2410322
  49.7261223  82.9139173  62.6319266  52.3218544  80.7077641  61.1892777
  53.1874588  81.5431724  61.0116854  51.7342594  80.1108948  60.1713150
  50.9627553  79.4684413  60.2814701  52.2393339  80.3589733  58.8290580
  53.2671380  80.0048933  58.7494004  51.3997252  79.6529013  57.7778560
  51.4276262  78.5772873  57.9521414  50.3695591  80.0037686  57.8390930
  51.9263222  79.9325186  56.3775003  52.9107402  80.6496511  56.2129303
  51.2667323  79.3631276  55.3660860  51.5747169  79.5163110  54.4164649
  50.4627518  78.7817740  55.5551472  52.2443159  81.8314861  58.5683470
  53.0165049  82.3351006  57.7773442  51.3693049  82.5331090  59.2453707
  50.7281735  82.0931021  59.8899200  51.2956517  83.9630381  59.0772727
  51.1177037  84.1934619  58.0268734  50.1466102  84.5538208  59.9115055
  49.2025645  84.1087866  59.5971466  50.3833656  84.2530450  61.3876847
  51.3270724  84.6981855  61.7029120  49.5692386  84.6715575  61.9794153
  50.4232502  83.1741030  61.5373342  50.0909580  86.0634528  59.7028474
  49.9217696  86.2789499  58.6478411  49.2767172  86.4826863  60.2939099
  51.0345560  86.5092745  60.0174372  52.5893731  84.6408543  59.5084526
  52.9007752  85.7369758  59.0605781  53.3488491  83.9978666  60.3798503
  53.0794544  83.0962905  60.7468469  54.5438606  84.6306205  60.9144070
  54.1855028  85.5267702  61.4209586  55.2173976  83.7259287  61.9421743
  54.4950713  83.4452873  62.7087148  55.5895809  82.8283125  61.4483476
  56.3812079  84.4696122  62.5887846  57.1042240  84.7501951  61.8228723
  56.0097156  85.3671686  63.0832419  57.0810332  83.5990758  63.6226587
  56.6895148  82.4550710  63.8426723  58.1205348  84.1445848  64.2583314
  58.6203317  83.6097098  64.9541856  58.4024217  85.0896697  64.0404879
  55.5500229  85.0614845  59.8766191  56.1192484  86.1420098  59.9984365
  55.7792265  84.2503700  58.8582857  55.3336713  83.3480218  58.7725665
  56.7374092  84.6453656  57.8391638  56.9227181  83.8109570  57.1627601
  56.2214320  85.8277415  57.0248175  55.2917878  85.5495787  56.5283435
  56.0398416  86.6741517  57.6871730  57.2498884  86.2119214  55.9880999
  58.1797299  86.4906735  56.4838749  57.4316749  85.3661023  55.3250443
  56.7334339  87.3953965  55.1729992  57.0097010  88.5499288  55.5952939
  56.0675794  87.1336164  54.1358352  58.0564159  85.0027350  58.4976177
  58.6375132  86.0457211  58.2159814  58.4934645  84.1249666  59.3917235
  57.8382695  83.4115515  59.6778311  59.7626810  84.2305697  60.1124645
  59.9782379  83.1691501  60.2350315  60.8275895  84.8415235  59.2243147
  60.8127869  84.3532457  58.2499098  60.6304605  85.9062725  59.0996154
  62.1970144  84.6503609  59.8675539  62.2127338  85.1387967  60.8418661
  62.3950625  83.5857706  59.9921587  63.2687470  85.2652311  58.9737146
  63.2539441  84.7769553  57.9993088  63.0716180  86.3299800  58.8490175
  64.6141995  85.0984237  59.5672920  64.6938973  84.6223661  60.4544880
  65.7231360  85.5467728  58.9857909  65.6988999  86.1828588  57.8180119
  64.8180683  86.3364513  57.3482833  66.5614376  86.5093840  57.4062965
  66.8808166  85.3423633  59.6077984  66.8957178  84.8589759  60.4944858
  67.7397360  85.6714630  59.1906060  59.8186005  84.8783330  61.4798268
  60.8553042  84.7993365  62.1264141  58.7426578  85.4935155  61.9403015
  57.8864719  85.5675212  61.4096714  58.7785299  86.0668378  63.2667903
  59.7521387  86.4326471  63.5929322  57.7659392  87.1877202  63.4117827
  58.0644311  88.0305968  62.7884361  56.7840122  86.8338948  63.0975744
  57.7042296  87.6266350  64.8552667  57.4053326  86.7843475  65.4792164
  58.6857499  87.9810514  65.1700778  56.6852837  88.7545486  65.0011699
  55.4946693  88.4263891  65.2508701  57.1072577  89.9335477  64.8615306
  58.4213375  84.9027866  64.1522774  57.3389657  84.8507971  64.6995520
  59.3205498  83.9427531  64.2815020  60.2185096  83.9823408  63.8208500
  59.0208726  82.7679140  65.1415209  58.0046068  82.3992543  65.0022618
  59.9836111  81.6342913  64.8896574  61.0052524  81.9856674  65.0341697
  59.7778771  80.8208386  65.5854076  59.8643683  81.2760485  63.8671397
  59.1589826  83.2290337  66.5804508  60.0885389  83.9999356  66.8858576
  58.2147599  82.8388460  67.4416518  57.4900405  82.1952677  67.1575954
  58.0809272  83.5134833  68.7576736  58.9875922  84.0845546  68.9575118
  56.8558050  84.4889731  68.7979744  55.9908023  83.9359014  68.4319397
  56.6961798  84.7635897  69.8406659  57.0461867  85.7791338  67.9446214
  58.1116326  85.9516401  67.7924135  56.5763035  85.5457725  66.9891873
  56.4095093  87.0764498  68.5060695  56.7963030  88.1815679  68.1073191
  55.4025364  86.9383557  69.3749012  54.9598096  87.7582542  69.7645945
  55.0892503  86.0147798  69.6375050  58.1279614  82.5431024  69.9203639
  58.6802703  82.8712267  70.9727509  57.7823759  81.2880364  69.6647570
  57.3562021  81.0683272  68.7758233  57.9467055  80.1930113  70.6577811
  58.7021783  80.4901410  71.3851559  56.6089270  79.8658854  71.4257781
  55.9136888  79.2790379  70.8254840  56.8878341  79.3000699  72.3146896
  55.8336438  81.1007522  71.9154802  55.0676669  81.8822628  71.0311536
  55.0229972  81.5946220  69.9807407  54.3693709  83.0130087  71.4788102
  53.8162849  83.6283606  70.7692055  54.3824858  83.3471962  72.8200188
  53.8423517  84.2248760  73.1750305  55.0893793  82.5571304  73.7169534
  55.0852876  82.8121426  74.7766949  55.8050986  81.4380200  73.2678668
  56.3495904  80.8176748  73.9797659  58.4622816  78.9284079  69.9590219
  58.4598581  78.8205966  68.7249976  58.8983208  77.9687533  70.7647556
  58.8886970  78.1154041  71.7640054  59.4029082  76.6798731  70.2513605
  58.6249442  76.2619348  69.6124562  60.2869850  76.8969157  69.6518605
  59.7636090  75.6701423  71.3086285  59.4635561  75.8684228  72.4702898
  60.5706534  74.6988926  70.9424873  61.0245173  74.7339030  70.0408881
  60.8367518  73.5334022  71.8182052  60.7899743  73.7417022  72.8870935
  59.7806941  72.4993639  71.4793823  60.0745540  71.9719365  70.5718764
  59.6378024  71.5056627  72.6179625  59.3434873  72.0323272  73.5257635
  58.8768218  70.7678762  72.3636423  60.5903483  71.0022280  72.7832211
  58.5371821  73.1919818  71.1827881  57.8571901  72.5499774  70.9658975
  62.2576008  72.9749210  71.5599301  62.6759807  72.8007475  70.4130531
  63.0025881  72.7163586  72.6372919  62.7008276  73.0160073  73.5533981
  64.2997159  72.0756690  72.5152660  64.8382289  72.4953401  71.6655725
  65.1833791  72.2325653  73.7928003  66.1477558  71.7541953  73.6218036
  65.3964927  73.7037981  74.1037261  64.4325212  74.1827734  74.2753108
  66.0140891  73.8012486  74.9965739  65.8960340  74.1847683  73.2627585
  64.5850991  71.5883608  74.9301211  65.1511054  71.7026579  75.6970457
  64.0746069  70.6136455  72.1750776  63.1909105  69.9620330  72.7361158
  64.8506407  70.1066348  71.2196610  65.4307014  70.7148835  70.6596052
  64.8964508  68.6990375  70.9623921  64.2760962  68.1190230  71.6456508
  64.4359221  68.4410605  69.5626700  65.0535520  69.0080086  68.8661047
  64.5225286  67.3772807  69.3413732  63.3956520  68.7496542  69.4591943
  66.3168300  68.2316440  71.1255584  67.2570877  68.8606291  70.6506760
  66.4747742  67.1125349  71.7902729  65.6411662  66.5644115  71.9476190
  67.7598645  66.5637345  72.2293936  68.5609925  67.2957537  72.1272121
  67.6160647  66.2034008  73.6978385  67.2948460  67.1247966  74.1835828
  66.8062839  65.4745184  73.7307873  68.8242606  65.6475890  74.4199416
  69.2740231  64.7157780  74.0770966  69.5192176  66.4699453  74.2500474
  68.5180746  65.5453867  75.8906101  68.8468591  66.5024235  76.6438116
  67.7436390  64.6291201  76.2357798  68.0027397  65.2899040  71.4797907
  67.1278767  64.4227031  71.4928822  69.1691568  65.1495310  70.8298027
  69.8071966  65.9236960  70.7128699  69.4159785  63.9425782  70.0836358
  68.4485211  63.5828130  69.7333583  70.3373622  64.1252662  68.9096486
  71.3718215  64.1624718  69.2511310  70.1561090  62.9359055  67.9559451
  69.1219310  62.8983157  67.6136534  70.8181885  63.0532551  67.0980521
  70.3993358  62.0105167  68.4780520  69.9820083  65.4319078  68.1830473
  69.3444542  65.1672892  67.3394819  69.4185266  66.0467829  68.8848425
  71.1799438  66.2059999  67.6850766  71.7437022  65.5918961  66.9828282
  70.8439134  67.1140280  67.1844092  71.8177762  66.4713878  68.5281892
  69.8102726  62.7789333  70.9880675  70.7440186  62.8622715  71.7800959
  69.0538238  61.6859878  70.8777472  68.2516570  61.6954583  70.2641202
  69.3243954  60.4650783  71.6535416  70.0925445  60.6688325  72.3995513
  68.0638390  59.9832982  72.3697814  68.2456049  59.2755006  73.1785354
  67.7896358  60.9511672  72.7894744  66.9167735  59.4652764  71.4830164
  66.8482190  58.1368546  71.1129070  67.6621995  57.4735789  71.4054827
  65.7819626  57.6430485  70.3895815  65.7712107  56.6035733  70.0617438
  64.7046752  58.4619817  70.1216018  63.6247042  57.9916949  69.3770925
  63.7309020  57.0795871  69.0971263  64.7141273  59.7726150  70.5548339
  63.8653531  60.4259588  70.3527827  65.8024979  60.2527690  71.2449090
  65.8020438  61.2763683  71.6195347  69.8541507  59.3052531  70.8234489
  70.2119260  58.2579955  71.3746959  69.8239414  59.4602766  69.5125621
  69.4568691  60.3073228  69.1028429  70.3093739  58.4253016  68.6275338
  71.1361642  57.8549745  69.0509060  69.1992785  57.4733046  68.2754770
  68.3675728  58.0285928  67.8418633  69.5625674  56.7416846  67.5537752
  68.8621219  56.9587934  69.1753119  70.8224961  59.1113172  67.3970412
  70.3077315  60.1501306  67.0251487  71.8406408  58.5518344  66.7645813
  72.2859971  57.7112385  67.1039271  72.3737656  59.1773923  65.5795834
  71.5820249  59.5739535  64.9439851  73.2407004  60.3257289  66.0448201
  72.5855170  61.1457074  66.3388766  73.7304815  59.9177131  66.9289794
  74.2758905  60.8324860  65.0908154  74.0232513  60.9431337  63.7472066
  73.0515791  60.6313937  63.3641000  74.9747271  61.4387706  62.8869317
  74.7653432  61.5146261  61.8199237  76.1816504  61.8445257  63.3755470
  77.1452346  62.3320091  62.5314247  76.8671927  62.3453567  61.6126678
  76.4473695  61.7617619  64.7103011  77.4111025  62.0850703  65.1037359
  75.4928685  61.2680837  65.5580456  75.6901443  61.2141259  66.6286860
  73.1492596  58.1984146  64.7423733  73.7515996  57.2810122  65.2698773
  73.1278316  58.3902444  63.4337633  72.5930275  59.1514946  63.0405942
  73.8685045  57.5382856  62.5344754  74.7513153  57.1469483  63.0400438
  73.0190087  56.3805684  62.0851096  72.1618497  56.3162601  62.7553649
  72.6734060  56.5936866  61.0735566  73.7628941  55.0721550  62.0955446
  74.6502535  55.1778464  62.7196628  73.1141868  54.3028941  62.5144939
  74.1739124  54.6772738  60.7023042  74.4931361  55.5602321  60.1486076
  74.9951713  53.9621571  60.7496489  73.0626478  54.0633868  59.9982881
  72.7104814  54.5262329  59.1725450  72.4841357  52.9386484  60.3867881
  71.4775966  52.4381872  59.6900625  71.1531152  52.9170326  58.8621018
  71.0380300  51.5794516  59.9891512  72.9087539  52.3204887  61.4802574
  73.6729000  52.7109500  62.0129119  72.4660962  51.4620067  61.7754886
  74.2416235  58.3852360  61.3579927  73.4518856  59.1987360  60.9283629
  75.4365715  58.1858804  60.8232568  76.0464188  57.4814836  61.2131424
  75.9207287  58.9709135  59.6853847  75.1174075  59.5915525  59.2884196
  77.1010939  59.8864229  60.0848422  76.7733115  60.5894421  60.8506241
  77.9169786  59.2784706  60.4757721  77.5786741  60.6496698  58.8726245
  77.9070746  59.9472791  58.1065297  76.7634092  61.2582520  58.4813828
  78.7443223  61.5537613  59.2670997  79.9041547  61.0692255  59.1798349
  78.4637944  62.7202966  59.6519370  76.3703627  58.0250109  58.5833459
  77.4819543  57.5768721  58.6129066  75.5092295  57.7748362  57.6024604
  74.5361590  58.0180154  57.7211907  75.8690752  56.9324340  56.5017271
  76.8423761  56.4869404  56.7074452  74.8619292  55.8130067  56.2605687
  75.4201637  55.0582134  55.7067091  74.6303379  55.4349797  57.2563404
  73.5705150  56.1275673  55.5258729  73.0455161  56.7788088  56.2247016
  73.7135436  56.6503921  54.5802005  72.7399229  54.8568032  55.2877038
  72.1684101  54.3262871  56.3013822  72.7776340  54.3287620  54.1268988
  76.2691735  57.7097620  55.2657900  75.6290923  58.6958497  54.8289224
  77.3561369  57.2433538  54.6745990  78.0468851  56.7241843  55.1975037
  77.6675345  57.6119076  53.2640198  76.8151479  58.1450145  52.8429103
  78.9169139  58.5131796  53.1535446  79.2269064  58.4608206  52.1098672
  78.5732842  59.5225584  53.3797591  80.1069083  58.1630347  54.0587948
  79.7825306  57.5045018  54.8645332  80.8442930  57.6475031  53.4434956
  80.7608288  59.3977003  54.6716331  81.2734341  60.2451746  53.9562723
  80.7115603  59.5136671  55.9995372  81.1312521  60.3146815  56.4493550
  80.2547867  58.7999325  56.5491208  77.7631238  56.3886830  52.3610058
  78.6773565  56.2775202  51.5543693  76.7270648  55.5706740  52.3718633
  75.9275457  55.7798056  52.9524945  76.7261692  54.3213782  51.6167950
  77.7339573  53.9079186  51.5778929  75.8100883  53.3075773  52.2872902
  74.8634609  53.8237777  52.4470803  75.6489371  52.4468609  51.6382158
  76.3495573  52.8489202  53.5919234  77.1003258  53.6568545  54.2328663
  76.0720031  51.6709389  53.9399817  76.3165193  54.5606079  50.1888993
  77.1129411  54.3305315  49.2471105  75.0855437  55.0667385  50.0402487
  74.4897314  55.1869502  50.8468814  74.5355338  55.3863624  48.7122771
  74.4409888  54.4610780  48.1439381  73.1677239  56.0582536  48.7808287
  73.0333663  57.0758836  49.1475391  72.9251826  56.0203124  47.7188333
  72.1641204  55.2229829  49.4739462  71.6343695  54.1007516  48.8182192
  71.8858327  53.9237654  47.7724936  70.7866649  53.2091297  49.4977693
  70.3330111  52.3766124  48.9599833  70.5241523  53.3878753  50.8620710
  69.8566495  52.7024160  51.3842639  71.1210083  54.4497936  51.5558538
  70.9287131  54.5867406  52.6199817  71.9713061  55.3410710  50.8736286
  72.4873046  56.1293809  51.4217279  75.5684459  56.2447618  48.0434715
  75.8090332  56.0429342  46.8724688  76.2749379  57.0932697  48.8093439
  76.1813473  57.0813826  49.8149277  77.2076848  58.0667368  48.2039366
  78.0668785  58.1776205  48.8654427  77.5384437  57.6744779  47.2422554
  76.5617441  59.4463619  47.9865796  76.8348841  60.1799616  47.0129980
  75.7176990  59.8262928  48.9114971  75.0273247  59.1949173  49.2920856
  75.7611350  61.1715973  49.4143281  76.7057402  61.6434255  49.1437762
  74.5847647  62.0616036  48.9390896  74.9189092  62.6629763  48.0936319
  73.3930270  61.2080219  48.5161456  73.0580050  60.6066684  49.3612698
  72.5803757  61.8554795  48.1867565  73.6880726  60.5512225  47.6978169
  74.1971535  63.0705721  50.0561236  73.8492572  62.4794821  50.9032845
  75.1109895  63.5968813  50.3318078  73.1246335  64.0834947  49.6687185
  72.2102886  63.5579121  49.3933344  72.9240396  64.7421619  50.5137149
  73.4720205  64.6753101  48.8218557  75.7028426  60.8630486  50.8872225
  75.2732243  59.7591599  51.2902793  76.3035316  61.7306451  51.6871294
  76.7885728  62.5271439  51.2992840  76.3308980  61.5377685  53.1623727
  76.4925162  60.4771281  53.3547803  77.4203364  62.3426489  53.8957680
  77.0805916  62.4169997  54.9287950  78.3169683  61.7243736  53.8523302
  77.7409499  63.7493903  53.3588745  78.1345125  63.6026275  52.3530564
  76.8163774  64.3242911  53.3063961  78.7747327  64.5157154  54.2081359
  78.7252174  65.7858427  54.1954172  79.6515746  63.8548545  54.8543163
  74.9730273  61.9188639  53.6705218  74.3209879  62.8308413  53.1101160
  74.4636646  61.0868255  54.5432936  75.0327412  60.3480019  54.9310962
  73.0667133  61.2089223  55.0035527  72.5733529  62.1526994  54.7712178
  72.2700914  60.0374706  54.3649788  72.9834212  59.2660854  54.0747622
  71.2451263  59.4467679  55.3101761  70.5311295  60.2174994  55.6004900
  70.7179709  58.6327022  54.8126773  71.7474171  59.0642868  56.1987206
  71.6374325  60.4674482  53.0335105  72.4218581  60.9672527  52.4652037
  71.3446653  59.5516969  52.5199090  70.4298736  61.3909895  53.1532271
  70.7219924  62.3072167  53.6663491  70.0584619  61.6351576  52.1579711
  69.6448000  60.8916613  53.7210568  73.1791082  61.0793178  56.5093379
  73.9627308  60.2669785  56.9885889  72.4486978  61.9104816  57.2567732
  71.9177610  62.6542888  56.8267078  72.4372973  61.8062972  58.6841332
  73.0132322  60.9296656  58.9806380  73.0362398  63.0406889  59.3689391
  72.3916137  63.9037304  59.2024586  73.1454156  62.7764541  60.8358616
  73.7903071  61.9137697  61.0031682  73.5705291  63.6488958  61.3320717
  72.1551472  62.5737061  61.2437384  74.4128675  63.3781437  58.8331534
  74.3474972  63.5815702  57.7643005  74.7975402  64.2589507  59.3472600
  75.0852431  62.5369987  59.0019346  71.0047285  61.5914196  59.1573775
  70.1059939  62.3980607  58.8711830  70.7953706  60.4607975  59.8405766
  71.5433037  59.7893046  59.9395351  69.5139810  60.1479905  60.4240194
  68.7848749  60.8753689  60.0670542  69.0225571  58.7551681  60.0713180
  69.3532033  58.1026119  60.8793667  67.9338522  58.8082772  60.0702848
  69.4932724  58.2098160  58.7699079  68.8193237  58.5234511  57.9727084
  70.4988383  58.5738088  58.5590798  69.5106019  56.7005039  58.8498925
  70.4006787  56.3992882  59.4022796  68.6211918  56.3782793  59.3913908
  69.5267333  56.0519310  57.4650084  70.0726392  56.7195125  56.7983584
  70.0643456  55.1078329  57.5530483  68.1622683  55.7981352  56.9080191
  67.6640922  56.6728843  56.8259559  68.2448339  55.3709064  55.9965596
  67.6564046  55.1792181  57.5253866  69.6425080  60.2760081  61.9470273
  70.5822808  59.7612730  62.5475462  68.7230584  61.0191692  62.5464637
  68.1224047  61.6111689  61.9907202  68.7068751  61.1805728  63.9723620
  69.2089158  60.3283826  64.4304299  69.4165982  62.4792595  64.4321795
  69.6768563  62.3900972  65.4868904  70.6528641  62.6992702  63.6334005
  70.3933420  62.7889987  62.5785555  71.1426605  63.6145845  63.9656650
  71.3293425  61.8555938  63.7701076  68.5426388  63.7006955  64.2739552
  67.6392436  63.5816613  64.8721275  69.0866716  64.5833797  64.6101045
  68.2703179  63.8198725  63.2252707  67.3143353  60.9857292  64.5655660
  66.2956594  61.1325834  63.8970622  67.3032869  60.5914537  65.8291426
  68.1747327  60.3204306  66.2618411  66.0926654  60.5389998  66.6282103
  65.2247921  60.7981146  66.0217826  65.9074091  59.1272643  67.1638854
  66.7300921  58.9371029  67.8531826  64.9650351  59.1149623  67.7114983
  65.8851064  58.0669257  66.1106529  65.0732247  58.2687577  65.4119306
  66.8342344  58.0700406  65.5746973  65.6743230  56.7213418  66.7483835
  66.4244047  56.5452587  67.5194030  64.6794684  56.6624091  67.1898479
  65.8078064  55.6768314  65.6703087  65.2398978  56.0287652  64.8090752
  66.8642649  55.6175365  65.4086245  65.3242000  54.3419816  66.0649807
  64.3451713  54.3966229  66.3070898  65.4453864  53.6989602  65.2956062
  65.8505962  54.0155062  66.8627401  66.2260218  61.5079137  67.7885392
  66.9882329  61.2562217  68.6862063  65.4762877  62.6039258  67.7478304
  64.9419389  62.8140461  66.9169151  65.4362300  63.5499508  68.8502827
  66.2709417  63.3357506  69.5177209  65.5880911  64.9468324  68.3260145
  64.7546509  65.1792826  67.6631085  65.5957253  65.6494015  69.1593443
  66.5244253  65.0285057  67.7740118  64.1577389  63.4456612  69.6593891
  63.1811758  62.9073705  69.1977089  64.1792288  63.9770505  70.8715461
  65.0439239  64.3672441  71.2181737  63.0164075  64.0004874  71.7404474
  62.1002937  63.7618911  71.2001637  63.2148595  62.9893740  72.8858313
  63.4537062  62.0184581  72.4518093  64.3281420  63.4135950  73.8117387
  64.0897792  64.3842843  74.2465329  64.4400227  62.6771986  74.6075426
  65.2600023  63.4861966  73.2509673  61.9367800  62.7928299  73.6821731
  62.0007299  63.4144206  74.5752778  61.1036078  63.1290554  73.0650216
  61.7134532  61.3388838  74.0895598  62.5460532  61.0020706  74.7071631
  60.7856675  61.2581150  74.6559424  61.6489334  60.7167048  73.1969062
  62.8364014  65.4120628  72.2880310  63.7850107  66.0153558  72.7576030
  61.6329087  65.9576543  72.1680428  60.8844007  65.4479701  71.7207652
  61.3517781  67.3006227  72.6735321  62.0163573  67.9993526  72.1653884
  60.3169387  67.5432529  72.4320007  61.5536582  67.4303116  74.1822041
  61.0735899  66.5827692  74.9668711  62.2509045  68.4932665  74.5915054
  62.5862288  69.1734507  73.9244174  62.6113758  68.6624158  75.9864157
  62.2364976  67.8063790  76.5474562  64.1138166  68.7663140  76.2041493
  64.4806941  69.4968655  75.4831815  64.2537217  69.1515044  77.2141765
  64.8876154  67.4651851  76.0460164  64.4838197  66.9693062  75.1633194
  65.9260051  67.7418869  75.8635745  64.8167257  66.5201366  77.2346728
  65.8242296  66.1984520  77.4984035  64.3688018  67.0406175  78.0811734
  64.0033597  65.3257624  76.9293483  63.1158431  65.4999704  76.4798316
  64.3515080  64.0560024  77.1885302  65.5206475  63.7559588  77.7613275
  66.1630300  64.4952220  78.0081769  65.7567448  62.7912465  77.9448702
  63.5082894  63.0745771  76.8780519  62.6187416  63.2929425  76.4524684
  63.7616787  62.1157870  77.0693998  61.9612819  69.8687128  76.6549877
  61.2123508  69.7116177  77.6048342  62.2751775  71.0671298  76.2027100
  62.8908967  71.1829551  75.4105145  61.7952509  72.2783319  76.8999173
  61.0232119  72.0153113  77.6230183  62.9309370  72.9245125  77.6271868
  63.5050523  73.5181032  76.9157510  62.5219372  73.5777076  78.3980015
  63.8275621  71.9005010  78.2630593  63.3032203  71.0746509  78.7438275
  64.4412517  71.5155903  77.4486081  64.7117124  72.5415739  79.2581527
  65.3182528  73.5511025  78.9576420  64.7076746  72.0403788  80.4847286
  65.2973575  72.4487707  81.1957782  64.1149315  71.2522646  80.7029784
  61.1270463  73.2875088  75.9935766  61.4817455  73.4586653  74.8317006
  60.2045479  74.0296582  76.5539275  59.8671260  73.8154931  77.4814937
  59.5913573  75.1361155  75.8352993  59.6248956  74.9462208  74.7624925
  58.1468352  75.2952401  76.2528975  58.1466960  75.5976733  77.3001001
  57.7227568  76.0940577  75.6444997  57.3098561  74.0342476  76.0891443
  57.3027965  73.7485437  75.0372772  57.7565047  73.2341444  76.6794340
  55.8835009  74.2742773  76.5584177  55.5708977  75.2729141  76.2532903
  55.2280035  73.5332801  76.1008744  55.7661133  74.1707231  78.0044418
  55.5754351  73.2489000  78.3704793  55.8731462  75.1860899  78.8618776
  56.1099714  76.4246309  78.4732647  56.2173575  76.6304321  77.4903028
  56.1827655  77.1611204  79.1605667  55.7556395  74.9415920  80.1386567
  55.5872141  73.9974862  80.4555119  55.8336886  75.6976540  80.8037712
  60.3717947  76.4201579  76.0676216  60.7783526  76.7202668  77.1819422
  60.4948469  77.2024894  75.0129175  60.2218699  76.8764352  74.0967999
  61.1149766  78.4961958  75.1196172  61.0971284  78.8178394  76.1609269
  62.5739277  78.4669910  74.6398364  63.0346946  79.4547383  74.6520228
  63.1205385  77.8033670  75.3098513  62.7644044  77.9072777  73.2099114
  62.5491782  78.7082452  72.0768277  62.2472595  79.7479555  72.2031109
  62.7173311  78.1876669  70.8101206  62.5716922  78.8234825  69.9368345
  63.0710234  76.8578710  70.6476594  63.1099782  76.4335171  69.6444115
  63.3713953  76.0748493  71.7376134  63.7216427  75.0514434  71.6031987
  63.2264490  76.5939254  73.0098153  63.4716436  75.9832916  73.8787836
  60.3763936  79.6108539  74.4028566  59.5862435  79.3588622  73.4951293
  60.7449179  80.8339692  74.7737847  61.3826103  80.9075483  75.5535500
  60.3327730  82.0533966  74.1050407  59.4418312  81.8732745  73.5034778
  60.0117442  83.1110827  75.1409122  59.7607733  82.5704985  76.0535356
  60.9342403  83.6713725  75.2931500  58.8709314  84.0858828  74.7916485
  59.2573170  84.8414304  74.1075763  58.0741458  83.5262963  74.3016508
  58.3100327  84.7782720  76.0640756  57.9464991  83.9957127  76.7300660
  59.1357367  85.3061286  76.5412337  57.1770768  85.7640277  75.7696138
  56.3326511  85.2047257  75.3668397  56.8842772  86.2387796  76.7060850
  57.5955254  86.8179680  74.7834924  57.8664699  86.3782893  73.9155226
  56.8236202  87.4472924  74.6155245  58.3777062  87.3366256  75.1567036
  61.4977620  82.5449347  73.2702276  62.6440456  82.5839999  73.7188763
  61.1969406  82.9284782  72.0376519  60.2585825  82.7956740  71.6884434
  62.1892731  83.5381457  71.1484677  63.1669418  83.0616052  71.2203862
  61.7382892  83.5057551  69.6956737  60.6948334  83.8161951  69.6415787
  62.5949979  84.4476525  68.8467946  63.6385987  84.1375479  68.9000255
  62.2581439  84.4114767  67.8107824  62.4993495  85.4657978  69.2240653
  61.7776004  82.0602812  69.1999826  61.1101330  81.4490448  69.8074193
  61.4562730  82.0237229  68.1590639  62.7944680  81.6758887  69.2795043
  62.4128795  84.9832635  71.5551688  61.4871474  85.7436234  71.7193998
  63.6645007  85.3469388  71.7026428  64.3947192  84.6508694  71.6539851
  64.0485525  86.7398261  71.9224636  63.2274206  87.3330283  72.3248971
  65.1498573  86.7026407  72.9313264  66.0207665  86.2224955  72.4851460
  65.4319020  87.6844122  73.3116886  64.6284008  85.8438341  74.0788020
  63.9553265  85.1024531  73.6481907  65.7165726  85.1423677  74.8610629
  66.3898236  85.8831698  75.2923913  65.2675667  84.5516758  75.6595475
  66.2775701  84.4860686  74.1957408  63.8121892  86.7260743  74.9929206
  62.9786298  87.1543890  74.4363017  63.4277723  86.1332235  75.8228922
  64.4401494  87.5283570  75.3803576  64.5416472  87.3529920  70.6090444
  63.8602981  88.1847390  69.9890650  65.6846240  86.8427568  70.1185444
  66.1645293  86.1416426  70.6646480  66.2340111  87.2004436  68.8178374
  65.5606335  87.8713195  68.2843701  67.5419414  87.9042830  69.0317849
  67.7954940  87.7921379  70.0859357  68.2846738  87.3885560  68.4231189
  67.5268135  89.3459808  68.6774202  67.1936149  89.4350325  67.6434234
  66.8431800  89.8923196  69.3272343  68.8906614  89.9127042  68.8073533
  69.8068926  89.1398769  69.2063374  69.0290675  91.1226193  68.5412159
  66.5583707  85.9812576  67.9308507  66.9211612  84.9210079  68.4277006
  66.6285864  86.2334748  66.6378858  66.3558145  87.1494943  66.3113845
  67.1073031  85.2596598  65.6539871  67.4460248  84.3466095  66.1435850
  65.9590929  84.9155500  64.7298818  65.3992518  85.8454423  64.6299941
  66.3916265  84.6471399  63.7660505  65.0321673  83.8179241  65.1875841
  64.7580675  83.9833365  66.2295097  63.7783382  83.8235121  64.3268831
  64.0516098  83.6576849  63.2848070  63.1071530  83.0304701  64.6565735
  63.2763367  84.7863931  64.4215147  65.7354176  82.4770894  65.0992535
  66.6205762  82.4878891  65.7352386  65.0595183  81.6891430  65.4315213
  66.0322991  82.2892168  64.0674278  68.2466313  85.8192676  64.7967454
  68.0251391  86.6866770  63.9230382  69.4422495  85.2659048  64.9897240
  69.5575362  84.5787992  65.7209519  70.6294877  85.6132345  64.1498213
  70.4719482  86.5553167  63.6246912  71.8529390  85.7653242  65.0800130
  72.2526809  84.7638752  65.2394044  72.5848175  86.3664931  64.5405227
  71.5556419  86.4166707  66.4323381  72.2992647  87.1959985  66.5989935
  70.5645675  86.8669101  66.3761410  71.5964239  85.4191191  67.5879811
  70.8988619  85.7440747  68.3599332  71.2975687  84.4381369  67.2185775
  72.9351088  85.3110269  68.1792988  73.4462253  84.4607264  67.9899617
  73.5113213  86.2458897  68.9471879  74.7189499  86.0337817  69.4499001
  75.2000604  85.1680554  69.2520347  75.1526826  86.7388233  70.0285986
  72.8897333  87.3877952  69.2251614  71.9663410  87.5599308  68.8539256
  73.3437748  88.0778940  69.8062884  70.9426203  84.5094629  63.1084927
  70.7270712  83.3703495  63.3849295  71.3705665  84.8955267  61.9065826
  71.5627708  85.8742364  61.7475724  71.4288609  83.9748938  60.7546161
  71.0965641  82.9731506  61.0269916  70.5193329  84.5061326  59.6037430
  71.0095267  84.3127281  58.6495915  69.1329492  83.8007748  59.6264486
  68.6419200  83.9941238  60.5801813  68.5151369  84.1865097  58.8155136
  69.2690212  82.7267680  59.4995846  70.3362249  85.9419619  59.7171743
  69.7749985  86.2504515  59.0020104  72.8694758  83.6502883  60.2562296
  73.3110813  84.1239610  59.1867397  73.5661093  82.7863442  61.0039537
  73.2756841  82.5525188  61.9426114  74.8086559  82.1901531  60.4894654
  75.6720407  82.8440840  60.6121035  75.1153523  80.8339865  61.1677996
  75.3026973  80.9924934  62.2298150  74.2634408  80.1651077  61.0455374
  76.3479482  80.2099321  60.5221311  76.1611806  80.0506899  59.4601233
  77.2004382  80.8780733  60.6444024  76.6836353  78.8708963  61.1630539
  75.9939229  78.4271010  62.0783583  77.7480376  78.2266519  60.6790909
  78.0144977  77.3338618  61.0689963  78.2819836  78.6349829  59.9252548
  74.5753533  82.0547438  58.9506950  73.4582455  81.6635116  58.5151294
  75.5147763  82.5522690  58.1274628  76.3905044  82.9129655  58.4783156
  75.2641165  82.6146298  56.6731180  74.2726373  83.0311361  56.4953802
  76.2911708  83.4874446  55.9691146  76.0277851  83.5627438  54.9140993
  76.2785844  84.4806478  56.4179898  77.5774946  82.9342314  56.0922543
  78.2122319  83.4970565  55.6428810  75.2887426  81.2468554  56.0544956
  75.2428252  81.1302243  54.8523380  75.5515684  80.2456210  56.8946707
  75.9582868  80.5001624  57.7834272  75.4501317  78.7973489  56.5522317
  75.7563611  78.6412955  55.5178381  76.3868478  77.9354855  57.4924292
  76.4961350  76.9232174  57.1032393  77.3479626  78.4475872  57.4464903
  75.9043093  77.8734835  58.9652722  74.9894968  77.0993852  59.2225869
  76.4853276  78.5287462  59.8635481  73.9789733  78.2305799  56.4969608
  73.7446515  76.9908515  56.5973232  73.0193286  79.1216295  56.2204706
  73.2443943  80.1039401  56.1533096  71.6534185  78.7187821  56.0121065
  71.0800912  79.5592216  55.6208823  71.6201120  77.8940969  55.3001483
  71.0335514  78.2650272  57.3241497  69.8881126  77.8223811  57.3432378
  71.7963834  78.3561270  58.4122781  72.7317137  78.7292269  58.3344777
  71.3292477  77.9384161  59.7204550  70.3715255  77.4183774  59.6997889
  72.3640634  77.0634836  60.3978224  73.3539242  77.4400447  60.1399894
  72.2019961  77.0647372  61.8872174  71.2124741  76.6878404  62.1458593
  72.9623918  76.4259506  62.3364955  72.3130415  78.0813338  62.2644435
  72.3200914  75.6545244  59.7894035  71.5441036  75.6914781  59.0248264
  73.2907942  75.5118548  59.3145551  72.0441908  74.4972583  60.7352528
  71.0733817  74.6389996  61.2101621  72.0409719  73.5622680  60.1750011
  72.8200716  74.4593778  61.4998926  71.0826644  79.1567128  60.5779109
  71.8710752  80.0987989  60.5977167  70.0074272  79.0878005  61.3765154
  69.3414439  78.3388508  61.2514553  69.7852166  80.0425866  62.4728396
  70.1815813  81.0192825  62.1952438  68.3225502  80.1845940  62.7636554
  67.8572007  79.2131297  62.5969033  68.2201348  80.4605912  63.8131489
  67.6505260  81.2112659  61.9111695  67.3781162  82.0123203  62.5983416
  68.2808930  81.6126385  61.1176712  66.4069714  80.6646250  61.3005200
  65.8245193  79.6903778  61.8179616  66.0405784  81.2001057  60.1283551
  65.2057787  80.8706093  59.6650592  66.6008359  81.9308423  59.7133408
  70.4006869  79.5951243  63.7540105  70.4225271  78.4604590  64.0338437
  70.8561874  80.5604501  64.5437544  71.1050348  81.4575020  64.1519991
  71.0911490  80.3372426  65.9721971  70.7457639  79.3358456  66.2291257
  72.5968869  80.4621992  66.3664829  72.6016679  81.0141351  67.3063994
  72.9318847  79.4402788  66.5441212  73.5407805  81.1426908  65.3703799
  72.9332920  81.6183305  64.6004284  74.1239081  81.9012590  65.8925280
  74.5114941  80.1554521  64.6920821  74.7995034  79.0838390  65.2468687
  75.0322208  80.5176783  63.4930951  75.6721306  79.8986959  63.0161489
  74.7776950  81.4047398  63.0826808  70.1983411  81.3479964  66.7371941
  70.1005420  82.5326006  66.3892555  69.4010025  80.7938690  67.6415325
  69.6112018  79.8488398  67.9293440  68.2476343  81.4585332  68.2388861
  68.0050968  82.3711870  67.6945170  67.0573030  80.5174204  68.1635199
  67.2815610  79.6024764  68.7118682  66.1841047  80.9992435  68.6033739
  66.8510408  80.2743907  67.1211708  68.4956783  81.8317882  69.7198195
  68.8041861  80.9343614  70.5213793  68.3711948  83.1382160  70.0330994
  68.3091651  83.8104132  69.2818321  68.4429229  83.6224642  71.3647003
  69.1747406  83.0335682  71.9176412  68.8518614  85.0750059  71.4192879
  69.4046072  85.2877445  70.5042395  67.9362230  85.6661350  71.4357990
  69.7151774  85.4368308  72.6331336  69.0936177  85.3722392  73.5262138
  70.5271890  84.7130615  72.7031132  70.3058705  86.8665165  72.5169675
  71.3761988  86.7572238  72.3421779  69.8423646  87.3345873  71.6485370
  70.0763897  87.7475886  73.7577888  70.3906323  88.7603948  73.5056464
  69.0078391  87.7422100  73.9728930  70.8294403  87.2774003  74.9618094
  71.8196339  87.2827194  74.7628417  70.6389958  87.8929582  75.7395750
  70.5380944  86.3390878  75.1958740  67.1084615  83.3553494  72.0795873
  66.0285207  83.7455170  71.6164179  67.1925800  82.6202947  73.1851169
  68.0505233  82.5691181  73.7156012  66.0633732  81.7673395  73.5983825
  65.0900058  82.1762877  73.3274279  66.1968940  80.3532535  72.9772747
  66.9425133  80.3999373  72.1835672  66.6149693  79.3145923  74.0037985
  65.8695511  79.2670022  74.7976423  66.6956556  78.3397214  73.5229484
  67.5801314  79.5906731  74.4284669  64.9015786  79.9531760  72.2893466
  64.6735947  80.6681019  71.4987732  65.0108925  78.9580701  71.8581686
  64.0901977  79.9460996  73.0171596  65.9657997  81.7406791  75.1198768
  66.9506232  81.4387865  75.7983349  64.7996672  82.1344949  75.6474079
  64.0887443  82.5431904  75.0577843  64.5716636  82.1068464  77.0870728
  65.5052129  81.9026070  77.6113545  64.0403476  83.4512205  77.5487184
  64.8374670  84.1706053  77.3611405  63.1898684  83.6760491  76.9051058
  63.6150891  83.5383920  78.9905892  63.5126081  82.5385641  79.4124217
  64.3741825  84.0900842  79.5451295  62.2726582  84.2716094  79.1337866
  61.9474116  85.1783810  78.3581592  61.4852623  83.8638687  80.1175041
  60.5897826  84.3084890  80.2607884  61.7838821  83.1101736  80.7198920
  63.6600641  80.9248028  77.4677054  62.5151510  80.8233650  77.0149613
  64.1890742  80.0275906  78.3016944  65.1244205  80.1549375  78.6608734
  63.4464443  78.8569875  78.7201740  63.1182034  78.2809667  77.8549821
  64.2323323  77.9674743  79.6459370  64.2931974  78.4338688  80.6292335
  63.5403758  76.6056814  79.7688330  63.4795525  76.1384384  78.7859367
  64.1132225  75.9657250  80.4399539  62.5354754  76.7428832  80.1681450
  65.6568328  77.8437601  79.1389507  66.1402038  78.8113302  79.2740857
  66.1615184  77.0972564  79.7522403  65.7377070  77.4401410  77.6884612
  65.2336029  78.1864550  77.0744627  66.7831489  77.3693852  77.3882211
  65.2549151  76.4723816  77.5526169  62.1803833  79.2383868  79.4627008
  62.2204585  80.0632553  80.3941506  61.0658928  78.6309246  79.0814467
  61.0604908  78.0543256  78.2522279  59.8227409  78.7843392  79.8235851
  59.7999090  79.7629001  80.3031645  58.6208547  78.6697835  78.8930168
  58.6895048  77.6715990  78.4605654  57.7039594  78.7499283  79.4769515
  58.6036515  79.7168659  77.7654403  59.5326535  79.6584254  77.1983063
  57.4332055  79.4422429  76.8455945  56.5037520  79.5009683  77.4119568
  57.4178592  80.1822308  76.0454176  57.5340148  78.4455021  76.4161231
  58.5301036  81.1570811  78.2858132  59.3971858  81.3617772  78.9137999
  58.5211089  81.8484085  77.4431468  57.6196511  81.2864701  78.8709916
  59.7394004  77.7176559  80.8876181  59.7866406  76.5518735  80.5908712
  59.5214120  78.1436603  82.1664173  58.9818658  79.4826175  82.4746193
  58.0476983  79.6303110  81.9327541  59.7018760  80.2422324  82.1702026
  58.7863332  79.4439723  83.9554024  57.7186963  79.5208011  84.1611882
  59.3022872  80.2996198  84.3910172  59.3584450  78.1433631  84.4797818
  58.6563707  77.8058905  85.2422141  60.3659360  78.1584864  84.8955134
  59.3067402  77.2187892  83.2904704  60.0541023  76.4259487  83.2596114
  57.9202185  76.6106611  83.1816453  56.9903330  77.3139219  82.7705343
  57.7511370  75.3276955  83.5369827  58.5411292  74.7097970  83.6562014
  56.4003680  74.7707049  83.6973430  55.7536567  75.1763231  82.9193085
  56.3935187  73.2356682  83.5916002  56.6161623  72.9920872  82.5527560
  57.1996696  72.8739536  84.2298661  55.0737159  72.5639538  84.0034770
  55.2884284  71.5707857  84.3979595  54.6817561  73.1944126  84.8015925
  54.0355784  72.4544196  82.8837258  54.3695139  71.9467173  81.7906515
  52.8614107  72.8307096  83.1190066  55.8617924  75.2401274  85.0429309
  56.4007942  74.9173515  86.1195245  54.7677149  76.0109867  84.9435512
  54.3306979  76.1612321  84.0454745  54.2766190  76.7580856  86.0773550
  55.1044200  76.9687509  86.7544554  53.6415924  78.0942756  85.6451532
  53.5392460  78.7428447  86.5152007  54.2827579  78.5759968  84.9069450
  52.0055102  77.9981527  84.8987482  51.8668051  79.3057256  84.6989672
  53.3344060  75.8551509  86.9063614  52.2794982  75.3843269  86.4467688
  53.8097003  75.5439028  88.1152179  54.6572363  75.9874730  88.4392973
  53.1751255  74.5544813  88.9762202  52.3375807  74.0507174  88.4936854
  54.1407484  73.4902271  89.5204311  53.8032009  73.1732782  90.5071957
  54.1796994  72.2892089  88.5884348  54.5176232  72.6053104  87.6015264
  54.8674963  71.5426548  88.9855403  53.1819347  71.8575854  88.5092609
  55.5208413  74.0797897  89.7872784  55.4384379  74.8809850  90.5217154
  56.1807294  73.3019211  90.1714238  55.9316498  74.4786564  88.8597857
  52.4933893  75.1938102  90.1704878  53.0747186  75.9935111  90.9282236
  51.2434349  74.7286866  90.3367502  50.9622500  73.9822283  89.7172065
  50.2932820  75.1690087  91.3798033  50.6479918  76.0983249  91.8255068
  48.8870328  75.4109906  90.7868616  48.5999049  74.3852688  90.5554497
  48.3045172  75.7679918  91.6361707  48.6157023  76.3057804  89.5678670
  48.5513048  75.6905721  88.6703858  47.3054882  77.0449960  89.7691859
  47.3692859  77.6608183  90.6662877  47.1100969  77.6808965  88.9057314
  46.4948016  76.3249016  89.8803241  49.7231996  77.3074798  89.2814946
  50.6548028  76.7750165  89.0899277  49.4587811  77.9021510  88.4071090
  49.8510686  77.9643742  90.1418656  50.1236882  74.0570530  92.4217508
  50.1209258  72.8717451  92.0554949  49.9617357  74.4382747  93.6993338
  49.7120382  75.8168943  94.1331368  48.8409487  76.2063705  93.6062482
  50.5821852  76.4298964  93.8982501  49.4833933  75.6911011  95.6083712
  48.4649282  76.0180958  95.8178997  50.1877869  76.3516876  96.1138972
  49.6954175  74.2720495  96.0187359  48.8618137  74.0180402  96.6734747
  50.6350562  74.0581534  96.5280759  49.6068718  73.4636656  94.7301490
  50.3059858  72.6279715  94.6992748  48.1943315  72.9528140  94.4755387
  47.6438343  73.2140857  93.4031992  47.6037221  72.2200189  95.4197511
  48.1090974  71.9068061  96.2362024  46.2022445  71.8200469  95.2748511
  46.0481900  71.3977425  94.2818629  45.8085407  70.7694079  96.3207956
  46.1947416  69.8003717  96.0046992  46.2552100  71.0437927  97.2764626
  44.4004683  70.6930658  96.4623867  44.1805763  70.0301360  97.1210000
  45.3154560  73.0584808  95.4175029  45.7451816  74.0710803  95.9750575
  44.0781531  72.9679119  94.9582777  43.7944107  72.1703113  94.4074393
  43.1290007  74.0417232  95.1491492  43.5406475  74.9792100  94.7752983
  41.8581228  73.7145899  94.3573897  40.9956435  73.8325940  95.0133659
  41.7129849  74.6407275  93.1568814  42.5749308  74.5229379  92.5001664
  40.8037963  74.3889390  92.6109164  41.6562187  75.6740097  93.4992349
  41.9369222  72.3570001  93.8781930  41.1430014  72.1464973  93.3812235
  42.8309554  74.2963647  96.6393169  42.4071873  75.4007951  97.0219276
  43.0915703  73.2947124  97.4785240  43.5362349  72.4542036  97.1380571
  42.6939609  73.3466158  98.8766033  41.8936755  74.0740997  99.0122855
  42.1894821  71.9787603  99.3218319  42.9534434  71.2454465  99.0635427
  42.0668096  72.0089145 100.4044871  40.8712643  71.5866436  98.6734778
  41.0645146  71.3627375  97.6243728  40.5023092  70.6911745  99.1735870
  39.6195551  72.8871029  98.7829668  38.5865272  72.4943469  97.3678374
  38.1794099  71.4897187  97.4821908  37.7687232  73.2121319  97.3039487
  39.1834520  72.5424259  96.4570847  43.8109820  73.8077942  99.8152062
  43.5533837  74.3038545 100.8877114  45.0499211  73.6053447  99.4199594
  45.1939002  73.0722417  98.5742819  46.2177887  74.0422784 100.1661258
  46.3276819  73.4599362 101.0809482  47.4607536  73.8370789  99.3052469
  47.4497796  74.5582789  98.4880263  48.3477197  73.9969129  99.9183082
  47.4839641  72.5220205  98.7745336  48.2705051  72.4081205  98.2360359
  46.1924580  75.4853410 100.6670826  47.0670724  75.8739757 101.4241465
  45.2106763  76.2745671 100.2413177  44.4974667  75.8923453  99.6368860
  45.1269080  77.7003392 100.6063589  46.0948833  78.0863725 100.9258918
  44.6476774  78.5172153  99.3958501  43.6751463  78.1483289  99.0699574
  44.5621590  79.5670698  99.6761934  45.3653783  78.4163888  98.5817011
  44.1417780  77.8763578 101.7803825  44.2869743  78.7191085 102.6458339
  43.1220063  77.0575182 101.7409704  43.1880715  76.2555401 101.1305887
  41.9160361  77.2367379 102.5027460  41.7956272  78.1200975 103.1298638
  40.7730600  77.2069536 101.4692145  41.1988531  77.4361297 100.4923431
  40.0645797  75.8482336 101.4115903  39.6381022  75.6185661 102.3880486
  39.2688885  75.8840557 100.6674850  40.7824255  75.0748855 101.1382191
  39.8441343  78.3756815 101.6648525  40.3998602  79.3059078 101.5467431
  39.0454891  78.3336318 100.9242465  39.4136296  78.3347772 102.6653991
  41.7763619  76.0977830 103.5468963  40.8362279  76.1098607 104.3624931
  42.7349154  75.1680505 103.5275091  43.5656247  75.3272918 102.9755457
  42.6185194  73.9008632 104.2608482  41.6493518  73.4390201 104.0723962
  43.7206749  72.9407763 103.7860984  43.6439094  72.8960238 102.6997267
  44.6697825  73.3989948 104.0641823  43.6511866  71.5332181 104.3572039
  44.6447018  71.0848642 104.3598768  43.2888972  71.6185639 105.3816865
  42.7106101  70.6246899 103.5837176  42.8533756  70.4477001 102.3774872
  41.7656424  70.0190817 104.2865283  41.1123846  69.4034784 103.8235077
  41.7025443  70.1755865 105.2823326  42.7373180  74.1097234 105.7587795
  43.7171497  74.6480594 106.2501635  41.7376197  73.6378808 106.4761614
  40.9031676  73.3120187 106.0096821  41.7952276  73.5507668 107.9244841
  41.8517290  74.5478594 108.3611912  40.5218511  72.8533332 108.4500979
  40.5988985  71.8858624 107.9539495  40.5631603  72.7115561 109.5300483
  39.1935759  73.5156745 108.0729895  39.1170508  73.4905723 106.9859685
  37.9608504  72.8338918 108.6890773  38.0364395  72.8590158 109.7761623
  37.0592971  73.3603566 108.3758086  37.9116577  71.7982791 108.3526448
  39.2416073  75.0141145 108.3897173  40.0466713  75.4804225 107.8218016
  38.2917481  75.4742051 108.1173472  39.4206189  75.1551453 109.4556273
  43.0030243  72.7337725 108.3284512  43.2419052  71.6981055 107.7330794
  43.7691156  73.2185834 109.3073504  43.5521400  74.1082629 109.7333682
  45.0052489  72.5427926 109.7034052  45.5770391  72.2884519 108.8109558
  45.8707932  73.4297807 110.6028090  45.2015409  73.9456977 111.2913075
  46.5341587  72.7729123 111.1654547  46.7040074  74.4590598 109.8339139
  45.9808170  75.0951786 109.3235717  47.2791250  75.0578308 110.5401803
  47.6507540  73.8353994 108.8044432  48.7307537  73.3397284 109.1993922
  47.3363312  73.8824374 107.5911824  44.7428914  71.1928344 110.3533824
  45.5203274  70.2578010 110.1673237  43.6462916  71.0855289 111.0995883
  43.0585763  71.8903917 111.2635577  43.3085220  69.8259195 111.7784638
  44.1551521  69.5025521 112.3840628  42.0881982  69.9957874 112.6927567
  42.0432552  69.1402588 113.3666634  42.2197170  70.9086878 113.2736317
  40.8813845  70.0771998 111.9512287  40.1418428  70.1827154 112.5541751
  43.0718446  68.6640100 110.7959057  43.3144039  67.5025892 111.1410096
  42.6102532  68.9868711 109.5827631  42.4358763  69.9594155 109.3733607
  42.2693586  67.9896967 108.5729076  42.0404915  67.0350323 109.0465476
  41.0410876  68.4539808 107.7915449  41.3915200  69.3253723 107.2383963
  40.7390234  67.6763194 107.0900465  39.8398599  68.8507524 108.6644724
  40.1000800  69.7486155 109.2250329  38.6027440  69.1225299 107.8159682
  38.3416198  68.2249171 107.2554290  37.7712511  69.4005753 108.4635878
  38.8096135  69.9366842 107.1213762  39.5472292  67.7796737 109.7063624
  40.4183086  67.6490112 110.3484275  38.6930808  68.0841488 110.3111985
  39.3205153  66.8380168 109.2063805  43.4425043  67.6906249 107.6269037
  43.3590785  66.7746721 106.8079589  44.5402128  68.4219578 107.7864093
  44.5467916  69.2219968 108.4028456  45.7719215  68.0857210 107.0739202
  45.6493586  68.3033843 106.0129300  46.9610189  68.9005904 107.6084455
  46.8494013  69.0986573 108.6744710  47.8433352  68.2818470 107.4448161
  47.1544410  70.2197831 106.8885013  47.4526713  71.2394082 107.5150531
  47.0516001  70.1971224 105.5629854  47.1720396  71.0499938 105.0355346
  46.8535193  69.3271418 105.0897005  46.1266130  66.6048386 107.2264556
  46.5063217  65.9394152 106.2560103  45.9795224  66.0970368 108.4479099
  45.6942090  66.7184096 109.1912748  46.3542369  64.7268947 108.7951184
  47.3881397  64.5358953 108.5076058  46.2205487  64.5204752 110.3062503
  45.2102216  64.8043131 110.6008250  46.3776074  63.4634316 110.5209394
  47.2350231  65.3568812 111.0918811  48.1983651  64.8516766 111.0223002
  47.3003164  66.3309426 110.6070686  46.8645086  65.5434705 112.5579426
  46.5044455  64.5855458 112.9332210  47.7697751  65.8264645 113.0950705
  45.7956477  66.6055570 112.7710943  46.1450307  67.2934573 113.5410458
  45.6596592  67.1473557 111.8351133  44.4964449  66.0074064 113.1919709
  44.6221427  65.5056785 114.0594782  43.8148071  66.7410833 113.3230747
  44.1723123  65.3702729 112.4784598  45.6023354  63.6692774 107.9815050
  46.0123892  62.5136432 107.9529284  44.5421696  64.0665041 107.2831482
  44.2662897  65.0380618 107.2750704  43.7180340  63.1088378 106.5593403
  43.9791075  62.0921370 106.8530397  42.2466932  63.3457500 106.8796151
  41.8715465  64.2267795 106.3588933  41.6441883  62.4792544 106.6070842
  41.9417358  63.6354496 108.6400514  40.6255052  63.7909755 108.5293861
  43.9341198  63.1746673 105.0508700  43.3158211  62.4175029 104.2992919
  44.7821472  64.1008721 104.6314678  45.3520029  64.6080417 105.2933914
  44.8597048  64.4770027 103.2145248  43.8529080  64.5328002 102.8005852
  45.5453231  65.8480347 103.0308385  45.9753540  66.1171642 103.9955882
  46.3451464  65.7056253 102.3041320  44.6180146  66.9692404 102.5553118
  43.6349439  66.8784721 103.0173011  45.0861630  67.8991310 102.8781781
  44.4415593  67.0123204 101.0307179  44.0650926  66.0143049 100.4092745
  44.6523715  68.1889315 100.4338432  44.5490478  68.2693881  99.4323681
  44.9140909  68.9925442 100.9868450  45.5743562  63.4157939 102.3864919
  45.3015366  63.2825045 101.1911818  46.4587722  62.6439513 103.0240297
  46.7965479  62.8968652 103.9416579  47.0083886  61.4490417 102.3889181
  47.0370909  61.5877222 101.3081576  48.4247542  61.0799221 102.9000084
  48.3391559  60.5392180 103.8425647  49.1328538  60.1988458 101.8697198
  49.2192427  60.7390825 100.9269676  50.1278452  59.9419181 102.2331493
  48.5568385  59.2867200 101.7137321  49.2437949  62.3474541 103.1928136
  49.0504718  63.0452200 102.3780439  48.8618921  62.7634971 104.1251001
  50.7391396  62.1168507 103.3170363  51.1218688  61.7012199 102.3849047
  51.2374411  63.0640263 103.5235628  50.9332889  61.4194947 104.1319600
  46.0479629  60.2716124 102.6135901  45.5723339  60.0317979 103.7280102
  45.7663932  59.5561794 101.5273911  46.0933876  59.8798964 100.6282908
  45.0022752  58.3052670 101.5802566  44.5474820  58.1880374 102.5638824
  43.8984327  58.3207178 100.5328561  44.2681328  58.0121758  99.5549896
  43.1020816  57.6468549 100.8488210  43.2782487  59.6534958 100.3502401
  42.7452382  60.3316208 101.4422017  42.7805923  59.8625190 102.4254583
  42.1794555  61.5766073 101.2940988  41.7576953  62.0993666 102.1525520
  42.1486030  62.1636433 100.0450729  41.7025562  63.1501652  99.9189116
  42.6849184  61.4989353  98.9501011  42.6567686  61.9643940  97.9648824
  43.2516905  60.2536860  99.1074209  43.6815925  59.7381201  98.2486567
  45.8901245  57.0808960 101.3041165  46.9477084  57.2025031 100.6625395
  45.4343406  55.8819689 101.7325518  44.8639329  55.6561156 103.0729078
  43.8154604  55.9541178 103.0723401  45.4107305  56.2542621 103.8018332
  45.0458671  54.1678062 103.2936836  44.1601077  53.7661183 103.7857976
  45.9185711  54.0016927 103.9252653  45.2417924  53.5612201 101.9438601
  44.2651026  53.3899091 101.4912804  45.8166655  52.6352856 101.9275541
  45.9847630  54.6479591 101.1765257  47.0564374  54.6185200 101.3733647
  45.7426466  54.5816702  99.6704001  44.6623025  54.9181528  99.1920727
  46.7535380  54.1483311  98.9298052  47.5962013  53.8126979  99.3740668
  46.7263655  54.2346356  97.4681024  46.3728545  55.2204869  97.1660656
  48.1184465  54.0167334  96.8857465  48.8455901  53.9953954  97.6974768
  48.1385156  53.0645846  96.3555485  48.4429020  55.0612454  95.9902750
  49.3205446  54.9132268  95.6305059  45.7101823  53.2586389  96.8251443
  45.3356584  52.2252797  97.4097175  45.2692936  53.6389256  95.6328989
  45.7129903  54.4324008  95.1928653  44.1414447  53.0106006  94.9512995
  43.2990283  52.9185367  95.6368343  43.7006847  53.8657405  93.7376438
  42.6242429  53.7251966  93.6395630  43.9085766  54.9024088  94.0025962
  44.3813498  53.5330986  92.4082615  45.4534653  53.4440212  92.5835742
  43.9916380  52.5797668  92.0513507  44.1270433  54.6057547  91.3649107
  44.3097607  54.1914078  90.3734320  43.0903333  54.9349977  91.4351307
  45.0499392  55.7883862  91.5966260  44.9042971  56.1423446  92.6172153
  46.0787141  55.4499868  91.4733087  44.7769834  56.8908625  90.6491082
  43.8238762  57.2048656  90.7635126  45.4084003  57.6572969  90.8334746
  44.9122968  56.5632036  89.7033657  44.4652058  51.5860664  94.4931564
  45.4829100  51.3525547  93.8594054  43.5534063  50.6339277  94.7595013
  42.5118127  50.6804736  95.8053738  42.1205961  51.6946518  95.8859491
  42.9408181  50.3800748  96.7613099  41.4871181  49.7059716  95.3072374
  40.7812615  50.2198321  94.6546940  40.9515832  49.2748505  96.1530733
  42.2489042  48.6557313  94.5672217  41.6399852  48.3060889  93.7335150
  42.5186191  47.8097243  95.1993811  43.5271244  49.3436839  94.0325719
  44.4437243  48.8067829  94.2768671  43.4249012  49.5140571  92.5097150
  42.8110442  50.4769428  92.0560259  44.0232968  48.5976062  91.7514516
  44.4678714  47.7989162  92.1810410  44.2033337  48.8025102  90.3003988
  44.2885754  49.8591985  90.0469370  45.4535567  48.0548939  89.7459419
  45.6161713  48.3560769  88.7110774  46.6900256  48.3921671  90.5736903
  46.5283314  48.0908323  91.6086557  47.5529034  47.8611253  90.1717738
  46.8734618  49.4658452  90.5328478  45.2397267  46.5461236  89.6914833
  44.3937006  46.3217525  89.0418683  46.1359252  46.0655522  89.2990816
  45.0364791  46.1710037  90.6945168  42.9316354  48.4789214  89.4883227
  42.4739259  47.3283881  89.3961542  36.0520243  50.6349195  92.6838549
  35.1939563  51.1668458  92.7134037  36.9980376  50.8998810  91.5926775
  38.0148594  50.9131521  91.9851012  36.9032340  49.8092769  90.5063295
  37.5165495  50.1171844  89.6594904  37.2961003  48.8805769  90.9201802
  35.5672487  49.6059289  90.0732512  35.5498167  48.9222296  89.3995664
  36.7197137  52.2842123  90.9913027  37.5217452  52.8093365  90.1920680
  35.5442293  52.8209428  91.3369742  34.8517754  52.2116475  91.7485154
  35.1532164  54.1908548  91.0053961  36.0454431  54.8116776  90.9240957
  34.3859948  54.2492098  89.6623698  34.8285160  54.9726659  88.9776176
  34.5798591  53.2400259  89.2989631  32.9005273  54.4769732  89.7409780
  32.3913937  55.7312733  90.0420913  33.0854889  56.5459020  90.2487589
  31.0339246  55.9566470  90.0824802  30.6451213  56.9322450  90.3742719
  30.1659841  54.9420944  89.7466956  28.8212357  55.1705340  89.7907973
  28.6012843  56.0634888  90.0662112  30.6424843  53.7028327  89.3731330
  29.9557643  52.9031537  89.0955909  32.0058650  53.4805538  89.3530290
  32.3959758  52.5151787  89.0305936  34.4088621  54.8004752  92.1984860
  34.2724007  56.0281245  92.2590952  34.0310354  53.9758427  93.1922099
  33.9358220  52.9880453  93.0043534  33.6915511  54.4650402  94.5342416
  32.9186088  55.2291856  94.4521355  33.1719743  53.3368680  95.4352530
  32.4721093  53.7996916  96.1310135  32.6338483  52.6488166  94.7832518
  34.2352100  52.5692763  96.2183052  34.8030709  51.9575274  95.5173073
  34.9008002  53.2910217  96.6917767  33.6130443  51.6731524  97.2875371
  34.3556146  50.9286721  97.5746563  33.3723126  52.2963854  98.1487735
  32.3500212  50.9695711  96.8004663  31.5631084  51.7166791  96.6970331
  32.5610832  50.5277255  95.8266468  31.9035901  49.9064447  97.7408320
  31.7075504  50.3157278  98.6431376  31.0677426  49.4681508  97.3811689
  32.6324518  49.2138336  97.8364854  34.9217306  55.1274165  95.1544005
  34.8071121  56.0996418  95.9210207  36.0949782  54.5983360  94.7898749
  36.1100020  53.7471230  94.2464505  37.3649856  55.1745146  95.2044281
  37.4220915  55.1723626  96.2929286  38.5399454  54.3894501  94.6562228
  38.3667072  53.3832456  95.0378513  38.7143546  54.3447204  93.5811969
  39.7984077  54.8633692  95.2693829  40.2493435  54.5737418  96.5266048
  39.6598265  53.8646000  97.1077135  41.4039582  55.2759553  96.7928753
  41.9562825  55.2043258  97.6354349  41.6880876  56.0824422  95.7203761
  42.7451431  56.9686891  95.5184748  43.4917198  57.0765908  96.3052906
  42.7776584  57.6535353  94.3324860  43.5880242  58.3574552  94.1430024
  41.7895437  57.4715039  93.3498146  41.8243983  58.0233353  92.4104708
  40.7415331  56.5852202  93.5455362  40.0244887  56.4460563  92.7364742
  40.6809678  55.8709188  94.7514894  37.4852452  56.6300035  94.7817843
  38.0431111  57.4349347  95.5164744  36.9552691  56.9723795  93.6131018
  36.6019186  56.2611419  92.9890953  36.9789216  58.3527688  93.1449813
  37.9087982  58.8269726  93.4589231  36.8862439  58.4204447  91.6146997
  36.1218946  57.6874432  91.3566721  36.6312533  59.3823917  91.1700227
  38.1370553  57.9731684  90.9664314  38.4345403  56.7132138  90.5685304
  37.6446432  55.9682664  90.6645288  39.7233643  56.6534163  90.1124319
  40.1770255  55.8336558  89.7352265  40.2938145  57.8901136  90.2373773
  41.5687468  58.3244577  89.9075248  42.2673431  57.6051769  89.4800942
  41.8707405  59.6380005  90.1413779  42.8615228  60.0163665  89.8898040
  40.9325720  60.5123475  90.6990429  41.1822191  61.5560275  90.8901133
  39.6606712  60.0791225  91.0245874  38.9654486  60.7971246  91.4596039
  39.3239813  58.7448485  90.7818246  35.9193720  59.2028456  93.7940771
  36.1081740  60.4025457  93.9616469  34.8069476  58.5882686  94.1787042
  34.5903730  57.6491752  93.8765481  33.8188599  59.3028764  94.9668587
  33.6704116  60.2933593  94.5367356  32.4720157  58.5759722  94.9973998
  32.6748562  57.5051161  94.9824939  31.9767785  58.8384526  95.9322497
  31.5629883  58.9398066  93.8184817  30.7127752  59.5084334  94.1951806
  32.1367121  59.5590009  93.1288865  31.0396465  57.7251215  93.0620015
  29.8518723  57.6231096  92.7662784  31.9316147  56.8038820  92.7395974
  31.6404803  55.9773027  92.2374929  32.8999786  56.9310080  92.9969136
  34.3687430  59.5389951  96.3599465  34.1718459  60.6200703  96.9307327
  35.0758889  58.5340960  96.8769605  35.0701359  57.6369679  96.4130344
  35.7982464  58.6557043  98.1383633  35.0812464  58.9515951  98.9041693
  36.4265162  57.3161443  98.5461318  35.6473065  56.5581615  98.6260916
  37.1535108  57.0111261  97.7934414  37.1245242  57.4711825  99.8931181
  37.9042300  58.2287253  99.8138171  36.3980266  57.7757581 100.6464687
  37.7488097  56.1401225 100.2982992  36.9696012  55.3821385 100.3782576
  38.4758052  55.8351063  99.5456093  38.4468159  56.2951612 101.6452870
  39.2265212  57.0527045 101.5659873  37.7203172  56.5997336 102.3986359
  39.0485876  55.0121072 102.0358535  39.7221222  54.7299167 101.3381290
  39.5108728  55.1147875 102.9279573  38.3262069  54.3101128 102.1098065
  36.8762844  59.7642998  98.0642345  36.8495332  60.7256747  98.8404257
  37.7923143  59.6157920  97.1063991  37.7943615  58.7440812  96.5962860
  38.8097855  60.6245251  96.7684823  39.6225828  60.6014065  97.4943785
  39.3939586  60.3162289  95.3566284  39.7031384  59.2709986  95.3558173
  38.5692406  60.4511744  94.6568213  40.5720920  61.1968315  94.9322810
  41.7977356  61.1227378  95.5935539  41.9162065  60.3959615  96.3972083
  42.8524204  61.9495632  95.2471069  43.7982126  61.8904113  95.7856977
  42.7064062  62.8396578  94.2118805  43.7574449  63.6651831  93.8908503
  44.5255454  63.5294303  94.4504864  41.5147012  62.9071381  93.5152036
  41.4037649  63.6103669  92.6898172  40.4628096  62.0816561  93.8660545
  39.5299309  62.1186173  93.3034967  38.2459450  62.0456001  96.7775197
  38.7604666  62.9293739  97.4738677  37.1883963  62.2554670  95.9970503
  36.8317893  61.5079792  95.4189562  36.5548332  63.5719450  95.8985135
  37.2998442  64.3009002  95.5796371  35.4053032  63.5822964  94.8998125
  35.8190816  63.3567005  93.9169631  34.7085463  62.7956783  95.1894016
  34.6706470  64.9176227  94.8473833  34.2145680  65.1786303  95.8023534
  35.4279078  65.6589680  94.5923043  33.6089587  64.9336828  93.7891825
  33.7502458  65.5940870  92.7764573  32.5721634  64.1339660  93.9797672
  31.8280030  64.1056339  93.2974739  32.5297147  63.5555570  94.8066544
  36.0409051  64.0757725  97.2411347  36.1789443  65.2627774  97.5435525
  35.4370198  63.1822202  98.0309454  35.2892420  62.2391540  97.7009646
  34.8374032  63.5728186  99.3103159  34.2698304  64.4751143  99.0826697
  33.8750970  62.5140390  99.8558145  33.1192706  62.2873717  99.1038520
  34.4302386  61.6075326 100.0969867  33.1965143  63.0441415 101.1144412
  33.9517262  63.2706137 101.8670806  32.6407559  63.9504512 100.8739469
  32.2381145  61.9896585 101.6577278  31.4822887  61.7629890 100.9057655
  32.7932573  61.0831535 101.8989012  31.5595304  62.5197629 102.9163536
  32.3147416  62.7462363 103.6689932  31.0037710  63.4260697 102.6758572
  30.6356978  61.5033094 103.4400469  31.1505453  60.6635702 103.6633628
  30.1862737  61.8543946 104.2736278  29.9355687  61.2936225 102.7429459
  35.8916030  63.9681055 100.3340704  35.6559940  64.8830322 101.1197474
  37.0467621  63.2962354 100.3131913  37.1856295  62.5689493  99.6262632
  38.0976054  63.5158236 101.3181920  37.5903092  63.8344889 102.2287974
  38.8591875  62.2097962 101.6105120  38.1539158  61.4392030 101.9217627
  39.3798201  61.8829309 100.7104004  39.8725883  62.4507280 102.7243320
  40.5785237  63.2209276 102.4136091  39.3526206  62.7771972 103.6249726
  40.6268233  61.1573042 103.0138305  39.9215523  60.3867097 103.3250795
  41.1474568  60.8304409 102.1137190  41.6214146  61.3532884 104.0921530
  41.7040292  62.2686031 104.5110482  42.4113841  60.3791542 104.5347716
  42.3612837  59.1483676 104.0332192  41.7078946  58.9340127 103.2934661
  42.9768550  58.4337208 104.3943999  43.2702634  60.6658051 105.5089680
  43.3057591  61.6014621 105.8876315  43.8830537  59.9465145 105.8656300
  39.0802735  64.6195212 100.9268290  39.5018824  65.3946787 101.7758719
  39.4452548  64.6897477  99.6466169  39.0901655  64.0186122  98.9805928
  40.3858565  65.7052684  99.1734965  41.2573017  65.7306346  99.8277434
  40.8527011  65.3931927  97.7481986  41.1393241  64.3418406  97.7235968
  40.0018686  65.5528862  97.0858678  42.0287164  66.2527822  97.2830105
  41.6366346  67.2179172  96.9622504  42.6988432  66.3969292  98.1305090
  42.7963511  65.6075853  96.1316500  43.0748052  64.5970913  96.4307555
  42.1366052  65.5606932  95.2652575  44.0491800  66.3934174  95.7728550
  43.7753272  67.4429437  95.6651533  44.7647379  66.2869889  96.5881764
  44.6651861  65.9083695  94.5050896  44.0024461  66.0073024  93.7493862
  45.4910665  66.4531828  94.3021118  44.9194073  64.9359889  94.6048220
  39.8011033  67.1190253  99.1807727  40.4581062  68.0757727  99.5894127
  38.5716416  67.2430912  98.7194478  38.0558881  66.4261424  98.4250122
  37.9360401  68.5479983  98.5830433  38.6848014  69.3377744  98.6439481
  37.2486784  68.6425057  97.2589484  36.5155715  67.8439752  97.1449195
  36.7513442  69.6078239  97.1645053  38.1705205  68.5319119  96.1216841
  39.2366992  69.3777851  96.0269076  39.4133102  70.1187551  96.8065690
  40.0778581  69.2976287  94.9626418  40.9227014  69.9813421  94.8797177
  39.8603906  68.3475452  93.9852549  40.5445675  68.2858233  93.1389734
  38.7968770  67.4867830  94.0710751  38.6076541  66.7465563  93.2936696
  37.9718463  67.5672841  95.1479409  37.1424581  66.8678079  95.2525745
  36.9428429  68.8078530  99.6793853  35.9690293  69.5465744  99.4824212
  37.2027779  68.2479782 100.8531685  38.0241850  67.6744182 100.9813038
  36.2964668  68.4118039 101.9743346  35.3230704  67.9873291 101.7285300
  36.8415271  67.6990870 103.2064603  36.8308340  66.6293818 102.9973770
  37.8543773  68.0081821 103.4647138  36.0079192  67.9038874 104.4279674
  36.1321364  69.0162368 105.2342458  36.7986065  69.7606391 105.0866566
  35.2503188  68.9473278 106.2139990  35.1933093  69.7345909 106.9657075
  34.5521075  67.8341114 106.0692915  34.9957662  67.1710520 104.9497026
  34.5271563  66.2336928 104.6499298  36.0638703  69.8723391 102.3109912
  34.9196629  70.3223528 102.4832069  37.1547269  70.6203673 102.3746046
  38.0584714  70.2106007 102.1863586  37.1032367  72.0203992 102.8164934
  36.4143883  72.1227955 103.6550052  38.4931994  72.4779527 103.2665405
  39.2507681  72.2071391 102.5311162  38.5156983  73.5552790 103.4307417
  39.0129695  71.7239629 104.8211348  40.1957745  72.3292209 104.8805772
  36.5357117  72.9930244 101.7806939  36.6899796  74.2126357 101.9286693
  35.9049486  72.4694695 100.7305053  35.9507296  71.4743605 100.5638875
  35.1532723  73.2914323  99.7950210  35.8089729  73.9917643  99.2776323
  34.4702341  72.4101006  98.7604229  33.8032698  71.7094070  99.2627048
  33.8938565  73.0324243  98.0758776  35.2234162  71.8560121  98.2002427
  34.1136336  74.0940046 100.5379457  33.7750688  75.2147900 100.1435095
  33.6188730  73.5214695 101.6392910  33.8785497  72.5766816 101.8843285
  32.5711695  74.1652466 102.4030739  31.7781154  74.4705947 101.7204855
  31.9652817  73.2392106 103.4810977  31.4033187  73.7749519 104.2461324
  31.2860634  72.6100668 102.9058233  32.9953027  72.3443565 104.1687189
  33.8322780  72.8059172 104.9430774  32.8438439  71.0445744 103.9900557
  33.4925852  70.4000219 104.4187590  32.0799761  70.7011508 103.4255496
  32.9898246  75.5046778 102.9780793  32.1293382  76.3057554 103.3476004
  34.3070082  75.7447555 103.0054108  34.9249834  75.0108902 102.6897407
  34.9012319  77.0004043 103.4728188  34.2971960  77.4159052 104.2794160
  36.2977613  76.7665606 103.9883764  36.8389471  76.4497024 103.0968507
  36.6537746  77.7488510 104.2989567  36.5333799  75.7703212 105.1013350
  37.1493865  74.9416689 104.7520899  37.2571615  76.5044840 106.2097119
  36.6415313  77.3330537 106.5598126  37.4475767  75.8195462 107.0359703
  38.2042984  76.8902607 105.8326068  35.2574951  75.1581379 105.6340971
  34.7410051  74.6353141 104.8291171  35.4969920  74.4527722 106.4298368
  34.6134636  75.9444102 106.0279222  34.9625739  78.0145045 102.3422720
  35.2042716  79.2056684 102.5610978  34.7494487  77.5232460 101.1238379
  34.4653782  76.5588040 101.0276355  34.8384204  78.3348064  99.9287835
  35.2733808  79.3058512 100.1653856  35.6750742  77.6791897  98.8153940
  36.2882898  78.4515193  98.3510947  36.5658598  76.5812865  99.3467155
  35.9532823  75.8083122  99.8107835  37.1373850  76.1473876  98.5262341
  37.2506894  76.9946967 100.0871216  34.7989779  77.1511672  97.8068190
  35.3204126  76.7421858  97.1122396  33.4659332  78.4982224  99.3442991
  32.4962250  78.0903377  99.9139245  33.4032049  79.0744659  98.1603381
  34.2472455  79.3909416  97.7047750  32.1298939  79.3300452  97.5068610
  31.3110879  79.1310669  98.1982825  32.0472235  80.8028910  97.0557191
  31.2771006  80.8773110  96.2879486  31.7588981  81.4037271  97.9182528
  33.2803829  81.2808668  96.5369532  33.1814046  82.1977221  96.2701582
  31.8942533  78.4023298  96.3082357  31.2192981  78.7869133  95.3326246
  32.4798738  77.2140710  96.3183624  33.2466522  77.0267056  96.9484770
  32.1343359  76.1918727  95.3154525  31.1256673  76.3576895  94.9370458
  33.1089899  76.2765317  94.1530238  34.1256322  76.5698425  94.4147612
  33.1256742  75.2972120  93.6747408  32.6517526  77.2158289  93.1555371
  31.4887389  77.1592569  92.4417194  30.8487379  76.2953289  92.6209595
  31.3778957  78.2460334  91.6234727  30.6386402  78.4209890  90.9578967
  32.4609458  79.0466787  91.8319878  32.7988141  80.2271039  91.2407871
  32.1183059  80.6682363  90.5124949  33.9781431  80.7801004  91.6059337
  34.2983113  81.7109831  91.1379063  34.8094509  80.1816343  92.5812304
  35.7495660  80.6485804  92.8749042  34.4672505  79.0227637  93.1740532
  35.1590084  78.5794466  93.8903224  33.2754097  78.4199902  92.8031886
  32.0127842  74.7626652  95.8299038  32.4701391  74.4424621  96.9193493
  31.4071764  73.8730308  95.0187214  30.6329705  74.1882760  93.8018128
  31.2830506  74.6896584  93.0847969  29.8063410  74.8480975  94.0652862
  30.1637021  72.8505771  93.3158315  30.8548274  72.4719534  92.5627784
  29.1695772  72.9480876  92.8795876  30.1332437  71.9753212  94.5111430
  30.3178782  70.9402028  94.2238469  29.1816232  72.0412485  95.0385629
  31.2634505  72.4742491  95.4105653  31.0082873  72.4651974  96.4702389
  32.5098222  71.6223880  95.1805559  33.3637932  71.9928736  94.4048620
  32.5493660  70.4685618  95.8362672  31.8591610  70.3135405  96.5571589
  33.5961045  69.4365793  95.6306883  34.5662180  69.8190067  95.9480654
  33.2671598  68.1852222  96.4583590  32.3163205  67.7838842  96.1077429
  34.0544316  67.4496708  96.2932308  33.1681171  68.4985957  97.9510815
  34.0153520  69.1366015  98.2025620  32.2405831  69.0506357  98.1028531
  33.1774369  67.2747732  98.8403309  33.5393269  66.4150672  98.2763803
  33.8303709  67.4485508  99.6956543  31.8341629  66.9812564  99.3295229
  31.5848727  67.3644700 100.2301344  30.9251102  66.2641838  98.6699707
  31.2135764  65.7136929  97.4957135  32.1323177  65.8382722  97.0950960
  30.5128023  65.1731601  97.0090517  29.7205090  66.0853328  99.1999501
  29.5015070  66.4930887 100.0976546  29.0289943  65.5423885  98.7028407
  33.7795864  69.0849343  94.1630719  34.9042157  69.0362722  93.6753334
  32.6669779  68.8745449  93.4614825  31.7730516  68.9742594  93.9208866
  32.6851354  68.4225418  92.0573569  33.3752201  67.5836775  91.9668637
  31.2858972  67.9691764  91.5626397  31.3393948  67.6338505  90.5268821
  30.9336549  67.1511989  92.1910807  30.2253332  69.0414544  91.6150515
  29.3410826  69.2315390  92.5990870  29.3466797  68.5005535  93.4076218
  28.5990945  70.3437146  92.3611962  27.8703532  70.7025782  92.9614067
  28.9579669  70.8640635  91.1557740  28.4392725  71.9468079  90.4577901
  27.6351061  72.5228593  90.9155891  28.9695488  72.2204529  89.2432093
  28.5672375  73.0393610  88.6468579  30.0193154  71.4772242  88.7387123
  30.4801011  71.7403046  87.7865754  30.5191850  70.3778213  89.4228356
  31.3455827  69.8220680  88.9797715  29.9701005  70.0588597  90.6493182
  33.2209728  69.4561654  91.0949440  33.5707408  69.1085604  89.9554778
  33.2987010  70.7156600  91.5306728  32.8684825  71.0156661  92.3938111
  33.9211452  71.7269278  90.6786477  33.7608549  71.4439354  89.6383009
  33.3763673  73.0942789  90.8884048  32.2956528  73.0325752  90.7605455
  33.6022318  73.5439677  91.8552891  33.9697789  73.9511130  89.7799108
  34.6295738  73.3311350  89.1729520  32.8747787  74.5385119  88.9003052
  32.2148079  75.1590309  89.5065176  33.3252596  75.1466554  88.1158760
  32.2991710  73.7310035  88.4478601  34.8617531  75.0111385  90.4078932
  35.6608038  74.5278275  90.9700568  35.2943667  75.6333461  89.6244365
  34.2701902  75.6329404  91.0798417  35.4158610  71.7122401  90.8443553
  36.1529456  71.5680842  89.8822003  35.8625933  71.8500312  92.0805814
  35.2217962  72.0702202  92.8295775  37.2679871  71.7543522  92.3891875
  37.8039112  72.5883066  91.9359717  37.4851472  71.7976086  93.8961418
  36.7924696  71.1187470  94.3935793  38.5070713  71.4524578  94.0531195
  37.3303010  73.1747855  94.4661914  38.3545948  74.0872206  94.3928896
  39.2826349  73.7848775  93.9076786  38.2302965  75.3671034  94.9176106
  39.0738528  76.0564802  94.8819137  37.0470065  75.7619003  95.4818386
  36.9078946  77.0458290  95.9890612  37.7029451  77.5752452  95.8930776
  35.9996342  74.8714454  95.5374131  35.0523397  75.1730573  95.9843625
  36.1489814  73.5855087  95.0231758  35.3156580  72.8838308  95.0595129
  37.8404011  70.4607391  91.7776743  39.0349521  70.3676461  91.4789513
  36.9667804  69.4875508  91.5589014  36.0250262  69.5590548  91.9167916
  37.3823083  68.2352676  90.9686620  38.3533206  67.9769593  91.3911678
  36.4235462  67.0698531  91.2008757  35.7708016  67.3048282  92.0415958
  35.8211262  66.9174719  90.3053478  37.1609184  65.8765051  91.4884831
  36.5502320  65.1499957  91.6328648  37.7183474  68.4004787  89.5079776
  38.6175265  67.7478250  89.0252653  37.0557255  69.3204263  88.8226459
  36.3412612  69.8524127  89.2987033  37.3435492  69.6416778  87.4098851
  37.3719234  68.7270146  86.8176981  36.2571674  70.5520366  86.8484267
  36.4100023  71.4713476  87.4137655  36.5206878  70.7201961  85.8042144
  34.8122015  70.1409082  86.9409258  34.4135333  70.3608176  87.9312814
  34.0485318  70.9409822  85.8986939  34.4463549  70.7212340  84.9079637
  32.9931488  70.6707608  85.9340168  34.1575821  72.0056113  86.1055113
  34.6477772  68.6367297  86.7292921  35.2104243  68.0983400  87.4919613
  33.5928832  68.3721972  86.8022478  35.0225554  68.3650250  85.7424705
  38.6528363  70.4125294  87.1765335  38.9267067  70.8369137  86.0692869
  39.3790242  70.7292367  88.2426961  38.9744045  70.6250587  89.1622227
  40.7231602  71.3454718  88.1318243  41.0599496  71.3323668  87.0952432
  40.6621395  72.7943883  88.6064002  40.3833496  72.8930907  89.6555109
  41.7065433  73.0796609  88.4801452  39.7754316  73.7108023  87.7536350
  38.4026724  73.5680220  87.7275570  37.9613021  72.7267115  88.2618683
  37.5840284  74.4655730  87.0415177  36.5030546  74.3261043  87.0536043
  38.1297487  75.5471955  86.3942673  37.3227690  76.4447887  85.6660741
  36.3919088  76.2106621  85.6829194  39.4957265  75.7113370  86.4297109
  39.9483981  76.5541759  85.9073974  40.2998895  74.8094299  87.1269452
  41.3765213  74.9699908  87.1833743  41.7959204  70.5301632  88.8734351
  42.8692488  71.0247782  89.2300681  41.4782661  69.2658152  89.1406615
  40.6015303  68.9122268  88.7851213  42.3352616  68.3577103  89.8955179
  43.0105547  68.9378974  90.5243750  41.5206019  67.4351076  90.7815534
  40.8140010  68.0054142  91.3845167  40.9731838  66.7906274  90.0937462
  42.3989860  66.5731419  91.7011026  43.4126376  67.0845979  92.2466775
  42.0281199  65.4022562  91.9245192  43.1056328  67.5077396  88.9141138
  42.5343108  66.6213436  88.2938764  44.4080306  67.7573817  88.8223324
  44.7893819  68.5127918  89.3737179  45.3036167  67.0333768  87.9292677
  45.1486519  67.3827135  86.9084597  46.7354387  67.3272539  88.3295773
  46.9085812  66.9749045  89.3464213  47.4158753  66.8168771  87.6479456
  46.9131437  68.4016477  88.2826932  45.0472921  65.5242264  87.9420703
  44.8747786  64.8998154  86.9042630  44.9870253  64.9640216  89.1355683
  45.0657212  65.5308015  89.9678344  44.8429578  63.5256693  89.2921866
  45.6725527  63.0116705  88.8067210  44.8429330  63.1582137  90.7824263
  43.9025486  63.5214622  91.1969462  44.8680761  62.0699765  90.8390629
  46.0088630  63.7365151  91.5825224  46.0772038  64.8034022  91.3699612
  45.7753390  63.5909306  92.6372123  47.3348211  63.0711119  91.2617302
  48.3806991  63.6060792  91.6863644  47.3397014  62.0074739  90.6023634
  43.5337073  63.0440459  88.6248029  43.5157870  62.0372937  87.8896526
  42.4552753  63.7953191  88.8287095  42.4990543  64.6053233  89.4304369
  41.1577964  63.4208243  88.2617394  40.9333545  62.3722028  88.4569778
  40.0338632  64.2823582  88.8566642  40.2271895  65.3274279  88.6146839
  38.6635146  63.8683826  88.2861918  38.4692689  62.8234880  88.5281910
  37.8840061  64.4928563  88.7226528  38.6665958  63.9955658  87.2036413
  40.0357028  64.1483106  90.2883698  39.3335009  64.6864816  90.6610422
  41.1519910  63.5076312  86.7406885  40.8236680  62.5465372  86.0635944
  41.5258756  64.6707227  86.2214001  41.8251625  65.3997163  86.8531397
  41.5652829  64.9377795  84.7919887  40.5556034  65.0040671  84.3867079
  42.2720315  66.2657034  84.5569585  43.2426035  66.1350267  85.0355114
  42.4085151  66.3607482  83.4797219  41.6087303  67.5181018  85.0942703
  41.3772723  67.3687967  86.1488963  42.5219657  68.7182102  84.9427948
  42.7535087  68.8684375  83.8883194  42.0249636  69.6054438  85.3351034
  43.4451246  68.5450487  85.4958710  40.3090466  67.7389402  84.3486762
  39.6537243  66.8807808  84.4977224  39.8213189  68.6377532  84.7259799
  40.5154013  67.8574463  83.2849690  42.3505161  63.8705285  84.0656795
  41.8812289  63.3332171  83.0710001  43.5418196  63.5644723  84.5728902
  43.8890783  64.1084517  85.3498054  44.4164911  62.5347948  83.9979746
  44.6867661  62.8132135  82.9793806  45.6944503  62.3827800  84.8171918
  45.4295461  62.4076799  85.8742183  46.1427184  61.4184151  84.5781183
  46.6957034  63.4982655  84.5167168  46.9973432  63.3606132  83.4783690
  46.1432487  64.4329258  84.6131839  48.1609466  63.5689250  85.5527330
  48.8241084  61.9081144  85.3542329  49.0488653  61.7293421  84.3027464
  49.7363304  61.8078803  85.9423698  48.0894367  61.1795832  85.6971629
  43.6714734  61.2011831  83.8673053  43.7748189  60.5176979  82.8365014
  42.9046946  60.8668991  84.9034161  43.0025207  61.3669423  85.7754746
  42.0744200  59.6689280  84.8830866  42.6664399  58.8481592  84.4781790
  41.5658454  59.2699942  86.2447447  41.9486497  60.0468848  86.9065611
  40.4772829  59.2521478  86.2977857  42.1084958  57.9389409  86.6708429
  43.2950890  57.9051565  87.0423484  41.3958427  56.9169965  86.5403781
  40.9575287  59.7281363  83.8383344  40.7281019  58.7705948  83.1321730
  40.2827971  60.8596999  83.7308071  40.4531859  61.6063328  84.3892951
  39.2409499  61.0548632  82.7080234  38.4907831  60.2692161  82.7980653
  38.5496694  62.4146162  82.8765464  39.3336916  63.1391751  83.0965981
  38.0929143  62.6546489  81.9164114  37.4869335  62.4661675  83.9726777
  36.5944371  61.9499502  83.6190244  37.8723584  61.9596686  84.8575555
  37.1351571  63.9026390  84.3243707  36.3852279  63.9036893  85.1153853
  38.0315889  64.4150257  84.6736116  36.5979711  64.6304499  83.1648477
  36.3421405  64.0905567  82.3504980  36.4418914  65.9514402  83.1256342
  36.7749098  66.6725276  84.1951882  37.1391561  66.2124024  85.0172036
  36.6616060  67.6760235  84.1791303  35.9478178  66.5590265  82.0383425
  35.6875265  66.0102507  81.2313767  35.8379522  67.5630036  82.0307111
  39.8287331  60.9414637  81.3070892  39.1901238  60.4110909  80.4079236
  41.0508161  61.4338005  81.1338535  41.4869280  61.9439810  81.8885863
  41.7786572  61.3061446  79.8716513  41.1063575  61.5926377  79.0629276
  43.0158186  62.2116480  79.8523342  43.5743595  62.0823329  80.7793780
  43.8938752  61.8445244  78.6809919  43.3361324  61.9740390  77.7534955
  44.7727110  62.4891970  78.6689160  44.2078320  60.8048168  78.7733946
  42.5850795  63.6635071  79.7042051  42.2672960  63.7917297  78.6694716
  41.7309939  63.8057445  80.3663272  43.6510433  64.6810133  80.0327051
  44.5053217  64.5396907  79.3706355  43.2494536  65.6852748  79.8974872
  43.9690213  64.5537038  81.0674911  42.1963201  59.8462514  79.6440406
  42.0659112  59.3369751  78.5357761  42.6795824  59.1780816  80.6912729
  42.8873600  59.6600128  81.5542156  43.0396897  57.7619867  80.5824058
  43.8839564  57.6642508  79.8999393  43.4269339  57.1592116  81.9240071
  42.9409111  57.7426348  82.7059907  43.0546115  56.1351260  81.9509263
  44.9331638  57.1578403  82.1537389  45.4061028  56.6772803  81.2972976
  45.2669465  58.1934405  82.2187260  45.3207606  56.4187669  83.4283801
  44.5787820  56.6404823  84.1954583  45.3197093  55.3486546  83.2211167
  46.7000303  56.8390807  83.9199587  47.1682864  55.9609654  84.3646500
  47.2738357  57.1540443  83.0483829  46.6679956  57.9486796  84.9231426
  46.1367036  57.6568756  85.7310281  47.6111368  58.1755545  85.2044119
  46.2345221  58.7625935  84.5111426  41.9472527  56.9348639  79.9140127
  42.2141133  56.2130002  78.9674165  40.7241398  57.0627400  80.3869148
  40.5612106  57.6890352  81.1623551  39.5841209  56.2989666  79.8556304
  39.7250313  55.2331131  80.0350737  38.2963517  56.7494014  80.5611188
  38.2697131  57.8374540  80.5016939  37.4646344  56.3344781  79.9917463
  38.1795174  56.3166862  82.0209165  37.9825007  55.2448352  82.0414288
  39.1314531  56.5200543  82.5113875  37.0579562  57.0558278  82.7572644
  37.5124225  57.8203635  83.3873791  36.4196344  57.5316052  82.0127641
  36.2193795  56.1175694  83.6210093  35.2973538  55.8976971  83.0828407
  36.7841667  55.1964246  83.7645600  35.8909891  56.7087301  84.9453366
  35.3672713  57.5620691  84.8125514  35.3374427  56.0534806  85.4785668
  36.7452157  56.9121480  85.4443527  39.3870715  56.4414865  78.3423751
  39.1005424  55.4638259  77.6585864  39.5666580  57.6485595  77.8170966
  39.7510733  58.4462383  78.4085346  39.5096236  57.8582332  76.3569089
  38.5695862  57.4502929  75.9854070  39.5945498  59.3469411  75.9551710
  40.6449528  59.6225320  76.0489926  39.3001656  59.3909664  74.9066007
  38.7427307  60.3151654  76.7616428  38.6565003  59.8916075  77.7622745
  39.2257986  61.2904790  76.8208955  37.3514863  60.4980061  76.1919857
  36.8945747  61.6289667  75.9880423  36.6484537  59.3890693  75.9799993
  35.7142452  59.4517150  75.6012757  37.0520151  58.4894008  76.1987142
  40.6713332  57.1475048  75.6849799  40.4860280  56.4494495  74.7081801
  41.8742547  57.3300440  76.2253801  41.9475839  57.8946207  77.0596315
  43.1007491  56.6926413  75.7002648  43.2818782  57.0357172  74.6816430
  44.3194750  57.0486505  76.5614818  43.8865533  56.9183961  77.5533043
  45.0391675  56.2521890  76.3722950  45.0228073  58.3945790  76.4886649
  44.4240851  59.1472846  77.0015653  46.3956194  58.2878234  77.1626116
  46.9951224  57.5355860  76.6499383  46.9019078  59.2517618  77.1116655
  46.2672930  58.0001094  78.2060930  45.1360064  58.8717389  75.0469075
  44.1390952  58.9742139  74.6182276  45.6427282  59.8364650  75.0216533
  45.7073326  58.1465503  74.4674364  43.0195622  55.1699930  75.7455268
  43.7543922  54.4844365  75.0367044  42.1628508  54.6564670  76.6274512
  41.6601701  55.2913268  77.2310773  41.9724618  53.2239799  76.8191539
  42.9487884  52.7394405  76.8088119  41.2724497  52.8863946  78.1390979
  41.8227817  53.3822167  78.9387193  40.2621692  53.2923903  78.0880993
  41.2041109  51.3776304  78.4238034  40.6058662  50.9212185  77.6352019
  42.2212556  50.9883931  78.3789365  40.5916176  51.0458757  79.7841019
  39.5055287  51.0925728  79.7045452  40.8913644  50.0380376  80.0713535
  41.0255810  51.9776979  80.8234407  40.3271477  52.6101853  81.1871026
  42.2622799  52.0405955  81.3207833  43.2037073  51.1977104  80.9042762
  42.9820235  50.5032022  80.2052664  44.1357177  51.2562418  81.2890233
  42.5629294  52.9595833  82.2362768  41.8532414  53.6057569  82.5507647
  43.4992823  53.0062530  82.6119948  41.1998763  52.6302859  75.6521025
  41.3324746  51.4413629  75.3532364  40.3208863  53.4741307  75.1301728
  40.2399643  54.3851587  75.5586340  39.4553031  53.1616687  74.0169261
  38.9011690  52.2479820  74.2318946  38.4644739  54.2814433  73.7656027
  39.0227844  55.2106875  73.6520516  37.9316012  54.0629411  72.8401820
  37.4671181  54.4261383  74.9015296  37.0526742  53.4406670  75.1140932
  38.0070297  54.7890214  75.7761212  36.3494024  55.3797001  74.5706633
  35.6239639  55.7991138  75.4948246  36.2023856  55.7089094  73.3790504
  40.3601906  52.9460145  72.8532067  40.1384004  52.0739495  72.0327893
  41.4095026  53.7445615  72.7874258  41.4820781  54.5739133  73.3592716
  42.3858253  53.5471271  71.7388326  41.8750761  53.4699158  70.7790030
  43.3610016  54.6939784  71.6744491  43.7040218  55.0401027  72.6494538
  44.2224213  54.4776090  71.0425943  42.6441883  55.8415956  71.0414607
  41.7071170  55.7563053  70.0636632  41.4602096  54.7565137  69.7065172
  41.2617405  56.9966368  69.7293437  40.5699344  57.2044170  69.0234179
  41.9084519  57.9188817  70.5017825  41.7968139  59.2890814  70.5247330
  41.0919804  59.7682949  69.8452753  42.5808015  59.9621171  71.4021625
  42.5216242  61.0495863  71.4469826  43.4556630  59.3040097  72.2438180
  44.0786110  59.8600532  72.9444255  43.5679306  57.9491678  72.2262285
  44.2795801  57.4809685  72.9062618  42.7829688  57.2268278  71.3392522
  42.9457961  52.1432301  71.9615794  43.3479602  51.4678517  71.0298852
  42.9376160  51.7170732  73.2230711  42.8781211  52.4432477  73.9225211
  43.2025870  50.3584724  73.6620247  42.7146067  50.1579537  74.6158416
  42.6428889  49.3898662  72.6116986  41.7120291  49.8055078  72.2258992
  43.3735941  49.3264455  71.8053812  42.3869778  48.0179276  73.1634703
  42.6845983  47.7840955  74.3542221  41.8748879  47.1748931  72.3995621
  44.4977875  49.7642599  74.1317481  45.5997372  50.1413044  73.7671862
  44.2448929  48.7983543  75.0023586  43.2996920  48.8258307  75.3572384
  45.1739964  47.8767011  75.6045720  44.6655687  47.2967660  76.3748160
  45.7383230  46.9184733  74.5682044  46.2109289  47.5177602  73.7900026
  46.4924505  46.3065799  75.0631571  44.6865044  46.0186967  73.9448067
  44.0217421  46.6398260  73.3444815  45.2160144  45.3213169  73.2956690
  43.8690268  45.2404780  74.9650224  43.5159672  45.7962811  76.0262598
  43.5610350  44.0611871  74.6931106  46.2613876  48.4421327  76.4584085
  47.2147644  47.7434056  76.7653581  46.1464202  49.6799340  76.8921784
  45.4212571  50.3474615  76.6716226  47.2613630  50.1190363  77.7314268
  48.1459345  50.1926779  77.0988058  46.9598591  51.5039064  78.3149428
  46.7686521  52.2066747  77.5039830  46.0818387  51.4444557  78.9580958
  48.1319025  52.0185672  79.1383047  49.1501778  51.3421158  79.2646780
  47.9858298  53.2209942  79.6996033  48.7337456  53.6092365  80.2563705
  47.1280707  53.7369497  79.5649185  47.5814825  49.1260220  78.8638327
  48.1000576  49.5136060  79.9169792  53.1458110  52.0733024  83.5112909
  53.7343286  52.8033229  83.8865462  52.3050845  52.3855724  82.3442937
  52.3653635  51.5769455  81.6158789  50.8294492  52.5519092  82.7771548
  50.8110908  52.8170246  83.8342622  50.3908063  53.3606156  82.1926153
  50.0784273  51.3579629  82.5740802  49.1708797  51.4994283  82.8532660
  52.8181172  53.6230811  81.5566830  53.5545265  53.4742896  80.5877415
  52.4741257  54.8291546  82.0334445  51.8262028  54.8554949  82.8077838
  52.9014390  56.1118978  81.4324135  53.8636801  55.9853710  80.9362461
  51.8691189  56.5890074  80.3911494  52.1480077  57.6335302  80.2522525
  52.0452230  56.0403424  79.4659175  50.3845619  56.5019185  80.7616502
  50.0932378  55.4518827  80.7872603  50.1181913  57.1343870  82.1176035
  50.4088556  58.1846200  82.0926307  49.0566861  57.0572103  82.3528719
  50.6977121  56.6156030  82.8812260  49.4946299  57.1361721  79.6961289
  49.6402128  56.6209733  78.7466684  48.4504485  57.0531232  79.9976076
  49.7567841  58.1880131  79.5820910  53.1395033  57.1211096  82.5810243
  53.2751260  56.6975947  83.7371037  53.3448701  58.4296076  82.2650503
  52.9245141  59.2528203  81.1115471  51.8738979  59.0578123  80.8964248
  53.5279260  58.9875011  80.2434464  53.1685371  60.6679207  81.5703166
  52.2251126  61.1010995  81.9025897  53.5607169  61.2492155  80.7358151
  54.1557774  60.6001480  82.6803857  53.9812804  61.4163383  83.3814444
  55.1904652  60.6301527  82.3388884  53.8697404  59.2620113  83.3597147
  54.7742853  58.7844565  83.7363289  52.8714516  59.4377460  84.5060659
  51.6585049  59.3108016  84.3147540  53.4069418  59.7083518  85.7002052
  54.4134716  59.7451951  85.7753028  52.6063441  59.9802456  86.9061944
  51.6192060  59.5312023  86.7965689  53.2835687  59.3873027  88.1721402
  53.9875336  60.1312124  88.5451430  52.5023117  59.2229073  88.9142397
  53.9706997  58.1645732  87.9281165  54.3655469  57.8508773  88.7449950
  52.4870318  61.4981548  87.1060376  51.4990360  61.9940096  87.6454570
  53.5358373  62.1874078  86.6867533  54.3562483  61.6833358  86.3818985
  53.5845102  63.6271227  86.6999026  53.2564397  64.0076723  87.6671931
  55.0253064  64.0931255  86.4527478  55.6254605  63.8679981  87.3343554
  55.4110421  63.5356312  85.5992209  55.1395866  65.5815030  86.1535244
  54.1931507  66.3568231  86.3151965  56.3277770  65.9860961  85.7247239
  56.4773999  66.9607817  85.5063187  57.0774330  65.3176253  85.6185940
  52.6254480  64.1822214  85.6508286  52.7316849  63.8597759  84.4544622
  51.7010207  65.0504551  86.0940086  51.6368810  65.5847256  87.4695035
  52.6451339  65.6671619  87.8753736  51.0482236  64.9126881  88.0939609
  50.9778872  66.9207570  87.2873488  51.7183903  67.6812563  87.0395686
  50.4483596  67.2119107  88.1945045  50.0243030  66.7016212  86.1612553
  49.8062527  67.6365245  85.6450102  49.0932069  66.2517808  86.5059338
  50.7512427  65.7387065  85.2121057  50.0774750  64.9798557  84.8142606
  51.4043652  66.5010044  84.0514339  50.8715139  66.4783070  82.9632449
  52.5336222  67.1559006  84.2782828  52.8894644  67.1972233  85.2226176
  53.2876262  67.8264435  83.2253559  52.7499915  68.6809674  82.8144581
  54.6355923  68.2929316  83.7860577  55.1811336  67.4265296  84.1599996
  55.4537460  68.9790948  82.7110667  54.9090177  69.8459274  82.3369372
  56.4066867  69.3024832  83.1299040  55.6349351  68.2831907  81.8919287
  54.4032548  69.2196827  84.9868256  54.0962529  70.1853139  84.5850708
  53.5842046  68.7895583  85.5632364  55.6063256  69.4066701  85.8834199
  56.4256953  69.8372187  85.3077803  55.3481460  70.0763157  86.7037962
  55.9136485  68.4414620  86.2859443  53.5394544  66.8718453  82.0354807
  53.2055117  67.1677101  80.8740487  54.1083594  65.7190384  82.3380963
  54.4551442  65.5420144  83.2700309  54.4435487  64.7769568  81.2902220
  54.8983252  65.3074705  80.4536620  55.4252357  63.7315189  81.7937527
  55.0284878  63.4655542  82.7735246  55.4651645  62.8421364  81.1648611
  56.8394337  64.3087286  81.9539497  57.0526709  65.1466285  82.8572019
  57.7042439  64.0115868  81.1039174  53.1943657  64.2281622  80.6179472
  53.0946247  64.2223248  79.4020506  52.2381122  63.8061104  81.4222453
  52.3710380  63.8469572  82.4226261  51.0051091  63.2530931  80.9183433
  51.2082023  62.3148492  80.4020578  50.0248962  62.9801112  82.0611352
  50.4678679  62.4906908  82.9285123  49.6280645  63.9515438  82.3559971
  48.8553713  62.1473669  81.6518074  47.9098848  62.6528426  80.7811578
  48.0067335  63.6803628  80.4305550  46.8568466  61.8781572  80.3565331
  46.0983302  62.3047570  79.7002054  46.7592491  60.5639491  80.7593988
  45.9337555  59.9414812  80.4141539  47.7129769  60.0375686  81.6037222
  47.6448903  58.9971841  81.9216288  48.7558706  60.8290104  82.0473814
  49.5094841  60.4130231  82.7160526  50.3823277  64.2109179  79.9273286
  50.0476847  63.8208506  78.8404802  50.2751992  65.4759154  80.3128604
  50.6612678  65.7303982  81.2107963  49.6324140  66.5249765  79.5078909
  48.5933645  66.2598936  79.3124264  49.6642235  67.8629124  80.2594557
  48.9871584  68.5531869  79.7562626  49.3158551  67.6906604  81.2778214
  50.9695680  68.4214762  80.2941010  50.9486187  69.2544762  80.7708315
  50.3247952  66.7357984  78.1733256  49.6729788  67.0138070  77.1733138
  51.6515674  66.6017827  78.1729043  52.1349183  66.4695048  79.0498158
  52.4539297  66.6616914  76.9322452  52.0910098  67.4728158  76.3010040
  53.9121457  66.9079467  77.2442796  54.0129493  66.1780737  78.0475376
  54.5873989  66.6464223  76.4295784  54.2585482  68.2702747  77.7616197
  54.0057322  69.4254283  77.0118808  53.4615943  69.3367708  76.0715865
  54.4367985  70.6701891  77.4496218  54.1947270  71.5775432  76.8962576
  55.1677856  70.7489027  78.6209937  55.6442969  71.9316957  79.1201165
  55.4173340  72.6878741  78.5739647  55.4691358  69.6134564  79.3371163
  56.0520719  69.6877769  80.2551372  55.0362748  68.3876795  78.8963118
  55.3058104  67.4850106  79.4446178  52.3964955  65.3851373  76.0567221
  52.5118459  65.4521766  74.8377167  52.2654188  64.2340709  76.7021840
  52.3364510  64.2364295  77.7096800  52.1099594  62.9534943  76.0233557
  52.8830783  62.8185618  75.2669302  52.2443208  61.8297484  77.0713982
  53.3136189  61.6941154  77.2335849  51.7844618  62.2105264  77.9833400
  51.6188755  60.5050039  76.7082256  51.6870659  59.8503615  77.5770721
  50.5703502  60.6815373  76.4683659  52.3031699  59.8485624  75.5268659
  52.2026312  60.4769723  74.6419410  53.3600936  59.6967991  75.7459084
  51.6943077  58.5574663  75.2528156  51.0713550  58.4982645  74.4600203
  51.9032688  57.4614397  75.9800879  51.2514080  56.3444801  75.6815506
  50.6031881  56.3333240  74.9070917  51.4065875  55.5108183  76.2302098
  52.7563876  57.4753361  77.0079343  53.2503344  58.3255193  77.2388135
  52.9035637  56.6355966  77.5494834  50.7768772  62.8702540  75.2497841
  50.7401402  62.3999282  74.1256315  49.6882573  63.3158376  75.8506493
  49.7085653  63.6218457  76.8129621  48.4000963  63.2946249  75.1563726
  48.3164973  62.4216174  74.5090949  47.2254499  63.2940405  76.1297973
  46.2956413  63.1742512  75.5737346  47.3762845  62.1483333  77.1166407
  48.3057078  62.2676903  77.6734415  46.5350655  62.1520121  77.8097767
  47.3964269  61.2023294  76.5755560  47.1303186  64.6181796  76.8539089
  46.9864172  65.4196284  76.1292889  46.2860813  64.5962056  77.5430244
  48.0497915  64.7945137  77.4120995  48.2714704  64.4470533  74.1913145
  47.5209767  64.3713502  73.2305428  49.0156743  65.5110102  74.4340535
  49.5249039  65.5759502  75.3038623  49.0978238  66.6274259  73.5000254
  48.1142821  67.0818999  73.3808691  50.0582327  67.6798217  74.0256191
  51.0497368  67.2421224  74.1415459  50.1084107  68.5105877  73.3217652
  49.7068777  68.0431992  74.9913342  49.5506358  66.1427430  72.1244754
  48.9894713  66.5371244  71.0975451  50.5591731  65.2807239  72.1063188
  51.0114669  65.0201219  72.9709668  51.0929923  64.7362920  70.8483948
  51.1914677  65.5725641  70.1562598  52.4617601  64.1451208  71.0888680
  52.3783171  63.3007158  71.7730591  52.8826303  63.8051578  70.1426156
  53.1136296  64.9022106  71.5247356  50.1931629  63.6862197  70.1917029
  50.3021796  63.4398392  69.0005703  49.3175157  63.0591378  70.9685917
  49.3294125  63.2406072  71.9620839  48.3167333  62.1023087  70.4412685
  48.7928022  61.4029114  69.7540268  47.6925050  61.3041483  71.6020475
  47.1951572  61.9904630  72.2874062  46.9644200  60.5967855  71.2050210
  48.8431094  60.3283143  72.6132485  47.9222294  59.8394495  73.4390145
  47.1820412  62.8003103  69.6954747  46.6002039  62.2831746  68.7621665
  46.8348454  63.9963582  70.1446278  47.3606353  64.3720296  70.9208465
  45.8184893  64.8153693  69.5525426  44.8532746  64.3116712  69.6049661
  45.7185028  66.1394375  70.3022359  46.7623821  66.4194276  70.4437303
  45.2449392  66.8401011  69.6145528  45.0018746  66.1777900  71.6331634
  45.5812139  65.6556646  72.3946435  44.8504394  67.6399162  72.0254914
  44.2707731  68.1626298  71.2646653  44.3359911  67.7080328  72.9840340
  45.8359058  68.0981084  72.1092550  43.6549915  65.4816684  71.5430711
  43.8018944  64.4409665  71.2541791  43.1587543  65.5224608  72.5127029
  43.0363400  65.9812845  70.7975827  46.0980098  65.2297024  68.1309585
  46.9424396  66.0550465  67.9337615  45.2991903  64.7468794  67.1701675
  44.0155625  64.0855263  67.4546629  43.3923118  64.7461407  68.0573630
  44.1970656  63.1598534  68.0008179  43.4402566  63.8397721  66.0804121
  42.5338636  64.4351567  65.9705574  43.1927635  62.7820954  65.9900330
  44.4930626  64.2391750  65.0612405  43.9739257  64.7216824  64.2331206
  45.1253553  63.4391157  64.6762590  45.3387400  65.2557101  65.8013399
  46.3799976  65.3321679  65.4882341  44.6791868  66.6214880  65.7026587
  43.4503789  66.7018961  65.5716905  45.4632199  67.6764087  65.8438695
  46.4457993  67.5519797  66.0417442  44.9402700  69.0332017  65.7707378
  43.9250575  69.0229018  65.3740809  44.9504341  69.7492104  67.1428960
  45.0637605  70.8218099  66.9854540  43.6581008  69.4822816  67.8802817
  43.5442924  68.4098491  68.0385120  43.6772634  69.9911966  68.8439928
  42.8195678  69.8530512  67.2907978  46.1468339  69.3168009  67.9987854
  45.9198758  68.3319912  68.4071244  47.0129916  69.2459585  67.3408708
  46.4515145  70.2769755  69.1341820  45.5859227  70.3479869  69.7928231
  47.3086901  69.9114855  69.6996607  46.6790364  71.2619554  68.7265692
  45.7502439  69.8422645  64.7688069  46.6506670  69.3030093  64.1351303
  45.3889589  71.1096163  64.5768233  44.5622851  71.4770217  65.0259593
  46.0149882  71.9034387  63.5222702  46.6671913  71.2648624  62.9264928
  44.9444409  72.5385200  62.5817266  45.2081282  72.5131883  61.5244062
  44.1104736  71.8607501  62.7640082  44.5403651  73.9583421  62.9712160
  45.2916729  74.9175004  62.6582863  43.3914118  74.1305156  63.4332978
  47.0917083  72.8695552  64.0580897  47.0196041  73.3304676  65.1941996
  48.1369944  73.0722428  63.2494807  48.1380546  72.6522190  62.3309611
  49.3433747  73.7553634  63.6981074  49.8326254  73.0523741  64.3723024
  50.2866463  74.0317159  62.5018741  50.4856809  73.0998510  61.9726178
  49.8143006  74.7411344  61.8223780  51.6009014  74.6162481  63.0144995
  52.5193820  73.8031819  63.3024551  51.6738263  75.8702543  63.1132420
  49.0585104  75.0378098  64.5243960  49.8466216  75.3834128  65.4046324
  47.9343585  75.7141495  64.2783208  47.3510893  75.4793260  63.4879068
  47.6208849  76.9248206  65.0356540  48.5250588  77.4453865  65.3512171
  46.7241826  77.9210289  64.2425461  46.9184615  77.7823966  63.1789973
  45.2414505  77.7000079  64.5210421  45.0463023  77.8389332  65.5843943
  44.6528310  78.4160677  63.9475562  44.9637559  76.6867952  64.2305471
  47.1269753  79.3632689  64.5594086  48.1684259  79.5202393  64.2786186
  46.4925998  80.0497661  63.9987048  47.0071581  79.5483458  65.6268781
  47.0545316  76.6425073  66.4324443  47.3462837  77.3638961  67.3729867
  46.2597399  75.5911058  66.5622093  46.0282697  75.0668432  65.7305425
  45.7857240  75.0870315  67.8572703  45.2943798  75.8758143  68.4269207
  44.7705798  73.9704534  67.5907957  44.9397492  73.8345542  66.5226139
  45.1339880  73.0955697  68.1298811  43.2875650  74.1423684  67.8490617
  42.7114029  73.8824303  66.9610470  42.9142071  73.2023478  68.9898251
  43.4896675  73.4619805  69.8783830  41.8501188  73.2973639  69.2061318
  43.1355258  72.1746779  68.7017052  42.9008188  75.5947405  68.1229389
  43.1627046  76.2095850  67.2618457  41.8273124  75.6580480  68.3009203
  43.4361135  75.9542950  69.0017331  46.8916035  74.4105592  68.6740381
  46.9028628  74.4960555  69.9026803  47.7808927  73.6898461  67.9953715
  47.6732261  73.5660038  66.9987922  48.8959799  73.0062183  68.6661051
  48.5333022  72.3410383  69.4497501  49.6369440  72.1676189  67.6147301
  48.8949083  71.4721297  67.2225859  49.9243756  72.8704742  66.8327599
  50.8621124  71.3942099  68.0759035  51.4044452  71.0847309  67.1824838
  51.4791233  72.0811515  68.6551365  50.5351482  70.1674817  68.9225081
  51.4206933  69.9417572  69.5166102  49.7146155  70.4435375  69.5847911
  50.1497731  68.9592382  68.1714736  49.2389032  68.5820194  68.3908394
  50.9220608  68.2976695  67.3037314  52.1026960  68.7693021  66.9262594
  52.4343044  69.6479908  67.2977997  52.6647834  68.2476232  66.2689859
  50.4641981  67.1859930  66.7447447  49.5406447  66.8503428  66.9781718
  51.0410781  66.6799305  66.0880798  49.8259870  74.0179213  69.3510123
  50.3711879  73.7376027  70.4416046  49.9851050  75.2021580  68.7366859
  49.4879890  75.4286514  67.8871708  50.8133255  76.2443143  69.3578743
  51.6580110  76.0500762  70.0188412  51.0538057  77.5752230  68.5863426
  50.2723779  78.2758085  68.8807080  52.4254812  78.1912186  68.8733998
  53.2074819  77.4913524  68.5788444  52.5345318  79.1163444  68.3074042
  52.5125178  78.4051995  69.9386397  50.3152079  77.7409090  67.2535026
  50.6212044  76.9204654  66.6043961  49.2474059  77.6628954  67.4579830
  50.6045792  79.0699601  66.5632495  51.6721984  79.1484992  66.3580161
  50.0502207  79.1215571  65.6261670  50.2984017  79.8909297  67.2116044
  50.1783907  76.8012277  70.6182200  50.8775316  77.2578251  71.5287478
  48.8498360  76.7692286  70.6726870  48.3411581  76.4795929  69.8496090
  48.0834936  77.2255406  71.8406564  48.3933193  78.2347362  72.1120075
  46.5827698  77.2405355  71.5315200  46.4711834  76.9420917  70.4891290
  46.1194744  76.4923601  72.1747081  45.9028514  78.5901562  71.7497445
  46.0791063  78.8762773  72.7866485  46.3296182  79.3437415  71.0878673
  44.3971094  78.5273956  71.5104286  43.6572153  77.9535687  72.3096334
  43.9420062  79.0824727  70.3846909  42.9528161  79.0663759  70.1813555
  44.5889960  79.5159429  69.7415663  48.3522274  76.4145194  73.0893336
  48.6989605  76.9868456  74.1008790  48.1866828  75.0869042  73.0209696
  47.9525028  74.6948482  72.1201082  48.4636403  74.1660365  74.1299039
  47.7068843  74.2653993  74.9080726  48.4368375  72.7367778  73.6046664
  48.7273858  72.8624531  72.5616483  49.2477208  72.2558910  74.1517643
  47.1964404  71.8748494  73.6817740  46.3871950  72.4420918  74.1416204
  46.7848916  71.4508158  72.2780269  47.5935099  70.8830872  71.8176797
  45.8909461  70.8295748  72.3329984  46.5752678  72.3358868  71.6773543
  47.4915320  70.6517335  74.5264807  47.7827981  70.9638279  75.5294068
  46.6005117  70.0266673  74.5854415  48.3038341  70.0837243  74.0730166
  49.8891112  74.3365868  74.6206853  50.1942012  74.3596511  75.8311964
  50.7735497  74.3574941  73.6298430  50.4559808  74.2227798  72.6805794
  52.1862759  74.5350643  73.8595243  52.5812620  73.7104818  74.4529457
  52.9279036  74.5647446  72.4958468  52.2920231  73.8161178  72.0232866
  52.7363652  75.5392395  72.0466557  54.4187460  74.1831266  72.2875047
  54.5262470  73.8921201  71.2425838  55.4278608  75.3091397  72.6153277
  55.3212692  75.6003762  73.6602767  56.4423122  74.9509298  72.4401855
  55.2319524  76.1705408  71.9768070  54.7472734  72.8771106  73.0007290
  54.1213467  72.0781012  72.6033639  55.7966756  72.6293643  72.8411106
  54.5591159  72.9883886  74.0685834  52.4364332  75.8388301  74.6353916
  53.2379101  75.8569532  75.6047808  51.7292596  76.9029546  74.2467924
  51.2397988  76.8978213  73.3633326  51.8212208  78.1610847  74.9791009
  52.8687395  78.3620312  75.2036545  51.2555540  79.3424926  74.1836228
  50.4718735  78.9610395  73.5290713  50.8238853  80.0482055  74.8933632
  52.3239068  80.0531460  73.3416696  53.1470257  80.3210231  74.0041030
  52.6783911  79.3489518  72.5889722  51.7967382  81.3057182  72.6558388
  51.2744824  81.9073097  73.3997713  52.6478013  81.8659693  72.2686570
  50.8464068  80.9739107  71.5141405  51.3760441  81.1308658  70.5744864
  50.5643070  79.9246153  71.6007316  49.6202306  81.8216648  71.5407138
  49.8813823  82.7939783  71.4600552  49.0196305  81.5692192  70.7689296
  49.1290838  81.6760547  72.4111572  51.2598877  78.0664849  76.4021866
  51.6343388  78.8720683  77.2486963  50.3993436  77.0767062  76.6699851
  50.1118485  76.4605358  75.9231384  49.7467869  76.9394230  77.9727529
  49.4911165  77.8972670  78.4258167  48.4880624  76.0832069  77.8485610
  48.5794948  75.4474756  76.9678873  48.3039870  75.2131334  79.0856809
  48.2120098  75.8482187  79.9667641  47.4017118  74.6114291  78.9763556
  49.1663631  74.5564103  79.2002292  47.2932513  77.0083290  77.5707277
  47.1535133  77.6179117  78.4634668  47.5786268  77.6480404  76.7356051
  45.9972845  76.2929479  77.2394018  45.7110062  75.6533535  78.0743052
  45.2121778  77.0272344  77.0590407  46.1361206  75.6834801  76.3464442
  50.7126427  76.4253713  79.0567696  51.4564170  75.4300707  78.8548127
  50.7246407  77.1258979  80.1938301  49.9803461  77.7752936  80.4045670
  51.8058860  76.9761687  81.1607343  52.6579982  76.5522860  80.6293893
  52.0606838  77.9741090  81.5175151  51.4805256  76.1004599  82.3438560
  52.3811154  75.6261449  83.0350109  50.1851792  75.8072597  82.5209777
  49.4720570  76.2777794  81.9823058  49.7710193  74.8651818  83.5233902
  50.5880149  74.6991114  84.2255568  48.5644127  75.3785551  84.2942192
  48.8143551  76.3327745  84.7580007  47.7310466  75.5171603  83.6054597
  48.1984927  74.4499371  85.2953092  47.4368647  74.7816354  85.7764524
  49.4458173  73.4890361  82.9491326  48.7204895  73.3577071  81.9507653
  49.9208379  72.4621190  83.6566512  50.6040703  72.6341692  84.3803166
  49.5188746  71.0974229  83.4046211  49.8176380  70.7900742  82.4024353
  50.1767882  70.1728313  84.4115819  49.8798779  70.4623569  85.4196093
  49.8634794  69.1462172  84.2218419  51.2603645  70.2446925  84.3177865
  48.0104008  70.9757873  83.4872373  47.4214474  70.3815338  82.6096715
  47.3936151  71.5577799  84.5238250  47.9465893  72.0761345  85.1913782
  45.9504759  71.4463963  84.7544353  45.6363962  70.4047948  84.8216608
  45.5265717  72.1900669  86.0244689  45.6023922  73.2653147  85.8626239
  44.0980237  71.8307440  86.3546140  44.0214961  70.7556369  86.5170607
  43.7899483  72.3570246  87.2580624  43.4496740  72.1197500  85.5274397
  46.4737509  71.8914714  87.2151477  47.4790927  71.8132950  86.8012913
  46.4208092  72.7542739  87.8791271  46.1495509  70.6323367  87.9960851
  46.2027493  69.7689952  87.3328271  46.8681139  70.5118593  88.8067956
  45.1444642  70.7099733  88.4106612  45.1545736  71.9940219  83.5807660
  44.2628317  71.3276483  83.0705254  45.4893152  73.2165300  83.1624157
  46.2746069  73.6769575  83.5999347  44.8483790  73.8725773  82.0136108
  43.7831838  73.9971144  82.2084159  45.4642532  75.2502454  81.7663185
  46.5252012  75.0595907  81.6046414  45.0124554  75.5981237  80.8373623
  45.3008734  76.3004203  82.8255223  44.2586805  76.5514736  83.0227713
  45.7527759  75.8912357  83.7291007  46.0428013  77.5711468  82.4439320
  47.2643194  77.5560688  82.2162544  45.2988784  78.6637852  82.2829408
  45.7381022  79.5371745  82.0292185  44.2988192  78.6141242  82.4152916
  45.1283716  73.1320024  80.7083373  44.3469702  73.2138982  79.7470226
  46.2821416  72.4570192  80.6640835  46.9741087  72.5727794  81.3906374
  46.6244830  71.6458656  79.5113297  46.3796724  72.2045623  78.6079887
  48.1146362  71.2684213  79.4670093  48.6569876  71.9305006  80.1419947
  48.2184522  70.2383692  79.8080592  48.6884585  71.3979401  78.0571406
  48.0639789  70.8029039  77.3907638  48.6267231  72.4478772  77.7709192
  50.1153607  70.9336117  77.9540963  50.2888640  70.1186728  78.6568553
  50.3175562  70.5877647  76.9403871  51.0301656  72.0217684  78.2667688
  51.1408158  72.7415377  77.5669202  51.7077633  72.1338793  79.4041379
  51.6091566  71.2053175  80.3514729  51.0124291  70.4031891  80.2079242
  52.1314640  71.3066631  81.2099738  52.5042237  73.1779766  79.5898168
  52.5899388  73.8786471  78.8674500  53.0213765  73.2676165  80.4527284
  45.7258116  70.4134927  79.4399670  45.0868409  70.1741682  78.4304442
  45.6503056  69.6635488  80.5291153  46.2257817  69.9087059  81.3220999
  44.7824041  68.4829925  80.6367895  45.0699427  67.7245937  79.9086056
  44.9310565  67.9001359  82.0271369  44.7425288  68.7519529  82.6805619
  44.1316363  67.1685928  82.1449166  46.2576614  67.2631406  82.3971185
  47.0231377  67.7018975  81.7570879  46.6395636  67.4705734  83.8639462
  45.8747365  67.0316426  84.5046318  47.5979177  66.9904611  84.0618105
  46.7185225  68.5376204  84.0719762  46.1534596  65.7901732  82.0850850
  45.9493859  65.6568528  81.0226920  47.0918820  65.2971970  82.3389335
  45.3437476  65.3511651  82.6679550  43.3185522  68.8102735  80.3927060
  42.6489855  68.0845936  79.6733507  42.8210275  69.8824844  81.0144962
  43.3988052  70.3723679  81.6825429  41.4412716  70.3326281  80.8290097
  40.7573537  69.5342964  81.1171451  41.1374206  71.5820787  81.6953455
  42.0932704  71.9823212  82.0333637  40.6460883  72.3113527  81.0512554
  40.2463831  71.2910681  82.9108335  39.2532051  71.0504948  82.5315937
  40.6635733  70.4189520  83.4142895  40.1460290  72.4514895  83.9014264
  39.3839557  72.2083285  84.6418425  41.1099374  72.5664572  84.3971706
  39.7914736  73.7235951  83.2622873  40.5603994  74.3332422  83.0231582
  38.5507524  74.1164441  82.9647665  38.3463599  75.3065931  82.4002613
  39.1322005  75.9083355  82.1991129  37.4065912  75.6011560  82.1762810
  37.5204061  73.3195821  83.2117007  37.6759416  72.4119506  83.6265667
  36.5846615  73.6238039  82.9838195  41.1559426  70.6102003  79.3537097
  40.3474327  69.9246162  78.7236468  41.8375322  71.6052883  78.8074510
  42.4345376  72.1855067  79.3793167  41.6872326  71.9447493  77.4061094
  40.6916259  72.3468443  77.2185300  42.7204744  73.0030935  77.0262518
  42.2572507  73.9886664  76.9796767  43.5344236  73.0186487  77.7510585
  43.4805341  72.7381521  75.4346613  44.2683135  73.8089106  75.4768305
  41.7944675  70.7165791  76.4858639  41.0616518  70.5993237  75.4974898
  42.7015732  69.8125009  76.8259930  43.2936673  69.9989450  77.6227128
  42.8575599  68.5278186  76.1266358  43.0984371  68.6922861  75.0763845
  44.0075557  67.7347867  76.7772664  44.1864114  68.1913541  77.7507427
  43.6423827  66.7171109  76.9154138  45.3036396  67.7041269  75.9872694
  45.2602658  66.8234666  75.3464442  45.3514810  68.6006274  75.3691291
  46.5462811  67.6290587  76.8714933  47.6084490  68.1316770  76.4495761
  46.4710752  67.0541204  77.9742788  41.6455685  67.5966193  76.1945964
  41.3561058  66.8927326  75.2495335  40.9805180  67.5485993  77.3406766
  41.3335178  68.0024158  78.1710627  39.7445073  66.7759209  77.4456801
  39.9147863  65.7669798  77.0699914  39.2783424  66.6851698  78.8708115
  39.6777189  67.5665028  79.3726579  38.1906878  66.6886803  78.9421921
  39.8210189  65.4424204  79.5304123  40.8239887  65.2397910  79.1547879
  39.8761919  65.6496437  81.0349097  38.8734509  65.8518787  81.4113542
  40.2684438  64.7514010  81.5117735  40.5263097  66.4944944  81.2622303
  38.9764527  64.2345666  79.1513461  38.9963979  64.1016655  78.0696627
  39.3784271  63.3436513  79.6338268  37.9487484  64.3920225  79.4786541
  38.6696985  67.3724790  76.5852165  37.8830550  66.6443856  75.9896764
  38.6415082  68.7041400  76.5127245  39.2641234  69.2570116  77.0843737
  37.6625262  69.3983386  75.6877229  36.6640776  69.1273964  76.0309284
  37.8054727  70.9315277  75.7499441  37.1977605  71.2841163  76.5832906
  38.8529370  71.1653640  75.9403104  37.3448935  71.6385558  74.4337257
  36.4584458  71.1128641  73.7019076  37.8854265  72.7270215  74.1341968
  37.7357345  68.9201773  74.2394028  36.7424874  68.4585205  73.6784105
  38.9195456  69.0124194  73.6507064  39.6833505  69.4386416  74.1557175
  39.1460966  68.6049774  72.2720267  38.5263400  69.1815641  71.5853326
  40.6233308  68.8290388  71.9365962  41.2294044  68.4499611  72.7594421
  41.0024560  68.1228900  70.6710288  40.3970837  68.5017892  69.8475845
  42.0566494  68.2995655  70.4575744  40.8298895  67.0527690  70.7857500
  40.8846981  70.3264698  71.7933742  41.1644021  70.5098126  70.7559486
  39.9499737  70.8420797  72.0136837  41.9701167  70.8423292  72.7051392
  42.9053217  70.3274789  72.4850919  42.0995458  71.9130392  72.5472547
  41.6908940  70.6597438  73.7428275  38.7177221  67.1585229  72.0112784
  38.0854305  66.8735370  70.9969159  39.0430493  66.2608742  72.9439338
  39.5066677  66.5683637  73.7869091  38.7337263  64.8295736  72.8003823
  39.1711808  64.4462893  71.8785223  39.3045010  64.0462375  73.9712080
  39.0841700  64.6293646  74.8653647  38.7545619  63.1058089  74.0067198
  40.7676854  63.7641007  73.9101497  40.9993359  63.1876958  73.0144956
  41.3275239  64.6992177  73.8946835  41.2409429  62.8163418  75.3612494
  42.8591322  63.5109346  75.6752963  42.7663996  64.5815828  75.8575380
  43.2977324  63.0306631  76.5499790  43.5007356  63.3444196  74.8100108
  37.2329473  64.5371953  72.7748842  36.7922038  63.6176043  72.1042057
  36.4617905  65.3068611  73.5303646  36.8713320  65.8856973  74.2496168
  35.0140595  65.2247952  73.4540672  34.7055932  64.2015711  73.2396839
  34.4041125  65.6490352  74.7889942  34.8158547  66.6323147  75.0164343
  33.3176712  65.7152050  74.7309685  34.7772416  64.6855827  75.9259920
  35.9571908  64.4510070  76.2051464  33.7697610  64.0762649  76.5376525
  33.9567610  63.4319497  77.2926284  32.8204798  64.2595589  76.2454721
  34.4627559  65.9914299  72.2594100  33.6764989  65.4477849  71.4924563
  34.9206727  67.2296239  72.0694713  35.6416551  67.5749851  72.6867309
  34.3415098  68.1579463  71.0845424  33.2649884  68.0141122  71.1768064
  34.6858323  69.6557067  71.4624272  34.3803039  69.8510669  72.4903309
  35.7594087  69.8176880  71.3660132  33.9432110  70.6004264  70.5234690
  34.2485837  70.4059622  69.4953484  32.8694789  70.4393439  70.6196669
  34.2750013  72.0436696  70.8875972  33.9694751  72.2390303  71.9155013
  35.3485775  72.2056502  70.7911811  33.5323777  72.9883888  69.9486395
  33.8377491  72.7939247  68.9205186  32.4586472  72.8273071  70.0448408
  33.8522038  74.3795800  70.2996343  34.8470475  74.5291687  70.2101417
  33.3603673  75.0052635  69.6777685  33.5689294  74.5601062  71.2521389
  34.7231218  67.8762223  69.6145771  34.0416952  68.3278962  68.6857314
  35.7796451  67.0905108  69.3733073  36.2679527  66.6583332  70.1445903
  36.2609280  66.8310854  68.0131668  35.6957069  67.4269698  67.2965455
  37.7587149  67.2106500  67.9004274  38.2065881  67.2031100  68.8941336
  38.2667583  66.4826627  67.2679510  38.1302690  68.8323760  67.1957015
  39.4525295  68.7260537  67.2917276  36.1301938  65.3449312  67.5866469
  37.1344401  64.6179266  67.4280670  34.9188752  64.9788830  67.2004281
  34.1507128  65.6303763  67.2751433  34.6360014  63.6246708  66.7245639
  35.1623983  62.8928101  67.3372510  33.1491250  63.3571617  66.8218592
  32.8780514  62.5983526  66.0878101  32.7832686  62.8706014  68.2094230
  33.0536386  63.6291292  68.9440217  31.7104631  62.6841078  68.2584907
  33.3221488  61.9480564  68.4253383  32.4514905  64.5744863  66.5498737
  31.5056080  64.4210274  66.6078144  35.1117933  63.3351706  65.2814815
  35.4993923  62.1949058  64.9917831  35.0547391  64.3113679  64.3901871
  34.9014798  65.2616514  64.6960830  35.2984943  64.0672436  62.9450969
  35.2383583  63.0004503  62.7296093  34.2492361  64.7906062  62.1151255
  33.8426955  64.1039034  61.3726544  33.4477420  65.1335997  62.7693906
  34.8377173  65.9137762  61.4535116  34.1692686  66.3644256  60.9322714
  36.6115171  64.6316808  62.4462625  37.0669211  65.6335245  62.9508460
  37.1422575  64.0343360  61.3783299  36.6228453  63.2818622  60.9492687
  38.4295320  64.4391827  60.7644395  38.7488762  65.3904525  61.1901204
  39.5227943  63.3978194  61.0186123  39.0302523  62.4654951  60.7424365
  40.3492975  63.5881680  60.3339519  40.0558643  63.2877255  62.4373757
  39.2424873  63.5087299  63.1285167  40.6033913  61.8944399  62.7263158
  41.4171694  61.6728891  62.0358237  40.9753281  61.8547678  63.7501273
  39.8096733  61.1581513  62.5998596  41.1104708  64.3707680  62.6488586
  40.6599513  65.3517479  62.4978282  41.5023023  64.3038382  63.6637919
  41.9233221  64.2312169  61.9361895  38.2565725  64.5457668  59.2529985
  37.9161347  63.5897486  58.5765901  38.5260417  65.7143969  58.7394344
  38.9711776  66.4177849  59.3114473  38.1074028  66.0853770  57.3733289
  37.6239365  65.2459899  56.8735402  37.0962469  67.2475802  57.4755131
  37.6291234  68.1949626  57.5568059  36.4608466  67.2635262  56.5900120
  35.9270948  67.1751759  58.9580750  35.2703404  68.2957876  58.6720659
  39.3288697  66.4097332  56.5250827  40.4363616  66.6184742  57.0376321
  39.1439709  66.3767174  55.2148066  38.2511778  66.0463864  54.8773140
  40.1331744  66.8136469  54.2379253  41.0413913  66.2122530  54.2775065
  39.4739459  66.6204664  52.8570397  39.3079458  65.5539411  52.7051614
  38.5156189  67.1397821  52.8615612  40.3501142  67.2023110  51.3960410
  39.4236273  66.8258922  50.5192120  40.4321260  68.2872941  54.4870855
  39.5068072  69.0826594  54.4782429  41.6854151  68.6439845  54.7959485
  42.4511337  67.9854325  54.7868057  41.9465557  69.9944231  55.2497350
  41.2042712  70.2688811  55.9992587  43.3282338  70.1272989  55.8640310
  43.2759431  69.7380210  56.8808041  44.0111169  69.5145068  55.2755953
  43.8367474  71.5693483  55.8961303  43.8853103  71.9269141  54.8675929
  43.1127762  72.1640408  56.4531838  45.2047887  71.7015397  56.5429004
  45.5239205  70.7201977  56.8939298  45.9115814  72.0680870  55.7984633
  45.1572196  72.6744819  57.7231990  46.1875053  72.8567789  58.0287802
  44.7183857  73.6019444  57.3553170  44.3654417  72.1785510  58.9016838
  44.7721680  71.3193757  59.2429919  44.3818147  72.8732568  59.6346338
  43.4106216  72.0099757  58.6188410  41.7525809  70.9800475  54.0906667
  41.2515934  72.0955292  54.2915797  42.1203760  70.5380161  52.8836456
  42.4872132  69.5993173  52.8175063  42.0982935  71.3550292  51.6826572
  42.6066703  72.3058693  51.8425173  42.8376564  70.5829538  50.5845278
  43.8690995  70.9349804  50.6018927  42.8079306  69.5323909  50.8735502
  42.2787214  70.7368219  49.1956109  42.9138057  70.1900463  48.4986136
  41.2661225  70.3354310  49.1552262  42.2403024  72.1725970  48.7813008
  41.1816417  72.7036907  48.4121951  43.3938514  72.8195685  48.8207648
  43.4330923  73.7925315  48.5526146  44.2298023  72.3374607  49.1188580
  40.6569797  71.7451626  51.2504657  40.3353779  72.9330088  51.1901793
  39.8029497  70.7636519  50.9523205  40.0993986  69.7988561  50.9895538
  38.4519447  71.0543979  50.4859021  38.4151430  72.0373779  50.0163330
  38.0410628  70.0129256  49.4628754  37.1043257  70.2853036  48.9766317
  38.8149122  69.8744810  48.7078321  37.7666443  68.3849709  50.2046266
  37.4407290  67.7691618  49.0717291  37.4688260  71.1197185  51.6690306
  36.2561265  71.3210449  51.5007224  38.0256850  70.9169219  52.8555156
  38.8982199  70.4086343  52.8761530  37.4006551  71.2822822  54.1366774
  38.0870727  71.0924053  54.9618300  37.0525714  72.7721669  54.1232150
  37.6194418  73.2295412  53.3123106  35.9864338  72.8534336  53.9114455
  37.3665908  73.4899766  55.4297169  36.5407896  73.3719413  56.1313014
  38.2638147  73.0309301  55.8448886  37.6280995  74.9778483  55.2314167
  38.2885035  75.3675490  54.2697131  37.0784058  75.8185792  56.1229039
  37.2249731  76.8136572  56.0310388  36.5209524  75.4519307  56.8811360
  36.1771995  70.4649145  54.5638954  36.1847982  69.7971277  55.6075156
  35.1217355  70.5099496  53.7599497  35.1427155  71.0611194  52.9138581
  33.8285060  69.8916467  54.1686525  33.8338457  69.7492653  55.2492996
  32.5973088  70.7720311  53.7876659  32.7426409  71.0693172  52.7491098
  31.7232740  70.1248832  53.8608968  32.3797614  72.0339552  54.6601743
  33.3552233  72.3260998  55.0490527  32.0080209  72.8108376  53.9920711
  31.3980034  71.8497830  55.8270380  31.0725178  72.8551603  56.5165542
  30.9463812  70.7114616  56.0524569  33.6808810  68.4445641  53.6605414
  32.5854724  67.9837657  53.3387066  34.7690400  67.6879112  53.6712355
  35.6504040  68.1267128  53.8965130  34.7601334  66.2384213  53.3917385
  33.7605006  65.8694639  53.1621650  35.7254523  65.8935934  52.1664222
  36.7173992  66.2837577  52.3942677  35.8171956  64.3683875  51.9097661
  34.8256336  63.9775614  51.6813820  36.4839286  64.1804964  51.0681824
  36.2066576  63.8725765  52.7989182  35.3137148  66.5549315  50.9546495
  35.9159269  66.3239925  50.2435883  35.2682004  65.4230459  54.6266441
  36.4204676  65.5080824  54.9705034  34.4373475  64.4872614  55.1039278
  33.4667436  64.5035640  54.8250699  34.8401358  63.5639022  56.1837692
  35.5385028  64.0957919  56.8298931  33.6581672  63.0239821  57.0606879
  33.2431986  63.8711840  57.6067184  32.9040259  62.6250303  56.3823013
  34.0869097  61.9169550  58.0686025  34.0070228  60.9933577  57.4952903
  35.1287634  62.0861457  58.3406587  33.2314342  61.8023350  59.3519189
  33.7373566  61.2259862  60.3356498  32.0507321  62.2291626  59.3747373
  35.7616714  62.4166744  55.6765271  35.4776054  61.6619911  54.7069779
  36.8808502  62.2865579  56.3386257  37.1750604  62.9816278  57.0097572
  37.7885688  61.1616857  56.0547271  37.5864962  60.6766355  55.0997442
  39.2511788  61.6563989  56.0810862  39.4178282  62.1745813  57.0254460
  40.2519867  60.5036393  55.9478418  40.0862483  59.9852323  55.0034448
  41.2675193  60.8989105  55.9713969  40.1150861  59.8056420  56.7737697
  39.4905936  62.7420799  54.9767554  38.9314596  63.6201164  55.3000538
  40.5579975  62.9610848  55.0047792  39.0823990  62.3752957  53.5468311
  38.0149564  62.1565940  53.5179223  39.2998348  63.2103298  52.8808439
  39.6414931  61.4975604  53.2226484  37.5357561  60.0273348  57.0536503
  37.3713775  58.8619462  56.6698325  37.5037218  60.3816569  58.3260684
  37.6051866  61.3572121  58.5671003  37.5202833  59.3947876  59.4063904
  36.7938755  58.6003684  59.2351331  38.9615603  58.7411180  59.5588559
  39.5033064  58.8950170  58.6256215  39.7460771  59.3440744  60.7018896
  39.2051424  59.1901504  61.6355901  40.7230479  58.8649084  60.7653493
  39.8764752  60.4125117  60.5300219  38.8711437  57.3125530  59.7508972
  39.7535954  56.9451493  59.8397454  36.9248646  60.0162332  60.7180397
  36.5631404  61.2034721  60.7744444  36.7529538  59.1860851  61.7345286
  37.1404082  58.2555108  61.6712043  36.1582562  59.6029671  62.9995821
  35.8793007  60.6563165  62.9724174  34.9219041  58.7849846  63.2457855
  34.1736471  59.4258777  63.7121198  34.3384115  58.1846176  61.9017952
  35.0859873  57.5431990  61.4350917  33.4452614  57.5999286  62.1220697
  34.0817490  58.9968552  61.2217253  35.2910807  57.7326857  64.1305915
  34.5244207  57.1846042  64.3134563  37.0350669  59.2531941  64.1891945
  38.0159326  58.5179359  64.0359269  36.6611419  59.7586902  65.3693893
  35.9329077  60.4574571  65.4081079  37.3558926  59.4128971  66.6074093
  38.4178629  59.6038573  66.4529670  36.8937005  60.1890886  67.8454829
  37.0566320  61.2475808  67.6426360  35.8263490  60.0024732  67.9639543
  37.6364872  59.7920214  69.1508789  38.1218953  58.8325000  68.9725578
  38.3942239  60.5522234  69.3406948  36.6878174  59.6750443  70.3991059
  36.6017016  60.6735242  70.8277327  35.7140762  59.3536838  70.0294372
  37.1802558  58.6837478  71.4904967  36.4154919  57.9093988  71.5506672
  38.1028698  58.2530334  71.1014365  37.4307433  59.2495186  72.8641467
  36.5758456  59.6482951  73.2250163  37.7446328  58.5127608  73.4795827
  38.1396674  59.9667696  72.8086794  37.2399718  57.9400999  66.8148146
  38.2348539  57.3067595  67.0720861  36.0382685  57.3858025  66.6531839
  35.2482910  57.9950064  66.4953692  35.7912678  55.9397523  66.7734361
  35.7542649  55.6658198  67.8278037  34.4308930  55.5337595  66.1013281
  34.5634930  55.3920277  65.0287477  34.1464429  54.5867629  66.5600062
  33.2874766  56.5580431  66.3285656  32.6839291  57.0659245  65.3577016
  32.9473223  56.8144093  67.6001266  32.2087074  57.4739769  67.7989189
  33.4312942  56.3467584  68.3532366  36.9259987  55.0797903  66.1913930
  37.2775698  54.0483451  66.7551489  37.4781912  55.5127969  65.0593989
  37.1671856  56.3870752  64.6606355  38.3891322  54.6807029  64.2781286
  38.2246262  53.6298937  64.5165334  38.1511638  54.8865516  62.7690099
  38.5991496  55.8458375  62.5098218  38.6850547  54.0864412  62.2562879
  36.6459832  54.8766200  62.3279273  36.2357131  55.4565413  63.1546501
  36.4880513  55.4150928  61.3934736  35.9240492  53.4828180  62.2572935
  35.5047626  53.0866671  61.1287984  35.6125531  52.8581611  63.3261971
  39.8695931  54.8248862  64.6712276  40.6834054  53.9717407  64.3233507
  40.2046927  55.8471939  65.4086868  39.4872730  56.4984513  65.6937694
  41.5529642  56.0577691  65.8901264  42.3205227  56.0947122  65.1170880
  41.5518398  57.3567341  66.6603897  40.6319671  57.4200721  67.2417012
  42.7406111  57.4308835  67.5898033  43.6609247  57.3680712  67.0091329
  42.7186835  58.3750768  68.1339714  42.7011184  56.6030754  68.2978098
  41.4805885  58.5449761  65.6913875  42.3707216  58.5124294  65.0631323
  40.5938961  58.4126406  65.0714169  41.4082783  59.8913014  66.3992521
  42.2949188  60.0245636  67.0190985  41.3599889  60.6896240  65.6586791
  40.5180939  59.9247737  67.0273853  41.9678021  54.9569707  66.8527325
  41.2584961  54.6528704  67.7941341  43.1265289  54.3756674  66.6255238
  43.6115940  54.5173474  65.7510308  43.7582986  53.5165165  67.6443175
  43.4325830  53.8161141  68.6404348  43.3679076  52.0915806  67.4228529
  43.6635287  51.4004534  68.2121884  42.2815936  52.0970275  67.3334539
  43.9019190  51.5290956  66.1371611  43.2621112  51.8052192  64.9359572
  42.3735910  52.4365717  64.9410170  43.7308357  51.2986020  63.7618288
  43.1932933  51.4671769  62.8286990  44.8941410  50.5684713  63.7619578
  45.2744562  50.1643595  62.8237926  45.5792511  50.3454408  64.9359436
  46.5076557  49.7744326  64.9252372  45.0955587  50.8394481  66.1125125
  45.6532525  50.6893566  67.0369314  45.2642274  53.5720518  67.5991483
  45.8400794  53.9384702  66.5730562  45.8475838  53.1598743  68.7153020
  45.2752451  52.7158302  69.4191149  47.2875967  53.3160984  68.9827826
  47.6717322  54.1924032  68.4606437  47.5279750  53.5011377  70.5066936
  46.7115231  53.0064517  71.0328032  48.4693428  53.0109547  70.7549824
  47.5867567  54.8687981  70.9007784  47.7362517  54.9228560  71.8475248
  48.0313314  52.1044929  68.5189379  48.1589440  51.1608901  69.2721993
  48.4816734  52.0958563  67.2699533  48.2099128  52.8090359  66.6084245
  49.3820453  51.0691125  66.8313457  48.9676925  50.0915078  67.0777193
  49.5981485  51.1390804  65.3406765  49.3409369  52.1618376  65.0651603
  50.6638272  50.9768806  65.1790588  48.8077544  50.1748113  64.4889392
  47.8282815  50.6007408  64.2714127  49.5479773  49.9218123  63.1905873
  50.5274293  49.4954213  63.4072970  48.9771561  49.2257179  62.5760009
  49.6723922  50.8621107  62.6535023  48.5990980  48.8623395  65.2108189
  48.0529629  49.0395029  66.1373441  48.0272894  48.1850644  64.5764415
  49.5664431  48.4151705  65.4396906  50.6959825  51.2596797  67.5134713
  51.3446475  50.3061634  67.8856827  51.1156871  52.4999275  67.6103244
  50.5709705  53.2570442  67.2228227  52.3533800  52.8195203  68.2755616
  53.0778199  52.0317260  68.0690039  52.9449577  54.1724254  67.8041745
  53.1735990  54.0910862  66.7415333  52.1898857  54.9439665  67.9548091
  54.1420673  54.5240189  68.5276263  54.4748161  55.3651607  68.2061323
  52.0700917  52.9056057  69.7355787  51.0102338  53.3223397  70.1437513
  53.0668541  52.5752952  70.5436590  53.9416564  52.2198309  70.1852381
  52.9161855  52.7019531  71.9580485  52.0719626  52.0859817  72.2678322
  54.1610434  52.2653738  72.7515486  54.1573592  51.1856625  72.6021863
  55.0964770  52.6803696  72.3762587  54.0263029  52.5806743  74.2774519
  53.0036591  52.9123026  74.4572383  54.3371430  51.3719324  75.1729559
  55.3598430  51.0400013  74.9940559  54.2257293  51.6561137  76.2193444
  53.6467391  50.5607515  74.9418103  54.8413852  53.8237836  74.6869442
  54.4877344  54.6907715  74.1289455  54.7177121  54.0044291  75.7547332
  55.8957379  53.6561964  74.4670489  52.6255079  54.1683172  72.2316686
  51.7745725  54.5063576  73.0240919  53.3123067  55.0322727  71.5245523
  54.0567144  54.7278195  70.9135984  53.2189900  56.4137420  71.8344564
  53.1798119  56.5326962  72.9172371  54.3813185  57.1844498  71.3128703
  54.8031417  56.8049996  70.3821813  54.2178524  58.2585964  71.2257615
  55.6576318  56.9741408  72.5607880  56.5798298  57.7051347  71.9410324
  51.9076143  57.0491107  71.5822475  51.5804862  57.9874927  72.2982387
  51.1297685  56.5823059  70.6255206  51.4336972  55.8765182  69.9700892
  49.7949908  57.0933068  70.5042086  49.2207511  56.7693572  71.3721975
  49.8421413  58.1821367  70.4861607  49.1224399  56.6225122  69.2818598
  49.6915110  55.8781205  68.4935679  47.9581102  57.1792678  69.0200879
  47.1279334  58.0185980  69.9030183  47.7389615  58.8190578  70.3201623
  46.7288826  57.4073322  70.7124697  46.0471408  58.5333111  68.9841201
  46.3039082  59.5392239  68.6519920  45.0986900  58.5594138  69.5206469
  45.9841287  57.5755620  67.8318566  45.6542594  58.0988106  66.9343622
  45.3293720  56.7239485  68.0166473  47.4200993  57.0983534  67.6547795
  47.4869353  56.0582430  67.3357158  48.1647174  57.9837727  66.6596542
  47.8975928  57.9452921  65.4785874  49.0555132  58.8248971  67.1823566
  49.1389210  58.8725325  68.1877786  49.9325535  59.6518713  66.3810728
  49.9571618  59.2766921  65.3579725  49.4583629  61.0496932  66.3596438
  48.4008608  61.0578573  66.6236930  50.0219875  61.6151300  67.1017412
  49.6392420  61.6705069  65.0225623  50.6659329  62.0170568  64.9046224
  49.4073853  60.9494791  64.2386850  48.5182686  63.0782904  64.8842316
  49.4883225  64.4232394  65.5497132  50.3940662  64.5470847  64.9560889
  48.9048418  65.3433589  65.5176041  49.7586533  64.2008853  66.5819831
  51.3450479  59.6975225  66.9254529  51.5692210  59.8470912  68.1339352
  52.2938467  59.5945742  65.9774420  52.0095417  59.3237324  65.0468966
  53.7100331  59.8593191  66.2194361  53.8868498  60.4940467  67.0877424
  54.4747389  58.5499488  66.4079289  54.3148533  57.9073343  65.5421441
  55.5389894  58.7617326  66.5109753  54.1166564  58.0454041  67.3053200
  54.2337059  60.5997757  64.9940285  53.5744048  60.6704550  63.9745872
  55.4839062  61.0428088  65.0671026  55.9544084  61.0754106  65.9602231
  56.1987557  61.5331114  63.8880354  55.5001471  61.8918536  63.1321588
  57.1100971  62.7023210  64.3110185  57.8212846  62.3563630  65.0611021
  57.6520331  63.0742135  63.4414774  56.5022648  63.5042643  64.7299768
  57.0262978  60.3895116  63.2406109  57.6121491  59.5309007  63.9064213
  56.9814786  60.3574168  61.9075129  56.3006592  60.9074215  61.4034503
  57.8259769  59.4418915  61.1518272  58.6262971  59.0747414  61.7943127
  57.0190727  58.2333910  60.6291741  56.3037951  58.6457740  59.9175439
  57.7013314  57.5607704  60.1093621  56.2710675  57.4613928  61.7121982
  56.9111490  56.5385610  62.5266988  57.9829957  56.3842111  62.4025212
  56.2071415  55.8123995  63.4935797  56.7253670  55.0718434  64.1027767
  54.8388152  55.9952345  63.6380772  54.1466204  55.3069983  64.6029271
  54.7059867  54.7253185  65.1228863  54.1758087  56.9154146  62.8450570
  53.1045002  57.0804956  62.9597166  54.8954130  57.6367473  61.8890582
  54.3846268  58.3610919  61.2546117  58.5330298  60.2251068  60.0366303
  57.9259042  61.1273638  59.4170953  59.8255378  59.9118758  59.7744957
  60.3753971  59.3285352  60.3888798  60.4639290  60.4377079  58.5522452
  59.9438727  61.3064227  58.1485433  61.9691871  60.7297518  58.5645590
  62.3782196  60.4792132  57.5857730  62.2503988  62.1992090  58.8725727
  61.8420383  62.4503919  59.8514750  63.3267324  62.3712727  58.8734328
  61.7833775  62.8260379  58.1129161  62.7196974  59.7555414  59.4134792
  62.5714628  58.7469717  59.0275833  63.7819995  59.9989313  59.3941098
  62.3538469  59.8090945  60.4388505  60.3287019  59.5286450  57.3868799
  60.4759040  58.3353659  57.5430894  60.1468390  60.1105411  56.2029573
  59.8442150  61.0715542  56.1324447  60.2361353  59.3247140  54.9829372
  60.0980546  58.2731355  55.2343643  59.1580919  59.7313457  53.9195092
  59.2186776  58.8805485  53.2408542  58.1419293  59.8166977  54.3045140
  59.4932637  61.0018081  53.1406465  60.2046349  61.8387120  53.6163060
  58.8191853  61.2035787  52.0301849  59.0005335  62.0280409  51.4756809
  58.1230873  60.5331946  51.7366998  61.6538391  59.3856017  54.4448383
  62.5433524  59.9857523  55.0806956  61.9287228  58.7020700  53.3197813
  60.9951633  57.8881770  52.5472635  60.4212254  58.5215717  51.8708711
  60.3148168  57.3643780  53.2187262  61.8978309  56.9683043  51.8320799
  61.4370810  56.6600932  50.8935627  62.0879298  56.0897746  52.4486423
  63.1471459  57.7300094  51.5970934  63.0290549  58.3477347  50.7068299
  64.0270802  57.0965562  51.4850566  63.2960450  58.6033492  52.8076022
  63.9123559  58.2116936  53.6168394  63.8781972  59.9174643  52.3197380
  65.0909678  60.1031123  52.4117329  63.0449662  60.8123621  51.7952200
  62.0881301  60.5552990  51.5990502  63.5203859  62.0931813  51.3248071
  64.5580582  62.0133812  51.0008207  62.6891861  62.5451730  50.1625070
  61.7381647  62.2595736  50.6120517  62.6240367  63.5695573  49.7957747
  62.8724051  61.6820627  48.9762038  63.9026782  61.8955997  48.0918326
  63.9307474  60.9041213  47.2161274  64.6408886  60.9145451  46.3892721
  63.0068690  60.0224368  47.5540215  62.7766973  59.1749448  47.0551447
  62.3995282  60.4451651  48.7070037  61.6830281  59.7989558  49.2140958
  63.6486724  63.1226403  52.4271913  63.9922935  64.2900336  52.1755698
  63.4466572  62.6767587  53.6636845  63.0980762  61.7396486  53.8065659
  63.7142483  63.5045610  54.8407335  63.9969096  62.8244419  55.6442506
  64.5622891  64.1415558  54.5894095  62.5556286  64.3829366  55.3165021
  62.7023781  65.1809239  56.2359519  61.3713649  64.1094410  54.7479622
  61.3859035  63.4312076  53.9997059  60.0894689  64.7085954  55.1155157
  60.2294964  65.7665902  55.3371878  59.0476676  64.5735632  53.9345646
  59.0608352  63.5659824  53.5189846  58.0931073  64.7489458  54.4307053
  59.2305229  65.5891067  52.8109787  59.1937280  66.9459348  53.0943668
  58.9046808  67.2464140  54.1014732  59.5112403  67.9149129  52.1409606
  59.5013742  68.9674402  52.4241405  59.8217541  67.5586973  50.8748336
  60.0967313  68.6134812  49.9887635  60.0285816  69.4775354  50.4015173
  59.8556403  66.1904489  50.5400052  60.1276176  65.8884871  49.5285963
  59.5399390  65.2142671  51.5058140  59.5369513  64.1589002  51.2332485
  59.4619039  64.0600466  56.3494880  59.3666056  62.8382749  56.4499777
  58.9238721  64.9076123  57.2330830  58.8829791  65.9007776  57.0540588
  58.3602756  64.4032254  58.4921827  58.7152899  63.3955388  58.7081264
  58.6208028  65.2842443  59.7119762  57.7642484  65.9356249  59.8855192
  58.8360295  64.3939084  60.9290914  59.6927632  63.7425177  60.7564693
  59.0228892  65.0145542  61.8054377  57.9466617  63.7866552  61.0975255
  59.7836432  66.2482009  59.4942086  59.5624722  66.9001021  58.6490990
  59.9283626  66.8520225  60.3900632  60.6918507  65.6819743  59.2876956
  56.8401401  64.2674323  58.4370978  56.1195192  65.1743107  57.9394582
  56.3434462  63.1639925  58.9817938  56.9306229  62.4727010  59.4261349
  54.8962515  62.8908517  58.8782916  54.3612018  63.8031124  58.6144707
  54.6405026  61.8468793  57.7985064  55.3999173  61.0701443  57.8883475
  53.6507811  61.3982232  57.8837063  54.7461279  62.3903368  56.4074074
  53.9387104  63.4071433  55.9396868  53.2117717  63.8560748  56.4783150
  54.2690459  63.6913060  54.6906672  53.7353783  64.4632359  54.1362108
  55.2721819  62.9078939  54.3379097  55.5935129  62.0895208  55.3962885
  56.4081454  61.3714473  55.3022374  54.3808386  62.4539512  60.2120433
  54.6805453  61.3496885  60.6653696  53.5505251  63.3108028  60.7995114
  53.4333200  64.2527613  60.4544370  52.8392951  62.9265591  61.9968375
  53.4641185  62.2551037  62.5857710  52.4814699  64.1462849  62.8587889
  51.4654493  64.4261897  62.5804823  52.4922785  63.8003408  63.8923777
  53.4001082  65.3591726  62.7183813  54.4033261  65.0043442  62.4822639
  53.0181379  65.9484729  61.8847610  53.4498602  66.2272744  63.9747531
  53.5289317  65.6524263  65.1104549  53.4279552  67.4929162  63.7976096
  51.5872469  62.1466358  61.5104263  50.5749786  62.7339512  61.0927010
  51.6841740  60.8290877  61.5086749  52.5365636  60.3619542  61.7831154
  50.6508782  60.0537145  60.9245925  49.8965260  60.7066218  60.4855435
  51.1396980  59.0964727  59.8608799  51.4232910  59.6631971  58.9740322
  52.3148988  58.3318745  60.3569620  52.0319375  57.7644945  61.2435918
  52.6567958  57.6464809  59.5814355  53.1185097  59.0234671  60.6099635
  50.0582654  58.2137014  59.4940496  50.3597804  57.6018526  58.8185275
  49.7929492  59.3825292  61.9661980  50.2833390  58.9305167  62.9947423
  48.4919980  59.3517775  61.6678385  48.2218323  59.6570490  60.7437610
  47.4559274  58.8769069  62.5656695  47.8144083  58.8035804  63.5924187
  46.3441846  59.8939511  62.5150233  46.8556108  60.8458526  62.6579428
  45.9578214  59.8388858  61.4972850  45.1967538  59.7856285  63.4965592
  44.7784003  58.7814592  63.4278192  45.6526396  60.0471326  64.9208579
  46.0707177  61.0513538  64.9904935  44.8019703  59.9606001  65.5968568
  46.4130099  59.3174625  65.1992806  44.1583814  60.8142159  63.0729525
  43.8224423  60.5958990  62.0592553  43.3079072  60.7742309  63.7535377
  44.5999595  61.8103344  63.1022065  46.9158121  57.5323142  62.0967527
  46.4533191  57.4141128  60.9810374  46.9748361  56.5434924  62.9631726
  47.3329800  56.7272163  63.8894975  46.5827533  55.1788234  62.6317488
  46.8339638  54.9891187  61.5881949  47.4840424  54.2531743  63.5450706
  46.8764509  53.4656616  63.9908916  48.5188241  53.6569695  62.7200186
  49.1271562  54.4439095  62.2741968  49.1496906  53.0151167  63.3349427
  48.0577798  53.0635378  61.9304760  48.1853448  55.0390059  64.5461254
  48.7250352  54.4587529  65.0880119  45.0661428  54.9892493  62.8883050
  44.6392728  55.1515441  64.0008190  44.2982581  54.7026892  61.8496109
  44.7214729  54.6285307  60.9355600  42.8700671  54.5992471  61.9486482
  42.5475943  54.4528579  62.9795122  42.1998698  55.8925480  61.3962901
  41.1184317  55.7567447  61.3841090  42.5491789  57.0773698  62.2697650
  43.6305001  57.2140957  62.2820698  42.0745134  57.9746490  61.8726717
  42.1945540  56.8982245  63.2847772  42.5943830  56.2063406  59.9724068
  42.3010479  55.3812652  59.3233250  42.0932523  57.1185487  59.6486105
  43.6739470  56.3459677  59.9163120  42.3693645  53.3240759  61.2450820
  43.0524639  52.8485523  60.3499046  41.2855840  52.7163158  61.7586512
  40.7297595  53.1883809  62.4574452  40.8785927  51.3757581  61.3382702
  41.7564903  50.7410811  61.2175226  39.9977153  50.7721858  62.3504162
  39.6322258  51.6612865  62.8642416  39.1548922  50.2249144  61.9282276
  40.7144788  49.9075321  63.3117575  41.4298456  48.7952324  62.8760309
  41.5368325  48.6155043  61.8062874  42.0045171  47.9185101  63.7890275
  42.6022367  47.0773102  63.4380064  41.8494225  48.1438897  65.1688418
  42.3888109  47.2675875  66.0868312  42.8525368  46.5336029  65.6771672
  41.1150877  49.2281814  65.6196934  40.9814998  49.4051948  66.6868958
  40.5459241  50.0947519  64.6954005  39.9528474  50.9430932  65.0369810
  40.1297462  51.3707668  60.0260755  40.4883991  50.6377460  59.1504629
  39.0851367  52.1673358  59.8491012  38.5227808  52.4960013  60.6210041
  38.6237003  52.4633371  58.4612572  39.2722199  51.8814916  57.8062936
  37.1699465  52.0095669  58.2430773  37.0783614  50.9514654  58.4882967
  36.5074300  52.5895610  58.8855559  36.7826548  52.2283338  56.7843894
  36.8735548  53.2863490  56.5385398  37.4444835  51.6482521  56.1412798
  35.3416348  51.7785406  56.5681202  35.2500480  50.7204397  56.8133411
  34.6791192  52.3585364  57.2105978  34.9543445  51.9973060  55.1094311
  35.0452451  53.0553206  54.8635803  35.6161716  51.4172220  54.4663241
  33.5652953  51.5637366  54.9009629  32.9518217  52.1014310  55.4964749
  33.3087946  51.7086224  53.9348804  33.4809426  50.5832788  55.1283091
  38.8444552  53.9316366  58.0917699  39.4538876  54.7412607  58.8481825
  38.3444034  54.2939259  56.9091594  38.0389499  53.5881726  56.2544001
  38.2732285  55.7146022  56.4945715  37.5798424  56.2260121  57.1622352
  39.6389091  56.3656115  56.6221543  40.3421205  55.8701870  55.9527155
  39.5656908  57.4199983  56.3556813  39.9907575  56.2746845  57.6497895
  37.7512852  55.8854761  55.0499822  37.9708158  55.0267740  54.1517606
  37.0332518  56.9743529  54.8521456  37.0437517  57.7309105  55.5211821
  36.1560004  57.0820482  53.7112282  36.0799337  56.1173199  53.2096184
  34.7286076  57.5225187  54.1645203  34.7556595  58.6017770  54.3147497
  34.0435159  57.2866145  53.3502116  33.9757587  56.8147660  55.6853982
  32.8343526  57.4925920  55.6038973  36.7171005  58.0535667  52.6631779
  37.6271572  58.8359711  52.9399759  36.1146996  58.0084140  51.4749458
  35.4770406  57.2484039  51.2855389  36.3468938  59.0079609  50.4139600
  35.8159427  58.7183048  49.5071582  35.8391562  60.3775605  50.8604489
  36.4233423  60.6140398  51.7497765  35.9900271  61.1537991  50.1102544
  34.3948949  60.3485962  51.2326213  34.0795223  60.1927341  52.3869147
  33.5075964  60.3930145  50.2411363  32.5196858  60.3755101  50.4504830
  33.8264166  60.4440149  49.2841340  37.7884391  59.1654903  50.0338103
  38.2509007  60.2805453  49.8308676  38.5168164  58.0587874  49.8944508
  38.1334458  57.1653001  50.1679592  39.8883173  58.0968772  49.3694496
  40.1309450  59.1256115  49.1031100  40.9313477  57.5921563  50.3857756
  40.5142983  56.6199432  50.6483984  41.8958876  57.4532561  49.8974423
  41.1183966  58.4280998  51.6575225  40.1304891  58.6817030  52.0420028
  41.9115318  57.6810772  52.7386815  42.8997899  57.4275286  52.3550698
  42.0157665  58.3167370  53.6179837  41.3830692  56.7677268  53.0118460
  41.7403558  59.7742536  51.3076688  41.0861578  60.3094533  50.6194205
  41.8700571  60.3622717  52.2162466  42.7104411  59.6154579  50.8366938
  40.0085009  57.2412283  48.1079941  39.3103974  56.2362671  47.9090758
  40.9903781  57.5979721  47.2991919  41.4581795  58.4822052  47.4384504
  41.4826180  56.7089084  46.2374901  40.7519096  55.9151569  46.0821744
  41.7042232  57.4300673  44.9179932  42.3783599  58.2736783  45.0661807
  42.1630602  56.7144739  44.2357215  40.4401431  57.9319455  44.3034221
  39.3803605  57.8565146  44.8939312  40.5542529  58.4838846  43.1175792
  39.7341034  58.8426785  42.6499026  41.4616512  58.5471021  42.6785657
  42.8488951  56.1782557  46.6393366  43.6569125  56.8853047  47.2695219
  43.1417425  54.9857234  46.1475114  42.4065819  54.4314609  45.7322629
  44.4650987  54.4365653  46.1905190  45.1030325  55.0454982  46.8310972
  44.4213429  53.0600667  46.7369638  44.0393080  52.4697821  45.9040696
  45.4124308  52.6996837  47.0125883  43.4983972  52.9258571  47.9080527
  43.0131972  53.8854929  48.0863247  42.4136408  51.8377724  47.6343479
  42.8980927  50.8776941  47.4564297  41.7536626  51.7566107  48.4980274
  41.8304524  52.1179696  46.7571471  44.3492791  52.6583895  49.1430470
  45.0376389  53.4892854  49.2975536  43.7030950  52.5556590  50.0148233
  44.9167796  51.7385780  49.0016647  45.0540185  54.4173582  44.7628546
  44.3372483  54.3139314  43.7587225  46.3356153  54.7288780  44.7001328
  46.8066552  55.0383114  45.5382687  47.0814998  54.7128074  43.4601150
  46.4985162  54.2378345  42.6710460  47.4597515  56.1300875  43.0308216
  48.2165775  56.0705723  42.2486626  46.2497861  56.8740643  42.5063110
  45.4926548  56.9343923  43.2881124  46.5429900  57.8802506  42.2067760
  45.8414435  56.3438854  41.6459239  48.0798151  56.9212299  44.1789718
  47.5655878  57.8798230  44.2480384  47.9262243  56.3598845  45.1006012
  49.5670015  57.1581561  43.9722754  49.7213621  57.7198899  43.0510112
  49.9655887  57.7247619  44.8138129  50.0819985  56.1999506  43.9035717
  48.2941126  53.8376176  43.6478437  48.9578221  53.9072395  44.6968511
  48.5886521  53.0217904  42.6403729  48.0270328  53.0088907  41.8010180
  49.7446269  52.1125544  42.7211343  50.0138691  51.7867990  41.7163999
  50.5855929  52.6426272  43.1682342  49.4221032  50.8874040  43.5703451
  48.2569693  50.6656777  43.9512170  50.4563693  50.1098298  43.8877374
  51.3759575  50.3562299  43.5504779  50.2964589  48.8568560  44.5841648
  49.2578705  48.7279015  44.8888021  50.6880637  47.6848676  43.6564785
  51.3595006  48.0887496  42.8987509  51.2252991  46.9600121  44.2680851
  49.4876513  46.9881767  42.9645531  49.4222739  45.9800224  43.3737616
  48.5923447  47.5481449  43.2346714  49.6027067  46.9124779  41.4245934
  48.6929837  46.4513919  41.0400122  49.6838709  47.9296591  41.0413779
  50.7623166  46.1356255  40.9512877  51.5062739  46.6575270  40.5105546
  50.9043880  44.8115282  41.0868501  52.0156823  44.2201213  40.6841248
  52.7568177  44.7702493  40.2740302  52.1186142  43.2207989  40.7883333
  49.9551577  44.0786671  41.6456626  49.1091834  44.5203708  41.9763064
  50.0808724  43.0808817  41.7390379  51.0611343  48.8537163  45.9153683
  52.0140826  49.6223641  46.1301012  50.5976003  48.0245406  46.8299556
  50.1661992  46.6813008  46.4385912  50.9973244  46.1472040  45.9780787
  49.3421140  46.7515089  45.7286241  49.7490238  46.0809259  47.7342442
  50.0165431  45.0242865  47.7274917  48.6678021  46.1808453  47.8295178
  50.4554234  46.8190534  48.8372222  51.1894433  46.1312606  49.2570493
  49.7979033  47.1761418  49.6298475  51.1667547  47.9991086  48.1793412
  50.9716883  48.9585462  48.6584309  52.6743855  47.7483501  48.1375162
  53.1353138  46.8556809  47.4432931  53.4227059  48.5642628  48.8890726
  52.9611791  49.2801256  49.4318736  54.8622480  48.4896629  48.9391066
  55.2159042  47.5457170  48.5243867  55.4327868  49.6310496  48.1071042
  55.5301551  49.2966153  47.0742575  54.7443271  50.4749223  48.1518481
  56.6890693  50.0266450  48.5906740  57.0275932  50.7453248  48.0516928
  55.3566709  48.5815035  50.4188776  54.8516275  49.3888590  51.2072996
  56.3683059  47.7789740  50.7078259  56.7184148  47.1796168  49.9741407
  56.9991596  47.7118670  52.0076294  56.3051001  48.0861834  52.7601371
  57.3778265  46.2694559  52.3646131  56.4769645  45.7182962  52.6343739
  58.0345928  45.6085810  51.1963891  58.9358465  46.1589483  50.9263201
  58.2999196  44.5846112  51.4594228  57.3477736  45.5994225  50.3500463
  58.2939334  46.2614586  53.4656864  58.5256668  45.3554423  53.6825607
  58.2607167  48.5440583  52.0344879  59.0372914  48.4514767  52.9794162
  58.4900540  49.3333861  50.9974343  57.8425570  49.4214724  50.2273124
  59.6950845  50.1274920  50.9725313  60.5688473  49.4862880  51.0887004
  59.8041807  50.8643671  49.6387610  60.0176425  50.1163398  48.8752242
  58.8323946  51.3169812  49.4416006  60.8805818  51.9409923  49.6090307
  60.7830272  52.5253334  50.5239784  61.8466063  51.4361662  49.6022140
  60.7841637  52.8572149  48.4151615  59.8228464  52.7286886  47.6425975
  61.6756081  53.7097730  48.2506909  59.6659542  51.1611600  52.0597097
  58.7570812  51.9533509  52.1345060  60.6875412  51.1642350  52.8934006
  61.4076444  50.4587407  52.8315252  60.8150942  52.1820568  53.9012488
  61.6568405  51.9806101  54.5638056  61.0644500  53.5011557  53.1858219
  61.7503454  53.3639713  52.3498631  60.1131310  53.8833212  52.8156306
  61.6480451  54.5701178  54.0452747  61.6043057  55.9021490  53.6982320
  61.1772296  56.2617444  52.8565688  62.2010213  56.6164724  54.6291641
  62.2667449  57.7011014  54.5433767  62.6384595  55.7938755  55.5636426
  62.3071635  54.5092116  55.2210312  62.5876679  53.6817653  55.8727604
  59.5521581  52.2761941  54.6976348  59.1524019  53.3604010  55.0795867
  58.9023689  51.1597623  54.9684930  59.1682555  50.2479103  54.6250841
  57.6646971  51.2774472  55.7321341  57.1716283  52.2027990  55.4342979
  56.7183459  50.1483379  55.5298506  56.3843659  50.1085166  54.4930426
  57.1879692  49.2014893  55.7963683  55.6040502  50.3778601  56.3766349
  54.9699395  49.6648197  56.2713882  57.8905470  51.4479439  57.2397222
  58.7081375  50.7475446  57.8492561  57.1321778  52.3749974  57.8071478
  56.3996229  52.7921575  57.2508744  57.2509965  52.7723576  59.1978329
  58.2827880  53.0148954  59.4521575  56.3997144  54.0107843  59.3947185
  55.4102082  53.7669626  59.0080305  56.3150002  54.3282817  60.4340062
  56.8630607  55.1554096  58.6501533  58.1185384  55.4398181  58.3674798
  58.8704986  54.7134506  58.6757748  58.1926655  56.6312561  57.7251592
  59.0480867  57.0856365  57.4389907  56.9350519  57.1343940  57.5611639
  56.5019080  58.3254920  56.9557089  57.2533706  58.9631291  56.4900678
  55.1720129  58.6135663  56.9855950  54.8028606  59.5370629  56.5395227
  54.2796585  57.7564884  57.5714322  53.2136322  57.9830192  57.5906978
  54.7115770  56.5548391  58.1677127  53.9609224  55.9057192  58.6185584
  56.0723416  56.2490572  58.1565752  56.7125138  51.7467230  60.1783339
  56.8986039  51.8637396  61.3866127  55.9710563  50.7930108  59.6493020
  55.8831711  50.7448820  58.6442850  55.3067734  49.7813302  60.4462422
  55.5423635  49.9122022  61.5023998  53.8023100  49.9123114  60.2639570
  53.5906831  49.8685203  59.1955958  53.2513022  49.1231978  60.7756115
  53.2549885  51.1928639  60.7504550  53.2801084  51.5022396  62.1038805
  53.6758576  50.7693332  62.8069670  52.8232572  52.6912508  62.5534287
  52.8815618  52.9568760  63.6089591  52.2801160  53.5682750  61.6571279
  51.9196246  54.5393480  61.9964850  52.1875302  53.2245557  60.3197297
  51.7190864  53.9111759  59.6145962  52.6761613  52.0409285  59.8872125
  52.6006701  51.7724714  58.8334896  55.7233632  48.3844329  59.9593934
  55.0826491  47.8230692  59.0453571  56.7900051  47.8332953  60.5668466
  57.0229151  48.0096942  62.0154743  56.0671794  47.9690721  62.5379868
  57.4888603  48.9801588  62.1863328  57.9288789  46.8669707  62.3796260
  57.3755855  46.1772290  63.0169814  58.7821138  47.2640476  62.9295545
  58.3762086  46.1974629  61.0984513  58.3757060  45.1246152  61.2910561
  59.3493866  46.4955998  60.7084018  57.2830474  46.5442609  60.0912495
  57.6640154  46.6487466  59.0753536  56.1291929  45.5289010  60.1030487
  55.4082109  45.3893785  61.1147341  55.9182084  44.8908508  58.9575569
  56.5334453  45.0531292  58.1731790  54.8218143  43.9569402  58.7895304
  55.2240311  42.9942029  58.4741614  54.3084732  43.8405822  59.7440151
  53.8326305  44.4389606  57.7550596  53.1066524  43.6236054  57.1753650
  53.8111500  45.7564824  57.5338899  54.4869440  46.3456925  57.9988987
  52.8238124  46.3933687  56.6442471  52.1150355  45.6491202  56.2811649
  52.0577564  47.4662218  57.3966495  52.8743886  47.9872778  57.8963611
  51.5044839  48.1703547  56.7752106  51.1436471  46.8807959  58.4179793
  51.6341087  46.5106106  59.6558590  52.6690509  46.7404295  59.9091919
  50.8337181  45.8604781  60.5621276  51.2322029  45.5564604  61.5300557
  49.5486273  45.5205878  60.2101785  48.7827188  44.9271780  61.1526620
  49.2409293  44.8076785  61.9877444  49.0321797  45.8447613  58.9792011
  48.0111487  45.5773618  58.7069996  49.8263712  46.5171804  58.0857340
  49.4388938  46.7778133  57.1008320  53.4271790  47.0547209  55.4042322
  54.5570891  47.4978405  55.4193732  52.6638130  47.0746682  54.3334319
  51.8123107  46.5322170  54.3615372  52.9812405  47.8018707  53.1075435
  53.9991655  48.1903879  53.1388865  52.8578248  46.8693858  51.9304779
  51.8412858  46.4792038  51.8804126  53.0842489  47.4108891  51.0119974
  53.5585304  46.0425266  52.0463003  52.0437244  48.9896130  52.9406424
  50.8757972  48.9449606  53.3031024  52.5194756  49.9991287  52.2632601
  53.4496745  49.9536595  51.8724123  51.7666064  51.2399670  52.1145070
  50.8403051  51.1893765  52.6867882  52.6063427  52.4226994  52.6394108
  52.0432140  53.3389003  52.4617562  52.7876859  52.3097764  53.7082714
  53.9850050  52.6165531  51.9760610  55.1885366  52.2660383  52.4858993
  55.1987964  51.8236108  53.4820180  56.1690187  52.5603387  51.5925756
  57.1593382  52.4419080  51.7517640  55.6030114  53.1191626  50.4747266
  56.1871484  53.5914028  49.3148171  57.2609909  53.4561216  49.1857433
  55.3826263  54.1979484  48.4029494  55.8209453  54.6470193  47.5117077
  54.0290528  54.2586093  48.5778579  53.3811156  54.6679255  47.8027856
  53.4472923  53.8087491  49.7278433  52.3617795  53.8677092  49.8071312
  54.2496460  53.2298033  50.7091915  51.3335550  51.4854851  50.6743301
  52.0425431  51.1560663  49.7106683  50.1773908  52.0980763  50.5474830
  49.5917136  52.2366161  51.3585862  49.6783428  52.5445884  49.2477123
  50.4689448  52.5348649  48.4974102  48.6100676  51.5806939  48.8300694
  47.6405926  52.0008089  49.0978787  48.6534569  51.3155864  47.3093274
  49.6225331  50.8950021  47.0408132  47.8654899  50.6122705  47.0399691
  48.5030185  52.2521016  46.7722910  48.8534475  50.3452512  49.5451153
  48.1862534  49.6987671  49.3032254  49.1916281  53.9265969  49.3918734
  48.5471180  54.2448721  50.3959260  49.6113839  54.8025835  48.4744234
  50.1572101  54.4965564  47.6816306  49.3006973  56.2457697  48.5981788
  49.6493461  56.5448662  49.5866546  49.9829430  57.1413761  47.5427717
  50.1182680  56.5590431  46.6313582  49.1462163  58.3812922  47.2347168
  49.0108445  58.9644119  48.1456212  49.6572091  58.9886833  46.4876807
  48.1725581  58.0769872  46.8506728  51.2994676  57.6418403  48.0562817
  51.9494274  56.7951934  48.2772874  51.7688333  58.2720904  47.3009141
  51.1387338  58.2226347  48.9645457  47.8170008  56.4199506  48.4644788
  47.1923676  55.8444993  47.5611172  47.2762116  57.1978182  49.3865260
  47.9384133  57.6548654  49.9970144  45.8610423  57.5037211  49.5497592
  45.1569738  56.9030835  48.9738936  45.5566610  57.3264936  51.0228687
  46.2477559  57.9290687  51.6122676  44.5341683  57.6460204  51.2241431
  45.6687010  56.2766696  51.2938224  45.6563114  58.9335449  49.1914307
  46.3437840  59.6981139  49.7642629  44.6916275  59.2938483  48.3343261
  44.2690244  58.6342648  47.6967874  44.3305078  60.7084041  48.2106429
  44.5975675  61.2272913  49.1312592  45.0485759  61.3737756  47.0540151
  44.9150076  62.4503627  47.1599348  46.1073077  61.1293156  47.1401919
  44.5366421  60.9320429  45.6950406  43.9216464  60.0841479  45.9966287
  43.9370212  61.6223173  45.1016789  45.6651302  60.4277495  44.8476866
  46.0803628  59.2790675  44.9933221  46.3281176  61.3464129  44.1403464
  47.0987036  61.0660336  43.5506973  46.0558587  62.3172963  44.1983282
  42.8491878  61.0344525  48.1206189  42.0627222  60.2238802  47.6925040
  42.4781215  62.2411647  48.5153526  43.2135082  62.8745706  48.7948214
  41.0816661  62.7142354  48.5884710  40.5479571  62.1510535  49.3540296
  41.0161283  64.2270656  48.9476362  41.7029226  64.4201591  49.7717283
  41.3227163  64.8061430  48.0765604  39.3857738  64.9126653  49.4694134
  39.8124727  66.1582636  49.6573258  40.3884351  62.4972100  47.2573171
  40.7473169  63.1387665  46.2340424  39.4260158  61.6142031  47.2798989
  39.3793336  60.9887699  48.0715765  38.4802678  61.4205649  46.1910138
  38.9754432  60.7768663  45.4639976  37.2154278  60.6923405  46.7176542
  37.5069238  59.7586610  47.1986655  36.7037126  61.3282893  47.4400231
  36.2791290  60.3924773  45.5518708  35.9868153  61.3257757  45.0706145
  36.7900242  59.7561455  44.8292575  35.0359765  59.6767417  46.0694802
  35.3274715  58.7430630  46.5504933  34.5242614  60.3126920  46.7918474
  34.0996791  59.3768769  44.9036955  33.8073656  60.3101746  44.4224380
  34.6105743  58.7405436  44.1810856  32.9013611  58.6869568  45.4026378
  32.4275720  59.2766059  46.0719192  32.2812561  58.4883564  44.6305448
  33.1719677  57.8219085  45.8482415  38.0871505  62.7290267  45.4589704
  38.0170549  62.7605235  44.2367247  37.8444376  63.7960928  46.2106893
  38.0234859  63.7490301  47.2035771  37.3490189  65.0595690  45.6521732
  36.6702522  64.9247727  44.8100301  36.6593944  65.9773814  46.7442365
  37.4155954  66.6025849  47.2189796  35.6101512  66.8612223  46.0887435
  34.8533056  66.2366849  45.6141508  35.1398417  67.4896956  46.8450047
  36.0840378  67.4918083  45.3364856  36.0866459  65.2033413  47.9753649
  36.8239413  64.4394783  48.2223661  36.0284128  65.9275865  48.7878779
  34.7195030  64.5471002  47.7790036  34.7770691  63.8223415  46.9669009
  34.4239913  64.0400658  48.6975286  33.9815407  65.3104501  47.5324102
  38.5233841  65.8898433  45.0598202  38.6263739  66.1451644  43.8445806
  39.4161263  66.2795691  45.9599197  39.3467229  65.9266394  46.9037010
  40.4318296  67.2873307  45.6708795  40.1365940  67.8855135  44.8088398
  40.5875176  68.2037346  46.8648536  41.3214536  68.9900230  46.6882528
  39.6409806  68.6520991  47.1667429  41.1724001  67.2908264  48.2742606
  41.2016344  68.3264058  49.1082984  41.7928683  66.7244719  45.2370608
  42.6594416  67.4905245  44.7586981  41.9807003  65.4075927  45.3693275
  41.2830531  64.8654753  45.8587112  43.1939417  64.7206627  44.8979280
  42.9950867  63.6489619  44.8942736  43.5493358  65.1542635  43.4827449
  43.7600722  66.2236436  43.4719540  44.4297387  64.6075472  43.1449694
  42.7130472  64.9425328  42.8164936  44.3530754  64.9598820  45.8289368
  45.4537821  64.4089217  45.6354027  44.1350442  65.8210544  46.8228696
  43.2463374  66.2941567  46.9033290  45.2035261  66.1955533  47.7424037
  46.0989535  66.4214206  47.1633588  44.8425384  67.4451589  48.6131412
  45.7776314  67.8768179  48.9700317  44.3366092  68.1607999  47.9650721
  44.0065644  67.1383912  49.7251655  43.8214769  67.9414794  50.2174986
  45.5966056  65.0023582  48.6034843  44.7480124  64.3617974  49.2303985
  46.8850472  64.6816914  48.5914401  47.5098689  65.2133370  48.0023304
  47.4065410  63.4696349  49.2489819  46.7940089  62.6191767  48.9496087
  48.9275354  63.1640665  48.8645679  48.8890833  62.5295519  47.9791234
  49.5089817  64.0593532  48.6443818  49.6999872  62.3931568  49.9175381
  50.5036769  63.0006554  50.8640018  50.7101372  63.9891110  50.8847246
  50.9483733  62.0957504  51.7192988  51.5691741  62.3854465  52.5671087
  50.5073658  60.9154974  51.3342638  49.7169177  61.0743807  50.2178199
  49.2463102  60.2068020  49.7552868  47.1624370  63.4745423  50.7888411
  47.7898334  64.2121378  51.5528807  46.2762301  62.5997452  51.2061041
  45.9143667  61.9169826  50.5557278  45.7932765  62.5638747  52.5963034
  45.8489982  63.5545758  53.0474193  44.3357095  62.0443859  52.6703571
  44.3178084  61.0432761  52.2395915  43.7809441  61.9929673  54.1290132
  43.7981010  62.9938618  54.5603094  42.7564129  61.6211336  54.1157381
  44.4004998  61.3279627  54.7306932  43.4337451  62.9164696  51.8178571
  43.9520960  63.1087420  50.8784720  42.5212656  62.3539626  51.6202048
  43.0801867  64.2386139  52.4812279  43.9921930  64.8019229  52.6787815
  42.4332545  64.8156799  51.8204913  42.5613642  64.0471431  53.4205160
  46.6124235  61.6447507  53.5136377  46.5642022  61.7805126  54.7076760
  47.2936338  60.6715362  52.9367955  47.3447998  60.6089922  51.9300335
  47.9929295  59.6572714  53.7330023  48.9246886  60.1015938  54.0830050
  47.3604273  59.4198124  54.5883698  48.3041824  58.3927955  52.9905392
  48.6854409  58.4161273  51.8214889  48.1453882  57.2728613  53.6858663
  47.8168876  57.3257932  54.6394830  48.4399932  55.9346189  53.1165717
  48.3213516  55.9392785  52.0330582  49.8776210  55.5816100  53.4450850
  49.9782094  55.6230118  54.5296435  50.1545257  54.5880068  53.0926982
  50.9021866  56.5443434  52.8773624  51.4964492  56.4842119  51.6545336
  51.2060405  55.6605324  51.0023720  52.3723191  57.5263830  51.5088587
  52.9568808  57.6984309  50.7033857  52.3585775  58.2736495  52.6545716
  53.0673383  59.4115874  52.9835114  53.7482997  59.8293258  52.2419693
  52.8678962  59.9491518  54.2337728  53.3652603  60.8797838  54.5069997
  52.0588414  59.3421286  55.1432854  51.9607318  59.7345873  56.1554367
  51.3337514  58.2055543  54.8117974  50.6498793  57.7981502  55.5564058
  51.4862249  57.6586046  53.5478659  47.5293626  54.8674719  53.6788519
  47.2257819  54.8935648  54.8671208  47.1752597  53.8982477  52.8368842
  47.3178331  54.0332882  51.8461591  46.5361243  52.6818205  53.2763647
  46.0439045  52.8168502  54.2394773  45.4874360  52.3266910  52.2423140
  45.3747825  53.1888250  51.5849456  45.8692873  51.4813729  51.6698395
  44.1464061  51.9677845  52.8351841  44.3082109  51.5685045  53.8364311
  43.5443132  52.8741614  52.8989574  43.4218284  50.9392350  51.9931020
  42.3924915  51.2714009  51.8580824  43.9150680  50.8827066  51.0227316
  43.4294240  49.5621329  52.6477210  44.4035617  49.3995728  53.1089482
  42.6557054  49.5354260  53.4150185  43.1707894  48.4927282  51.6454204
  43.8878655  48.5170263  50.9345679  43.1810075  47.5925545  52.1033319
  42.2679929  48.6429331  51.2182250  47.5712539  51.5487481  53.4725371
  48.4386004  51.3214215  52.6361576  47.5372095  50.9401868  54.6487135
  46.7935226  51.1617823  55.2951844  48.5138271  49.9637853  55.0431145
  49.3407518  49.9765850  54.3330928  49.0527234  50.2423889  56.4088652
  48.2540926  50.3175843  57.1468582  49.7385186  49.4454315  56.6963436
  49.7966157  51.4713005  56.4809032  49.1916760  52.6565132  56.2001135
  48.1726596  52.6554863  55.8131969  49.8459777  53.8390481  56.3976215
  49.3329126  54.7890628  56.2481662  51.1443158  53.8238689  56.7827250
  51.6838211  54.7579151  56.9395419  51.7773088  52.6293716  56.9745270
  52.8378343  52.6136412  57.2258005  51.0892473  51.4611887  56.8530932
  51.5855481  50.5125520  57.0577240  47.8930850  48.6014383  55.0676479
  46.8269741  48.4102160  55.5955367  48.6392249  47.6733099  54.5823337
  49.6066393  47.8866475  54.3856210  48.1475821  46.3832398  54.2322601
  47.1569422  46.2499255  54.6669542  48.0071481  46.4643900  52.7122627
  47.9458942  45.4587780  52.2962186  46.7273877  47.2423876  52.3624296
  46.7881110  48.2483212  52.7777727  46.6229971  47.3028407  51.2791258
  45.8627830  46.7281616  52.7821091  49.0968237  47.2418819  52.1956309
  49.0223920  47.3019931  51.2404101  49.1503804  45.3459587  54.7873541
  50.3395861  45.6143227  54.8540751  48.6463383  44.2176331  55.3120575
  47.6489634  44.0849333  55.3999984  49.5257033  43.1991726  55.8527288
  50.3014358  43.7159244  56.4178004  48.7834297  42.2806253  56.7844898
  48.0091066  41.7492248  56.2311931  49.4789288  41.5612615  57.2168055
  48.3236393  42.8648667  57.5815808  50.2157189  42.4063704  54.7595225
  49.7312951  42.3364129  53.6327814  51.3962693  41.8856168  55.0720067
  51.7960525  42.1104103  55.9718627  52.1548596  40.9799937  54.1704588
  51.7530510  41.0262823  53.1582798  53.6601644  41.3715925  54.1262589
  54.1208175  40.8833981  53.2674427  53.8382267  42.8946065  54.0062704
  53.3782000  43.3834942  54.8650276  54.9008763  43.1355749  53.9778233
  53.3619699  43.2456127  53.0908063  54.3224665  40.9136754  55.3132466
  55.2497744  41.1594584  55.2773132  52.0768024  39.5234131  54.6438742
  52.2460852  38.5764197  53.8716717  51.7432915  39.3724027  55.9201408
  51.6741395  40.1888688  56.5106493  51.4549921  38.0584751  56.5115448
  51.7036619  37.2711041  55.7999906  52.2854118  37.8475610  57.7874537
  52.0125376  38.6538778  58.4682562  51.9657606  36.8940191  58.2077880
  53.7988178  37.8359552  57.5940747  54.0417043  37.1839043  56.7550654
  54.1336244  38.8497483  57.3744609  54.5009876  37.3297280  58.8513525
  53.8108439  36.6813803  59.3912098  55.3757296  36.7550608  58.5469129
  54.9346303  38.4706584  59.7546669  54.2535446  39.3083440  59.6046483
  54.8737003  38.1343844  60.7897063  56.3300231  38.9048012  59.4545171
  56.3865989  39.2168436  58.4955967  56.5867532  39.6626143  60.0708847
  56.9613451  38.1288439  59.5938791  49.9650171  38.0081740  56.8713075
  49.3907318  39.0093682  57.3261532  49.3572880  36.8415189  56.6907352
  49.8723339  36.0502383  56.3319846  47.9135610  36.6941848  56.8999864
  47.4146547  37.6476414  56.7264580  47.3382321  35.6570676  55.9304311
  47.1282046  34.7607372  56.5140230  46.4041709  36.0670511  55.5463175
  48.2608403  35.2983913  54.7559578  49.0775327  34.7019896  55.1626757
  47.6763478  34.6902708  54.0655521  48.8342889  36.5083001  54.0106576
  48.7396942  37.3847308  54.6517661  49.8883700  36.3198800  53.8069168
  48.1044569  36.7561138  52.7060167  48.5128075  37.6493881  52.2333526
  48.2493691  35.8991086  52.0482617  46.6474263  36.9488861  52.9568805
  46.5129043  37.7432224  53.5660057  46.1736747  37.1129100  52.0800934
  46.2687558  36.1211040  53.3944699  47.5744409  36.3502890  58.3601382
  46.4145756  36.0657792  58.6775713  48.5725376  36.4591075  59.2400515
  49.4902851  36.7361549  58.9221148  48.4020284  36.1188168  60.6482478
  47.3742003  35.8061974  60.8324698  49.3411709  34.9689876  61.0357593
  49.0064142  34.4847052  61.9530966  49.2781715  34.2620752  60.2084710
  50.7596442  35.4206307  61.1990780  51.2575399  36.1115606  60.2873847
  51.3556732  35.1511989  62.2597876  48.6362815  37.3375280  61.5291806
  48.4577810  37.2717995  62.7544595  48.8768797  38.5048718  60.9044328
  49.0590108  38.4939318  59.9110507  48.9066586  39.7904796  61.6005842
  49.3625677  39.6598700  62.5820052  49.7110352  40.8216543  60.8244231
  49.6202297  40.5856529  59.7641604  49.2718994  41.8004891  61.0171462
  51.1571068  40.8395899  61.2090426  51.3070414  41.5998873  61.9755726
  51.4258434  39.8622642  61.6099382  52.1981819  41.2052047  59.8097805
  53.7527473  41.4300906  60.6785134  54.0104328  40.5121565  61.2068070
  54.5386436  41.6692062  59.9620698  53.6545173  42.2456675  61.3949534
  47.5072129  40.3543436  61.8179823  46.6472993  40.2696808  60.9343405
  47.3099937  40.9836042  62.9770961  47.9697165  40.8921887  63.7363776
  46.0937133  41.7602707  63.2059628  45.3182417  41.4300197  62.5148209
  45.5892558  41.5861384  64.6140575  45.6635663  40.5321378  64.8817513
  46.2163795  42.1754618  65.2830222  44.2455911  42.0088602  64.7339960
  43.9513432  41.8867169  65.6395892  46.2945541  43.2616392  62.9048705
  47.4000695  43.7819973  63.0022984  45.1912228  43.9986888  62.6924675
  45.0282223  44.9084238  63.8310596  45.6807965  44.6014116  64.6483666
  43.9923581  44.8973680  64.1701204  45.4275902  46.2439631  63.2380055
  46.4261803  46.4927029  63.5972343  44.7196346  46.9973333  63.5834525
  45.3969415  46.1261302  61.7442740  46.3879517  46.2419542  61.3054316
  44.7204930  46.8637818  61.3125483  44.8729900  44.7208502  61.4764063
  43.7867634  44.7154911  61.3859563  45.4901763  44.1518935  60.2060134
  46.7018374  44.1886887  60.0166765  44.6549485  43.6006639  59.3548080
  43.6922260  43.4628130  59.6273180  45.0627426  43.1899202  58.0016049
  46.0144891  42.6599817  58.0395903  44.0123310  42.2612022  57.4102137
  43.0654767  42.4759698  57.9056337  43.9270818  42.4929821  56.3485590
  44.3436515  40.8212073  57.5778156  44.5083199  40.5885066  58.6298781
  43.5144846  40.2233500  57.1994625  45.5724649  40.4678181  56.8142637
  45.6595703  40.7533495  55.6212283  46.5503094  39.8581639  57.4979325
  47.4047603  39.5972151  57.0268477  46.4285023  39.6623354  58.4812512
  45.1879222  44.4108090  57.0894802  45.9263282  44.4121005  56.1080037
  44.3904041  45.4284858  57.4158876  43.7011199  45.2797368  58.1389784
  44.4636746  46.7480755  56.7883794  45.4845907  46.8890668  56.4334838
  43.5004791  46.9413504  55.6043370  43.7211847  46.2047720  54.8317825
  42.4734717  46.8122416  55.9459313  43.6730356  48.3445194  55.0325280
  43.4520378  49.0816976  55.8044277  44.6997495  48.4742285  54.6902763
  42.7183060  48.5360968  53.8588951  42.9390094  47.7995177  53.0863407
  41.6912991  48.4069895  54.2004908  42.8908648  49.9392656  53.2870852
  42.6698682  50.6764445  54.0589845  43.9175771  50.0689717  52.9448318
  41.9705666  50.1239338  52.1557816  41.0191114  50.0042116  52.4727980
  42.0848517  51.0532448  51.7770735  42.1754580  49.4412181  51.4402274
  44.1268408  47.8253545  57.7806123  43.5352826  47.5820078  58.8111399
  44.5328692  49.0281990  57.4372655  45.0427528  49.1522622  56.5742902
  44.2819702  50.2150870  58.2788827  43.2096124  50.3209123  58.4430441
  44.9846997  50.0918812  59.6567106  44.5656122  50.6901728  60.4657298
  44.8647675  49.0335662  59.8884124  46.4595965  50.3633973  59.6418618
  46.9274823  51.6505419  59.6332196  46.2251788  52.4838972  59.6135061
  48.2843833  51.8929453  59.6494104  48.6420403  52.9207880  59.5884068
  49.2018039  50.8351857  59.7430813  50.2741225  51.0304198  59.7538716
  48.7366352  49.5413216  59.8217625  49.4286731  48.7014952  59.8840143
  47.3660952  49.3135179  59.8211225  46.9814476  48.3034033  59.9618876
  44.8051628  51.4063318  57.5407233  45.7155077  51.2480299  56.7416228
  44.3169282  52.6004471  57.8676051  43.5164736  52.6915195  58.4767665
  44.8506958  53.7882860  57.2627483  45.4828077  53.5148468  56.4179022
  43.7669475  54.6683669  56.7765250  42.9900726  54.4195420  57.4994709
  43.9199796  55.7475132  56.7653729  43.2497540  54.3100078  55.4731126
  43.4416786  54.9886328  54.2955486  44.1576271  55.8101176  54.3216321
  42.6672631  54.4692213  53.3134100  42.6433979  54.7610087  52.3467715
  41.9007992  53.4880152  53.8615804  40.9000419  52.7176689  53.2784884
  40.7010293  52.8432671  52.2141963  40.2245406  51.8450701  54.0843957
  39.4264419  51.2277023  53.6720907  40.5437372  51.7261448  55.4562106
  39.9918297  51.0436189  56.1024737  41.5837822  52.4851470  56.0298797
  41.7192739  52.4392415  57.1104515  42.2765079  53.3600513  55.2239252
  45.7862288  54.5377582  58.1722006  45.6139887  54.5964220  59.3893961
  46.8223770  55.0805512  57.5692365  46.9942616  54.8601390  56.5986833
  47.7484544  56.0009640  58.2508777  47.4896511  56.0933356  59.3056704
  48.7758035  55.6485571  58.1588849  47.6336300  57.3563647  57.5964090
  47.9472239  57.5186860  56.4051682  47.1274368  58.3311581  58.3471981
  46.9545879  58.1930021  59.3326602  46.7620076  59.5936289  57.7608125
  46.9434418  59.5514392  56.6868475  45.2775414  59.9355443  57.9965236
  45.2320870  60.0612376  59.0782972  45.0340639  60.8805350  57.5109194
  44.2688215  58.8638542  57.5637727  44.6289173  57.8880616  57.8897493
  42.9024111  59.1318173  58.1795190  42.5414307  60.1073037  57.8536076
  42.2017455  58.3603884  57.8600414  42.9844188  59.1198750  59.2663642
  44.1657940  58.7331560  56.0415314  45.1389765  58.4608743  55.6330245
  43.4382704  57.9611035  55.7910408  43.8466957  59.6843262  55.6154439
  47.6172400  60.7033972  58.3004168  47.7132344  60.8914517  59.5071556
  48.2149219  61.4555728  57.4091609  48.1612184  61.2363439  56.4247047
  49.0617777  62.5672550  57.8245148  49.6671027  62.3474472  58.7039268
  50.0069300  63.0356204  56.6722873  50.4755740  62.1608364  56.2214814
  49.2036928  63.8116032  55.5862032  48.7351102  64.6868402  56.0361922
  49.8791295  64.1296845  54.7920315  48.4340290  63.1619960  55.1693956
  51.1298216  63.8149145  57.1988005  51.6954460  64.0910560  56.4739452
  48.2144755  63.7247061  58.3571713  47.2911575  64.1720537  57.7367989
  48.6216729  64.2230471  59.5146148  49.3000015  63.6748796  60.0240086
  48.0466607  65.3968571  60.1693187  46.9722769  65.2542620  60.2853588
  48.6832678  65.6342831  61.6003303  48.3543888  64.7856772  62.2001685
  49.7602590  65.5725475  61.4441930  48.3426471  66.9568284  62.3434787
  48.4569259  67.7536216  61.6085217  47.2948921  66.8783578  62.6335715
  49.2001375  67.2791487  63.5907825  48.5431373  67.5560237  64.4152762
  49.7766180  66.3962665  63.8669864  50.1395540  68.3994865  63.3344061
  50.7978838  68.2286799  62.5877292  50.1972637  69.5809285  63.9869413
  51.1079670  70.5195382  63.6132430  51.7390988  70.3298235  62.8478797
  51.1489990  71.4020108  64.1027918  49.3816665  69.8463712  64.9975453
  48.7032428  69.1573918  65.2893477  49.4423879  70.7363862  65.4711326
  48.0599278  66.6772660  59.3331806  47.1770556  67.4574103  59.4519296
  49.0273348  66.8769216  58.4733890  49.7958007  66.2216886  58.4582452
  49.0844843  68.0304868  57.5824877  49.0107195  68.9508155  58.1618433
  50.4548346  68.0421024  56.7853986  50.2775857  68.6351754  55.8882105
  51.1720144  68.5568498  57.4247642  50.9866218  66.7428123  56.4096146
  51.8126489  66.8603147  55.9347754  47.8940979  68.0690321  56.5895187
  47.5104196  69.1257835  56.0747395  47.3528235  66.8944237  56.3308470
  47.7606462  66.0619365  56.7317772  46.2869902  66.7406622  55.3802167
  46.3741501  67.5635785  54.6707725  46.4809834  65.4361041  54.6346592
  46.3874718  64.6021190  55.3302341  45.7235045  65.3458670  53.8560815
  47.4717407  65.4204254  54.1805081  44.8706680  66.8816833  56.0304670
  43.8497579  66.8509773  55.3228558  44.8154541  67.0433803  57.3377461
  45.6583990  67.2343773  57.8603009  43.5397238  66.9253647  58.0813928
  42.7484716  66.6143367  57.3992779  43.6498003  65.8985933  59.1988196
  44.4132739  66.3566278  59.8276373  42.7205295  65.8112707  59.7617855
  44.1135137  64.5116038  58.7653487  45.1562747  64.5584883  58.4514185
  43.9770316  63.5345574  59.9420148  42.9343954  63.4867854  60.2562226
  44.3083982  62.5434192  59.6322700  44.5912796  63.8789138  60.7740114
  43.4030964  64.0344624  57.4824370  43.6127212  64.7304087  56.6701467
  43.7659071  63.0425385  57.2130736  42.3278191  63.9927143  57.6560305
  43.0578404  68.2328276  58.7198207  43.8574309  69.0766948  59.0808596
  41.7589826  68.2940933  58.9761038  41.1799697  67.5449264  58.6245467
  41.1152780  69.3774750  59.7223996  41.8487811  69.9651211  60.2744362
  40.4143286  70.2963016  58.7036196  41.2382429  70.5790857  58.0484115
  39.6908740  69.7050295  58.1422724  39.7399913  71.5473524  59.2367613
  39.8309766  72.3257539  58.4791903  38.2695216  71.3263425  59.5626560
  38.1777530  70.5483464  60.3205474  37.8371552  72.2531044  59.9398461
  37.7392557  71.0191004  58.6612566  40.5058058  72.0616823  60.4545716
  41.5305989  72.2969248  60.1672400  40.0208200  72.9599721  60.8366259
  40.5131541  71.2956254  61.2299437  40.1049111  68.7573702  60.7027311
  39.0852522  68.2574705  60.2877830  40.4120844  68.7399954  62.0116817
  41.7791060  68.4493877  62.4610869  42.4167860  69.3087242  62.2537096
  42.1572818  67.5791159  61.9247018  41.6173363  68.1865558  63.9563738
  42.2930078  68.8514433  64.4944182  41.8947134  67.1509077  64.1528332
  40.2208235  68.4322811  64.3230071  40.1201308  69.4458566  64.7111110
  39.8307969  67.7236123  65.0536011  39.4502152  68.3003979  63.0026952
  39.1930530  67.2625376  62.7910069  38.1777264  69.1545478  62.9876604
  38.2533736  70.3886786  62.8874625  37.0042710  68.4956425  63.0246380
  36.9539527  67.5124426  62.7990602  35.7759509  69.2283460  63.1532935
  36.0363133  70.2447554  63.4486282  34.9039054  69.2925787  61.8529336
  34.4317382  68.3212698  61.7055649  33.7800049  70.4192455  61.9573102
  34.2514609  71.3909671  62.1042315  33.1944676  70.4353405  61.0380789
  33.1248461  70.2025635  62.8010616  35.7310482  69.5995846  60.7289530
  35.1917384  69.6376059  59.9356689  34.9869090  68.7996727  64.3781025
  35.1265621  67.6464720  64.9020044  34.3930759  69.8414527  64.9571766
  34.8386276  70.7399964  64.8380033  33.1957112  69.7751616  65.7443367
  33.0528617  68.8963331  66.3731083  33.1739427  71.0480078  66.6246755
  33.9548202  70.9665565  67.3807816  33.4175316  72.3157128  65.7648624
  32.6367346  72.3980995  65.0087743  33.3980149  73.1982806  66.4042323
  34.3892723  72.2429178  65.2764773  31.8981420  71.0906875  67.4798884
  32.0439932  71.8678105  68.2301603  31.0805051  71.3748168  66.8174385
  31.5589909  69.7787165  68.1690282  32.3760190  69.4941567  68.8320447
  30.6449122  69.8988334  68.7505188  31.4125331  69.0011620  67.4193223
  31.9447544  69.7024860  64.8209892  31.5306278  70.7180178  64.1900428
  31.3103887  68.4963260  64.7699578  31.7758109  67.2794878  65.4522605
  32.3049733  67.5442076  66.3676898  32.4416358  66.7164972  64.7981827
  30.5042447  66.5636015  65.7162214  30.0346267  66.9542991  66.6189469
  30.6931843  65.4970348  65.8380355  29.6722044  66.8190695  64.5208503
  28.6107218  66.8010521  64.7678907  29.8774739  66.0783520  63.7479974
  30.0687330  68.2159944  64.0255446  30.3369511  68.2638326  62.9701447
  28.8932131  69.1417215  64.2911746  28.8801445  69.7551147  65.3299272
  28.0019915  69.3006501  63.3088005  28.1220821  68.7188508  62.4919852
  26.9570656  70.3678853  63.2708574  26.1848067  70.0673835  62.5627514
  26.2921522  70.6272315  64.6496219  26.9974232  71.0527915  65.3634782
  25.5209569  71.3623037  64.4193467  25.6547666  69.4022232  65.2447953
  26.2792179  68.3183339  65.1800610  24.5770788  69.5522926  65.8666571
  27.3518401  71.7550296  62.6536202  28.5508930  72.0576004  62.3494209
  26.2758118  72.5314434  62.4207476  25.4247829  72.0397244  62.1882364
  26.2667108  74.0094496  62.3737057  27.2736254  74.4191153  62.4536828
  25.6017815  74.5496521  61.0270365  26.2704992  75.2996180  60.6045816
  25.3512409  73.4138172  59.9667486  24.6821926  72.6636651  60.3883476
  24.8977351  73.8434778  59.0735389  26.3000357  72.9465594  59.7030078
  24.3594370  75.2227841  61.2847174  23.9866583  75.5344792  60.4567786
  25.5686803  74.6137347  63.6430429  24.9040641  75.6416166  63.5396109
  25.8238268  74.0327704  64.8358341  26.5018863  73.2847552  64.8642559
  25.0675319  74.3608858  66.0992114  24.2840435  75.0874746  65.8840049
  24.4149284  73.0896349  66.6788595  25.1680587  72.3031192  66.6310365
  24.1823478  73.3063418  67.7214737  23.1454255  72.6248767  65.9588669
  23.2165509  72.8718361  64.8995969  23.1392358  71.5415602  66.0792255
  21.8442572  73.2127011  66.5364781  21.7981160  74.4468866  66.7619312
  20.8486709  72.4469691  66.7091783  25.8737089  75.0992302  67.2469266
  25.2424718  75.5981117  68.2088102  27.2259485  74.9675242  67.2462243
  27.5895607  74.0272890  67.1842293  28.2119254  76.1119123  67.4857014
  27.7364258  77.0346046  67.1530781  28.6606204  76.2890849  68.9886544
  29.7379728  76.3797677  68.8501342  28.2783984  77.1931361  69.4626774
  28.3604160  75.0785041  69.8808020  27.1615938  74.7401540  70.0470348
  29.3122902  74.5844850  70.5490734  29.4960614  76.0890801  66.5739589
  30.5382315  76.6301805  66.9620603  29.3815012  75.5574500  65.3482418
  28.4686075  75.2954013  65.0046508  30.5577088  75.2409209  64.5184785
  31.2344570  74.6450392  65.1308803  30.1332506  74.3989381  63.2853884
  29.6209813  73.4967686  63.6197079  29.4624624  74.9855672  62.6576866
  31.3591389  74.0162386  62.4911344  31.8717175  74.9179526  62.1560588
  32.0302353  73.4291526  63.1180784  30.9415970  73.1879770  61.2781343
  30.6842913  73.8130941  60.2148264  30.8839298  71.9380624  61.4264180
  31.3389845  76.5208910  64.0957140  32.4548946  76.8049850  64.5812993
  35.5643763  77.0910922  63.2647861  35.5776229  77.1043850  62.2549608
  36.8478609  77.2336463  63.9845067  37.5494079  76.4817760  63.6230900
  37.4771017  78.6372729  63.7812200  37.6689415  78.7998726  62.7206267
  36.5153492  79.7044219  64.2929319  36.3233784  79.5427438  65.3536431
  36.9569289  80.6907172  64.1503503  35.5773425  79.6436388  63.7410711
  38.7891677  78.7228492  64.5537379  39.4769387  77.9602444  64.1883517
  39.2316506  79.7087546  64.4112631  38.5980535  78.5607981  65.6145468
  36.6263071  76.9942424  65.4853600  36.1425024  77.8952959  66.1858582
  36.8540368  75.7314732  65.9132503  36.8249690  75.0115375  65.2054741
  37.0787097  75.3228375  67.3264438  36.1052328  75.3119263  67.8166710
  37.7011092  73.8878428  67.3714813  37.0426787  73.1892918  66.8551517
  39.0634058  73.9029186  66.6862476  39.7225788  74.6009486  67.2023346
  39.4974118  72.9035325  66.7173411  38.9453207  74.2150669  65.6485972
  37.8670501  73.4510909  68.8231482  38.5257701  74.1489526  69.3400405
  36.8935729  73.4401815  69.3133755  38.4736189  72.0526011  68.8670407
  39.4473871  72.0628212  68.3773765  38.5924432  71.7399334  69.9044504
  37.8151904  71.3540502  68.3507091  38.0003757  76.3401662  68.1023498
  38.8617342  76.9764670  67.4977046  37.7539851  76.5693542  69.4028891
  36.8630644  76.3010662  69.7958030  38.7472177  77.2213146  70.2918670
  39.6968151  77.4055122  69.7894377  38.2039949  78.5517549  70.8125472
  38.0460305  79.2326076  69.9761345  37.2576481  78.3823519  71.3261913
  39.2067476  79.1648654  71.7842502  39.3648868  78.4847406  72.6212229
  40.5306962  79.4026002  71.0657313  40.3734343  80.0830442  70.2288541
  41.2478118  79.8408348  71.7598469  40.9184858  78.4540845  70.6941973
  38.6647637  80.4922703  72.3037448  37.7184181  80.3228659  72.8173901
  39.3811392  80.9309393  72.9983505  38.5067971  81.1731231  71.4673329
  39.0259977  76.2538653  71.4642665  38.0950624  75.7318153  72.0473060
  40.2911738  75.9539128  71.7701650  41.0463318  76.3454971  71.2256491
  40.6334544  74.9978717  72.8804151  40.1491191  74.0366507  72.7084477
  42.1661431  74.7732177  72.9611979  42.5219311  74.3504275  72.0216435
  42.6644348  75.7255991  73.1422372  42.7363187  73.6529300  74.2634873
  44.0310073  73.7530464  73.9759872  40.0793842  75.5611672  74.2373951
  40.0248846  76.7852717  74.4160453  39.6279829  74.6948612  75.1599284
  39.6084447  73.7063473  74.9536328  38.9906132  75.1692175  76.4356494
  38.9549963  76.2524877  76.3200800  37.5342736  74.6365046  76.5869858
  36.9604238  74.8877054  75.6949691  37.5540539  73.5539647  76.7127479
  36.8826845  75.2778785  77.8075167  37.4557553  75.0267242  78.7000481
  36.8542724  76.7924293  77.6315747  36.2809468  77.0443963  76.7394372
  36.3886232  77.2513708  78.5037239  37.8729114  77.1655919  77.5256278
  35.4572647  74.7564745  77.9556420  35.4770464  73.6739351  78.0814057
  34.9910593  75.2146091  78.8279187  34.8834145  75.0076731  77.0636251
  39.8470349  74.8781168  77.7115801  40.7366543  75.6677190  78.1063252
  39.5965923  73.9076728  78.4228863  58.9898579  58.8620944  48.4416653
  59.1717408  57.5305561  48.0814732  58.6706599  56.5266833  48.9010439
  58.3073531  59.1809271  49.6117965  57.7916534  58.1763141  50.4206553
  57.9821170  56.8470977  50.0636227  56.7316016  56.9910102  52.0177448
  56.9707094  55.0445439  55.0855627  61.1109514  56.3334348  47.1908105
  56.7792460  59.2386959  52.2226440  57.3196202  55.9855092  51.1315502
  57.0911971  58.2080048  51.6286842  56.1194017  56.6773905  53.3116954
  55.0181294  55.6395019  53.1067261  54.5262115  55.0948407  54.4457329
  55.6875840  54.5372775  55.2621043  57.2149334  56.0951652  54.1930189
  59.9496849  57.1583508  46.8021463  62.3745066  56.6648747  46.9200030
  58.3600058  56.5102349  54.0492816  65.3676517  55.1351650  46.5518419
  66.7147836  55.3792356  46.3262068  67.6942729  54.2037925  45.5262698
  67.2886447  56.5729838  46.7418491  68.7751352  56.8240622  46.4851803
  66.5136312  57.5297554  47.3902427  65.1638179  57.2887934  47.6154948
  64.5893312  56.0938035  47.1863223  63.3052115  55.8477922  47.4093696
  62.6668877  57.6561485  46.2529957  55.4991392  53.6325101  56.0706880
  59.9921393  59.3071601  48.5277391  58.3297647  59.2491346  47.6513913
  60.1210752  57.5100621  48.6367628  57.9854975  55.9274971  48.2833570
  59.5803297  56.0363895  49.2780621  59.0033308  59.7617092  50.2349367
  57.4050206  59.6901211  49.2422980  56.8534177  58.1959661  49.8468887
  58.9265208  56.8309521  50.6273663  57.2878754  55.3669918  56.0109500
  61.0583710  56.2386450  48.2151098  55.8254886  59.1931598  52.4840266
  56.5459833  55.3356435  50.6965936  58.0138908  55.3002211  51.6398879
  56.1784682  58.2829060  51.0192966  55.6795901  57.5731551  53.7743365
  54.1755300  56.1082575  52.5772478  55.4265739  54.8056667  52.5169939
  54.0450126  55.9068081  55.0106666  53.8078259  54.2840739  54.2545503
  55.8767602  53.7867702  54.4804034  57.4624485  55.3683650  53.4052326
  59.2986091  56.5881317  46.1232340  60.2868643  58.0686162  46.2846235
  62.4151533  57.2633757  47.8419861  58.4353800  57.4144375  54.4454267
  64.9083858  54.9514280  45.5693361  65.3763620  54.2996683  47.2672001
  66.9600235  54.9231181  47.2967237  67.5332645  56.1173437  47.7127500
  69.3037850  56.9095003  47.4459676  69.1944053  55.9860130  45.9092143
  68.8963423  57.7572959  45.9157001  66.9751750  57.6999285  48.3741244
  66.5074727  58.3735385  46.6845898  65.0084304  57.3435097  48.7030367
  64.6640579  58.0474143  46.9951818  64.3614315  56.5529530  46.2130106
  63.1108843  54.9122121  47.0250117  61.8424897  58.1533104  46.0219413
  54.5273095  53.5273131  56.2276218  85.4838751  46.5592786  70.2505044
  88.3529941  44.2447697  73.3871764  85.1737589  40.9013452  75.6420734
  84.6101311  41.8137626  72.4004647  91.0704064  38.6808289  73.5207320
  94.6257541  37.2959229  72.5821701  99.1219381  35.8920285  73.5402666
 100.9044383  39.4441450  73.3861802  94.3132899  43.6411868  73.1175623
  94.6192376  41.2995494  76.5641203  96.1346469  39.0946816  76.5070292
  96.5556248  36.5027287  75.6545484  97.3647684  42.2359881  76.3658313
  97.8318281  46.5804349  75.9875772 101.6061279  44.9124610  72.7964800
  98.3569063  43.0313361  69.8563173  94.2357361  32.6114624  74.7297057
  91.3753443  34.5628190  76.8009883  85.1886603  35.5161098  73.6495010
  90.2531942  33.8091742  72.9908856  86.9924526  31.2512432  75.9875772
  82.6040687  33.9477758  75.1882969 105.4194693  39.6597315  71.5967242
 106.5742812  44.2651078  74.8662474  87.9327986  48.1115746  77.0270601
  91.6952344  22.1950370  74.3766028  89.5794686  21.4084581  71.2160271
  92.0740912  20.9348615  68.9001223  95.4983769  19.9184747  71.0945243
  86.0450422  46.9107425  78.6717283  84.3696363  49.5052800  80.7260043
  85.6567429  52.5187582  78.9064403  87.5848428  57.2145501  79.3283059
  88.2249707  56.0273609  84.6149388  88.5372225  53.0241668  84.3128522
  87.5175307  50.6959321  83.1317866  79.4678471  32.0715405  75.9036563
  81.0595164  29.7034440  72.5772139  81.7311775  25.7569000  69.5226364
  82.8060455  21.1325141  68.5516289  84.7338798  17.1428578  67.7774149
  87.4481431  18.0629234  72.7940172  83.7863787  21.9667311  72.5821701
  80.2310309  23.3516371  73.5207320  77.5136187  28.9155779  73.3871764
  76.0200413  33.9387837  72.9054917  76.8062723  37.9388339  70.8458353
  84.9679832  25.0786906  71.1840283  78.0871169  21.1807380  70.0507688
  79.2240524  25.2639676  70.7741241  83.7798621  25.9703576  76.5641203
  86.5253930  26.9067963  76.3658313  90.0650629  24.1149532  73.3861802
 104.2425783  27.2985656  71.0036236 101.6375762  25.6866797  67.4450692
 100.7379865  21.1920526  70.2518115 102.1982734  25.2250223  70.7521659
  99.6865682  25.7686262  69.7086106  85.9570916  29.9467110  72.1885287
  90.7667524  29.5832692  72.7964800  95.7658148  26.7905533  72.8241471
  95.7349058  28.9359160  74.8662474  91.9900075  31.7518152  77.4419898
  87.2895201  37.5010819  74.8201524 105.2578164  31.7597846  72.0692717
 103.7159072  33.3047386  74.7126964 101.2557149  31.6206736  75.5349823
  98.2875185  33.3921151  72.7940172 103.8030006  20.5665452  67.6546705
 103.7779788  23.8396873  66.9409989 106.4267221  24.4901301  68.1686544
 108.8560279  23.7566177  63.7491515 107.8559233  24.3527912  61.3308371
 106.3377524  35.2476665  71.0945243 108.4886102  45.2434422  73.0279508
 106.1356319  42.8155002  68.3420934 109.8500270  39.0170984  67.2345069
 110.5259436  41.0978179  69.7086106 109.6351725  45.3103132  65.8132682
 111.5780115  47.6255897  65.6317765 112.3276420  50.0690128  64.4506239
  82.0242561  13.1259506  69.0933456 111.5773620  36.5212444  70.2518115
 112.2926701  37.0660864  66.2333371 112.8032349  36.2675727  63.6586347
 113.8052880  33.4902547  61.1596769 111.7438139  31.7795490  60.1107109
 111.2582196  29.0730539  57.9405578 113.7528422  28.5994573  55.6246530
 115.2293289  29.2282670  51.5580232 116.9883599  32.1494194  50.4151456
 115.1221953  33.9477756  48.6373582 117.6943572  33.7673739  43.9198190
 114.9924901  32.4072759  40.2415131 118.5284886  31.4564689  37.2773017
 118.2902946  30.5106895  42.8671753 114.3654352  28.5681556  41.9010800
 114.4025519  33.8371643  37.6744334 114.6423763  35.8957368  41.1037315
 117.6649475  38.8336923  44.0800076  68.2205091  55.2901860 132.0091235
  67.5466790  55.5933557 132.6176193  68.6070913  56.0930940 131.6596692
  72.1861832  52.8687344 133.2831058  72.8812736  53.4894036 133.5018373
  72.5284982  52.0182695 133.5583436  66.2776700  52.9749095 132.1906152
  65.7050667  53.5939282 131.7376624  66.8509494  53.5248457 132.7246074
  69.4973960  53.2586245 133.3214734  70.4304633  53.1931807 133.5247609
  69.4097173  54.0942512 132.8629267  72.1261977  52.5752116 130.2818682
  72.0475608  52.2411979 131.1754439  72.9471644  53.0673884 130.2810154
  69.6965929  49.8920111 129.9028660  70.4001779  50.0970114 130.5186315
  68.9728577  50.4596873 130.1677743  71.6052626  50.3302640 131.9527120
  72.4398230  49.8983839 131.7704595  71.4436969  50.1584654 132.8804014
  73.0666481  56.7840188 132.4662072  72.2303794  57.1214874 132.7871347
  72.9271251  56.6489167 131.5289209  72.9404862  56.6287415 129.6659979
  72.0634328  56.5076216 129.3022226  73.4162615  55.8373493 129.4138868
  70.6423330  57.5686418 133.2241635  69.9492575  57.6430773 132.5681671
  70.3975082  56.8046761 133.7463152  75.6860170  57.5651802 129.4677089
  74.7791626  57.2684915 129.5439803  75.9636151  57.2681620 128.6011376
  74.4558955  54.4238737 129.6089069  75.3178119  54.7493636 129.8684886
  74.6409299  53.6370233 129.0962134  75.4088398  51.6634780 132.8968778
  75.3967068  52.6076620 133.0537048  76.3011820  51.4804926 132.6028239
  68.2205092  32.2963983 118.7336542  67.5466791  32.5995679 119.3421499
  68.6070914  33.0993063 118.3841999  72.1861833  29.8749466 120.0076365
  72.8812738  30.4956159 120.2263679  72.5284983  29.0244817 120.2828743
  66.2776702  29.9811218 118.9151458  65.7050669  30.6001405 118.4621930
  66.8509495  30.5310580 119.4491380  69.4973961  30.2648368 120.0460041
  70.4304635  30.1993930 120.2492916  69.4097174  31.1004635 119.5874573
  72.1261978  29.5814238 117.0063988  72.0475610  29.2474102 117.8999746
  72.9471645  30.0736006 117.0055461  69.6965930  26.8982234 116.6273966
  70.4001780  27.1032236 117.2431622  68.9728579  27.4658996 116.8923050
  71.6052627  27.3364763 118.6772427  72.4398231  26.9045961 118.4949901
  71.4436970  27.1646777 119.6049321  80.2336902  37.8534414 128.7727603
  80.8715312  37.7341161 128.0690943  80.1157745  38.8015258 128.8315555
  72.9013424  39.6597319 124.6986019  72.3378289  39.5687255 123.9302307
  72.7865819  38.8397223 125.1788511  78.4812983  43.3268286 120.0100484
  77.8300963  43.9122367 119.6234498  79.2757346  43.8574481 120.0695521
  72.4068610  40.4157423 120.4087618  73.1799486  39.8686410 120.2700494
  72.7594009  41.2801673 120.6202080  74.7434888  36.5750090 118.0406068
  74.9960409  36.0531611 117.2789531  73.8059447  36.4116235 118.1432752
  79.7878171  35.5785868 125.8480811  80.5741260  35.1605291 125.4971228
  80.0516875  36.4831960 126.0162460  79.9588248  41.0158718 120.5469468
  79.3234081  41.0893345 121.2590373  79.6285655  41.6052317 119.8688547
  74.4631177  38.4778195 120.2430443  74.3467435  37.8023099 120.9111527
  74.5733437  37.9910569 119.4262596  76.8062718  37.9388343 123.9477132
  76.4420925  37.4118964 124.6590054  77.6629834  37.5486812 123.7743618
  76.4468205  32.9678242 118.9438481  76.6142607  33.8358479 119.3108952
  76.2565374  33.1305524 118.0199770  76.4257426  35.4235900 119.9285148
  76.3057051  35.8692951 120.7670628  75.7310014  35.7721217 119.3698686
  74.1864318  48.1939542 123.5775279  74.1088347  49.1447367 123.6563759
  73.5825961  47.8485414 124.2350205  82.1242492  35.8957373 120.7565482
  83.0360348  36.1284760 120.5813179  81.6152139  36.4794417 120.1940560
  80.7312074  40.8783191 128.1479063  80.1020936  41.0428906 127.4455131
  80.3437736  41.2924801 128.9190027  84.6101306  41.8137629 125.5023427
  83.9252344  42.1936531 124.9520460  84.6945155  42.4232956 126.2355375
  76.2840036  40.6157599 125.4129148  76.7478381  40.8945302 124.6233771
  76.0196834  39.7141044 125.2302239  75.2208922  36.7380752 122.2218713
  75.9232965  37.1901796 122.6892640  74.8889550  36.0964571 122.8498606
  76.4602687  43.5521694 122.2980819  76.3248361  44.3973230 122.7265666
  77.0012499  43.7540972 121.5346752  69.9132084  41.0697133 122.8708744
  70.4256604  41.8640383 123.0214308  70.5654797  40.3723423 122.8042345
  71.7226969  44.1862889 124.9531497  71.8993597  45.1080853 124.7652481
  72.5183802  43.8721308 125.3825877  72.8458284  45.7041063 130.9541839
  73.3965709  45.5758126 130.1818833  72.0069760  46.0035952 130.6036732
  67.8781001  39.3985787 123.6468314  68.7156223  39.8082795 123.4302022
  68.0559268  38.4585229 123.6168508  79.7745433  37.0660867 119.3352147
  79.2592056  37.8365472 119.5740535  79.5022741  36.3926004 119.9585209
  77.3592544  31.9110568 124.3937386  76.5034140  31.5217419 124.2143024
  77.7719496  31.9902529 123.5337171  84.7479707  39.8193222 121.2705321
  83.9709150  39.4804382 120.8260483  85.4271188  39.8245845 120.5960286
  79.5631736  34.9387960 121.1611928  79.2581872  35.2534109 122.0122072
  80.5162178  35.0169379 121.2039261  78.0078168  41.0978183 122.8104882
  77.4799529  40.3630942 122.4978120  77.5065671  41.8752859 122.5644851
  82.9871014  39.2927203 127.9271929  82.3294688  39.9826465 128.0152057
  83.7911413  39.6823635 128.2705915  81.7976473  37.6471576 125.9775870
  82.3108354  38.2801568 126.4797580  82.4477697  37.0472772 125.6119230
  73.0666483  33.7902310 119.1907379  72.2303795  34.1276997 119.5116654
  72.9271252  33.6551290 118.2534516  76.1530768  38.9158393 115.8139855
  75.2457830  38.6847647 116.0131004  76.6501800  38.1196012 116.0013837
  79.0598847  47.6255900 118.7336542  78.3860546  47.9287597 119.3421499
  79.4464669  48.4284981 118.3841999  79.0592351  36.5212447 123.3536891
  79.8064170  37.0333844 123.0444013  79.3283941  36.1996500 124.2141285
  77.3319001  39.0170988 120.3363845  76.4230221  38.7330021 120.4336315
  77.3614085  39.4370067 119.4767152  82.5638269  42.6277577 124.1055013
  82.1100596  41.7868487 124.1620203  81.9332236  43.2638976 124.4429793
  81.5071188  33.5569564 125.3355680  80.7693945  33.0446950 125.6665923
  81.7597962  33.1169945 124.5238957  81.0071208  44.4654074 125.0404831
  81.2994182  45.0259131 124.3217197  81.5169829  44.7582635 125.7957990
  75.8803895  36.6299609 126.4373641  75.9352505  35.6773445 126.3616117
  75.0695098  36.7859048 126.9214939  77.0295089  40.5579732 117.6751924
  76.5914519  39.8415591 117.2157561  77.7705530  40.7855846 117.1137015
  73.8196255  35.2476668 124.1964020  73.0064121  35.5470839 124.6029212
  74.3155250  34.8532357 124.9138502  75.9704833  45.2434425 126.1298284
  75.9281012  45.4695272 125.2006816  76.8867532  45.0097800 126.2784086
  85.1468204  38.8336929 123.7328243  85.0086103  39.0238525 122.8049432
  84.7904423  39.5956312 124.1896294  74.0870634  42.1197454 125.9260247
  74.8811233  41.6247774 125.7242822  73.3762326  41.5915317 125.5627953
  78.9065479  44.5015550 130.2772615  78.9602501  45.0706486 131.0450331
  78.0380260  44.6717435 129.9126652  70.3953398  36.2640536 122.0020000
  69.4650986  36.2024992 122.2189962  70.4910870  35.7416489 121.2056641
  76.6641910  42.6926476 129.6058084  76.5252996  42.3245261 130.4784022
  75.8756506  43.2074116 129.4342042  77.2590062  47.7935573 120.9483621
  77.4341818  47.3223616 121.7629243  76.5722850  48.4201339 121.1764881
  78.2147125  42.0708079 126.9946922  77.8796958  42.0308849 127.8904572
  77.7151071  41.4052795 126.5217332  81.1506317  39.4164113 117.2683982
  80.5335488  38.6910941 117.1717034  80.6822805  40.1773474 116.9251056
  71.8251147  50.9424936 127.7223481  72.0647746  51.5743460 128.4002499
  70.9820344  50.5912976 128.0088840  72.9404863  33.6349538 116.3905286
  72.0634329  33.5138338 116.0267533  73.4162616  32.8435616 116.1384175
  76.3379009  46.7504058 130.1264985  76.2649181  47.5559029 130.6384289
  75.8956402  46.9496024 129.3013006  76.1268789  45.9875828 123.6367806
  75.3436311  46.5297508 123.7306031  76.8261534  46.5049808 124.0362048
  78.7977693  46.6490892 132.2823144  79.5105665  47.2838357 132.2099045
  78.3067721  46.7454758 131.4663145  80.5195220  40.5542145 123.8540435
  79.5851498  40.6743607 123.6845140  80.6971888  39.6514611 123.5900445
  83.9067771  36.3959464 124.3890469  84.3728223  37.2287456 124.3150772
  84.3575271  35.9304446 125.0935728  81.9744002  42.7403285 121.3876621
  82.2503846  42.6259880 122.2970495  81.1048501  42.3420770 121.3488794
  78.6098066  46.9889636 125.0309435  78.7920461  46.1711292 125.4937187
  79.4331052  47.2057328 124.5934325  78.9440232  45.9157821 122.2924483
  79.4727998  45.4050276 121.6794646  79.2068451  45.6000351 123.1570016
  72.2995980  46.9672938 125.0522259  71.6306355  47.4519066 124.5686299
  72.1608849  47.2142158 125.9665638  76.4401248  49.0016681 131.6504918
  76.9919556  49.1648303 132.4154003  76.7807442  49.5921119 130.9784943
  67.6683557  35.2291393 121.8318192  67.9636998  34.3202071 121.7785245
  66.7671592  35.2079132 121.5099194  79.5769635  46.9498657 128.6368600
  79.4520775  46.1488397 128.1279545  80.2348727  47.4444850 128.1482570
  81.6404544  44.7507677 130.2648150  80.6934879  44.6313028 130.1926477
  81.9887317  43.8630175 130.3474411  78.6450977  44.5460393 126.4652502
  78.4975940  43.6177101 126.6460072  79.4704471  44.5680484 125.9809577
  72.5113221  33.1978460 122.3232994  72.8509294  33.7264382 121.6011603
  72.9585342  33.5358866 123.0991561  82.2485099  45.3688952 127.5517375
  83.1731646  45.1631813 127.4141826  82.0800402  45.1205353 128.4606716
  74.4981369  31.6953082 120.5226287  75.2189731  32.0734335 120.0190004
  73.8746673  32.4141959 120.6261265  78.6412491  32.3998231 121.4584619
  78.8576106  33.2822869 121.1573448  78.1606559  32.0084444 120.7290261
  82.0380415  45.8874619 122.9079466  82.2117293  45.3221042 122.1553319
  82.5309306  46.6875514 122.7258956  87.8919806  38.6511042 124.5269766
  88.3350952  37.9018368 124.1288889  87.0146317  38.6421179 124.1443498
  83.0255588  45.2041384 120.0076365  83.7206492  45.8248076 120.2263679
  83.3678738  44.3536735 120.2828743  84.9247011  42.6541089 121.5363695
  85.4498335  42.9928362 120.8113016  84.8369363  41.7188105 121.3526830
  76.6087671  48.7213073 125.8958949  76.1692662  48.2289451 126.5891805
  77.3595788  48.1786040 125.6551024  69.0880010  44.9124613 125.8983577
  69.9138030  44.6128385 125.5182220  68.7374062  44.1432236 126.3473365
  74.0561544  44.2651082 127.9681250  73.4341553  43.6021787 127.6683478
  74.7266411  44.2912214 127.2854898  73.6175051  42.8155005 121.4439711
  73.7663171  43.4990469 120.7906384  74.4241494  42.7960095 121.9589167
  71.3727684  38.8420183 122.4500780  71.1273725  37.9382513 122.6480990
  71.5423598  38.8437333 121.5080258  70.6423331  34.5748540 119.9486941
  69.9492576  34.6492895 119.2926977  70.3975083  33.8108884 120.4708458
  77.1170456  45.3103135 118.9151458  76.5444423  45.9293323 118.4621930
  77.6903250  45.8602497 119.4491380  80.3367716  45.5940286 120.0460041
  81.2698389  45.5285847 120.2492916  80.2490929  46.4296552 119.5874573
  82.9655733  44.9106156 117.0063988  82.8869364  44.5766020 117.8999746
  83.7865399  45.4027924 117.0055461  77.5017255  36.6463948 116.2567511
  78.4476359  36.5170156 116.3255929  77.1231500  35.9078610 116.7336939
  75.6860172  34.5713925 116.1922396  74.7791627  34.2747037 116.2685110
  75.9636153  34.2743743 115.3256682  77.3022237  29.1150814 122.3466637
  76.4922966  28.7697899 122.7221883  77.9906654  28.8058358 122.9354249
  74.4558956  31.4300860 116.3334375  75.3178120  31.7555758 116.5930193
  74.6409301  30.6432356 115.8207441  82.6091593  30.3029386 123.4769598
  82.0290262  30.9614190 123.0947651  82.3427526  29.4806731 123.0657016
  81.3916471  32.4629477 122.5325947  80.5042326  32.7479127 122.3146141
  81.8070460  32.3023240 121.6853223  69.4000721  47.0437228 127.6197391
  69.2655189  46.2837629 127.0535389  68.9832784  47.7678128 127.1526180
  80.5359684  42.2274151 116.6273966  81.2395534  42.4324154 117.2431622
  79.8122333  42.7950913 116.8923050  81.3657495  37.9784013 122.7476237
  81.3092696  38.4352564 121.9083869  81.9185837  37.2174697 122.5699079
  85.1762301  33.7673745 123.5726356  84.9199235  33.3670380 124.4034564
  84.5515169  34.4817538 123.4476495  72.5569847  47.9406545 127.8315834
  72.4402231  48.8851977 127.7294524  71.7362293  47.6380106 128.2201633
  82.4446382  42.6656681 118.6772427  83.2791986  42.2337879 118.4949901
  82.2830725  42.4938694 119.6049321  82.0992274  39.1688794 120.0428766
  82.0441078  39.0033065 119.1017210  81.4738329  39.8764827 120.1990956
  75.4088399  28.6696903 119.6214084  75.3967069  29.6138743 119.7782355
  76.3011821  28.4867048 119.3273545  73.5824361  48.5934807 131.0471762
  74.4851608  48.6258417 131.3638257  73.3561731  47.6635258 131.0618098
  75.3377963  47.3465793 127.7081841  74.3873594  47.3467655 127.5946213
  75.6410449  46.5998528 127.1917876  83.7407179  54.9889236 124.6986019
  83.1772044  54.8979173 123.9302307  83.6259574  54.1689141 125.1788511
  81.2871611  56.4840428 127.5370239  82.0792903  56.1431252 127.1216539
  81.5268261  56.5935403 128.4572393  89.3206738  58.6560204 120.0100484
  88.6694717  59.2414284 119.6234498  90.1151100  59.1866399 120.0695521
  83.2462365  55.7449341 120.4087618  84.0193241  55.1978328 120.2700494
  83.5987764  56.6093590 120.6202080  85.5828642  51.9042007 118.0406068
  85.8354163  51.3823528 117.2789531  84.6453202  51.7408153 118.1432752
  90.6271925  50.9077786 125.8480811  91.4135015  50.4897209 125.4971228
  90.8910630  51.8123878 126.0162460  90.7982003  56.3450636 120.5469468
  90.1627836  56.4185262 121.2590373  90.4679409  56.9344235 119.8688547
  85.3024931  53.8070113 120.2430443  85.1861189  53.1315017 120.9111527
  85.4127191  53.3202487 119.4262596  87.6456472  53.2680260 123.9477132
  87.2814679  52.7410881 124.6590054  88.5023588  52.8778729 123.7743618
  87.2861959  48.2970160 118.9438481  87.4536361  49.1650396 119.3108952
  87.0959128  48.4597442 118.0199770  83.4949774  53.2100936 126.6441016
  82.5700270  53.0777150 126.8518707  83.7434187  53.9895155 127.1410958
  87.2651180  50.7527817 119.9285148  87.1450805  51.1984868 120.7670628
  86.5703768  51.1013135 119.3698686  80.8558585  52.8534209 127.4784805
  80.9850966  53.1068688 128.3924216  80.1756036  53.4461917 127.1589460
  92.9636246  51.2249291 120.7565482  93.8754102  51.4576677 120.5813179
  92.4545893  51.8086335 120.1940560  87.1233790  55.9449517 125.4129148
  87.5872136  56.2237220 124.6233771  86.8590588  55.0432962 125.2302239
  86.0602676  52.0672670 122.2218713  86.7626720  52.5193713 122.6892640
  85.7283305  51.4256488 122.8498606  79.8028010  50.3256222 127.5235847
  79.0127064  50.5813751 127.0475958  80.2939258  51.1404560 127.6287887
  81.7542756  50.6900801 124.4819324  80.9573919  50.8019496 125.0002819
  81.5268348  51.0287454 123.6160214  78.0865713  50.5786713 129.9550838
  78.3373752  51.4633723 130.2208414  78.6225262  50.3991314 129.1825930
  87.2996441  58.8813612 122.2980819  87.1642116  59.7265148 122.7265666
  87.8406254  59.0832890 121.5346752  80.7525838  56.3989050 122.8708744
  81.2650359  57.1932300 123.0214308  81.4048551  55.7015341 122.8042345
  82.5620723  59.5154806 124.9531497  82.7387351  60.4372771 124.7652481
  83.3577557  59.2013226 125.3825877  78.7174755  54.7277704 123.6468314
  79.5549977  55.1374713 123.4302022  78.8953023  53.7877147 123.6168508
  90.6139187  52.3952785 119.3352147  90.0985811  53.1657390 119.5740535
  90.3416496  51.7217921 119.9585209  88.1986298  47.2402486 124.3937386
  87.3427895  46.8509336 124.2143024  88.6113250  47.3194447 123.5337171
  85.9728331  44.8587559 127.7995127  86.8381328  44.6630368 127.4401017
  86.0405840  44.6297911 128.7264484  95.5873461  55.1485140 121.2705321
  94.8102904  54.8096299 120.8260483  96.2664942  55.1537763 120.5960286
  90.4025490  50.2679877 121.1611928  90.0975626  50.5826026 122.0122072
  91.3555933  50.3461297 121.2039261  88.8471922  56.4270101 122.8104882
  88.3193284  55.6922860 122.4978120  88.3459425  57.2044777 122.5644851
  83.5790650  47.0889767 125.1711494  84.1534402  46.8664948 124.4384687
  84.1661632  47.1578461 125.9240095  83.9060237  49.1194228 119.1907379
  83.0697549  49.4568914 119.5116654  83.7665007  48.9843208 118.2534516
  85.8813318  43.9631016 123.8986563  85.2277730  43.6480033 123.2743178
  85.8393792  43.3406756 124.6246386  86.9924523  54.2450311 115.8139855
  86.0851584  54.0139564 116.0131004  87.4895554  53.4487930 116.0013837
  89.8992601  62.9547818 118.7336542  89.2254300  63.2579515 119.3421499
  90.2858423  63.7576898 118.3841999  89.1151058  50.4512949 128.2234211
  88.1973619  50.6727896 128.0655899  89.5311202  50.5259260 127.3645918
  89.8986106  51.8504365 123.3536891  90.6457925  52.3625762 123.0444013
  90.1677695  51.5288418 124.2141285  88.1712756  54.3462906 120.3363845
  87.2623975  54.0621938 120.4336315  88.2007840  54.7661984 119.4767152
  92.3464943  48.8861481 125.3355680  91.6087700  48.3738867 125.6665923
  92.5991716  48.4461863 124.5238957  78.7400926  52.0668420 124.3179048
  78.5425326  51.4737781 123.5930114  78.1847590  51.7620630 125.0354986
  86.7197650  51.9591526 126.4373641  86.7746260  51.0065363 126.3616117
  85.9088852  52.1150965 126.9214939  87.8688844  55.8871649 117.6751924
  87.4308274  55.1707508 117.2157561  88.6099285  56.1147764 117.1137015
  84.6590010  50.5768586 124.1964020  83.8457875  50.8762757 124.6029212
  85.1549004  50.1824275 124.9138502  95.9861959  54.1628846 123.7328243
  95.8479857  54.3530442 122.8049432  95.6298177  54.9248229 124.1896294
  84.1504085  48.1486942 129.8125255  84.7903464  48.0075701 129.1148218
  83.3181615  47.8621455 129.4363857  84.9264389  57.4489372 125.9260247
  85.7204987  56.9539692 125.7242822  84.2156081  56.9207235 125.5627953
  81.2347152  51.5932454 122.0020000  80.3044740  51.5316909 122.2189962
  81.3304624  51.0708406 121.2056641  81.1532701  48.1187267 124.5898241
  81.4139518  49.0332600 124.4807402  81.9749873  47.6511709 124.7394854
  82.6257626  49.5325024 131.7597066  83.2980680  49.3242386 131.1109715
  81.7987413  49.3347110 131.3202298  88.0983817  63.1227490 120.9483621
  88.2735572  62.6515534 121.7629243  87.4116605  63.7493257 121.1764881
  91.9900071  54.7456031 117.2683982  91.3729242  54.0202859 117.1717034
  91.5216560  55.5065391 116.9251056  83.7798617  48.9641455 116.3905286
  82.9028084  48.8430256 116.0267533  84.2556370  48.1727534 116.1384175
  75.3000757  53.7518615 126.4846793  75.9871797  53.4380345 125.8967808
  75.1448886  54.6559980 126.2114044  80.1035480  48.6408812 130.9131817
  80.0193668  48.0334481 130.1782227  79.2818186  49.1317830 130.9141313
  90.2759193  47.1262375 126.2802012  90.7727893  46.3732337 125.9603082
  89.5046175  47.1626692 125.7145221  91.3588974  55.8834062 123.8540435
  90.4245253  56.0035525 123.6845140  91.5365643  54.9806529 123.5900445
  86.8594162  49.2679758 126.0073696  86.4891950  48.7150798 126.6954602
  87.3553255  48.6637892 125.4548696  94.7461525  51.7251382 124.3890469
  95.2121978  52.5579373 124.3150772  95.1969026  51.2596363 125.0935728
  92.8137757  58.0695203 121.3876621  93.0897600  57.9551797 122.2970495
  91.9442255  57.6712688 121.3488794  89.7833986  61.2449739 122.2924483
  90.3121753  60.7342193 121.6794646  90.0462206  60.9292269 123.1570016
  74.8768734  51.8319208 128.7564260  74.9152833  51.2982799 129.5501378
  74.3709026  51.3054414 128.1375237  82.2559496  46.6783749 132.2526802
  82.3200822  47.5398580 131.8404200  82.1926616  46.0657751 131.5199161
  78.5077311  50.5583311 121.8318192  78.8030752  49.6493989 121.7785245
  77.6065347  50.5371050 121.5099194  82.0371558  48.6339307 127.8145740
  81.3158144  49.2475275 127.6753213  82.8264814  49.1697072 127.7362386
  80.2365153  48.2397408 121.9557517  79.9077859  47.3594787 121.7732623
  80.5904523  48.1845077 122.8433906  83.3506976  48.5270378 122.3232994
  83.6903048  49.0556299 121.6011603  83.7979096  48.8650784 123.0991561
  85.3375123  47.0245000 120.5226287  86.0583485  47.4026252 120.0190004
  84.7140427  47.7433876 120.6261265  89.4806246  47.7290149 121.4584619
  89.6969860  48.6114786 121.1573448  89.0000313  47.3376362 120.7290261
  84.2205467  50.6875862 128.0355364  84.0750048  51.0016165 128.9279646
  83.7430671  51.3060762 127.4826263  86.0801850  47.6778410 128.0836254
  86.0663419  46.7819503 127.7468552  86.7974278  47.6849074 128.7174540
  78.6951129  53.2281206 130.9743025  78.1504597  54.0041014 131.1063300
  79.5730479  53.5752011 130.8162147  85.4838746  46.5592790 123.3523824
  85.6054657  45.6309436 123.5514711  85.1940788  46.5731476 122.4402139
  88.3529936  44.2447700 126.4890544  88.3751633  44.3087034 125.5342523
  88.7697995  43.4052209 126.6831050  93.8649342  60.5333301 120.0076365
  94.5600247  61.1539994 120.2263679  94.2072492  59.6828653 120.2828743
  95.7640765  57.9833007 121.5363695  96.2892089  58.3220280 120.8113016
  95.6763118  57.0480022 121.3526830  79.9273765  60.2416531 125.8983577
  80.7531785  59.9420303 125.5182220  79.5767817  59.4724154 126.3473365
  78.1282370  58.1602858 126.8572510  77.2914278  57.7325032 126.6756512
  78.1006015  58.3535301 127.7943302  84.4568805  58.1446923 121.4439711
  84.6056925  58.8282387 120.7906384  85.2635248  58.1252013 121.9589167
  82.2121438  54.1712100 122.4500780  81.9667480  53.2674430 122.6480990
  82.3817353  54.1729251 121.5080258  81.4817086  49.9040458 119.9486941
  80.7886330  49.9784813 119.2926977  81.2368837  49.1400802 120.4708458
  87.9564211  60.6395053 118.9151458  87.3838178  61.2585240 118.4621930
  88.5297004  61.1894415 119.4491380  91.1761470  60.9232203 120.0460041
  92.1092143  60.8577765 120.2492916  91.0884683  61.7588470 119.5874573
  93.8049487  60.2398074 117.0063988  93.7263119  59.9057937 117.8999746
  94.6259154  60.7319842 117.0055461  88.3411009  51.9755866 116.2567511
  89.2870114  51.8462074 116.3255929  87.9625254  51.2370528 116.7336939
  86.5253926  49.9005842 116.1922396  85.6185382  49.6038955 116.2685110
  86.8029907  49.6035660 115.3256682  77.4431867  51.2212206 126.6421442
  77.1234651  50.3677514 126.3495816  76.8965295  51.4360784 127.3979410
  88.1415992  44.4442732 122.3466637  87.3316720  44.0989817 122.7221883
  88.8300409  44.1350276 122.9354249  90.0706540  43.5220779 123.9690934
  90.6237579  43.9416232 124.6280957  90.3076627  42.5956527 124.0113890
  85.2952711  46.7592778 116.3334375  86.1571875  47.0847676 116.5930193
  85.4803055  45.9724273 115.8207441  77.3120127  54.8415117 128.6114564
  76.6183598  54.4269070 128.0984518  78.0593118  54.8835654 128.0147983
  93.4485347  45.6321304 123.4769598  92.8684016  46.2906108 123.0947651
  93.1821280  44.8098649 123.0657016  79.2256869  54.7733371 126.4880579
  79.2027557  54.8721058 125.5362462  79.5357506  55.6198522 126.8097745
  92.2310225  47.7921394 122.5325947  91.3436080  48.0771045 122.3146141
  92.6464214  47.6315158 121.6853223  91.3753439  57.5566069 116.6273966
  92.0789289  57.7616072 117.2431622  90.6516088  58.1242831 116.8923050
  92.2051249  53.3075930 122.7476237  92.1486450  53.7644482 121.9083869
  92.7579592  52.5466615 122.5699079  96.0156055  49.0965662 123.5726356
  95.7592989  48.6962298 124.4034564  95.3908923  49.8109456 123.4476495
  93.2840136  57.9948598 118.6772427  94.1185740  57.5629797 118.4949901
  93.1224479  57.8230612 119.6049321  92.9386028  54.4980712 120.0428766
  92.8834832  54.3324983 119.1017210  92.3132084  55.2056744 120.1990956
  77.7278543  49.7348776 133.8690188  78.3737407  49.2247730 134.3577413
  77.5195694  50.4717458 134.4433613  86.2482154  43.9988821 119.6214084
  86.2360824  44.9430660 119.7782355  87.1405576  43.8158966 119.3273545
  94.7453992  64.4486146 119.1907379  93.9091304  64.7860832 119.5116654
  94.6058761  64.3135125 118.2534516  94.6192372  64.2933373 116.3905286
  93.7421838  64.1722174 116.0267533  95.0950125  63.5019451 116.1384175
  92.3210840  65.2332376 119.9486941  91.6280085  65.3076731 119.2926977
  92.0762592  64.4692719 120.4708458  97.3647681  65.2297760 116.1922396
  96.4579136  64.9330873 116.2685110  97.6423662  64.9327578 115.3256682
  96.1346465  62.0884695 116.3334375  96.9965629  62.4139594 116.5930193
  96.3196809  61.3016191 115.8207441  97.0875908  59.3280738 119.6214084
  97.0754578  60.2722578 119.7782355  97.9799330  59.1450884 119.3273545
  68.2205094   9.3026105 105.4581848  67.5466792   9.6057802 106.0666806
  68.6070916  10.1055186 105.1087305  72.1861834   6.8811589 106.7321671
  72.8812739   7.5018281 106.9508986  72.5284985   6.0306940 107.0074049
  66.2776703   6.9873340 105.6396765  65.7050670   7.6063528 105.1867237
  66.8509497   7.5372702 106.1736687  69.4973963   7.2710491 106.7705347
  70.4304636   7.2056052 106.9738223  69.4097175   8.1066757 106.3119880
  72.1261979   6.5876361 103.7309295  72.0475611   6.2536224 104.6245053
  72.9471646   7.0798129 103.7300767  69.6965931   3.9044356 103.3519273
  70.4001781   4.1094359 103.9676929  68.9728580   4.4721118 103.6168357
  71.6052628   4.3426885 105.4017733  72.4398232   3.9108084 105.2195208
  71.4436971   4.1708899 106.3294628  80.2336904  14.8596537 115.4972910
  80.8715314  14.7403284 114.7936250  80.1157746  15.8077381 115.5560862
  72.9013426  16.6659441 111.4231326  72.3378291  16.5749378 110.6547613
  72.7865821  15.8459346 111.9033818  78.4812984  20.3330409 106.7345790
  77.8300964  20.9184489 106.3479804  79.2757347  20.8636604 106.7940828
  72.4068611  17.4219546 107.1332925  73.1799487  16.8748533 106.9945801
  72.7594010  18.2863795 107.3447386  74.7434889  13.5812212 104.7651375
  74.9960410  13.0593733 104.0034838  73.8059448  13.4178358 104.8678058
  79.7878172  12.5847990 112.5726118  80.5741261  12.1667414 112.2216535
  80.0516876  13.4894083 112.7407766  79.9588249  18.0220841 107.2714775
  79.3234082  18.0955467 107.9835679  79.6285656  18.6114440 106.5933854
  74.4631178  15.4840318 106.9675750  74.3467436  14.8085221 107.6356834
  74.5733438  14.9972692 106.1507903  76.8062719  14.9450465 110.6722439
  76.4420926  14.4181086 111.3835360  77.6629835  14.5548934 110.4988924
  76.4468206   9.9740365 105.6683787  76.6142608  10.8420601 106.0354258
  76.2565375  10.1367647 104.7445077  76.4257427  12.4298022 106.6530454
  76.3057052  12.8755073 107.4915935  75.7310015  12.7783340 106.0943992
  74.1864319  25.2001664 110.3020586  74.1088349  26.1509489 110.3809066
  73.5825962  24.8547537 110.9595512  82.1242493  12.9019496 107.4810788
  83.0360349  13.1346882 107.3058486  81.6152140  13.4856540 106.9185867
  80.7312075  17.8845314 114.8724370  80.1020938  18.0491028 114.1700438
  80.3437737  18.2986924 115.6435334  84.6101307  18.8199752 112.2268734
  83.9252345  19.1998653 111.6765767  84.6945156  19.4295078 112.9600681
  76.2840037  17.6219722 112.1374455  76.7478383  17.9007425 111.3479077
  76.0196835  16.7203167 111.9547546  75.2208923  13.7442874 108.9464020
  75.9232967  14.1963918 109.4137946  74.8889552  13.1026693 109.5743913
  76.4602688  20.5583817 109.0226125  76.3248363  21.4035353 109.4510973
  77.0012500  20.7603095 108.2592059  69.9132085  18.0759255 109.5954050
  70.4256606  18.8702505 109.7459615  70.5654798  17.3785546 109.5287652
  71.7226970  21.1925011 111.6776803  71.8993598  22.1142976 111.4897787
  72.5183803  20.8783431 112.1071183  72.8458285  22.7103185 117.6787146
  73.3965710  22.5820249 116.9064140  72.0069761  23.0098074 117.3282039
  67.8781002  16.4047909 110.3713621  68.7156224  16.8144918 110.1547329
  68.0559270  15.4647352 110.3413815  79.7745434  14.0722990 106.0597454
  79.2592058  14.8427595 106.2985841  79.5022743  13.3988126 106.6830515
  77.3592545   8.9172691 111.1182692  76.5034141   8.5279541 110.9388331
  77.7719497   8.9964652 110.2582478  84.7479708  16.8255345 107.9950627
  83.9709151  16.4866504 107.5505789  85.4271189  16.8307968 107.3205592
  79.5631737  11.9450082 107.8857235  79.2581873  12.2596231 108.7367378
  80.5162179  12.0231502 107.9284568  78.0078169  18.1040305 109.5350189
  77.4799531  17.3693065 109.2223426  77.5065672  18.8814982 109.2890157
  82.9871015  16.2989326 114.6517235  82.3294690  16.9888587 114.7397364
  83.7911414  16.6885758 114.9951222  81.7976474  14.6533699 112.7021177
  82.3108356  15.2863690 113.2042887  82.4477698  14.0534894 112.3364537
  73.0666484  10.7964433 105.9152686  72.2303796  11.1339119 106.2361960
  72.9271253  10.6613413 104.9779823  76.1530769  15.9220516 102.5385162
  75.2457831  15.6909769 102.7376311  76.6501801  15.1258135 102.7259144
  79.0598848  24.6318023 105.4581848  78.3860547  24.9349720 106.0666806
  79.4464670  25.4347103 105.1087305  79.0592353  13.5274570 110.0782198
  79.8064171  14.0395967 109.7689320  79.3283942  13.2058623 110.9386591
  77.3319003  16.0233111 107.0609152  76.4230222  15.7392143 107.1581622
  77.3614087  16.4432189 106.2012459  82.5638270  19.6339700 110.8300320
  82.1100597  18.7930610 110.8865510  81.9332237  20.2701098 111.1675100
  81.5071190  10.5631686 112.0600987  80.7693946  10.0509072 112.3911230
  81.7597963  10.1232068 111.2484264  81.0071209  21.4716197 111.7650138
  81.2994184  22.0321254 111.0462503  81.5169830  21.7644758 112.5203297
  75.8803897  13.6361731 113.1618947  75.9352507  12.6835568 113.0861424
  75.0695099  13.7921170 113.6460246  77.0295091  17.5641854 104.3997231
  76.5914520  16.8477713 103.9402868  77.7705531  17.7917969 103.8382322
  73.8196257  12.2538791 110.9209326  73.0064122  12.5532961 111.3274518
  74.3155251  11.8594480 111.6383809  75.9704835  22.2496548 112.8543591
  75.9281013  22.4757394 111.9252123  76.8867533  22.0159922 113.0029392
  85.1468205  15.8399051 110.4573549  85.0086104  16.0300647 109.5294738
  84.7904424  16.6018434 110.9141600  74.0870635  19.1259577 112.6505554
  74.8811234  18.6309897 112.4488129  73.3762328  18.5977440 112.2873259
  78.9065480  21.5077672 117.0017921  78.9602502  22.0768609 117.7695637
  78.0380261  21.6779557 116.6371958  70.3953399  13.2702659 108.7265306
  69.4650987  13.2087114 108.9435269  70.4910871  12.7478611 107.9301948
  76.6641911  19.6988599 116.3303391  76.5252997  19.3307383 117.2029329
  75.8756508  20.2136238 116.1587349  77.2590063  24.7997695 107.6728927
  77.4341819  24.3285739 108.4874550  76.5722851  25.4263462 107.9010188
  78.2147126  19.0770202 113.7192229  77.8796959  19.0370972 114.6149878
  77.7151072  18.4114917 113.2462639  81.1506318  16.4226236 103.9929288
  80.5335489  15.6973064 103.8962341  80.6822807  17.1835596 103.6496363
  71.8251149  27.9487058 114.4468788  72.0647747  28.5805582 115.1247806
  70.9820345  27.5975098 114.7334147  72.9404864  10.6411660 103.1150593
  72.0634330  10.5200461 102.7512839  73.4162617   9.8497739 102.8629481
  76.3379010  23.7566181 116.8510292  76.2649182  24.5621152 117.3629596
  75.8956404  23.9558146 116.0258313  76.1268790  22.9937951 110.3613113
  75.3436312  23.5359631 110.4551338  76.8261535  23.5111930 110.7607354
  78.7977694  23.6553015 119.0068450  79.5105666  24.2900479 118.9344352
  78.3067723  23.7516881 118.1908452  80.5195221  17.5604267 110.5785742
  79.5851500  17.6805730 110.4090446  80.6971889  16.6576734 110.3145752
  83.9067772  13.4021587 111.1135776  84.3728224  14.2349578 111.0396079
  84.3575273  12.9366568 111.8181034  81.9744003  19.7465408 108.1121928
  82.2503847  19.6322002 109.0215802  81.1048502  19.3482893 108.0734101
  78.6098067  23.9951759 111.7554742  78.7920462  23.1773415 112.2182494
  79.4331053  24.2119451 111.3179632  78.9440233  22.9219944 109.0169790
  79.4727999  22.4112398 108.4039952  79.2068452  22.6062474 109.8815323
  72.2995981  23.9735060 111.7767566  71.6306356  24.4581188 111.2931606
  72.1608850  24.2204281 112.6910945  76.4401249  26.0078804 118.3750224
  76.9919557  26.1710426 119.1399310  76.7807443  26.5983242 117.7030249
  67.6683558  12.2353515 108.5563498  67.9636999  11.3264194 108.5030552
  66.7671594  12.2141255 108.2344501  79.5769637  23.9560780 115.3613907
  79.4520776  23.1550519 114.8524852  80.2348728  24.4506973 114.8727877
  81.6404545  21.7569800 116.9893457  80.6934881  21.6375151 116.9171783
  81.9887318  20.8692298 117.0719718  78.6450978  21.5522516 113.1897809
  78.4975941  20.6239223 113.3705379  79.4704472  21.5742607 112.7054884
  72.5113223  10.2040583 109.0478301  72.8509295  10.7326504 108.3256909
  72.9585343  10.5420989 109.8236868  82.2485100  22.3751075 114.2762682
  83.1731648  22.1693936 114.1387133  82.0800404  22.1267476 115.1852023
  74.4981370   8.7015205 107.2471594  75.2189732   9.0796457 106.7435311
  73.8746674   9.4204081 107.3506572  78.6412493   9.4060353 108.1829926
  78.8576107  10.2884991 107.8818754  78.1606560   9.0146567 107.4535568
  82.0380416  22.8936742 109.6324773  82.2117294  22.3283164 108.8798626
  82.5309308  23.6937637 109.4504263  87.8919808  15.6573165 111.2515073
  88.3350954  14.9080490 110.8534196  87.0146318  15.6483301 110.8688805
  83.0255589  22.2103506 106.7321671  83.7206494  22.8310199 106.9508986
  83.3678739  21.3598858 107.0074049  84.9247012  19.6603212 108.2609002
  85.4498336  19.9990485 107.5358322  84.8369365  18.7250227 108.0772137
  76.6087673  25.7275195 112.6204255  76.1692663  25.2351574 113.3137112
  77.3595790  25.1848163 112.3796331  69.0880012  21.9186736 112.6228883
  69.9138032  21.6190508 112.2427527  68.7374064  21.1494359 113.0718672
  74.0561545  21.2713204 114.6926557  73.4341554  20.6083909 114.3928785
  74.7266412  21.2974336 114.0100205  73.6175052  19.8217128 108.1685018
  73.7663172  20.5052592 107.5151690  74.4241495  19.8022218 108.6834473
  71.3727685  15.8482305 109.1746086  71.1273727  14.9444635 109.3726297
  71.5423599  15.8499456 108.2325564  70.6423332  11.5810663 106.6732248
  69.9492577  11.6555018 106.0172284  70.3975084  10.8171006 107.1953765
  77.1170457  22.3165258 105.6396765  76.5444424  22.9355445 105.1867237
  77.6903251  22.8664620 106.1736687  80.3367717  22.6002408 106.7705347
  81.2698390  22.5347970 106.9738223  80.2490930  23.4358675 106.3119880
  82.9655734  21.9168279 103.7309295  82.8869365  21.5828142 104.6245053
  83.7865401  22.4090046 103.7300767  77.5017256  13.6526071 102.9812817
  78.4476361  13.5232279 103.0501235  77.1231501  12.9140733 103.4582246
  75.6860173  11.5776047 102.9167703  74.7791628  11.2809160 102.9930416
  75.9636154  11.2805865 102.0501989  77.3022239   6.1212937 109.0711944
  76.4922967   5.7760022 109.4467190  77.9906656   5.8120481 109.6599556
  74.4558958   8.4362982 103.0579682  75.3178122   8.7617881 103.3175499
  74.6409302   7.6494478 102.5452748  82.6091594   7.3091509 110.2014905
  82.0290263   7.9676313 109.8192957  82.3427527   6.4868854 109.7902322
  81.3916472   9.4691599 109.2571253  80.5042327   9.7541250 109.0391448
  81.8070461   9.3085363 108.4098530  69.4000723  24.0499350 114.3442698
  69.2655190  23.2899751 113.7780696  68.9832785  24.7740250 113.8771487
  80.5359686  19.2336274 103.3519273  81.2395536  19.4386276 103.9676929
  79.8122334  19.8013036 103.6168357  81.3657496  14.9846135 109.4721543
  81.3092697  15.4414687 108.6329176  81.9185838  14.2236820 109.2944386
  85.1762302  10.7735867 110.2971663  84.9199236  10.3732503 111.1279870
  84.5515170  11.4879661 110.1721802  72.5569848  24.9468667 114.5561140
  72.4402233  25.8914100 114.4539831  71.7362295  24.6442229 114.9446940
  82.4446383  19.6718803 105.4017733  83.2791987  19.2400002 105.2195208
  82.2830726  19.5000817 106.3294628  82.0992275  16.1750916 106.7674072
  82.0441079  16.0095188 105.8262517  81.4738330  16.8826949 106.9236262
  75.4088401   5.6759025 106.3459391  75.3967070   6.6200865 106.5027662
  76.3011822   5.4929171 106.0518852  73.5824363  25.5996929 117.7717069
  74.4851609  25.6320540 118.0883564  73.3561733  24.6697380 117.7863405
  75.3377965  24.3527916 114.4327148  74.3873596  24.3529778 114.3191520
  75.6410451  23.6060650 113.9163182  91.0730658  30.1888454 115.4972910
  91.7109068  30.0695202 114.7936250  90.9551501  31.1369298 115.5560862
  87.8820364  30.1415882 115.4334435  87.5438876  30.0256947 114.5454969
  88.7510133  29.7407047 115.4135441  83.7407180  31.9951359 111.4231326
  83.1772045  31.9041296 110.6547613  83.6259575  31.1751263 111.9033818
  81.2871612  33.4902550 114.2615546  82.0792904  33.1493375 113.8461845
  81.5268262  33.5997525 115.1817699  89.3206739  35.6622327 106.7345790
  88.6694719  36.2476407 106.3479804  90.1151102  36.1928521 106.7940828
  83.2462366  32.7511464 107.1332925  84.0193242  32.2040451 106.9945801
  83.5987765  33.6155713 107.3447386  85.0847408  34.0787846 120.3399824
  84.7937274  34.9833477 120.2246490  85.7204393  34.1204374 121.0543894
  86.0103615  31.4564694 116.9301184  86.6067188  31.2320717 116.2158147
  86.0678587  30.7149440 117.5326632  85.5828644  28.9104130 104.7651375
  85.8354164  28.3885651 104.0034838  84.6453203  28.7470275 104.8678058
  90.6271927  27.9139908 112.5726118  91.4135016  27.4959331 112.2216535
  90.8910631  28.8186000 112.7407766  90.7982004  33.3512758 107.2714775
  90.1627837  33.4247385 107.9835679  90.4679410  33.9406357 106.5933854
  85.3024932  30.8132236 106.9675750  85.1861191  30.1377139 107.6356834
  85.4127192  30.3264610 106.1507903  87.6456473  30.2742383 110.6722439
  87.2814681  29.7473004 111.3835360  88.5023589  29.8840852 110.4988924
  87.2861960  25.3032283 105.6683787  87.4536363  26.1712519 106.0354258
  87.0959129  25.4659564 104.7445077  90.0437294  33.7649261 117.3349618
  89.7438017  34.6674300 117.2265425  89.6988353  33.4981445 118.1870771
  83.4949775  30.2163058 113.3686322  82.5700272  30.0839272 113.5764014
  83.7434188  30.9957278 113.8656265  87.2651181  27.7589940 106.6530454
  87.1450806  28.2046991 107.4915935  86.5703770  28.1075258 106.0943992
  80.8558586  29.8596332 114.2030111  80.9850967  30.1130811 115.1169523
  80.1756037  30.4524040 113.8834766  85.0258073  40.5293582 110.3020586
  84.9482103  41.4801407 110.3809066  84.4219717  40.1839454 110.9595512
  92.9636247  28.2311413 107.4810788  93.8754104  28.4638800 107.3058486
  92.4545894  28.8148457 106.9185867  91.5705830  33.2137232 114.8724370
  90.9414692  33.3782946 114.1700438  91.1831492  33.6278841 115.6435334
  95.4495062  34.1491670 112.2268734  94.7646100  34.5290571 111.6765767
  95.5338911  34.7586996 112.9600681  87.1233792  32.9511640 112.1374455
  87.5872137  33.2299343 111.3479077  86.8590590  32.0495084 111.9547546
  84.0157873  32.4983121 115.0754218  84.5859230  32.9270390 114.4371703
  84.6065985  32.2165706 115.7738404  86.0602678  29.0734792 108.9464020
  86.7626721  29.5255836 109.4137946  85.7283306  28.4318611 109.5743913
  79.8028012  27.3318345 114.2481154  79.0127066  27.5875873 113.7721264
  80.2939259  28.1466683 114.3533194  81.7542757  27.6962924 111.2064630
  80.9573920  27.8081618 111.7248126  81.5268349  28.0349576 110.3405521
  87.5848425  34.2207627 119.1547145  87.6492857  34.6828034 119.9905317
  86.8759348  33.5904992 119.2829455  78.0865715  27.5848835 116.6796144
  78.3373753  28.4695845 116.9453720  78.6225263  27.4053437 115.9071236
  87.2996442  35.8875735 109.0226125  87.1642117  36.7327270 109.4510973
  87.8406255  36.0895012 108.2592059  80.7525840  33.4051173 109.5954050
  81.2650360  34.1994423 109.7459615  81.4048552  32.7077463 109.5287652
  82.5620724  36.5216929 111.6776803  82.7387353  37.4434894 111.4897787
  83.3577558  36.2075348 112.1071183  81.8473081  28.5681561 121.5538967
  81.7326596  27.6666818 121.8546066  80.9917599  28.8145258 121.2023783
  83.6852040  38.0395103 117.6787146  84.2359465  37.9112166 116.9064140
  82.8463516  38.3389992 117.3282039  87.4819211  34.3046231 122.0231377
  88.0147548  33.5434519 121.7930685  86.9533292  34.0119882 122.7655531
  78.7174756  31.7339827 110.3713621  79.5549978  32.1436835 110.1547329
  78.8953024  30.7939269 110.3413815  90.6139189  29.4014908 106.0597454
  90.0985812  30.1719512 106.2985841  90.3416497  28.7280044 106.6830515
  88.1986300  24.2464609 111.1182692  87.3427896  23.8571459 110.9388331
  88.6113251  24.3256569 110.2582478  85.9728332  21.8649681 114.5240434
  86.8381329  21.6692490 114.1646323  86.0405841  21.6360033 115.4509790
  95.5873463  32.1547262 107.9950627  94.8102905  31.8158422 107.5505789
  96.2664944  32.1599886 107.3205592  90.4025492  27.2742000 107.8857235
  90.0975627  27.5888149 108.7367378  91.3555934  27.3523420 107.9284568
  88.8471924  33.4332223 109.5350189  88.3193285  32.6984983 109.2223426
  88.3459426  34.2106899 109.2890157  93.8264770  31.6281244 114.6517235
  93.1688444  32.3180505 114.7397364  94.6305169  32.0177676 114.9951222
  83.5790651  24.0951889 111.8956800  84.1534403  23.8727071 111.1629993
  84.1661634  24.1640584 112.6485402  92.6370228  29.9825616 112.7021177
  93.1502110  30.6155608 113.2042887  93.2871452  29.3826812 112.3364537
  83.9060238  26.1256350 105.9152686  83.0697551  26.4631037 106.2361960
  83.7665008  25.9905330 104.9779823  85.8813319  20.9693138 110.6231870
  85.2277731  20.6542155 109.9988485  85.8393793  20.3468879 111.3491693
  86.9924524  31.2512433 102.5385162  86.0851586  31.0201687 102.7376311
  87.4895556  30.4550053 102.7259144  89.8992603  39.9609941 105.4581848
  89.2254301  40.2641637 106.0666806  90.2858425  40.7639021 105.1087305
  89.1151059  27.4575072 114.9479518  88.1973621  27.6790019 114.7901206
  89.5311203  27.5321382 114.0891225  89.8986107  28.8566488 110.0782198
  90.6457926  29.3687885 109.7689320  90.1677697  28.5350540 110.9386591
  88.1712757  31.3525028 107.0609152  87.2623976  31.0684061 107.1581622
  88.2007841  31.7724107 106.2012459  93.4032025  34.9631618 110.8300320
  92.9494352  34.1222528 110.8865510  92.7725991  35.5993016 111.1675100
  92.3464944  25.8923604 112.0600987  91.6087701  25.3800990 112.3911230
  92.5991718  25.4523985 111.2484264  91.8464964  36.8008114 111.7650138
  92.1387938  37.3613172 111.0462503  92.3563584  37.0936675 112.5203297
  78.7400928  29.0730542 111.0424354  78.5425327  28.4799903 110.3175421
  78.1847592  28.7682753 111.7600293  86.7197651  28.9653649 113.1618947
  86.7746261  28.0127485 113.0861424  85.9088853  29.1213088 113.6460246
  87.8688845  32.8933772 104.3997231  87.4308275  32.1769631 103.9402868
  88.6099286  33.1209887 103.8382322  84.6590011  27.5830709 110.9209326
  83.8457877  27.8824879 111.3274518  85.1549005  27.1886397 111.6383809
  86.8098589  37.5788466 112.8543591  86.7674768  37.8049312 111.9252123
  87.7261288  37.3451840 113.0029392  95.9861960  31.1690969 110.4573549
  95.8479858  31.3592565 109.5294738  95.6298179  31.9310352 110.9141600
  84.1504086  25.1549064 116.5370561  84.7903465  25.0137823 115.8393525
  83.3181616  24.8683578 116.1609163  84.9264390  34.4551495 112.6505554
  85.7204988  33.9601815 112.4488129  84.2156082  33.9269358 112.2873259
  89.7459234  36.8369590 117.0017921  89.7996257  37.4060526 117.7695637
  88.8774016  37.0071475 116.6371958  81.2347153  28.5994576 108.7265306
  80.3044741  28.5379032 108.9435269  81.3304625  28.0770529 107.9301948
  81.1532702  25.1249389 111.3143548  81.4139520  26.0394722 111.2052709
  81.9749875  24.6573832 111.4640161  82.6257628  26.5387146 118.4842373
  83.2980681  26.3304508 117.8355022  81.7987414  26.3409232 118.0447605
  88.7047334  31.0029852 118.5604853  89.6339394  31.1541012 118.3873821
  88.2838364  31.0913873 117.7053500  87.5035666  35.0280517 116.3303391
  87.3646752  34.6599301 117.2029329  86.7150262  35.5428156 116.1587349
  88.0983818  40.1289613 107.6728927  88.2735573  39.6577656 108.4874550
  87.4116606  40.7555379 107.9010188  89.0540881  34.4062119 113.7192229
  88.7190714  34.3662889 114.6149878  88.5544827  33.7406835 113.2462639
  83.0285125  29.8129749 119.2444810  82.8904923  29.0809988 119.8456349
  83.9390048  29.7238649 118.9628998  91.9900073  31.7518154 103.9929288
  91.3729243  31.0264982 103.8962341  91.5216561  32.5127514 103.6496363
  85.6567426  29.5249709 118.7328489  86.3667044  28.8842901 118.6915108
  85.6136734  29.7762603 119.6554670  82.6644903  43.2778976 114.4468788
  82.9041501  43.9097500 115.1247806  81.8214100  42.9267016 114.7334147
  83.7798619  25.9703578 103.1150593  82.9028085  25.8492379 102.7512839
  84.2556372  25.1789656 102.8629481  75.3000759  30.7580738 113.2092100
  75.9871799  30.4442468 112.6213115  75.1448887  31.6622102 112.9359351
  80.1035481  25.6470934 117.6377123  80.0193670  25.0396604 116.9027533
  79.2818187  26.1379952 117.6386620  87.1772765  39.0858098 116.8510292
  87.1042936  39.8913070 117.3629596  86.7350158  39.2850064 116.0258313
  86.9662545  38.3229868 110.3613113  86.1830066  38.8651548 110.4551338
  87.6655290  38.8403848 110.7607354  90.2759195  24.1324498 113.0047318
  90.7727894  23.3794460 112.6848389  89.5046176  24.1688814 112.4390528
  89.6371448  38.9844932 119.0068450  90.3499421  39.6192397 118.9344352
  89.1461477  39.0808798 118.1908452  91.3588975  32.8896185 110.5785742
  90.4245254  33.0097647 110.4090446  91.5365644  31.9868652 110.3145752
  86.8594163  26.2741881 112.7319003  86.4891951  25.7212921 113.4199909
  87.3553256  25.6700014 112.1794003  94.7461527  28.7313504 111.1135776
  95.2121979  29.5641496 111.0396079  95.1969027  28.2658486 111.8181034
  84.6883362  36.7339376 119.8274021  85.3892821  37.3675859 119.9803415
  84.2178477  37.0754107 119.0669660  92.8137758  35.0757326 108.1121928
  93.0897602  34.9613920 109.0215802  91.9442257  34.6774810 108.0734101
  89.4491822  39.3243676 111.7554742  89.6314216  38.5065332 112.2182494
  90.2724808  39.5411369 111.3179632  89.7833987  38.2511861 109.0169790
  90.3121754  37.7404316 108.4039952  90.0462207  37.9354392 109.8815323
  80.2851080  36.2675731 116.7605124  80.8704517  35.5219419 116.8933028
  80.0875919  36.5779687 117.6441788  83.1389735  39.3026978 111.7767566
  82.4700111  39.7873106 111.2931606  83.0002605  39.5496199 112.6910945
  74.8768735  28.8381331 115.4809567  74.9152834  28.3044922 116.2746685
  74.3709028  28.3116536 114.8620544  87.2795004  41.3370722 118.3750224
  87.8313312  41.5002343 119.1399310  87.6201197  41.9275160 117.7030249
  82.2559497  23.6845871 118.9772109  82.3200824  24.5460702 118.5649507
  82.1926617  23.0719873 118.2444468  78.5077312  27.5645433 108.5563498
  78.8030753  26.6556112 108.5030552  77.6065348  27.5433173 108.2344501
  90.4163391  39.2852697 115.3613907  90.2914531  38.4842437 114.8524852
  91.0742482  39.7798891 114.8727877  82.0371559  25.6401430 114.5391047
  81.3158145  26.2537397 114.3998520  82.8264815  26.1759195 114.4607693
  92.4798300  37.0861717 116.9893457  91.5328635  36.9667068 116.9171783
  92.8281073  36.1984215 117.0719718  80.2365154  25.2459531 108.6802823
  79.9077860  24.3656910 108.4977929  80.5904525  25.1907199 109.5679213
  89.4844733  36.8814434 113.1897809  89.3369695  35.9531141 113.3705379
  90.3098226  36.9034524 112.7054884  83.3506977  25.5332501 109.0478301
  83.6903050  26.0618422 108.3256909  83.7979098  25.8712907 109.8236868
  93.0878855  37.7042992 114.2762682  94.0125402  37.4985854 114.1387133
  92.9194158  37.4559393 115.1852023  85.3375124  24.0307122 107.2471594
  86.0583487  24.4088375 106.7435311  84.7140428  24.7495999 107.3506572
  89.4806247  24.7352271 108.1829926  89.6969862  25.6176909 107.8818754
  89.0000314  24.3438485 107.4535568  84.2205469  27.6937984 114.7600671
  84.0750049  28.0078287 115.6524952  83.7430672  28.3122885 114.2071569
  86.0801851  24.6840532 114.8081560  86.0663420  23.7881626 114.4713858
  86.7974280  24.6911196 115.4419846  92.8774171  38.2228660 109.6324773
  93.0511048  37.6575082 108.8798626  93.3703062  39.0229555 109.4504263
  78.6951131  30.2343329 117.6988332  78.1504599  31.0103137 117.8308606
  79.5730481  30.5814133 117.5407453  85.4838747  23.5654913 110.0769130
  85.6054659  22.6371559 110.2760018  85.1940790  23.5793599 109.1647446
  88.3529938  21.2509823 113.2135850  88.3751635  21.3149156 112.2587830
  88.7697997  20.4114332 113.4076356  98.7313562  30.9865083 111.2515073
  99.1744708  30.2372408 110.8534196  97.8540072  30.9775219 110.8688805
  93.8649343  37.5395424 106.7321671  94.5600248  38.1602117 106.9508986
  94.2072494  36.6890775 107.0074049  79.4817153  29.3613225 120.5918489
  78.7398889  29.5095860 121.1783119  79.1609897  29.6221491 119.7285238
  95.7640766  34.9895130 108.2609002  96.2892091  35.3282402 107.5358322
  95.6763119  34.0542145 108.0772137  87.4260815  38.9029203 120.3898879
  87.7347942  38.6578350 121.2621578  88.2236297  39.1075842 119.9017749
  87.4481427  41.0567113 112.6204255  87.0086418  40.5643492 113.3137112
  88.1989544  40.5140081 112.3796331  79.9273766  37.2478654 112.6228883
  80.7531786  36.9482426 112.2427527  79.5767818  36.4786276 113.0718672
  84.8955299  36.6005122 114.6926557  84.2735309  35.9375827 114.3928785
  85.5660166  36.6266254 114.0100205  78.1282371  35.1664980 113.5817817
  77.2914280  34.7387155 113.4001818  78.1006017  35.3597424 114.5188608
  84.4568806  35.1509045 108.1685018  84.6056927  35.8344510 107.5151690
  85.2635250  35.1314135 108.6834473  82.2121439  31.1774223 109.1746086
  81.9667481  30.2736553 109.3726297  82.3817354  31.1791373 108.2325564
  81.4817087  26.9102581 106.6732248  80.7886332  26.9846936 106.0172284
  81.2368839  26.1462924 107.1953765  87.9564212  37.6457176 105.6396765
  87.3838179  38.2647363 105.1867237  88.5297005  38.1956537 106.1736687
  91.1761472  37.9294326 106.7705347  92.1092145  37.8639888 106.9738223
  91.0884684  38.7650593 106.3119880  93.8049488  37.2460196 103.7309295
  93.7263120  36.9120060 104.6245053  94.6259155  37.7381964 103.7300767
  88.3411010  28.9817989 102.9812817  89.2870115  28.8524197 103.0501235
  87.9625255  28.2432650 103.4582246  86.5253927  26.9067965 102.9167703
  85.6185383  26.6101078 102.9930416  86.8029908  26.6097783 102.0501989
  77.4431868  28.2274328 113.3666749  77.1234652  27.3739637 113.0741123
  76.8965296  28.4422906 114.1224716  81.2211775  30.9436769 117.0836256
  81.4397785  31.8753877 117.1024289  81.6337549  30.5844744 117.8691059
  88.1415993  21.4504855 109.0711944  87.3316722  21.1051940 109.4467190
  88.8300410  21.1412398 109.6599556  90.0706541  20.5282901 110.6936241
  90.6237580  20.9478355 111.3526264  90.3076628  19.6018650 110.7359197
  85.2952712  23.7654900 103.0579682  86.1571876  24.0909798 103.3175499
  85.4803056  22.9786396 102.5452748  77.3120128  31.8477240 115.3359871
  76.6183599  31.4331193 114.8229825  78.0593119  31.8897776 114.7393290
  93.4485349  22.6383427 110.2014905  92.8684018  23.2968231 109.8192957
  93.1821281  21.8160771 109.7902322  79.2256870  31.7795494 113.2125886
  79.2027558  31.8783181 112.2607769  79.5357507  32.6260644 113.5343052
  81.8844248  33.8371649 117.3272500  82.8387502  33.8055591 117.2602432
  81.6856772  33.3762272 118.1422726  82.4743630  32.4072765 119.8943298
  83.2936519  32.9016843 119.9178135  82.7480438  31.4904733 119.8660865
  92.2310227  24.7983517 109.2571253  91.3436082  25.0833168 109.0391448
  92.6464216  24.6377280 108.4098530  80.2394477  39.3791268 114.3442698
  80.1048945  38.6191669 113.7780696  79.8226539  40.1032168 113.8771487
  91.3753440  34.5628192 103.3519273  92.0789290  34.7678194 103.9676929
  90.6516089  35.1304954 103.6168357  92.2051250  30.3138053 109.4721543
  92.1486452  30.7706604 108.6329176  92.7579593  29.5528738 109.2944386
  96.0156056  26.1027785 110.2971663  95.7592990  25.7024420 111.1279870
  95.3908924  26.8171579 110.1721802  83.3963603  40.2760585 114.5561140
  83.2795987  41.2206018 114.4539831  82.5756049  39.9734147 114.9446940
  93.2840137  35.0010721 105.4017733  94.1185741  34.5691919 105.2195208
  93.1224480  34.8292735 106.3294628  92.9386030  31.5042834 106.7674072
  92.8834833  31.3387106 105.8262517  92.3132085  32.2118867 106.9236262
  77.7278545  26.7410899 120.5935495  78.3737408  26.2309853 121.0822720
  77.5195696  27.4779580 121.1678920  86.2482155  21.0050943 106.3459391
  86.2360825  21.9492783 106.5027662  87.1405577  20.8221089 106.0518852
  84.4218117  40.9288847 117.7717069  85.3245364  40.9612457 118.0883564
  84.1955487  39.9989298 117.7863405  86.1771719  39.6819834 114.4327148
  85.2267350  39.6821695 114.3191520  86.4804205  38.9352568 113.9163182
 101.9124413  45.5180372 115.4972910 102.5502823  45.3987119 114.7936250
 101.7945255  46.4661216 115.5560862  98.7214119  45.4707800 115.4334435
  98.3832630  45.3548865 114.5454969  99.5903887  45.0698965 115.4135441
  94.5800935  47.3243276 111.4231326  94.0165800  47.2333213 110.6547613
  94.4653330  46.5043181 111.9033818  92.1265366  48.8194468 114.2615546
  92.9186658  48.4785293 113.8461845  92.3662017  48.9289443 115.1817699
 100.1600493  50.9914244 106.7345790  99.5088473  51.5768325 106.3479804
 100.9544856  51.5220439 106.7940828  94.0856120  48.0803381 107.1332925
  94.8586996  47.5332368 106.9945801  94.4381519  48.9447631 107.3447386
  95.9241163  49.4079764 120.3399824  95.6331029  50.3125394 120.2246490
  96.5598147  49.4496291 121.0543894  96.8497370  46.7856612 116.9301184
  97.4460942  46.5612635 116.2158147  96.9072341  46.0441358 117.5326632
  96.4222398  44.2396047 104.7651375  96.6747919  43.7177569 104.0034838
  95.4846957  44.0762193 104.8678058 101.4665681  43.2431826 112.5726118
 102.2528770  42.8251249 112.2216535 101.7304385  44.1477918 112.7407766
 101.6375758  48.6804676 107.2714775 101.0021591  48.7539303 107.9835679
 101.3073165  49.2698275 106.5933854  96.1418687  46.1424153 106.9675750
  96.0254945  45.4669057 107.6356834  96.2520947  45.6556527 106.1507903
  98.4850228  45.6034301 110.6722439  98.1208435  45.0764921 111.3835360
  99.3417344  45.2132770 110.4988924  98.1255715  40.6324200 105.6683787
  98.2930117  41.5004437 106.0354258  97.9352884  40.7951482 104.7445077
 100.8831048  49.0941179 117.3349618 100.5831771  49.9966218 117.2265425
 100.5382108  48.8273362 118.1870771  94.3343530  45.5454976 113.3686322
  93.4094026  45.4131190 113.5764014  94.5827943  46.3249195 113.8656265
  98.1044936  43.0881858 106.6530454  97.9844561  43.5338908 107.4915935
  97.4097524  43.4367175 106.0943992  91.6952341  45.1888250 114.2030111
  91.8244722  45.4422728 115.1169523  91.0149792  45.7815958 113.8834766
  95.8651828  55.8585499 110.3020586  95.7875858  56.8093325 110.3809066
  95.2613471  55.5131372 110.9595512 103.8030002  43.5603331 107.4810788
 104.7147858  43.7930718 107.3058486 103.2939649  44.1440375 106.9185867
 102.4099584  48.5429149 114.8724370 101.7808447  48.7074863 114.1700438
 102.0225246  48.9570759 115.6435334 106.2888816  49.4783587 112.2268734
 105.6039854  49.8582489 111.6765767 106.3732665  50.0878914 112.9600681
  97.9627546  48.2803557 112.1374455  98.4265892  48.5591260 111.3479077
  97.6984344  47.3787002 111.9547546  94.8551627  47.8275039 115.0754218
  95.4252984  48.2562307 114.4371703  95.4459739  47.5457624 115.7738404
  96.8996432  44.4026710 108.9464020  97.6020475  44.8547753 109.4137946
  96.5677061  43.7610529 109.5743913  90.6421766  42.6610262 114.2481154
  89.8520820  42.9167791 113.7721264  91.1333013  43.4758600 114.3533194
  92.5936511  43.0254842 111.2064630  91.7967675  43.1373536 111.7248126
  92.3662104  43.3641494 110.3405521  98.4242179  49.5499545 119.1547145
  98.4886612  50.0119952 119.9905317  97.7153103  48.9196910 119.2829455
  88.9259469  42.9140753 116.6796144  89.1767508  43.7987763 116.9453720
  89.4619017  42.7345354 115.9071236  98.1390197  51.2167652 109.0226125
  98.0035872  52.0619188 109.4510973  98.6800009  51.4186930 108.2592059
  91.5919594  48.7343090 109.5954050  92.1044115  49.5286341 109.7459615
  92.2442307  48.0369381 109.5287652  93.4014479  51.8508847 111.6776803
  93.5781107  52.7726811 111.4897787  94.1971312  51.5367266 112.1071183
  92.6866835  43.8973479 121.5538967  92.5720351  42.9958736 121.8546066
  91.8311353  44.1437175 121.2023783  94.5245794  53.3687021 117.6787146
  95.0753219  53.2404084 116.9064140  93.6857270  53.6681910 117.3282039
  98.3212965  49.6338148 122.0231377  98.8541302  48.8726437 121.7930685
  97.7927046  49.3411800 122.7655531  89.5568511  47.0631745 110.3713621
  90.3943733  47.4728753 110.1547329  89.7346779  46.1231187 110.3413815
 101.4532943  44.7306825 106.0597454 100.9379566  45.5011430 106.2985841
 101.1810252  44.0571962 106.6830515  99.0380054  39.5756526 111.1182692
  98.1821650  39.1863377 110.9388331  99.4507006  39.6548487 110.2582478
  96.8122087  37.1941599 114.5240434  97.6775083  36.9984408 114.1646323
  96.8799596  36.9651951 115.4509790 106.4267217  47.4839180 107.9950627
 105.6496660  47.1450340 107.5505789 107.1058698  47.4891803 107.3205592
 101.2419246  42.6033918 107.8857235 100.9369382  42.9180067 108.7367378
 102.1949688  42.6815337 107.9284568  99.6865678  48.7624141 109.5350189
  99.1587040  48.0276900 109.2223426  99.1853181  49.5398817 109.2890157
 104.6658524  46.9573161 114.6517235 104.0082199  47.6472423 114.7397364
 105.4698923  47.3469593 114.9951222  94.4184406  39.4243807 111.8956800
  94.9928158  39.2018989 111.1629993  95.0055388  39.4932502 112.6485402
 103.4763983  45.3117534 112.7021177 103.9895865  45.9447526 113.2042887
 104.1265207  44.7118730 112.3364537  94.7453993  41.4548268 105.9152686
  93.9091305  41.7922955 106.2361960  94.6058762  41.3197248 104.9779823
  96.7207073  36.2985056 110.6231870  96.0671486  35.9834073 109.9988485
  96.6787548  35.6760796 111.3491693  97.8318278  46.5804351 102.5385162
  96.9245340  46.3493605 102.7376311  98.3289310  45.7841970 102.7259144
 100.7386357  55.2901858 105.4581848 100.0648056  55.5933555 106.0666806
 101.1252179  56.0930939 105.1087305  99.9544814  42.7866990 114.9479518
  99.0367375  43.0081937 114.7901206 100.3704957  42.8613300 114.0891225
 100.7379862  44.1858405 110.0782198 101.4851680  44.6979802 109.7689320
 101.0071451  43.8642458 110.9386591  99.0106512  46.6816946 107.0609152
  98.1017731  46.3975979 107.1581622  99.0401595  47.1016025 106.2012459
 104.2425779  50.2923535 110.8300320 103.7888106  49.4514445 110.8865510
 103.6119746  50.9284934 111.1675100 103.1858699  41.2215521 112.0600987
 102.4481455  40.7092908 112.3911230 103.4385472  40.7815903 111.2484264
 102.6858718  52.1300032 111.7650138 102.9781693  52.6905089 111.0462503
 103.1957339  52.4228593 112.5203297  89.5794682  44.4022460 111.0424354
  89.3819082  43.8091821 110.3175421  89.0241346  44.0974670 111.7600293
  97.5591406  44.2945567 113.1618947  97.6140016  43.3419403 113.0861424
  96.7482608  44.4505006 113.6460246  98.7082599  48.2225690 104.3997231
  98.2702029  47.5061549 103.9402868  99.4493040  48.4501804 103.8382322
  95.4983766  42.9122626 110.9209326  94.6851631  43.2116797 111.3274518
  95.9942760  42.5178315 111.6383809  97.6492344  52.9080383 112.8543591
  97.6068522  53.1341230 111.9252123  98.5655042  52.6743758 113.0029392
 106.8255714  46.4982887 110.4573549 106.6873613  46.6884483 109.5294738
 106.4691933  47.2602269 110.9141600  94.9897840  40.4840982 116.5370561
  95.6297220  40.3429741 115.8393525  94.1575371  40.1975495 116.1609163
  95.7658144  49.7843412 112.6505554  96.5598743  49.2893732 112.4488129
  95.0549837  49.2561275 112.2873259 100.5852989  52.1661508 117.0017921
 100.6390011  52.7352444 117.7695637  99.7167770  52.3363393 116.6371958
  92.0740908  43.9286494 108.7265306  91.1438496  43.8670949 108.9435269
  92.1698380  43.4062447 107.9301948  91.9926457  40.4541307 111.3143548
  92.2533274  41.3686640 111.2052709  92.8143629  39.9865749 111.4640161
  93.4651382  41.8679064 118.4842373  94.1374436  41.6596426 117.8355022
  92.6381169  41.6701150 118.0447605  99.5441089  46.3321770 118.5604853
 100.4733149  46.4832929 118.3873821  99.1232119  46.4205791 117.7053500
  98.3429420  50.3572434 116.3303391  98.2040506  49.9891219 117.2029329
  97.5544017  50.8720074 116.1587349  98.9377572  55.4581531 107.6728927
  99.1129328  54.9869574 108.4874550  98.2510360  56.0847297 107.9010188
  99.8934635  49.7354037 113.7192229  99.5584468  49.6954807 114.6149878
  99.3938581  49.0698753 113.2462639  93.8678879  45.1421667 119.2444810
  93.7298677  44.4101906 119.8456349  94.7783803  45.0530567 118.9628998
 102.8293827  47.0810071 103.9929288 102.2122998  46.3556899 103.8962341
 102.3610316  47.8419432 103.6496363  96.4961180  44.8541626 118.7328489
  97.2060799  44.2134818 118.6915108  96.4530488  45.1054521 119.6554670
  93.5038658  58.6070893 114.4468788  93.7435256  59.2389418 115.1247806
  92.6607854  58.2558933 114.7334147  94.6192373  41.2995496 103.1150593
  93.7421839  41.1784296 102.7512839  95.0950126  40.5081574 102.8629481
  86.1394513  46.0872655 113.2092100  86.8265553  45.7734385 112.6213115
  85.9842642  46.9914020 112.9359351  90.9429235  40.9762852 117.6377123
  90.8587424  40.3688521 116.9027533  90.1211942  41.4671870 117.6386620
  98.0166519  54.4150016 116.8510292  97.9436691  55.2204987 117.3629596
  97.5743913  54.6141982 116.0258313  97.8056299  53.6521786 110.3613113
  97.0223821  54.1943466 110.4551338  98.5049044  54.1695766 110.7607354
 101.1152949  39.4616415 113.0047318 101.6121649  38.7086378 112.6848389
 100.3439931  39.4980732 112.4390528 100.4765203  54.3136850 119.0068450
 101.1893175  54.9484315 118.9344352  99.9855232  54.4100716 118.1908452
 102.1982730  48.2188103 110.5785742 101.2639009  48.3389565 110.4090446
 102.3759398  47.3160569 110.3145752  97.6987918  41.6033798 112.7319003
  97.3285705  41.0504839 113.4199909  98.1947010  40.9991932 112.1794003
 105.5855281  44.0605422 111.1135776 106.0515733  44.8933413 111.0396079
 106.0362782  43.5950403 111.8181034  95.5277116  52.0631293 119.8274021
  96.2286576  52.6967776 119.9803415  95.0572231  52.4046025 119.0669660
 103.6531512  50.4049243 108.1121928 103.9291356  50.2905838 109.0215802
 102.7836011  50.0066728 108.0734101 100.2885576  54.6535594 111.7554742
 100.4707971  53.8357250 112.2182494 101.1118562  54.8703286 111.3179632
 100.6227742  53.5803779 109.0169790 101.1515508  53.0696234 108.4039952
 100.8855961  53.2646309 109.8815323  91.1244835  51.5967648 116.7605124
  91.7098271  50.8511336 116.8933028  90.9269673  51.9071605 117.6441788
  93.9783490  54.6318896 111.7767566  93.3093865  55.1165023 111.2931606
  93.8396359  54.8788116 112.6910945  85.7162489  44.1673249 115.4809567
  85.7546589  43.6336839 116.2746685  85.2102782  43.6408454 114.8620544
  98.1188758  56.6662639 118.3750224  98.6707066  56.8294261 119.1399310
  98.4594952  57.2567077 117.7030249  93.0953252  39.0137789 118.9772109
  93.1594578  39.8752620 118.5649507  93.0320372  38.4011791 118.2444468
  89.3471067  42.8937351 108.5563498  89.6424508  41.9848029 108.5030552
  88.4459103  42.8725090 108.2344501 101.2557146  54.6144615 115.3613907
 101.1308285  53.8134355 114.8524852 101.9136237  55.1090808 114.8727877
  92.8765314  40.9693347 114.5391047  92.1551900  41.5829315 114.3998520
  93.6658570  41.5051112 114.4607693 103.3192054  52.4153635 116.9893457
 102.3722390  52.2958986 116.9171783 103.6674827  51.5276133 117.0719718
  91.0758908  40.5751448 108.6802823  90.7471615  39.6948827 108.4977929
  91.4298279  40.5199117 109.5679213 100.3238487  52.2106351 113.1897809
 100.1763450  51.2823059 113.3705379 101.1491981  52.2326442 112.7054884
  94.1900732  40.8624418 109.0478301  94.5296804  41.3910340 108.3256909
  94.6372852  41.2004824 109.8236868 103.9272609  53.0334910 114.2762682
 104.8519157  52.8277771 114.1387133 103.7587913  52.7851311 115.1852023
  96.1768879  39.3599040 107.2471594  96.8977241  39.7380293 106.7435311
  95.5534183  40.0787917 107.3506572 100.3200002  40.0644189 108.1829926
 100.5363616  40.9468827 107.8818754  99.8394069  39.6730402 107.4535568
  95.0599223  43.0229902 114.7600671  94.9143804  43.3370205 115.6524952
  94.5824427  43.6414802 114.2071569  96.9195606  40.0132450 114.8081560
  96.9057175  39.1173543 114.4713858  97.6368034  40.0203114 115.4419846
 103.7167925  53.5520577 109.6324773 103.8904803  52.9867000 108.8798626
 104.2096817  54.3521472 109.4504263  89.5344885  45.5635246 117.6988332
  88.9898353  46.3395054 117.8308606  90.4124235  45.9106051 117.5407453
  96.3232502  38.8946830 110.0769130  96.4448413  37.9663476 110.2760018
  96.0334544  38.9085516 109.1647446  99.1923692  36.5801741 113.2135850
  99.2145389  36.6441074 112.2587830  99.6091751  35.7406249 113.4076356
 109.5707317  46.3157000 111.2515073 110.0138463  45.5664326 110.8534196
 108.6933827  46.3067137 110.8688805 104.7043098  52.8687342 106.7321671
 105.3994002  53.4894034 106.9508986 105.0466248  52.0182693 107.0074049
  90.3210907  44.6905143 120.5918489  89.5792643  44.8387778 121.1783119
  90.0003651  44.9513408 119.7285238 106.6034521  50.3187047 108.2609002
 107.1285845  50.6574320 107.5358322 106.5156874  49.3834063 108.0772137
  98.2654570  54.2321121 120.3898879  98.5741696  53.9870268 121.2621578
  99.0630052  54.4367759 119.9017749  98.2875182  56.3859031 112.6204255
  97.8480172  55.8935409 113.3137112  99.0383299  55.8431998 112.3796331
  90.7667521  52.5770571 112.6228883  91.5925541  52.2774343 112.2427527
  90.4161573  51.8078194 113.0718672  95.7349054  51.9297040 114.6926557
  95.1129063  51.2667745 114.3928785  96.4053921  51.9558172 114.0100205
  88.9676126  50.4956898 113.5817817  88.1308034  50.0679072 113.4001818
  88.9399771  50.6889341 114.5188608  95.2962561  50.4800963 108.1685018
  95.4450681  51.1636427 107.5151690  96.1029004  50.4606053 108.6834473
  93.0515194  46.5066141 109.1746086  92.8061236  45.6028471 109.3726297
  93.2211108  46.5083291 108.2325564  92.3210841  42.2394498 106.6732248
  91.6280086  42.3138853 106.0172284  92.0762593  41.4754842 107.1953765
  98.7957966  52.9749093 105.6396765  98.2231933  53.5939281 105.1867237
  99.3690760  53.5248455 106.1736687 102.0155226  53.2586244 106.7705347
 102.9485899  53.1931805 106.9738223 101.9278439  54.0942510 106.3119880
 104.6443243  52.5752114 103.7309295 104.5656874  52.2411978 104.6245053
 105.4652910  53.0673882 103.7300767  99.1804765  44.3109906 102.9812817
 100.1263870  44.1816114 103.0501235  98.8019010  43.5724568 103.4582246
  97.3647682  42.2359883 102.9167703  96.4579137  41.9392995 102.9930416
  97.6423663  41.9389701 102.0501989  88.2825622  43.5566246 113.3666749
  87.9628407  42.7031554 113.0741123  87.7359051  43.7714824 114.1224716
  92.0605530  46.2728687 117.0836256  92.2791540  47.2045795 117.1024289
  92.4731304  45.9136661 117.8691059  98.9809748  36.7796772 109.0711944
  98.1710476  36.4343857 109.4467190  99.6694165  36.4704316 109.6599556
 100.9100296  35.8574819 110.6936241 101.4631335  36.2770273 111.3526264
 101.1470382  34.9310567 110.7359197  96.1346467  39.0946818 103.0579682
  96.9965631  39.4201716 103.3175499  96.3196811  38.3078314 102.5452748
  88.1513882  47.1769157 115.3359871  87.4577354  46.7623110 114.8229825
  88.8986873  47.2189694 114.7393290 104.2879103  37.9675344 110.2014905
 103.7077772  38.6260148 109.8192957 104.0215036  37.1452689 109.7902322
  90.0650625  47.1087411 113.2125886  90.0421313  47.2075099 112.2607769
  90.3751261  47.9552562 113.5343052  92.7238003  49.1663566 117.3272500
  93.6781256  49.1347509 117.2602432  92.5250526  48.7054190 118.1422726
  93.3137385  47.7364682 119.8943298  94.1330274  48.2308761 119.9178135
  93.5874193  46.8196650 119.8660865 103.0703981  40.1275435 109.2571253
 102.1829836  40.4125085 109.0391448 103.4857970  39.9669198 108.4098530
  91.0788232  54.7083186 114.3442698  90.9442699  53.9483587 113.7780696
  90.6620294  55.4324086 113.8771487 102.2147195  49.8920109 103.3519273
 102.9183045  50.0970112 103.9676929 101.4909843  50.4596871 103.6168357
 103.0445005  45.6429971 109.4721543 102.9880206  46.0998522 108.6329176
 103.5973347  44.8820655 109.2944386 106.8549811  41.4319702 110.2971663
 106.5986745  41.0316338 111.1279870 106.2302679  42.1463496 110.1721802
  94.2357357  55.6052503 114.5561140  94.1189742  56.5497935 114.4539831
  93.4149804  55.3026064 114.9446940 104.1233892  50.3302639 105.4017733
 104.9579496  49.8983837 105.2195208 103.9618235  50.1584652 106.3294628
 103.7779784  46.8334752 106.7674072 103.7228588  46.6679023 105.8262517
 103.1525839  47.5410785 106.9236262  88.5672299  42.0702816 120.5935495
  89.2131163  41.5601770 121.0822720  88.3589450  42.8071498 121.1678920
  97.0875910  36.3342861 106.3459391  97.0754579  37.2784701 106.5027662
  97.9799331  36.1513006 106.0518852  95.2611872  56.2580765 117.7717069
  96.1639118  56.2904375 118.0883564  95.0349242  55.3281216 117.7863405
  97.0165474  55.0111751 114.4327148  96.0661105  55.0113613 114.3191520
  97.3197960  54.2644486 113.9163182 105.4194689  62.6535194 111.4231326
 104.8559554  62.5625131 110.6547613 105.3047084  61.8335099 111.9033818
 102.9659121  64.1486386 114.2615546 103.7580413  63.8077210 113.8461845
 103.2055771  64.2581361 115.1817699 110.9994248  66.3206162 106.7345790
 110.3482227  66.9060242 106.3479804 111.7938611  66.8512357 106.7940828
 104.9249875  63.4095299 107.1332925 105.6980751  62.8624286 106.9945801
 105.2775274  64.2739548 107.3447386 107.2616153  59.5687965 104.7651375
 107.5141673  59.0469486 104.0034838 106.3240712  59.4054111 104.8678058
 112.3059436  58.5723743 112.5726118 113.0922525  58.1543167 112.2216535
 112.5698140  59.4769836 112.7407766 112.4769513  64.0096594 107.2714775
 111.8415346  64.0831220 107.9835679 112.1466919  64.5990193 106.5933854
 106.9812441  61.4716071 106.9675750 106.8648700  60.7960974 107.6356834
 107.0914701  60.9848445 106.1507903 109.3243982  60.9326218 110.6722439
 108.9602190  60.4056839 111.3835360 110.1811098  60.5424687 110.4988924
 108.9649469  55.9616118 105.6683787 109.1323872  56.8296354 106.0354258
 108.7746638  56.1243400 104.7445077 105.1737284  60.8746894 113.3686322
 104.2487780  60.7423108 113.5764014 105.4221697  61.6541113 113.8656265
 108.9438690  58.4173775 106.6530454 108.8238315  58.8630826 107.4915935
 108.2491279  58.7659093 106.0943992 102.5346095  60.5180167 114.2030111
 102.6638476  60.7714646 115.1169523 101.8543546  61.1107875 113.8834766
 114.6423756  58.8895249 107.4810788 115.5541613  59.1222635 107.3058486
 114.1333403  59.4732293 106.9185867 108.8021301  63.6095475 112.1374455
 109.2659646  63.8883178 111.3479077 108.5378099  62.7078920 111.9547546
 107.7390187  59.7318627 108.9464020 108.4414230  60.1839671 109.4137946
 107.4070815  59.0902446 109.5743913 101.4815521  57.9902180 114.2481154
 100.6914575  58.2459709 113.7721264 101.9726768  58.8050518 114.3533194
 103.4330266  58.3546759 111.2064630 102.6361429  58.4665454 111.7248126
 103.2055858  58.6933412 110.3405521  99.7653224  58.2432671 116.6796144
 100.0161262  59.1279680 116.9453720 100.3012772  58.0637272 115.9071236
 108.9783951  66.5459570 109.0226125 108.8429626  67.3911106 109.4510973
 109.5193764  66.7478848 108.2592059 102.4313349  64.0635008 109.5954050
 102.9437869  64.8578258 109.7459615 103.0836061  63.3661299 109.5287652
 104.2408233  67.1800764 111.6776803 104.4174862  68.1018729 111.4897787
 105.0365067  66.8659184 112.1071183 100.3962265  62.3923662 110.3713621
 101.2337487  62.8020671 110.1547329 100.5740533  61.4523105 110.3413815
 112.2926698  60.0598743 106.0597454 111.7773321  60.8303348 106.2985841
 112.0204006  59.3863879 106.6830515 109.8773809  54.9048444 111.1182692
 109.0215405  54.5155294 110.9388331 110.2900760  54.9840405 110.2582478
 107.6515841  52.5233517 114.5240434 108.5168838  52.3276326 114.1646323
 107.7193350  52.2943869 115.4509790 117.2660972  62.8131098 107.9950627
 116.4890414  62.4742257 107.5505789 117.9452453  62.8183721 107.3205592
 112.0813001  57.9325835 107.8857235 111.7763136  58.2471984 108.7367378
 113.0343443  58.0107255 107.9284568 110.5259433  64.0916058 109.5350189
 109.9980794  63.3568818 109.2223426 110.0246935  64.8690735 109.2890157
 105.2578160  54.7535725 111.8956800 105.8321912  54.5310906 111.1629993
 105.8449143  54.8224419 112.6485402 105.5847747  56.7840186 105.9152686
 104.7485060  57.1214872 106.2361960 105.4452517  56.6489166 104.9779823
 107.5600828  51.6276974 110.6231870 106.9065240  51.3125991 109.9988485
 107.5181302  51.0052714 111.3491693 108.6712033  61.9096269 102.5385162
 107.7639094  61.6785522 102.7376311 109.1683065  61.1133888 102.7259144
 111.5780112  70.6193776 105.4581848 110.9041810  70.9225473 106.0666806
 111.9645934  71.4222856 105.1087305 110.7938568  58.1158907 114.9479518
 109.8761130  58.3373854 114.7901206 111.2098712  58.1905218 114.0891225
 111.5773616  59.5150323 110.0782198 112.3245435  60.0271720 109.7689320
 111.8465206  59.1934376 110.9386591 109.8500266  62.0108864 107.0609152
 108.9411485  61.7267896 107.1581622 109.8795350  62.4307942 106.2012459
 114.0252453  56.5507439 112.0600987 113.2875210  56.0384825 112.3911230
 114.2779227  56.1107821 111.2484264 100.4188437  59.7314378 111.0424354
 100.2212836  59.1383738 110.3175421  99.8635101  59.4266588 111.7600293
 108.3985160  59.6237484 113.1618947 108.4533770  58.6711321 113.0861424
 107.5876362  59.7796923 113.6460246 109.5476354  63.5517607 104.3997231
 109.1095784  62.8353466 103.9402868 110.2886795  63.7793722 103.8382322
 106.3377520  58.2414544 110.9209326 105.5245386  58.5408715 111.3274518
 106.8336514  57.8470233 111.6383809 117.6649469  61.8274804 110.4573549
 117.5267367  62.0176400 109.5294738 117.3085688  62.5894187 110.9141600
 105.8291595  55.8132899 116.5370561 106.4690974  55.6721659 115.8393525
 104.9969125  55.5267413 116.1609163 106.6051899  65.1135330 112.6505554
 107.3992497  64.6185650 112.4488129 105.8943591  64.5853193 112.2873259
 102.9134662  59.2578412 108.7265306 101.9832250  59.1962867 108.9435269
 103.0092134  58.7354364 107.9301948 102.8320211  55.7833224 111.3143548
 103.0927029  56.6978558 111.2052709 103.6537384  55.3157667 111.4640161
 104.3045137  57.1970982 118.4842373 104.9768190  56.9888344 117.8355022
 103.4774923  56.9993068 118.0447605 109.7771327  70.7873448 107.6728927
 109.9523082  70.3161492 108.4874550 109.0904115  71.4139215 107.9010188
 113.6687582  62.4101989 103.9929288 113.0516752  61.6848817 103.8962341
 113.2004070  63.1711349 103.6496363 105.4586128  56.6287413 103.1150593
 104.5815594  56.5076214 102.7512839 105.9343881  55.8373492 102.8629481
  96.9788268  61.4164573 113.2092100  97.6659307  61.1026303 112.6213115
  96.8236396  62.3205938 112.9359351 101.7822990  56.3054770 117.6377123
 101.6981179  55.6980439 116.9027533 100.9605696  56.7963788 117.6386620
 111.9546704  54.7908333 113.0047318 112.4515403  54.0378295 112.6848389
 111.1833685  54.8272650 112.4390528 113.0376484  63.5480020 110.5785742
 112.1032763  63.6681483 110.4090446 113.2153153  62.6452487 110.3145752
 108.5381672  56.9325716 112.7319003 108.1679460  56.3796756 113.4199909
 109.0340765  56.3283850 112.1794003 116.4249036  59.3897340 111.1135776
 116.8909488  60.2225331 111.0396079 116.8756536  58.9242321 111.8181034
 114.4925267  65.7341161 108.1121928 114.7685111  65.6197755 109.0215802
 113.6229766  65.3358646 108.0734101 111.4621496  68.9095697 109.0169790
 111.9909263  68.3988151 108.4039952 111.7249716  68.5938227 109.8815323
  96.5556244  59.4965166 115.4809567  96.5940343  58.9628757 116.2746685
  96.0496537  58.9700372 114.8620544 103.9347006  54.3429707 118.9772109
 103.9988333  55.2044538 118.5649507 103.8714126  53.7303708 118.2444468
 100.1864821  58.2229268 108.5563498 100.4818262  57.3139947 108.5030552
  99.2852857  58.2017008 108.2344501 103.7159068  56.2985265 114.5391047
 102.9945654  56.9121233 114.3998520 104.5052324  56.8343030 114.4607693
 101.9152663  55.9043366 108.6802823 101.5865369  55.0240745 108.4977929
 102.2692034  55.8491035 109.5679213 105.0294486  56.1916336 109.0478301
 105.3690559  56.7202257 108.3256909 105.4766607  56.5296742 109.8236868
 107.0162633  54.6890958 107.2471594 107.7370996  55.0672210 106.7435311
 106.3927937  55.4079834 107.3506572 111.1593756  55.3936107 108.1829926
 111.3757371  56.2760744 107.8818754 110.6787823  55.0022320 107.4535568
 105.8992978  58.3521820 114.7600671 105.7537558  58.6662123 115.6524952
 105.4218181  58.9706720 114.2071569 107.7589360  55.3424368 114.8081560
 107.7450929  54.4465461 114.4713858 108.4761788  55.3495031 115.4419846
 100.3738640  60.8927164 117.6988332  99.8292108  61.6686972 117.8308606
 101.2517990  61.2397969 117.5407453 107.1626256  54.2238748 110.0769130
 107.2842168  53.2955394 110.2760018 106.8728299  54.2377434 109.1647446
 110.0317447  51.9093658 113.2135850 110.0539144  51.9732992 112.2587830
 110.4485506  51.0698167 113.4076356 115.5436852  68.1979259 106.7321671
 116.2387757  68.8185952 106.9508986 115.8860002  67.3474611 107.0074049
 117.4428275  65.6478965 108.2609002 117.9679600  65.9866238 107.5358322
 117.3550628  64.7125980 108.0772137 101.6061275  67.9062489 112.6228883
 102.4319295  67.6066261 112.2427527 101.2555327  67.1370112 113.0718672
  99.8069880  65.8248816 113.5817817  98.9701789  65.3970990 113.4001818
  99.7793526  66.0181259 114.5188608 106.1356315  65.8092881 108.1685018
 106.2844436  66.4928345 107.5151690 106.9422759  65.7897971 108.6834473
 103.8908948  61.8358058 109.1746086 103.6454990  60.9320388 109.3726297
 104.0604863  61.8375209 108.2325564 103.1604596  57.5686416 106.6732248
 102.4673841  57.6430771 106.0172284 102.9156348  56.8046760 107.1953765
 109.6351721  68.3041011 105.6396765 109.0625688  68.9231198 105.1867237
 110.2084514  68.8540373 106.1736687 112.8548981  68.5878161 106.7705347
 113.7879654  68.5223723 106.9738223 112.7672193  69.4234428 106.3119880
 115.4836997  67.9044032 103.7309295 115.4050629  67.5703895 104.6245053
 116.3046664  68.3965800 103.7300767 110.0198519  59.6401824 102.9812817
 110.9657624  59.5108032 103.0501235 109.6412764  58.9016486 103.4582246
 108.2041436  57.5651800 102.9167703 107.2972892  57.2684913 102.9930416
 108.4817417  57.2681618 102.0501989  99.1219377  58.8858164 113.3666749
  98.8022161  58.0323472 113.0741123  98.5752805  59.1006742 114.1224716
 109.8203502  52.1088690 109.0711944 109.0104230  51.7635775 109.4467190
 110.5087919  51.7996234 109.6599556 111.7494050  51.1866737 110.6936241
 112.3025089  51.6062190 111.3526264 111.9864137  50.2602485 110.7359197
 106.9740221  54.4238735 103.0579682 107.8359385  54.7493634 103.3175499
 107.1590565  53.6370231 102.5452748  98.9907637  62.5061075 115.3359871
  98.2971108  62.0915028 114.8229825  99.7380628  62.5481612 114.7393290
 115.1272858  53.2967262 110.2014905 114.5471527  53.9552066 109.8192957
 114.8608790  52.4744607 109.7902322 100.9044379  62.4379329 113.2125886
 100.8815067  62.5367016 112.2607769 101.2145016  63.2844480 113.5343052
 113.9097736  55.4567352 109.2571253 113.0223591  55.7417003 109.0391448
 114.3251725  55.2961116 108.4098530 113.0540949  65.2212027 103.3519273
 113.7576799  65.4262030 103.9676929 112.3303598  65.7888789 103.6168357
 113.8838759  60.9721888 109.4721543 113.8273961  61.4290440 108.6329176
 114.4367102  60.2112573 109.2944386 117.6943565  56.7611620 110.2971663
 117.4380499  56.3608256 111.1279870 117.0696433  57.4755414 110.1721802
 114.9627646  65.6594556 105.4017733 115.7973250  65.2275755 105.2195208
 114.8011989  65.4876570 106.3294628 114.6173539  62.1626670 106.7674072
 114.5622342  61.9970941 105.8262517 113.9919594  62.8702702 106.9236262
  99.4066054  57.3994734 120.5935495 100.0524917  56.8893688 121.0822720
  99.1983205  58.1363416 121.1678920 107.9269664  51.6634779 106.3459391
 107.9148334  52.6076618 106.5027662 108.8193086  51.4804924 106.0518852
 116.4241502  72.1132103 105.9152686 115.5878814  72.4506790 106.2361960
 116.2846271  71.9781083 104.9779823 116.2979882  71.9579331 103.1150593
 115.4209348  71.8368132 102.7512839 116.7737635  71.1665409 102.8629481
 113.9998350  72.8978334 106.6732248 113.3067595  72.9722689 106.0172284
 113.7550102  72.1338677 107.1953765 119.0435191  72.8943718 102.9167703
 118.1366646  72.5976831 102.9930416 119.3211172  72.5973536 102.0501989
 117.8133976  69.7530653 103.0579682 118.6753140  70.0785551 103.3175499
 117.9984320  68.9662149 102.5452748 118.7663419  66.9926696 106.3459391
 118.7542088  67.9368536 106.5027662 119.6586840  66.8096842 106.0518852
  74.1864320   2.2063787  97.0265892  74.1088350   3.1571612  97.1054373
  73.5825964   1.8609659  97.6840818  71.8251150   4.9549181 101.1714094
  72.0647748   5.5867705 101.8493113  70.9820346   4.6037221 101.4579453
  72.2995982   0.9797183  98.5012873  71.6306357   1.4643311  98.0176913
  72.1608852   1.2266404  99.4156251  76.4401251   3.0140927 105.0995531
  76.9919559   3.1772548 105.8644616  76.7807444   3.6045364 104.4275556
  69.4000724   1.0561473 101.0688004  69.2655192   0.2961874 100.5026003
  68.9832786   1.7802373 100.6016793  72.5569850   1.9530790 101.2806447
  72.4402234   2.8976223 101.1785137  71.7362296   1.6504352 101.6692246
  73.5824364   2.6059052 104.4962376  74.4851611   2.6382662 104.8128871
  73.3561734   1.6759503 104.5108711  87.8820366   7.1478005 102.1579741
  87.5438877   7.0319070 101.2700276  88.7510134   6.7469170 102.1380747
  83.7407181   9.0013481  98.1476632  83.1772046   8.9103418  97.3792920
  83.6259576   8.1813386  98.6279125  81.2871613  10.4964673 100.9860853
  82.0792905  10.1555498 100.5707152  81.5268263  10.6059648 101.9063006
  89.3206740  12.6684449  93.4591097  88.6694720  13.2538530  93.0725111
  90.1151103  13.1990644  93.5186135  83.2462367   9.7573586  93.8578231
  84.0193243   9.2102573  93.7191107  83.5987766  10.6217836  94.0692693
  85.0847410  11.0849969 107.0645131  84.7937276  11.9895599 106.9491797
  85.7204394  11.1266496 107.7789200  86.0103617   8.4626817 103.6546490
  86.6067189   8.2382839 102.9403453  86.0678588   7.7211563 104.2571938
  90.7982005  10.3574881  93.9960081  90.1627838  10.4309508  94.7080986
  90.4679412  10.9468480  93.3179161  85.3024934   7.8194358  93.6921056
  85.1861192   7.1439262  94.3602141  85.4127194   7.3326732  92.8753209
  87.6456475   7.2804505  97.3967746  87.2814682   6.7535126  98.1080667
  88.5023591   6.8902974  97.2234231  90.0437295  10.7711384 104.0594924
  89.7438018  11.6736423 103.9510732  89.6988354  10.5043567 104.9116077
  83.4949776   7.2225181 100.0931629  82.5700273   7.0901395 100.3009321
  83.7434190   8.0019400 100.5901571  80.8558587   6.8658454 100.9275418
  80.9850969   7.1192933 101.8414830  80.1756039   7.4586162 100.6080073
  85.0258075  17.5355704  97.0265892  84.9482104  18.4863529  97.1054373
  84.4219718  17.1901577  97.6840818  91.5705831  10.2199354 101.5969676
  90.9414693  10.3845068 100.8945744  91.1831493  10.6340964 102.3680640
  95.4495063  11.1553792  98.9514040  94.7646101  11.5352693  98.4011073
  95.5338912  11.7649119  99.6845988  87.1233793   9.9573762  98.8619762
  87.5872138  10.2361465  98.0724384  86.8590591   9.0557207  98.6792852
  84.0157874   9.5045244 101.7999525  84.5859231   9.9332512 101.1617009
  84.6065986   9.2227829 102.4983710  79.8028013   4.3380467 100.9726460
  79.0127067   4.5937996 100.4966571  80.2939260   5.1528805 101.0778501
  81.7542758   4.7025047  97.9309937  80.9573922   4.8143741  98.4493433
  81.5268350   5.0411699  97.0650827  87.5848426  11.2269750 105.8792452
  87.6492858  11.6890157 106.7150623  86.8759350  10.5967115 106.0074761
  78.0865716   4.5910958 103.4041451  78.3373754   5.4757968 103.6699027
  78.6225264   4.4115559 102.6316543  87.2996444  12.8937857  95.7471432
  87.1642118  13.7389393  96.1756280  87.8406256  13.0957135  94.9837366
  80.7525841  10.4113295  96.3199357  81.2650361  11.2056546  96.4704922
  81.4048554   9.7139586  96.2532958  82.5620726  13.5279052  98.4022110
  82.7387354  14.4497016  98.2143094  83.3577559  13.2137471  98.8316490
  81.8473082   5.5743684 108.2784273  81.7326597   4.6728941 108.5791372
  80.9917600   5.8207380 107.9269090  83.6852041  15.0457225 104.4032452
  84.2359466  14.9174289 103.6309446  82.8463517  15.3452114 104.0527345
  87.4819212  11.3108353 108.7476684  88.0147549  10.5496641 108.5175992
  86.9533293  11.0182005 109.4900838  78.7174758   8.7401950  97.0958927
  79.5549980   9.1498958  96.8792635  78.8953025   7.8001392  97.0659121
  88.8471925  10.4394346  96.2595496  88.3193286   9.7047105  95.9468733
  88.3459428  11.2169022  96.0135464  93.8264771   8.6343366 101.3762542
  93.1688445   9.3242628 101.4642671  94.6305170   9.0239798 101.7196528
  86.9924525   8.2574556  89.2630469  86.0851587   8.0263809  89.4621618
  87.4895557   7.4612175  89.4504450  89.8992604  16.9672063  92.1827155
  89.2254303  17.2703760  92.7912113  90.2858426  17.7701144  91.8332612
  88.1712758   8.3587151  93.7854459  87.2623978   8.0746184  93.8826928
  88.2007842   8.7786229  92.9257766  93.4032026  11.9693740  97.5545626
  92.9494353  11.1284650  97.6110817  92.7725993  12.6055139  97.8920406
  91.8464965  13.8070237  98.4895444  92.1387939  14.3675294  97.7707810
  92.3563586  14.0998798  99.2448604  78.7400929   6.0792665  97.7669661
  78.5425329   5.4862026  97.0420728  78.1847593   5.7744875  98.4845600
  87.8688846   9.8995895  91.1242537  87.4308276   9.1831753  90.6648175
  88.6099287  10.1272009  90.5627629  86.8098590  14.5850588  99.5788898
  86.7674769  14.8111434  98.6497430  87.7261289  14.3513963  99.7274699
  84.9264391  11.4613617  99.3750860  85.7204990  10.9663937  99.1733435
  84.2156083  10.9331480  99.0118566  89.7459236  13.8431713 103.7263228
  89.7996258  14.4122649 104.4940944  88.8774017  14.0133598 103.3617265
  81.2347155   5.6056699  95.4510613  80.3044743   5.5441154  95.6680575
  81.3304627   5.0832652  94.6547254  88.7047335   8.0091975 105.2850160
  89.6339395   8.1603134 105.1119127  88.2838365   8.0975996 104.4298806
  87.5035667  12.0342639 103.0548697  87.3646753  11.6661424 103.9274636
  86.7150263  12.5490279 102.8832655  88.0983819  17.1351736  94.3974234
  88.2735575  16.6639779  95.2119857  87.4116607  17.7617502  94.6255495
  89.0540882  11.4124242 100.4437535  88.7190715  11.3725012 101.3395185
  88.5544828  10.7468958  99.9707945  83.0285126   6.8191872 105.9690116
  82.8904924   6.0872111 106.5701655  83.9390050   6.7300772 105.6874304
  91.9900074   8.7580276  90.7174595  91.3729245   8.0327104  90.6207648
  91.5216562   9.5189636  90.3741669  85.6567427   6.5311831 105.4573796
  86.3667045   5.8905023 105.4160414  85.6136735   6.7824726 106.3799977
  82.6644904  20.2841098 101.1714094  82.9041503  20.9159623 101.8493113
  81.8214101  19.9329138 101.4579453  75.3000760   7.7642860  99.9337406
  75.9871800   7.4504590  99.3458422  75.1448889   8.6684225  99.6604658
  87.1772766  16.0920221 103.5755598  87.1042938  16.8975192 104.0874903
  86.7350159  16.2912187 102.7503620  86.9662546  15.3291991  97.0858420
  86.1830068  15.8713671  97.1796644  87.6655291  15.8465970  97.4852661
  89.6371450  15.9907055 105.7313757  90.3499422  16.6254520 105.6589658
  89.1461478  16.0870921 104.9153759  91.3588977   9.8958308  97.3031048
  90.4245255  10.0159770  97.1335753  91.5365645   8.9930774  97.0391058
  84.6883363  13.7401498 106.5519328  85.3892823  14.3737981 106.7048722
  84.2178478  14.0816230 105.7914967  92.8137759  12.0819448  94.8367235
  93.0897603  11.9676043  95.7461109  91.9442258  11.6836933  94.7979408
  89.4491823  16.3305799  98.4800048  89.6314218  15.5127455  98.9427801
  90.2724809  16.5473491  98.0424938  89.7833989  15.2573984  95.7415097
  90.3121755  14.7466439  95.1285259  90.0462208  14.9416514  96.6060630
  80.2851081  13.2737853 103.4850430  80.8704518  12.5281541 103.6178335
  80.0875920  13.5841810 104.3687094  83.1389737  16.3089101  98.5012873
  82.4700112  16.7935228  98.0176913  83.0002606  16.5558321  99.4156251
  74.8768736   5.8443454 102.2054873  74.9152836   5.3107044 102.9991992
  74.3709029   5.3178659 101.5865851  87.2795005  18.3432844 105.0995531
  87.8313313  18.5064466 105.8644616  87.6201199  18.9337282 104.4275556
  78.5077314   4.5707556  95.2808805  78.8030755   3.6618234  95.2275859
  77.6065349   4.5495295  94.9589807  90.4163392  16.2914820 102.0859213
  90.2914532  15.4904560 101.5770159  91.0742484  16.7861013 101.5973183
  92.4798301  14.0923840 103.7138763  91.5328636  13.9729191 103.6417090
  92.8281074  13.2046338 103.7965025  89.4844734  13.8876556  99.9143116
  89.3369697  12.9593264 100.0950686  90.3098228  13.9096647  99.4300191
  93.0878856  14.7105115 101.0007988  94.0125403  14.5047976 100.8632439
  92.9194159  14.4621516 101.9097330  92.8774172  15.2290782  96.3570080
  93.0511050  14.6637205  95.6043932  93.3703063  16.0291677  96.1749570
  78.6951132   7.2405451 104.4233639  78.1504600   8.0165259 104.5553913
  79.5730482   7.5876256 104.2652760  93.8649345  14.5457547  93.4566978
  94.5600249  15.1664239  93.6754293  94.2072495  13.6952898  93.7319356
  79.4817154   6.3675348 107.3163795  78.7398890   6.5157983 107.9028426
  79.1609898   6.6283613 106.4530545  95.7640768  11.9957252  94.9854309
  96.2892092  12.3344525  94.2603629  95.6763120  11.0604268  94.8017443
  87.4260816  15.9091326 107.1144185  87.7347943  15.6640473 107.9866885
  88.2236298  16.1137964 106.6263056  87.4481428  18.0629235  99.3449562
  87.0086419  17.5705614 100.0382419  88.1989545  17.5202203  99.1041637
  79.9273767  14.2540776  99.3474190  80.7531787  13.9544548  98.9672834
  79.5767819  13.4848399  99.7963979  84.8955301  13.6067245 101.4171864
  84.2735310  12.9437950 101.1174091  85.5660168  13.6328376 100.7345511
  78.1282373  12.1727103 100.3063124  77.2914281  11.7449277 100.1247125
  78.1006018  12.3659546 101.2433915  84.4568808  12.1571168  94.8930324
  84.6056928  12.8406632  94.2396997  85.2635251  12.1376258  95.4079780
  82.2121441   8.1836346  95.8991393  81.9667482   7.2798676  96.0971603
  82.3817355   8.1853496  94.9570871  87.9564213  14.6519298  92.3642072
  87.3838180  15.2709486  91.9112543  88.5297007  15.2018660  92.8981994
  91.1761473  14.9356449  93.4950654  92.1092146  14.8702010  93.6983529
  91.0884686  15.7712715  93.0365187  93.8049490  14.2522319  90.4554601
  93.7263121  13.9182182  91.3490359  94.6259156  14.7444087  90.4546074
  77.4431869   5.2336451 100.0912056  77.1234653   4.3801759  99.7986430
  76.8965297   5.4485029 100.8470023  81.2211777   7.9498892 103.8081562
  81.4397786   8.8816000 103.8269596  81.6337550   7.5906866 104.5936366
  77.3120129   8.8539362 102.0605177  76.6183601   8.4393315 101.5475132
  78.0593120   8.8959899 101.4638596  79.2256872   8.7857616  99.9371192
  79.2027560   8.8845303  98.9853075  79.5357508   9.6322767 100.2588358
  81.8844250  10.8433771 104.0517807  82.8387503  10.8117714 103.9847738
  81.6856773  10.3824395 104.8668033  82.4743632   9.4134887 106.6188604
  83.2936521   9.9078966 106.6423442  82.7480439   8.4966855 106.5906172
  80.2394478  16.3853391 101.0688004  80.1048946  15.6253792 100.5026003
  79.8226541  17.1094291 100.6016793  91.3753441  11.5690314  90.0764580
  92.0789291  11.7740317  90.6922235  90.6516090  12.1367076  90.3413663
  83.3963604  17.2822708 101.2806447  83.2795988  18.2268140 101.1785137
  82.5756050  16.9796269 101.6692246  93.2840139  12.0072843  92.1263040
  94.1185743  11.5754042  91.9440515  93.1224482  11.8354857  93.0539934
  92.9386031   8.5104957  93.4919379  92.8834835   8.3449228  92.5507823
  92.3132086   9.2180990  93.6481569  77.7278546   3.7473021 107.3180801
  78.3737409   3.2371975 107.8068027  77.5195697   4.4841703 107.8924227
  84.4218118  17.9350970 104.4962376  85.3245365  17.9674580 104.8128871
  84.1955488  17.0051421 104.5108711  86.1771720  16.6881956 101.1572454
  85.2267351  16.6883818 101.0436826  86.4804206  15.9414691 100.6408489
 101.9124414  22.5242495 102.2218217 102.5502824  22.4049242 101.5181557
 101.7945257  23.4723339 102.2806169  98.7214120  22.4769923 102.1579741
  98.3832632  22.3610987 101.2700276  99.5903888  22.0761088 102.1380747
  94.5800936  24.3305399  98.1476632  94.0165801  24.2395336  97.3792920
  94.4653331  23.5105304  98.6279125  92.1265368  25.8256591 100.9860853
  92.9186660  25.4847415 100.5707152  92.3662018  25.9351566 101.9063006
 100.1600495  27.9976367  93.4591097  99.5088474  28.5830447  93.0725111
 100.9544857  28.5282562  93.5186135  94.0856122  25.0865504  93.8578231
  94.8586998  24.5394491  93.7191107  94.4381521  25.9509753  94.0692693
  95.9241164  26.4141886 107.0645131  95.6331030  27.3187517 106.9491797
  96.5598149  26.4558414 107.7789200  96.8497371  23.7918735 103.6546490
  97.4460943  23.5674757 102.9403453  96.9072343  23.0503480 104.2571938
  96.4222399  21.2458170  91.4896681  96.6747920  20.7239691  90.7280144
  95.4846959  21.0824315  91.5923365 101.4665682  20.2493948  99.2971425
 102.2528772  19.8313372  98.9461842 101.7304387  21.1540041  99.4653073
 101.6375760  25.6866799  93.9960081 101.0021593  25.7601425  94.7080986
 101.3073166  26.2760398  93.3179161  96.1418688  23.1486276  93.6921056
  96.0254946  22.4731179  94.3602141  96.2520948  22.6618650  92.8753209
  98.4850229  22.6096423  97.3967746  98.1208436  22.0827044  98.1080667
  99.3417345  22.2194892  97.2234231  98.1255716  17.6386323  92.3929094
  98.2930118  18.5066559  92.7599565  97.9352885  17.8013605  91.4690383
 100.8831049  26.1003302 104.0594924 100.5831772  27.0028341 103.9510732
 100.5382109  25.8335485 104.9116077  94.3343531  22.5517099 100.0931629
  93.4094027  22.4193313 100.3009321  94.5827944  23.3311318 100.5901571
  98.1044937  20.0943980  93.3775761  97.9844562  20.5401031  94.2161241
  97.4097525  20.4429298  92.8189299  91.6952342  22.1950372 100.9275418
  91.8244723  22.4484851 101.8414830  91.0149793  22.7878080 100.6080073
  95.8651829  32.8647622  97.0265892  95.7875859  33.8155447  97.1054373
  95.2613473  32.5193495  97.6840818 103.8030003  20.5665453  94.2056095
 104.7147859  20.7992840  94.0303793 103.2939650  21.1502498  93.6431174
 102.4099585  25.5491272 101.5969676 101.7808448  25.7136986 100.8945744
 102.0225248  25.9632881 102.3680640 106.2888817  26.4845710  98.9514040
 105.6039856  26.8644611  98.4011073 106.3732667  27.0941036  99.6845988
  97.9627547  25.2865680  98.8619762  98.4265893  25.5653383  98.0724384
  97.6984345  24.3849125  98.6792852  94.8551628  24.8337162 101.7999525
  95.4252985  25.2624430 101.1617009  95.4459740  24.5519746 102.4983710
  96.8996433  21.4088832  95.6709327  97.6020477  21.8609876  96.1383253
  96.5677062  20.7672651  96.2989220  90.6421767  19.6672385 100.9726460
  89.8520821  19.9229914 100.4966571  91.1333015  20.4820723 101.0778501
  92.5936513  20.0316964  97.9309937  91.7967676  20.1435659  98.4493433
  92.3662105  20.3703617  97.0650827  98.4242180  26.5561668 105.8792452
  98.4886613  27.0182075 106.7150623  97.7153104  25.9259032 106.0074761
  88.9259470  19.9202875 103.4041451  89.1767509  20.8049885 103.6699027
  89.4619019  19.7407477 102.6316543  98.1390198  28.2229775  95.7471432
  98.0035873  29.0681311  96.1756280  98.6800011  28.4249053  94.9837366
  91.5919595  25.7405213  96.3199357  92.1044116  26.5348463  96.4704922
  92.2442308  25.0431503  96.2532958  93.4014480  28.8570969  98.4022110
  93.5781108  29.7788934  98.2143094  94.1971314  28.5429389  98.8316490
  92.6866837  20.9035601 108.2784273  92.5720352  20.0020858 108.5791372
  91.8311354  21.1499298 107.9269090  94.5245796  30.3749143 104.4032452
  95.0753221  30.2466206 103.6309446  93.6857271  30.6744032 104.0527345
  98.3212967  26.6400271 108.7476684  98.8541303  25.8788559 108.5175992
  97.7927048  26.3473923 109.4900838  89.5568512  24.0693867  97.0958927
  90.3943734  24.4790876  96.8792635  89.7346780  23.1293310  97.0659121
 101.4532944  21.7368948  92.7842760 100.9379568  22.5073553  93.0231148
 101.1810253  21.0634084  93.4075822  99.0380055  16.5818649  97.8427999
  98.1821652  16.1925499  97.6633638  99.4507007  16.6610610  96.9827784
  96.8122088  14.2003722 101.2485740  97.6775085  14.0046530 100.8891630
  96.8799597  13.9714074 102.1755097 106.4267218  24.4901303  94.7195934
 105.6496661  24.1512462  94.2751096 107.1058699  24.4953926  94.0450899
 101.2419247  19.6096040  94.6102542 100.9369383  19.9242189  95.4612685
 102.1949690  19.6877460  94.6529875  99.6865679  25.7686263  96.2595496
  99.1587041  25.0339023  95.9468733  99.1853182  26.5460940  96.0135464
 104.6658525  23.9635284 101.3762542 104.0082200  24.6534545 101.4642671
 105.4698925  24.3531716 101.7196528  94.4184407  16.4305930  98.6202107
  94.9928159  16.2081111  97.8875300  95.0055389  16.4994624  99.3730708
 103.4763984  22.3179657  99.4266484 103.9895866  22.9509648  99.9288193
 104.1265208  21.7180852  99.0609844  94.7453994  18.4610391  92.6397992
  93.9091306  18.7985077  92.9607267  94.6058764  18.3259371  91.7025129
  96.7207075  13.3047179  97.3477177  96.0671487  12.9896196  96.7233791
  96.6787549  12.6822919  98.0736999  97.8318280  23.5866474  89.2630469
  96.9245341  23.3555727  89.4621618  98.3289311  22.7904093  89.4504450
 100.7386358  32.2963981  92.1827155 100.0648057  32.5995678  92.7912113
 101.1252180  33.0993061  91.8332612  99.9544815  19.7929112 101.6724824
  99.0367376  20.0144059 101.5146512 100.3704959  19.8675423 100.8136532
 100.7379863  21.1920528  96.8027504 101.4851682  21.7041925  96.4934626
 101.0071452  20.8704581  97.6631898  99.0106513  23.6879069  93.7854459
  98.1017732  23.4038101  93.8826928  99.0401597  24.1078147  92.9257766
 104.2425780  27.2985658  97.5545626 103.7888107  26.4576568  97.6110817
 103.6119747  27.9347056  97.8920406 103.1858700  18.2277644  98.7846294
 102.4481457  17.7155030  99.1156536 103.4385473  17.7878026  97.9729571
 102.6858720  29.1362155  98.4895444 102.9781694  29.6967212  97.7707810
 103.1957340  29.4290716  99.2448604  89.5794683  21.4084583  97.7669661
  89.3819083  20.8153943  97.0420728  89.0241347  21.1036793  98.4845600
  97.5591407  21.3007689  99.8864254  97.6140017  20.3481526  99.8106731
  96.7482609  21.4567128 100.3705553  98.7082601  25.2287812  91.1242537
  98.2702031  24.5123671  90.6648175  99.4493042  25.4563927  90.5627629
  95.4983767  19.9184749  97.6454633  94.6851632  20.2178919  98.0519825
  95.9942761  19.5240438  98.3629115  97.6492345  29.9142506  99.5788898
  97.6068524  30.1403352  98.6497430  98.5655044  29.6805880  99.7274699
 106.8255716  23.5045009  97.1818856 106.6873614  23.6946605  96.2540045
 106.4691934  24.2664392  97.6386907  94.9897842  17.4903104 103.2615868
  95.6297221  17.3491864 102.5638831  94.1575372  17.2037618 102.8854470
  95.7658146  26.7905535  99.3750860  96.5598744  26.2955855  99.1733435
  95.0549838  26.2623398  99.0118566 100.5852990  29.1723630 103.7263228
 100.6390012  29.7414567 104.4940944  99.7167771  29.3425515 103.3617265
  92.0740909  20.9348617  95.4510613  91.1438497  20.8733072  95.6680575
  92.1698381  20.4124569  94.6547254  91.9926458  17.4603429  98.0388855
  92.2533275  18.3748763  97.9298015  92.8143630  16.9927872  98.1885468
  93.4651383  18.8741187 105.2087679  94.1374437  18.6658549 104.5600328
  92.6381170  18.6763273 104.7692912  99.5441090  23.3383892 105.2850160
 100.4733150  23.4895052 105.1119127  99.1232120  23.4267913 104.4298806
  98.3429422  27.3634557 103.0548697  98.2040507  26.9953341 103.9274636
  97.5544018  27.8782196 102.8832655  98.9377574  32.4643653  94.3974234
  99.1129329  31.9931696  95.2119857  98.2510362  33.0909419  94.6255495
  99.8934637  26.7416160 100.4437535  99.5584469  26.7016929 101.3395185
  99.3938582  26.0760875  99.9707945  93.8678881  22.1483790 105.9690116
  93.7298679  21.4164028 106.5701655  94.7783804  22.0592690 105.6874304
 102.8293828  24.0872194  90.7174595 102.2122999  23.3619022  90.6207648
 102.3610317  24.8481554  90.3741669  96.4961181  21.8603749 105.4573796
  97.2060800  21.2196941 105.4160414  96.4530490  22.1116644 106.3799977
  93.5038659  35.6133016 101.1714094  93.7435257  36.2451540 101.8493113
  92.6607855  35.2621056 101.4579453  94.6192374  18.3057618  89.8395899
  93.7421841  18.1846419  89.4758146  95.0950127  17.5143696  89.5874788
  86.1394514  23.0934778  99.9337406  86.8265554  22.7796508  99.3458422
  85.9842643  23.9976143  99.6604658  90.9429237  17.9824974 104.3622430
  90.8587425  17.3750644 103.6272840  90.1211943  18.4733993 104.3631926
  98.0166521  31.4212138 103.5755598  97.9436692  32.2267110 104.0874903
  97.5743914  31.6204104 102.7503620  97.8056300  30.6583909  97.0858420
  97.0223822  31.2005589  97.1796644  98.5049045  31.1757888  97.4852661
 101.1152950  16.4678538  99.7292625 101.6121650  15.7148500  99.4093695
 100.3439932  16.5042855  99.1635834 100.4765204  31.3198973 105.7313757
 101.1893176  31.9546437 105.6589658  99.9855233  31.4162839 104.9153759
 102.1982731  25.2250225  97.3031048 101.2639010  25.3451688  97.1335753
 102.3759400  24.3222692  97.0391058  97.6987919  18.6095921  99.4564310
  97.3285707  18.0566961 100.1445215  98.1947012  18.0054054  98.9039310
 105.5855282  21.0667544  97.8381083 106.0515735  21.8995536  97.7641385
 106.0362783  20.6012526  98.5426341  95.5277118  29.0693416 106.5519328
  96.2286577  29.7029899 106.7048722  95.0572233  29.4108148 105.7914967
 103.6531514  27.4111366  94.8367235 103.9291357  27.2967960  95.7461109
 102.7836012  27.0128851  94.7979408 100.2885578  31.6597717  98.4800048
 100.4707972  30.8419373  98.9427801 101.1118564  31.8765409  98.0424938
 100.6227743  30.5865902  95.7415097 101.1515510  30.0758356  95.1285259
 100.8855963  30.2708432  96.6060630  91.1244836  28.6029771 103.4850430
  91.7098273  27.8573459 103.6178335  90.9269674  28.9133728 104.3687094
  93.9783491  31.6381018  98.5012873  93.3093866  32.1227146  98.0176913
  93.8396361  31.8850239  99.4156251  85.7162491  21.1735371 102.2054873
  85.7546590  20.6398962 102.9991992  85.2102783  20.6470577 101.5865851
  98.1188760  33.6724762 105.0995531  98.6707068  33.8356383 105.8644616
  98.4594953  34.2629200 104.4275556  93.0953253  16.0199912 105.7017416
  93.1594579  16.8814743 105.2894813  93.0320373  15.4073913 104.9689774
  89.3471068  19.8999473  95.2808805  89.6424509  18.9910152  95.2275859
  88.4459104  19.8787213  94.9589807 101.2557147  31.6206737 102.0859213
 101.1308286  30.8196477 101.5770159 101.9136238  32.1152931 101.5973183
  92.8765315  17.9755470 101.2636353  92.1551901  18.5891438 101.1243827
  93.6658571  18.5113235 101.1852999 103.3192055  29.4215758 103.7138763
 102.3722391  29.3021109 103.6417090 103.6674828  28.5338256 103.7965025
  91.0758910  17.5813571  95.4048130  90.7471616  16.7010950  95.2223236
  91.4298280  17.5261240  96.2924519 100.3238489  29.2168474  99.9143116
 100.1763451  28.2885181 100.0950686 101.1491982  29.2388564  99.4300191
  94.1900733  17.8686541  95.7723608  94.5296805  18.3972462  95.0502216
  94.6372853  18.2066947  96.5482174 103.9272610  30.0397032 101.0007988
 104.8519158  29.8339894 100.8632439 103.7587914  29.7913434 101.9097330
  96.1768880  16.3661162  93.9716900  96.8977242  16.7442415  93.4680617
  95.5534184  17.0850039  94.0751878 100.3200003  17.0706311  94.9075233
 100.5363617  17.9530949  94.6064061  99.8394070  16.6792525  94.1780875
  95.0599224  20.0292025 101.4845977  94.9143805  20.3432328 102.3770259
  94.5824428  20.6476925 100.9316876  96.9195607  17.0194573 101.5326867
  96.9057176  16.1235666 101.1959165  97.6368035  17.0265236 102.1665153
 103.7167927  30.5582700  96.3570080 103.8904804  29.9929122  95.6043932
 104.2096818  31.3583595  96.1749570  89.5344886  22.5697369 104.4233639
  88.9898355  23.3457177 104.5553913  90.4124236  22.9168174 104.2652760
  96.3232503  15.9008953  96.8014437  96.4448414  14.9725599  97.0005325
  96.0334545  15.9147639  95.8892752  99.1923693  13.5863863  99.9381157
  99.2145390  13.6503196  98.9833136  99.6091752  12.7468372 100.1321663
 109.5707318  23.3219123  97.9760379 110.0138464  22.5726448  97.5779503
 108.6933828  23.3129259  97.5934111 104.7043099  29.8749464  93.4566978
 105.3994004  30.4956157  93.6754293 105.0466249  29.0244816  93.7319356
  90.3210908  21.6967265 107.3163795  89.5792644  21.8449901 107.9028426
  90.0003653  21.9575531 106.4530545 106.6034522  27.3249170  94.9854309
 107.1285846  27.6636443  94.2603629 106.5156875  26.3896185  94.8017443
  98.2654571  31.2383244 107.1144185  98.5741697  30.9932390 107.9866885
  99.0630053  31.4429882 106.6263056  98.2875183  33.3921153  99.3449562
  97.8480173  32.8997532 100.0382419  99.0383300  32.8494121  99.1041637
  90.7667522  29.5832694  99.3474190  91.5925542  29.2836466  98.9672834
  90.4161574  28.8140316  99.7963979  95.7349055  28.9359162 101.4171864
  95.1129064  28.2729867 101.1174091  96.4053922  28.9620294 100.7345511
  88.9676127  27.5019020 100.3063124  88.1308035  27.0741195 100.1247125
  88.9399772  27.6951464 101.2433915  95.2962562  27.4863086  94.8930324
  95.4450682  28.1698550  94.2396997  96.1029005  27.4668176  95.4079780
  93.0515195  23.5128263  95.8991393  92.8061237  22.6090593  96.0971603
  93.2211110  23.5145414  94.9570871  92.3210843  19.2456621  93.3977555
  91.6280087  19.3200976  92.7417591  92.0762594  18.4816964  93.9199071
  98.7957968  29.9811216  92.3642072  98.2231935  30.6001403  91.9112543
  99.3690761  30.5310578  92.8981994 102.0155227  30.2648366  93.4950654
 102.9485901  30.1993928  93.6983529 101.9278440  31.1004633  93.0365187
 104.6443244  29.5814237  90.4554601 104.5656876  29.2474100  91.3490359
 105.4652911  30.0736004  90.4546074  99.1804766  21.3172029  89.7058124
 100.1263871  21.1878237  89.7746542  98.8019011  20.5786691  90.1827552
  97.3647683  19.2422005  89.6413009  96.4579139  18.9455118  89.7175723
  97.6423664  18.9451823  88.7747296  88.2825624  20.5628369 100.0912056
  87.9628408  19.7093677  99.7986430  87.7359052  20.7776947 100.8470023
  92.0605531  23.2790810 103.8081562  92.2791541  24.2107917 103.8269596
  92.4731305  22.9198784 104.5936366  98.9809749  13.7858895  95.7957251
  98.1710477  13.4405980  96.1712497  99.6694166  13.4766439  96.3844862
 100.9100297  12.8636942  97.4181547 101.4631336  13.2832395  98.0771570
 101.1470384  11.9372690  97.4604503  96.1346468  16.1008940  89.7824989
  96.9965632  16.4263839  90.0420806  96.3196812  15.3140436  89.2698054
  88.1513884  24.1831280 102.0605177  87.4577355  23.7685233 101.5475132
  88.8986875  24.2251817 101.4638596 104.2879104  14.9737467  96.9260212
 103.7077773  15.6322271  96.5438264 104.0215037  14.1514811  96.5147629
  90.0650626  24.1149534  99.9371192  90.0421314  24.2137221  98.9853075
  90.3751263  24.9614685 100.2588358  92.7238004  26.1725689 104.0517807
  93.6781258  26.1409631 103.9847738  92.5250528  25.7116313 104.8668033
  93.3137386  24.7426805 106.6188604  94.1330275  25.2370884 106.6423442
  93.5874194  23.8258773 106.5906172 103.0703982  17.1337557  95.9816560
 102.1829837  17.4187208  95.7636755 103.4857971  16.9731321  95.1343837
  91.0788233  31.7145308 101.0688004  90.9442701  30.9545709 100.5026003
  90.6620295  32.4386208 100.6016793 102.2147196  26.8982232  90.0764580
 102.9183046  27.1032234  90.6922235 101.4909845  27.4658994  90.3413663
 103.0445006  22.6492093  96.1966850 102.9880207  23.1060645  95.3574482
 103.5973349  21.8882778  96.0189693 106.8549812  18.4381825  97.0216969
 106.5986746  18.0378461  97.8525177 106.2302680  19.1525619  96.8967109
  94.2357359  32.6114625 101.2806447  94.1189743  33.5560058 101.1785137
  93.4149805  32.3088187 101.6692246 104.1233893  27.3364761  92.1263040
 104.9579497  26.9045960  91.9440515 103.9618236  27.1646775  93.0539934
 103.7779785  23.8396874  93.4919379 103.7228589  23.6741146  92.5507823
 103.1525841  24.5472907  93.6481569  88.5672300  19.0764939 107.3180801
  89.2131164  18.5663893 107.8068027  88.3589451  19.8133620 107.8924227
  97.0875911  13.3404983  93.0704698  97.0754581  14.2846823  93.2272968
  97.9799333  13.1575129  92.7764159  95.2611873  33.2642887 104.4962376
  96.1639120  33.2966498 104.8128871  95.0349243  32.3343338 104.5108711
  97.0165475  32.0173874 101.1572454  96.0661106  32.0175735 101.0436826
  97.3197961  31.2706608 100.6408489 112.7518168  37.8534412 102.2218217
 113.3896578  37.7341160 101.5181557 112.6339011  38.8015256 102.2806169
 109.5607875  37.8061840 102.1579741 109.2226386  37.6902905 101.2700276
 110.4297643  37.4053005 102.1380747 105.4194690  39.6597317  98.1476632
 104.8559555  39.5687254  97.3792920 105.3047085  38.8397221  98.6279125
 102.9659122  41.1548508 100.9860853 103.7580414  40.8139333 100.5707152
 103.2055772  41.2643483 101.9063006 110.9994249  43.3268284  93.4591097
 110.3482229  43.9122365  93.0725111 111.7938612  43.8574479  93.5186135
 104.9249876  40.4157422  93.8578231 105.6980752  39.8686409  93.7191107
 105.2775275  41.2801671  94.0692693 106.7634919  41.7433804 107.0645131
 106.4724785  42.6479435 106.9491797 107.3991903  41.7850331 107.7789200
 107.6891126  39.1210652 103.6546490 108.2854698  38.8966675 102.9403453
 107.7466097  38.3795398 104.2571938 107.2616154  36.5750088  91.4896681
 107.5141675  36.0531609  90.7280144 106.3240713  36.4116233  91.5923365
 112.3059437  35.5785866  99.2971425 113.0922526  35.1605289  98.9461842
 112.5698141  36.4831958  99.4653073 112.4769514  41.0158716  93.9960081
 111.8415347  41.0893343  94.7080986 112.1466921  41.6052315  93.3179161
 106.9812443  38.4778194  93.6921056 106.8648701  37.8023097  94.3602141
 107.0914703  37.9910568  92.8753209 109.3243984  37.9388341  97.3967746
 108.9602191  37.4118962  98.1080667 110.1811100  37.5486810  97.2234231
 108.9649471  32.9678240  92.3929094 109.1323873  33.8358477  92.7599565
 108.7746640  33.1305522  91.4690383 111.7224804  41.4295219 104.0594924
 111.4225527  42.3320258 103.9510732 111.3775863  41.1627403 104.9116077
 105.1737285  37.8809016 100.0931629 104.2487782  37.7485230 100.3009321
 105.4221698  38.6603235 100.5901571 108.9438691  35.4235898  93.3775761
 108.8238317  35.8692949  94.2161241 108.2491280  35.7721216  92.8189299
 102.5346096  37.5242290 100.9275418 102.6638477  37.7776769 101.8414830
 101.8543548  38.1169998 100.6080073 106.7045584  48.1939540  97.0265892
 106.6269613  49.1447365  97.1054373 106.1007227  47.8485412  97.6840818
 114.6423758  35.8957371  94.2056095 115.5541614  36.1284758  94.0303793
 114.1333405  36.4794415  93.6431174 113.2493340  40.8783190 101.5969676
 112.6202202  41.0428904 100.8945744 112.8619002  41.2924799 102.3680640
 117.1282572  41.8137627  98.9514040 116.4433610  42.1936529  98.4011073
 117.2126421  42.4232954  99.6845988 108.8021302  40.6157598  98.8619762
 109.2659647  40.8945301  98.0724384 108.5378100  39.7141042  98.6792852
 105.6945383  40.1629079 101.7999525 106.2646740  40.5916348 101.1617009
 106.2853495  39.8811664 102.4983710 107.7390188  36.7380750  95.6709327
 108.4414231  37.1901794  96.1383253 107.4070816  36.0964569  96.2989220
 101.4815522  34.9964303 100.9726460 100.6914576  35.2521831 100.4966571
 101.9726769  35.8112641 101.0778501 103.4330267  35.3608882  97.9309937
 102.6361431  35.4727576  98.4493433 103.2055859  35.6995534  97.0650827
 109.2635935  41.8853585 105.8792452 109.3280367  42.3473992 106.7150623
 108.5546859  41.2550950 106.0074761  99.7653225  35.2494793 103.4041451
 100.0161263  36.1341803 103.6699027 100.3012773  35.0699395 102.6316543
 108.9783953  43.5521693  95.7471432 108.8429627  44.3973228  96.1756280
 109.5193765  43.7540970  94.9837366 102.4313350  41.0697131  96.3199357
 102.9437870  41.8640381  96.4704922 103.0836063  40.3723421  96.2532958
 104.2408235  44.1862887  98.4022110 104.4174863  45.1080852  98.2143094
 105.0365068  43.8721306  98.8316490 103.5260591  36.2327519 108.2784273
 103.4114106  35.3312776 108.5791372 102.6705109  36.4791216 107.9269090
 105.3639550  45.7041061 104.4032452 105.9146975  45.5758124 103.6309446
 104.5251026  46.0035950 104.0527345 109.1606721  41.9692189 108.7476684
 109.6935058  41.2080477 108.5175992 108.6320802  41.6765840 109.4900838
 100.3962267  39.3985785  97.0958927 101.2337489  39.8082793  96.8792635
 100.5740534  38.4585227  97.0659121 112.2926699  37.0660866  92.7842760
 111.7773322  37.8365470  93.0231148 112.0204007  36.3926002  93.4075822
 109.8773810  31.9110566  97.8427999 109.0215406  31.5217417  97.6633638
 110.2900762  31.9902527  96.9827784 107.6515842  29.5295639 101.2485740
 108.5168839  29.3338448 100.8891630 107.7193351  29.3005991 102.1755097
 117.2660973  39.8193220  94.7195934 116.4890416  39.4804380  94.2751096
 117.9452454  39.8245843  94.0450899 112.0813002  34.9387958  94.6102542
 111.7763138  35.2534107  95.4612685 113.0343444  35.0169378  94.6529875
 110.5259434  41.0978181  96.2595496 109.9980795  40.3630941  95.9468733
 110.0246937  41.8752857  96.0135464 115.5052280  39.2927202 101.3762542
 114.8475954  39.9826463 101.4642671 116.3092679  39.6823634 101.7196528
 105.2578161  31.7597847  98.6202107 105.8321913  31.5373029  97.8875300
 105.8449144  31.8286542  99.3730708 114.3157739  37.6471574  99.4266484
 114.8289620  38.2801566  99.9288193 114.9658963  37.0472770  99.0609844
 105.5847749  33.7902308  92.6397992 104.7485061  34.1276995  92.9607267
 105.4452518  33.6551288  91.7025129 107.5600829  28.6339096  97.3477177
 106.9065241  28.3188113  96.7233791 107.5181303  28.0114837  98.0736999
 108.6712034  38.9158391  89.2630469 107.7639096  38.6847645  89.4621618
 109.1683066  38.1196011  89.4504450 111.5780113  47.6255899  92.1827155
 110.9041812  47.9287595  92.7912113 111.9645935  48.4284979  91.8332612
 110.7938570  35.1221030 101.6724824 109.8761131  35.3435977 101.5146512
 111.2098713  35.1967340 100.8136532 111.5773617  36.5212445  96.8027504
 112.3245436  37.0333843  96.4934626 111.8465207  36.1996498  97.6631898
 109.8500267  39.0170986  93.7854459 108.9411487  38.7330019  93.8826928
 109.8795351  39.4370065  92.9257766 115.0819535  42.6277576  97.5545626
 114.6281862  41.7868486  97.6110817 114.4513502  43.2638974  97.8920406
 114.0252454  33.5569562  98.7846294 113.2875211  33.0446948  99.1156536
 114.2779228  33.1169943  97.9729571 113.5252474  44.4654072  98.4895444
 113.8175448  45.0259130  97.7707810 114.0351095  44.7582633  99.2448604
 100.4188438  36.7376500  97.7669661 100.2212838  36.1445861  97.0420728
  99.8635102  36.4328711  98.4845600 108.3985161  36.6299607  99.8864254
 108.4533771  35.6773443  99.8106731 107.5876364  36.7859046 100.3705553
 109.5476355  40.5579730  91.1242537 109.1095785  39.8415589  90.6648175
 110.2886796  40.7855845  90.5627629 106.3377521  35.2476667  97.6454633
 105.5245387  35.5470837  98.0519825 106.8336516  34.8532355  98.3629115
 108.4886099  45.2434423  99.5788898 108.4462278  45.4695270  98.6497430
 109.4048798  45.0097798  99.7274699 117.6649470  38.8336927  97.1818856
 117.5267369  39.0238523  96.2540045 117.3085689  39.5956310  97.6386907
 105.8291596  32.8195022 103.2615868 106.4690975  32.6783781 102.5638831
 104.9969127  32.5329535 102.8854470 106.6051900  42.1197453  99.3750860
 107.3992499  41.6247773  99.1733435 105.8943592  41.5915316  99.0118566
 111.4246745  44.5015548 103.7263228 111.4783767  45.0706484 104.4940944
 110.5561526  44.6717433 103.3617265 102.9134664  36.2640534  95.4510613
 101.9832252  36.2024990  95.6680575 103.0092136  35.7416487  94.6547254
 102.8320213  32.7895347  98.0388855 103.0927030  33.7040680  97.9298015
 103.6537385  32.3219790  98.1885468 104.3045138  34.2033104 105.2087679
 104.9768191  33.9950466 104.5600328 103.4774924  34.0055190 104.7692912
 110.3834844  38.6675810 105.2850160 111.3126904  38.8186970 105.1119127
 109.9625874  38.7559831 104.4298806 109.1823176  42.6926474 103.0548697
 109.0434262  42.3245259 103.9274636 108.3937772  43.2074114 102.8832655
 109.7771328  47.7935571  94.3974234 109.9523084  47.3223614  95.2119857
 109.0904116  48.4201337  94.6255495 110.7328391  42.0708077 100.4437535
 110.3978224  42.0308847 101.3395185 110.2332337  41.4052793  99.9707945
 104.7072635  37.4775707 105.9690116 104.5692433  36.7455946 106.5701655
 105.6177559  37.3884607 105.6874304 113.6687583  39.4164112  90.7174595
 113.0516753  38.6910940  90.6207648 113.2004071  40.1773472  90.3741669
 107.3354936  37.1895667 105.4573796 108.0454554  36.5488859 105.4160414
 107.2924244  37.4408561 106.3799977 104.3432413  50.9424934 101.1714094
 104.5829012  51.5743458 101.8493113 103.5001610  50.5912974 101.4579453
 105.4586129  33.6349536  89.8395899 104.5815595  33.5138337  89.4758146
 105.9343882  32.8435614  89.5874788  96.9788269  38.4226696  99.9337406
  97.6659309  38.1088426  99.3458422  96.8236398  39.3268060  99.6604658
 101.7822991  33.3116892 104.3622430 101.6981180  32.7042562 103.6272840
 100.9605697  33.8025910 104.3631926 108.8560275  46.7504056 103.5755598
 108.7830447  47.5559028 104.0874903 108.4137668  46.9496022 102.7503620
 108.6450055  45.9875826  97.0858420 107.8617577  46.5297506  97.1796644
 109.3442800  46.5049806  97.4852661 111.9546705  31.7970456  99.7292625
 112.4515404  31.0440418  99.4093695 111.1833686  31.8334772  99.1635834
 111.3158959  46.6490890 105.7313757 112.0286931  47.2838355 105.6589658
 110.8248987  46.7454756 104.9153759 113.0376486  40.5542143  97.3031048
 112.1032764  40.6743605  97.1335753 113.2153154  39.6514610  97.0391058
 108.5381674  33.9387839  99.4564310 108.1679461  33.3858879 100.1445215
 109.0340766  33.3345972  98.9039310 116.4249037  36.3959462  97.8381083
 116.8909489  37.2287454  97.7641385 116.8756537  35.9304444  98.5426341
 106.3670872  44.3985334 106.5519328 107.0680332  45.0321817 106.7048722
 105.8965987  44.7400065 105.7914967 114.4925268  42.7403283  94.8367235
 114.7685112  42.6259878  95.7461109 113.6229767  42.3420768  94.7979408
 111.1279332  46.9889634  98.4800048 111.3101727  46.1711290  98.9427801
 111.9512318  47.2057327  98.0424938 111.4621498  45.9157819  95.7415097
 111.9909264  45.4050274  95.1285259 111.7249717  45.6000350  96.6060630
 101.9638590  43.9321689 103.4850430 102.5492027  43.1865377 103.6178335
 101.7663429  44.2425645 104.3687094 104.8177246  46.9672936  98.5012873
 104.1487621  47.4519064  98.0176913 104.6790115  47.2142157  99.4156251
  96.5556245  36.5027289 102.2054873  96.5940345  35.9690880 102.9991992
  96.0496538  35.9762494 101.5865851 108.9582514  49.0016680 105.0995531
 109.5100822  49.1648301 105.8644616 109.2988708  49.5921117 104.4275556
 103.9347007  31.3491829 105.7017416 103.9988334  32.2106660 105.2894813
 103.8714128  30.7365831 104.9689774 100.1864823  35.2291391  95.2808805
 100.4818264  34.3202069  95.2275859  99.2852858  35.2079131  94.9589807
 112.0950901  46.9498655 102.0859213 111.9702041  46.1488395 101.5770159
 112.7529992  47.4444849 101.5973183 103.7159070  33.3047388 101.2636353
 102.9945655  33.9183355 101.1243827 104.5052325  33.8405152 101.1852999
 114.1585810  44.7507675 103.7138763 113.2116145  44.6313026 103.6417090
 114.5068583  43.8630173 103.7965025 101.9152664  32.9105489  95.4048130
 101.5865370  32.0302868  95.2223236 102.2692035  32.8553157  96.2924519
 111.1632243  44.5460391  99.9143116 111.0157205  43.6177099 100.0950686
 111.9885737  44.5680482  99.4300191 105.0294487  33.1978459  95.7723608
 105.3690560  33.7264380  95.0502216 105.4766608  33.5358865  96.5482174
 114.7666365  45.3688950 101.0007988 115.6912912  45.1631812 100.8632439
 114.5981668  45.1205351 101.9097330 107.0162634  31.6953080  93.9716900
 107.7370997  32.0734333  93.4680617 106.3927939  32.4141957  94.0751878
 111.1593757  32.3998229  94.9075233 111.3757372  33.2822867  94.6064061
 110.6787825  32.0084443  94.1780875 105.8992979  35.3583942 101.4845977
 105.7537559  35.6724245 102.3770259 105.4218182  35.9768843 100.9316876
 107.7589362  32.3486490 101.5326867 107.7450930  31.4527584 101.1959165
 108.4761790  32.3557154 102.1665153 114.5561681  45.8874618  96.3570080
 114.7298559  45.3221040  95.6043932 115.0490572  46.6875513  96.1749570
 100.3738641  37.8989287 104.4233639  99.8292109  38.6749095 104.5553913
 101.2517991  38.2460091 104.2652760 107.1626258  31.2300871  96.8014437
 107.2842169  30.3017517  97.0005325 106.8728300  31.2439557  95.8892752
 110.0317448  28.9155781  99.9381157 110.0539145  28.9795114  98.9833136
 110.4485507  28.0760290 100.1321663 120.4101072  38.6511041  97.9760379
 120.8532218  37.9018366  97.5779503 119.5327583  38.6421177  97.5934111
 115.5436854  45.2041382  93.4566978 116.2387758  45.8248075  93.6754293
 115.8860004  44.3536733  93.7319356 101.1604663  37.0259183 107.3163795
 100.4186399  37.1741818 107.9028426 100.8397407  37.2867449 106.4530545
 117.4428277  42.6541088  94.9854309 117.9679601  42.9928360  94.2603629
 117.3550629  41.7188103  94.8017443 109.1048325  46.5675161 107.1144185
 109.4135452  46.3224308 107.9866885 109.9023807  46.7721800 106.6263056
 109.1268937  48.7213071  99.3449562 108.6873928  48.2289450 100.0382419
 109.8777054  48.1786039  99.1041637 101.6061276  44.9124612  99.3474190
 102.4319296  44.6128384  98.9672834 101.2555328  44.1432234  99.7963979
 106.5742810  44.2651080 101.4171864 105.9522819  43.6021785 101.1174091
 107.2447677  44.2912212 100.7345511  99.8069882  42.8310938 100.3063124
  98.9701790  42.4033113 100.1247125  99.7793527  43.0243382 101.2433915
 106.1356317  42.8155003  94.8930324 106.2844437  43.4990468  94.2396997
 106.9422760  42.7960093  95.4079780 103.8908950  38.8420181  95.8991393
 103.6454991  37.9382511  96.0971603 104.0604864  38.8437331  94.9570871
 103.1604597  34.5748538  93.3977555 102.4673842  34.6492893  92.7417591
 102.9156349  33.8108882  93.9199071 109.6351722  45.3103134  92.3642072
 109.0625689  45.9293321  91.9112543 110.2084516  45.8602495  92.8981994
 112.8548982  45.5940284  93.4950654 113.7879655  45.5285846  93.6983529
 112.7672195  46.4296551  93.0365187 115.4836999  44.9106154  90.4554601
 115.4050630  44.5766018  91.3490359 116.3046665  45.4027922  90.4546074
 110.0198521  36.6463946  89.7058124 110.9657625  36.5170155  89.7746542
 109.6412766  35.9078608  90.1827552 108.2041438  34.5713923  89.6413009
 107.2972893  34.2747036  89.7175723 108.4817419  34.2743741  88.7747296
  99.1219378  35.8920286 100.0912056  98.8022162  35.0385594  99.7986430
  98.5752806  36.1068864 100.8470023 102.8999286  38.6082727 103.8081562
 103.1185295  39.5399835 103.8269596 103.3125059  38.2490702 104.5936366
 109.8203503  29.1150813  95.7957251 109.0104232  28.7697898  96.1712497
 110.5087920  28.8058356  96.3844862 111.7494052  28.1928859  97.4181547
 112.3025090  28.6124313  98.0771570 111.9864138  27.2664607  97.4604503
 106.9740222  31.4300858  89.7824989 107.8359386  31.7555756  90.0420806
 107.1590566  30.6432354  89.2698054  98.9907638  39.5123198 102.0605177
  98.2971110  39.0977151 101.5475132  99.7380629  39.5543734 101.4638596
 115.1272859  30.3029385  96.9260212 114.5471528  30.9614189  96.5438264
 114.8608791  29.4806729  96.5147629 100.9044381  39.4441452  99.9371192
 100.8815069  39.5429139  98.9853075 101.2145017  40.2906602 100.2588358
 103.5631758  41.5017607 104.0517807 104.5175012  41.4701549 103.9847738
 103.3644282  41.0408230 104.8668033 104.1531141  40.0718723 106.6188604
 104.9724030  40.5662801 106.6423442 104.4267948  39.1550691 106.5906172
 113.9097737  32.4629475  95.9816560 113.0223592  32.7479126  95.7636755
 114.3251726  32.3023238  95.1343837 101.9181987  47.0437226 101.0688004
 101.7836455  46.2837627 100.5026003 101.5014050  47.7678126 100.6016793
 113.0540950  42.2274150  90.0764580 113.7576800  42.4324152  90.6922235
 112.3303599  42.7950911  90.3413663 113.8838761  37.9784011  96.1966850
 113.8273962  38.4352562  95.3574482 114.4367103  37.2174695  96.0189693
 117.6943566  33.7673743  97.0216969 117.4380501  33.3670378  97.8525177
 117.0696435  34.4817537  96.8967109 105.0751113  47.9406543 101.2806447
 104.9583497  48.8851976 101.1785137 104.2543559  47.6380105 101.6692246
 114.9627648  42.6656679  92.1263040 115.7973252  42.2337877  91.9440515
 114.8011991  42.4938692  93.0539934 114.6173540  39.1688792  93.4919379
 114.5622344  39.0033064  92.5507823 113.9919595  39.8764825  93.6481569
  99.4066055  34.4056856 107.3180801 100.0524918  33.8955810 107.8068027
  99.1983206  35.1425538 107.8924227 107.9269665  28.6696901  93.0704698
 107.9148335  29.6138741  93.2272968 108.8193087  28.4867047  92.7764159
 106.1005627  48.5934805 104.4962376 107.0032874  48.6258415 104.8128871
 105.8742997  47.6635256 104.5108711 107.8559229  47.3465792 101.1572454
 106.9054860  47.3467653 101.0436826 108.1591715  46.5998526 100.6408489
 120.4001629  53.1353758 102.1579741 120.0620141  53.0194823 101.2700276
 121.2691397  52.7344923 102.1380747 116.2588445  54.9889234  98.1476632
 115.6953310  54.8979171  97.3792920 116.1440840  54.1689139  98.6279125
 113.8052877  56.4840426 100.9860853 114.5974169  56.1431251 100.5707152
 114.0449527  56.5935401 101.9063006 115.7643631  55.7449339  93.8578231
 116.5374507  55.1978326  93.7191107 116.1169030  56.6093589  94.0692693
 117.6028673  57.0725722 107.0645131 117.3118539  57.9771352 106.9491797
 118.2385658  57.1142249 107.7789200 118.5284880  54.4502570 103.6546490
 119.1248452  54.2258592 102.9403453 118.5859852  53.7087316 104.2571938
 118.1009908  51.9042005  91.4896681 118.3535429  51.3823527  90.7280144
 117.1634468  51.7408151  91.5923365 117.8206197  53.8070111  93.6921056
 117.7042455  53.1315015  94.3602141 117.9308457  53.3202485  92.8753209
 120.1637738  53.2680258  97.3967746 119.7995945  52.7410879  98.1080667
 121.0204854  52.8778728  97.2234231 119.8043225  48.2970158  92.3929094
 119.9717627  49.1650395  92.7599565 119.6140394  48.4597440  91.4690383
 116.0131040  53.2100934 100.0931629 115.0881536  53.0777148 100.3009321
 116.2615453  53.9895153 100.5901571 119.7832446  50.7527816  93.3775761
 119.6632071  51.1984866  94.2161241 119.0885034  51.1013133  92.8189299
 113.3739851  52.8534207 100.9275418 113.5032232  53.1068686 101.8414830
 112.6937302  53.4461915 100.6080073 117.5439338  63.5231457  97.0265892
 117.4663368  64.4739282  97.1054373 116.9400982  63.1777330  97.6840818
 119.6415056  55.9449515  98.8619762 120.1053402  56.2237218  98.0724384
 119.3771854  55.0432960  98.6792852 116.5339137  55.4920997 101.7999525
 117.1040494  55.9208265 101.1617009 117.1247249  55.2103582 102.4983710
 118.5783942  52.0672668  95.6709327 119.2807986  52.5193711  96.1383253
 118.2464571  51.4256487  96.2989220 112.3209276  50.3256220 100.9726460
 111.5308330  50.5813749 100.4966571 112.8120524  51.1404558 101.0778501
 114.2724022  50.6900800  97.9309937 113.4755185  50.8019494  98.4493433
 114.0449614  51.0287452  97.0650827 120.1029689  57.2145503 105.8792452
 120.1674122  57.6765910 106.7150623 119.3940613  56.5842868 106.0074761
 110.6046979  50.5786711 103.4041451 110.8555018  51.4633721 103.6699027
 111.1406528  50.3991312 102.6316543 119.8177707  58.8813610  95.7471432
 119.6823382  59.7265146  96.1756280 120.3587520  59.0832888  94.9837366
 113.2707104  56.3989048  96.3199357 113.7831625  57.1932299  96.4704922
 113.9229817  55.7015339  96.2532958 115.0801989  59.5154805  98.4022110
 115.2568617  60.4372769  98.2143094 115.8758823  59.2013224  98.8316490
 114.3654346  51.5619437 108.2784273 114.2507861  50.6604694 108.5791372
 113.5098863  51.8083133 107.9269090 116.2033305  61.0332978 104.4032452
 116.7540730  60.9050042 103.6309446 115.3644780  61.3327867 104.0527345
 120.0000476  57.2984106 108.7476684 120.5328812  56.5372394 108.5175992
 119.4714557  57.0057758 109.4900838 111.2356021  54.7277703  97.0958927
 112.0731243  55.1374711  96.8792635 111.4134289  53.7877145  97.0659121
 120.7167564  47.2402484  97.8427999 119.8609161  46.8509335  97.6633638
 121.1294516  47.3194445  96.9827784 118.4909597  44.8587557 101.2485740
 119.3562594  44.6630366 100.8891630 118.5587106  44.6297909 102.1755097
 121.3653188  56.4270099  96.2595496 120.8374550  55.6922858  95.9468733
 120.8640691  57.2044775  96.0135464 116.0971916  47.0889765  98.6202107
 116.6715668  46.8664947  97.8875300 116.6842898  47.1578460  99.3730708
 116.4241503  49.1194226  92.6397992 115.5878815  49.4568913  92.9607267
 116.2846273  48.9843206  91.7025129 118.3994584  43.9631014  97.3477177
 117.7458996  43.6480031  96.7233791 118.3575058  43.3406754  98.0736999
 119.5105788  54.2450309  89.2630469 118.6032850  54.0139562  89.4621618
 120.0076820  53.4487928  89.4504450 120.6894022  54.3462904  93.7854459
 119.7805241  54.0621937  93.8826928 120.7189106  54.7661982  92.9257766
 111.2582192  52.0668418  97.7669661 111.0606592  51.4737779  97.0420728
 110.7028856  51.7620628  98.4845600 119.2378916  51.9591524  99.8864254
 119.2927526  51.0065361  99.8106731 118.4270118  52.1150964 100.3705553
 120.3870110  55.8871648  91.1242537 119.9489540  55.1707506  90.6648175
 121.1280551  56.1147762  90.5627629 117.1771276  50.5768584  97.6454633
 116.3639141  50.8762755  98.0519825 117.6730270  50.1824273  98.3629115
 119.3279854  60.5726341  99.5788898 119.2856033  60.7987187  98.6497430
 120.2442553  60.3389716  99.7274699 116.6685351  48.1486940 103.2615868
 117.3084730  48.0075699 102.5638831 115.8362881  47.8621453 102.8854470
 117.4445655  57.4489370  99.3750860 118.2386253  56.9539690  99.1733435
 116.7337347  56.9207233  99.0118566 113.7528418  51.5932452  95.4510613
 112.8226006  51.5316907  95.6680575 113.8485890  51.0708405  94.6547254
 113.6713967  48.1187265  98.0388855 113.9320784  49.0332598  97.9298015
 114.4931139  47.6511707  98.1885468 115.1438892  49.5325022 105.2087679
 115.8161946  49.3242384 104.5600328 114.3168679  49.3347108 104.7692912
 120.0216931  58.0218392 103.0548697 119.8828016  57.6537177 103.9274636
 119.2331527  58.5366032 102.8832655 120.6165083  63.1227489  94.3974234
 120.7916838  62.6515532  95.2119857 119.9297871  63.7493255  94.6255495
 121.5722146  57.3999995 100.4437535 121.2371978  57.3600765 101.3395185
 121.0726091  56.7344711  99.9707945 115.5466390  52.8067625 105.9690116
 115.4086188  52.0747864 106.5701655 116.4571313  52.7176525 105.6874304
 118.1748690  52.5187584 105.4573796 118.8848309  51.8780776 105.4160414
 118.1317998  52.7700479 106.3799977 115.1826168  66.2716851 101.1714094
 115.4222766  66.9035376 101.8493113 114.3395364  65.9204891 101.4579453
 116.2979883  48.9641454  89.8395899 115.4209350  48.8430254  89.4758146
 116.7737636  48.1727532  89.5874788 107.8182023  53.7518613  99.9337406
 108.5053063  53.4380343  99.3458422 107.6630152  54.6559978  99.6604658
 112.6216746  48.6408810 104.3622430 112.5374934  48.0334479 103.6272840
 111.7999452  49.1317828 104.3631926 119.6954030  62.0795974 103.5755598
 119.6224201  62.8850945 104.0874903 119.2531423  62.2787940 102.7503620
 119.4843809  61.3167744  97.0858420 118.7011331  61.8589424  97.1796644
 120.1836554  61.8341724  97.4852661 119.3775428  49.2679756  99.4564310
 119.0073216  48.7150797 100.1445215 119.8734521  48.6637890  98.9039310
 117.2064627  59.7277251 106.5519328 117.9074086  60.3613734 106.7048722
 116.7359742  60.0691983 105.7914967 112.8032345  59.2613606 103.4850430
 113.3885782  58.5157294 103.6178335 112.6057183  59.5717563 104.3687094
 115.6571000  62.2964854  98.5012873 114.9881375  62.7810981  98.0176913
 115.5183870  62.5434074  99.4156251 107.3950000  51.8319207 102.2054873
 107.4334099  51.2982797 102.9991992 106.8890292  51.3054412 101.5865851
 119.7976269  64.3308597 105.0995531 120.3494577  64.4940219 105.8644616
 120.1382462  64.9213035 104.4275556 114.7740762  46.6783747 105.7017416
 114.8382088  47.5398578 105.2894813 114.7107882  46.0657749 104.9689774
 111.0258577  50.5583309  95.2808805 111.3212018  49.6493987  95.2275859
 110.1246613  50.5371048  94.9589807 114.5552824  48.6339305 101.2636353
 113.8339410  49.2475273 101.1243827 115.3446080  49.1697070 101.1852999
 112.7546419  48.2397406  95.4048130 112.4259125  47.3594785  95.2223236
 113.1085789  48.1845075  96.2924519 115.8688242  48.5270376  95.7723608
 116.2084314  49.0556297  95.0502216 116.3160362  48.8650782  96.5482174
 117.8556389  47.0244998  93.9716900 118.5764751  47.4026251  93.4680617
 117.2321693  47.7433875  94.0751878 116.7386733  50.6875860 101.4845977
 116.5931314  51.0016163 102.3770259 116.2611937  51.3060760 100.9316876
 118.5983116  47.6778408 101.5326867 118.5844685  46.7819501 101.1959165
 119.3155544  47.6849072 102.1665153 111.2132395  53.2281204 104.4233639
 110.6685863  54.0041012 104.5553913 112.0911745  53.5752009 104.2652760
 118.0020012  46.5592788  96.8014437 118.1235923  45.6309434  97.0005325
 117.7122054  46.5731474  95.8892752 120.8711202  44.2447699  99.9381157
 120.8932899  44.3087032  98.9833136 121.2879261  43.4052207 100.1321663
 111.9998417  52.3551101 107.3163795 111.2580153  52.5033736 107.9028426
 111.6791162  52.6159366 106.4530545 119.9442080  61.8967079 107.1144185
 120.2529206  61.6516226 107.9866885 120.7417562  62.1013717 106.6263056
 119.9662692  64.0504989  99.3449562 119.5267682  63.5581367 100.0382419
 120.7170809  63.5077956  99.1041637 112.4455031  60.2416529  99.3474190
 113.2713051  59.9420301  98.9672834 112.0949083  59.4724152  99.7963979
 117.4136564  59.5942998 101.4171864 116.7916573  58.9313703 101.1174091
 118.0841431  59.6204130 100.7345511 110.6463636  58.1602856 100.3063124
 109.8095544  57.7325030 100.1247125 110.6187281  58.3535299 101.2433915
 116.9750071  58.1446921  94.8930324 117.1238191  58.8282385  94.2396997
 117.7816514  58.1252011  95.4079780 114.7302704  54.1712099  95.8991393
 114.4848746  53.2674429  96.0971603 114.8998619  54.1729249  94.9570871
 113.9998352  49.9040456  93.3977555 113.3067596  49.9784811  92.7417591
 113.7550103  49.1400800  93.9199071 120.4745477  60.6395051  92.3642072
 119.9019444  61.2585239  91.9112543 121.0478270  61.1894413  92.8981994
 119.0435192  49.9005841  89.6413009 118.1366648  49.6038953  89.7175723
 119.3211173  49.6035659  88.7747296 109.9613133  51.2212204 100.0912056
 109.6415917  50.3677512  99.7986430 109.4146561  51.4360782 100.8470023
 113.7393040  53.9374645 103.8081562 113.9579050  54.8691753 103.8269596
 114.1518814  53.5782619 104.5936366 120.6597258  44.4442730  95.7957251
 119.8497986  44.0989815  96.1712497 121.3481675  44.1350274  96.3844862
 117.8133977  46.7592776  89.7824989 118.6753141  47.0847674  90.0420806
 117.9984321  45.9724272  89.2698054 109.8301393  54.8415115 102.0605177
 109.1364864  54.4269068 101.5475132 110.5774384  54.8835652 101.4638596
 111.7438135  54.7733369  99.9371192 111.7208823  54.8721056  98.9853075
 112.0538772  55.6198520 100.2588358 114.4025513  56.8309524 104.0517807
 115.3568767  56.7993467 103.9847738 114.2038037  56.3700148 104.8668033
 114.9924895  55.4010640 106.6188604 115.8117784  55.8954719 106.6423442
 115.2661703  54.4842608 106.5906172 112.7575742  62.3729144 101.0688004
 112.6230210  61.6129545 100.5026003 112.3407804  63.0970044 100.6016793
 115.9144868  63.2698461 101.2806447 115.7977252  64.2143893 101.1785137
 115.0937314  62.9672022 101.6692246 110.2459809  49.7348774 107.3180801
 110.8918673  49.2247728 107.8068027 110.0376960  50.4717456 107.8924227
 118.7663420  43.9988819  93.0704698 118.7542090  44.9430659  93.2272968
 119.6586842  43.8158964  92.7764159 116.9399382  63.9226723 104.4962376
 117.8426628  63.9550333 104.8128871 116.7136752  62.9927174 104.5108711
 118.6952984  62.6757709 101.1572454 117.7448615  62.6759571 101.0436826
 118.9985470  61.9290444 100.6408489 118.6575778  69.0810531  99.9337406
 119.3446818  68.7672261  99.3458422 118.5023907  69.9851896  99.6604658
 118.2343754  67.1611124 102.2054873 118.2727854  66.6274715 102.9991992
 117.7284047  66.6346330 101.5865851 121.4857390  73.4894774 100.3063124
 120.6489299  73.0616948 100.1247125 121.4581036  73.6827217 101.2433915
 120.8006887  66.5504122 100.0912056 120.4809671  65.6969430  99.7986430
 120.2540315  66.7652700 100.8470023 120.6695147  70.1707033 102.0605177
 119.9758619  69.7560986 101.5475132 121.4168138  70.2127570 101.4638596
  95.8651830   9.8709745  83.7511199  95.7875860  10.8217570  83.8299679
  95.2613474   9.5255617  84.4086125  93.5038660  12.6195139  87.8959401
  93.7435258  13.2513663  88.5738419  92.6607857  12.2683179  88.1824760
  93.9783492   8.6443141  85.2258179  93.3093868   9.1289269  84.7422219
  93.8396362   8.8912361  86.1401558  98.1188761  10.6786885  91.8240838
  98.6707069  10.8418506  92.5889923  98.4594954  11.2691322  91.1520863
  91.0788234   8.7207431  87.7933311  90.9442702   7.9607832  87.2271309
  90.6620296   9.4448331  87.3262100  94.2357360   9.6176748  88.0051754
  94.1189744  10.5622180  87.9030444  93.4149806   9.3150310  88.3937553
  95.2611874  10.2705010  91.2207682  96.1639121  10.3028620  91.5374177
  95.0349244   9.3405461  91.2354018 109.5607876  14.8123963  88.8825048
 109.2226387  14.6965028  87.9945583 110.4297644  14.4115128  88.8626054
 105.4194692  16.6659439  84.8721939 104.8559557  16.5749376  84.1038227
 105.3047087  15.8459344  85.3524431 102.9659123  18.1610631  87.7106159
 103.7580415  17.8201456  87.2952459 103.2055774  18.2705606  88.6308313
 110.9994250  20.3330407  80.1836404 110.3482230  20.9184487  79.7970418
 111.7938613  20.8636602  80.2431441 104.9249877  17.4219544  80.5823538
 105.6980753  16.8748531  80.4436414 105.2775276  18.2863794  80.7937999
 106.7634920  18.7495926  93.7890437 106.4724786  19.6541557  93.6737104
 107.3991904  18.7912454  94.5034507 107.6891127  16.1272775  90.3791797
 108.2854699  15.9028797  89.6648760 107.7466098  15.3857520  90.9817245
 112.4769515  18.0220839  80.7205388 111.8415348  18.0955466  81.4326293
 112.1466922  18.6114438  80.0424467 106.9812444  15.4840316  80.4166363
 106.8648702  14.8085220  81.0847447 107.0914704  14.9972690  79.5998516
 109.3243985  14.9450463  84.1213052 108.9602192  14.4181084  84.8325974
 110.1811101  14.5548932  83.9479538 111.7224805  18.4357342  90.7840231
 111.4225528  19.3382381  90.6756038 111.3775865  18.1689525  91.6361384
 105.1737287  14.8871139  86.8176936 104.2487783  14.7547353  87.0254627
 105.4221700  15.6665358  87.3146878 102.5346098  14.5304412  87.6520725
 102.6638479  14.7838891  88.5660136 101.8543549  15.1232120  87.3325380
 106.7045585  25.2001662  83.7511199 106.6269615  26.1509487  83.8299679
 106.1007228  24.8547535  84.4086125 113.2493341  17.8845312  88.3214983
 112.6202204  18.0491026  87.6191051 112.8619003  18.2986922  89.0925947
 117.1282573  18.8199750  85.6759347 116.4433611  19.1998651  85.1256380
 117.2126422  19.4295077  86.4091295 108.8021303  17.6219720  85.5865068
 109.2659649  17.9007423  84.7969691 108.5378101  16.7203165  85.4038159
 105.6945384  17.1691202  88.5244831 106.2646741  17.5978470  87.8862316
 106.2853496  16.8873787  89.2229017 101.4815523  12.0026425  87.6971767
 100.6914577  12.2583954  87.2211877 101.9726770  12.8174763  87.8023807
 103.4330268  12.3671005  84.6555244 102.6361432  12.4789699  85.1738739
 103.2055861  12.7057657  83.7896134 109.2635936  18.8915708  92.6037758
 109.3280369  19.3536115  93.4395930 108.5546860  18.2613073  92.7320068
  99.7653226  12.2556916  90.1286758 100.0161265  13.1403926  90.3944334
 100.3012774  12.0761517  89.3561849 108.9783954  20.5583815  82.4716738
 108.8429629  21.4035351  82.9001586 109.5193766  20.7603093  81.7082672
 102.4313351  18.0759253  83.0444664 102.9437872  18.8702504  83.1950228
 103.0836064  17.3785544  82.9778265 104.2408236  21.1925010  85.1267417
 104.4174864  22.1142974  84.9388401 105.0365069  20.8783429  85.5561797
 103.5260592  13.2389641  95.0029580 103.4114108  12.3374899  95.3036679
 102.6705110  13.4853338  94.6514397 105.3639551  22.7103183  91.1277759
 105.9146976  22.5820247  90.3554753 104.5251027  23.0098072  90.7772652
 109.1606722  18.9754311  95.4721990 109.6935059  18.2142599  95.2421298
 108.6320803  18.6827963  96.2146145 100.3962268  16.4047908  83.8204234
 101.2337490  16.8144916  83.6037942 100.5740536  15.4647350  83.7904428
 110.5259435  18.1040304  82.9840802 109.9980797  17.3693063  82.6714040
 110.0246938  18.8814980  82.7380771 115.5052281  16.2989324  88.1007849
 114.8475956  16.9888586  88.1887977 116.3092680  16.6885756  88.4441835
 108.6712035  15.9220514  75.9875775 107.7639097  15.6909767  76.1866924
 109.1683067  15.1258133  76.1749757 111.5780114  24.6318021  78.9072461
 110.9041813  24.9349718  79.5157419 111.9645936  25.4347101  78.5577918
 109.8500269  16.0233109  80.5099765 108.9411488  15.7392142  80.6072235
 109.8795353  16.4432187  79.6503072 115.0819536  19.6339698  84.2790933
 114.6281863  18.7930608  84.3356123 114.4513503  20.2701097  84.6165713
 113.5252475  21.4716195  85.2140751 113.8175450  22.0321252  84.4953117
 114.0351096  21.7644756  85.9693910 100.4188439  13.7438623  84.4914968
 100.2212839  13.1507984  83.7666034  99.8635103  13.4390833  85.2090906
 109.5476357  17.5641852  77.8487844 109.1095786  16.8477711  77.3893481
 110.2886797  17.7917967  77.2872935 108.4886101  22.2496546  86.3034204
 108.4462279  22.4757392  85.3742736 109.4048799  22.0159921  86.4520005
 106.6051901  19.1259575  86.0996167 107.3992500  18.6309895  85.8978742
 105.8943594  18.5977438  85.7363873 111.4246746  21.5077671  90.4508535
 111.4783768  22.0768607  91.2186251 110.5561527  21.6779556  90.0862572
 102.9134665  13.2702657  82.1755920 101.9832253  13.2087112  82.3925882
 103.0092137  12.7478610  81.3792561 110.3834846  15.6737933  92.0095466
 111.3126906  15.8249092  91.8364434 109.9625876  15.7621953  91.1544113
 109.1823177  19.6988597  89.7794004 109.0434263  19.3307381  90.6519942
 108.3937774  20.2136237  89.6077962 109.7771329  24.7997694  81.1219541
 109.9523085  24.3285737  81.9365163 109.0904117  25.4263460  81.3500801
 110.7328392  19.0770200  87.1682842 110.3978225  19.0370970  88.0640492
 110.2332338  18.4114916  86.6953252 104.7072636  14.4837830  92.6935423
 104.5692434  13.7518069  93.2946962 105.6177560  14.3946730  92.4119611
 113.6687584  16.4226234  77.4419902 113.0516755  15.6973062  77.3452954
 113.2004073  17.1835594  77.0986976 107.3354937  14.1957789  92.1819103
 108.0454556  13.5550981  92.1405721 107.2924245  14.4470684  93.1045283
 104.3432415  27.9487056  87.8959401 104.5829013  28.5805580  88.5738419
 103.5001611  27.5975096  88.1824760  96.9788270  15.4288818  86.6582713
  97.6659310  15.1150548  86.0703728  96.8236399  16.3330183  86.3849964
 108.8560276  23.7566179  90.3000905 108.7830448  24.5621150  90.8120209
 108.4137670  23.9558145  89.4748926 108.6450056  22.9937949  83.8103726
 107.8617578  23.5359629  83.9041951 109.3442801  23.5111928  84.2097967
 111.3158960  23.6553013  92.4559063 112.0286932  24.2900478  92.3834965
 110.8248989  23.7516879  91.6399065 113.0376487  17.5604265  84.0276355
 112.1032766  17.6805728  83.8581059 113.2153155  16.6576732  83.7636365
 106.3670873  21.4047456  93.2764634 107.0680333  22.0383939  93.4294028
 105.8965988  21.7462188  92.5160274 114.4925269  19.7465406  81.5612541
 114.7685113  19.6322001  82.4706415 113.6229768  19.3482891  81.5224714
 111.1279333  23.9951757  85.2045355 111.3101728  23.1773413  85.6673107
 111.9512319  24.2119449  84.7670245 111.4621499  22.9219942  82.4660403
 111.9909265  22.4112397  81.8530565 111.7249718  22.6062472  83.3305936
 101.9638592  20.9383811  90.2095737 102.5492028  20.1927499  90.3423641
 101.7663430  21.2487768  91.0932401 104.8177247  23.9735059  85.2258179
 104.1487622  24.4581186  84.7422219 104.6790116  24.2204279  86.1401558
  96.5556246  13.5089412  88.9300180  96.5940346  12.9753002  89.7237298
  96.0496539  12.9824617  88.3111157 108.9582515  26.0078802  91.8240838
 109.5100823  26.1710424  92.5889923 109.2988709  26.5983240  91.1520863
 100.1864824  12.2353514  82.0054111 100.4818265  11.3264192  81.9521165
  99.2852860  12.2141253  81.6835114 112.0950903  23.9560778  88.8104520
 111.9702042  23.1550518  88.3015465 112.7529994  24.4506971  88.3218490
 114.1585811  21.7569798  90.4384070 113.2116147  21.6375149  90.3662397
 114.5068584  20.8692296  90.5210331 111.1632244  21.5522514  86.6388422
 111.0157207  20.6239221  86.8195992 111.9885738  21.5742605  86.1545497
 114.7666366  22.3751073  87.7253295 115.6912914  22.1693934  87.5877746
 114.5981670  22.1267474  88.6342636 114.5561682  22.8936740  83.0815386
 114.7298560  22.3283163  82.3289239 115.0490574  23.6937635  82.8994876
 100.3738642  14.9051409  91.1478945  99.8292110  15.6811217  91.2799219
 101.2517992  15.2522214  90.9898067 115.5436855  22.2103505  80.1812285
 116.2387759  22.8310197  80.3999599 115.8860005  21.3598856  80.4564663
 101.1604664  14.0321306  94.0409102 100.4186400  14.1803941  94.6273732
 100.8397408  14.2929571  93.1775851 117.4428278  19.6603210  81.7099615
 117.9679602  19.9990483  80.9848935 117.3550631  18.7250225  81.5262750
 109.1048327  23.5737284  93.8389492 109.4135453  23.3286431  94.7112192
 109.9023809  23.7783922  93.3508362 109.1268939  25.7275193  86.0694869
 108.6873929  25.2351572  86.7627725 109.8777056  25.1848161  85.8286944
 101.6061278  21.9186734  86.0719497 102.4319298  21.6190506  85.6918140
 101.2555330  21.1494357  86.5209285 106.5742811  21.2713203  88.1417170
 105.9522820  20.6083908  87.8419398 107.2447678  21.2974334  87.4590818
  99.8069883  19.8373061  87.0308430  98.9701791  19.4095235  86.8492432
  99.7793528  20.0305504  87.9679221 106.1356318  19.8217126  81.6175631
 106.2844438  20.5052590  80.9642304 106.9422761  19.8022216  82.1325087
 103.8908951  15.8482304  82.6236700 103.6454993  14.9444634  82.8216910
 104.0604865  15.8499454  81.6816178 109.6351723  22.3165256  79.0887378
 109.0625690  22.9355443  78.6357850 110.2084517  22.8664618  79.6227300
 112.8548983  22.6002406  80.2195961 113.7879656  22.5347968  80.4228836
 112.7672196  23.4358673  79.7610493 115.4837000  21.9168277  77.1799908
 115.4050631  21.5828140  78.0735666 116.3046667  22.4090045  77.1791380
  99.1219379  12.8982409  86.8157362  98.8022164  12.0447717  86.5231736
  98.5752808  13.1130987  87.5715330 102.8999287  15.6144850  90.5326869
 103.1185297  16.5461958  90.5514903 103.3125061  15.2552824  91.3181673
  98.9907639  16.5185320  88.7850484  98.2971111  16.1039273  88.2720438
  99.7380630  16.5605857  88.1883903 100.9044382  16.4503574  86.6616499
 100.8815070  16.5491261  85.7098382 101.2145018  17.2968725  86.9833665
 103.5631760  18.5079729  90.7763113 104.5175013  18.4763672  90.7093045
 103.3644283  18.0470353  91.5913339 104.1531142  17.0780845  93.3433911
 104.9724031  17.5724924  93.3668748 104.4267950  16.1612813  93.3151478
 101.9181989  24.0499349  87.7933311 101.7836456  23.2899750  87.2271309
 101.5014051  24.7740249  87.3262100 113.0540952  19.2336272  76.8009886
 113.7576802  19.4386275  77.4167542 112.3303600  19.8013034  77.0658970
 105.0751114  24.9468666  88.0051754 104.9583499  25.8914098  87.9030444
 104.2543561  24.6442227  88.3937553 114.9627649  19.6718801  78.8508346
 115.7973253  19.2400000  78.6685821 114.8011992  19.5000815  79.7785241
 114.6173541  16.1750915  80.2164686 114.5622345  16.0095186  79.2753130
 113.9919596  16.8826948  80.3726875  99.4066056  11.4118979  94.0426108
 100.0524920  10.9017933  94.5313333  99.1983207  12.1487661  94.6169533
 106.1005629  25.5996928  91.2207682 107.0032875  25.6320538  91.5374177
 105.8742999  24.6697379  91.2354018 107.8559231  24.3527914  87.8817761
 106.9054862  24.3529776  87.7682133 108.1591717  23.6060649  87.3653795
 120.4001630  30.1415881  88.8825048 120.0620142  30.0256945  87.9945583
 121.2691399  29.7407046  88.8626054 116.2588446  31.9951357  84.8721939
 115.6953311  31.9041294  84.1038227 116.1440841  31.1751261  85.3524431
 113.8052878  33.4902549  87.7106159 114.5974170  33.1493373  87.2952459
 114.0449528  33.5997524  88.6308313 115.7643632  32.7511462  80.5823538
 116.5374508  32.2040449  80.4436414 116.1169031  33.6155711  80.7937999
 117.6028674  34.0787844  93.7890437 117.3118540  34.9833475  93.6737104
 118.2385659  34.1204372  94.5034507 118.5284881  31.4564693  90.3791797
 119.1248454  31.2320715  89.6648760 118.5859853  30.7149438  90.9817245
 118.1009910  28.9104128  78.2141988 118.3535430  28.3885649  77.4525451
 117.1634469  28.7470273  78.3168672 117.8206198  30.8132234  80.4166363
 117.7042457  30.1377137  81.0847447 117.9308458  30.3264608  79.5998516
 120.1637739  30.2742381  84.1213052 119.7995947  29.7473002  84.8325974
 121.0204855  29.8840850  83.9479538 119.8043226  25.3032281  79.1174401
 119.9717629  26.1712517  79.4844872 119.6140395  25.4659562  78.1935690
 116.0131041  30.2163056  86.8176936 115.0881538  30.0839271  87.0254627
 116.2615454  30.9957276  87.3146878 119.7832447  27.7589938  80.1021068
 119.6632072  28.2046989  80.9406548 119.0885036  28.1075256  79.5434606
 113.3739852  29.8596330  87.6520725 113.5032233  30.1130809  88.5660136
 112.6937303  30.4524038  87.3325380 117.5439339  40.5293580  83.7511199
 117.4663369  41.4801405  83.8299679 116.9400983  40.1839453  84.4086125
 119.6415058  32.9511638  85.5865068 120.1053403  33.2299341  84.7969691
 119.3771856  32.0495083  85.4038159 116.5339139  32.4983120  88.5244831
 117.1040496  32.9270388  87.8862316 117.1247250  32.2165704  89.2229017
 118.5783944  29.0734790  82.3954633 119.2807987  29.5255834  82.8628560
 118.2464572  28.4318609  83.0234526 112.3209278  27.3318343  87.6971767
 111.5308332  27.5875872  87.2211877 112.8120525  28.1466681  87.8023807
 114.2724023  27.6962922  84.6555244 113.4755186  27.8081616  85.1738739
 114.0449615  28.0349574  83.7896134 120.1029691  34.2207625  92.6037758
 120.1674123  34.6828033  93.4395930 119.3940614  33.5904990  92.7320068
 110.6046981  27.5848833  90.1286758 110.8555019  28.4695843  90.3944334
 111.1406529  27.4053435  89.3561849 119.8177708  35.8875733  82.4716738
 119.6823383  36.7327269  82.9001586 120.3587521  36.0895011  81.7082672
 113.2707106  33.4051171  83.0444664 113.7831626  34.1994421  83.1950228
 113.9229818  32.7077461  82.9778265 115.0801990  36.5216927  85.1267417
 115.2568619  37.4434892  84.9388401 115.8758824  36.2075346  85.5561797
 114.3654347  28.5681559  95.0029580 114.2507862  27.6666816  95.3036679
 113.5098865  28.8145256  94.6514397 116.2033306  38.0395101  91.1277759
 116.7540731  37.9112164  90.3554753 115.3644782  38.3389990  90.7772652
 120.0000477  34.3046229  95.4721990 120.5328814  33.5434517  95.2421298
 119.4714558  34.0119881  96.2146145 111.2356022  31.7339825  83.8204234
 112.0731244  32.1436834  83.6037942 111.4134290  30.7939267  83.7904428
 120.7167566  24.2464607  84.5673305 119.8609162  23.8571457  84.3878944
 121.1294517  24.3256568  83.7073091 118.4909598  21.8649680  87.9731047
 119.3562595  21.6692488  87.6136936 118.5587107  21.6360031  88.9000404
 121.3653190  33.4332221  82.9840802 120.8374551  32.6984981  82.6714040
 120.8640692  34.2106898  82.7380771 116.0971917  24.0951888  85.3447414
 116.6715669  23.8727069  84.6120607 116.6842900  24.1640582  86.0976015
 116.4241504  26.1256349  79.3643299 115.5878817  26.4631035  79.6852574
 116.2846274  25.9905328  78.4270436 118.3994585  20.9693137  84.0722483
 117.7458997  20.6542154  83.4479098 118.3575059  20.3468877  84.7982306
 119.5105790  31.2512432  75.9875775 118.6032851  31.0201685  76.1866924
 120.0076822  30.4550051  76.1749757 120.6894023  31.3525026  80.5099765
 119.7805242  31.0684059  80.6072235 120.7189107  31.7724105  79.6503072
 111.2582194  29.0730541  84.4914968 111.0606593  28.4799901  83.7666034
 110.7028858  28.7682751  85.2090906 119.2378917  28.9653647  86.6109561
 119.2927527  28.0127483  86.5352037 118.4270119  29.1213086  87.0950859
 120.3870111  32.8933770  77.8487844 119.9489541  32.1769629  77.3893481
 121.1280552  33.1209885  77.2872935 117.1771277  27.5830707  84.3699940
 116.3639143  27.8824877  84.7765132 117.6730271  27.1886396  85.0874422
 119.3279855  37.5788464  86.3034204 119.2856034  37.8049310  85.3742736
 120.2442554  37.3451838  86.4520005 116.6685352  25.1549062  89.9861175
 117.3084731  25.0137821  89.2884138 115.8362882  24.8683576  89.6099777
 117.4445656  34.4551493  86.0996167 118.2386254  33.9601813  85.8978742
 116.7337348  33.9269356  85.7363873 113.7528419  28.5994575  82.1755920
 112.8226007  28.5379030  82.3925882 113.8485891  28.0770527  81.3792561
 113.6713968  25.1249387  84.7634161 113.9320786  26.0394721  84.6543322
 114.4931141  24.6573830  84.9130774 115.1438894  26.5387145  91.9332986
 115.8161947  26.3304507  91.2845635 114.3168680  26.3409231  91.4938218
 120.0216932  35.0280515  89.7794004 119.8828018  34.6599299  90.6519942
 119.2331528  35.5428154  89.6077962 120.6165084  40.1289611  81.1219541
 120.7916839  39.6577654  81.9365163 119.9297872  40.7555377  81.3500801
 121.5722147  34.4062117  87.1682842 121.2371980  34.3662887  88.0640492
 121.0726093  33.7406833  86.6953252 115.5466391  29.8129747  92.6935423
 115.4086189  29.0809986  93.2946962 116.4571314  29.7238648  92.4119611
 118.1748692  29.5249707  92.1819103 118.8848310  28.8842899  92.1405721
 118.1318000  29.7762602  93.1045283 115.1826169  43.2778974  87.8959401
 115.4222767  43.9097498  88.5738419 114.3395366  42.9267014  88.1824760
 116.2979885  25.9703576  76.5641206 115.4209351  25.8492377  76.2003452
 116.7737638  25.1789654  76.3120094 107.8182025  30.7580736  86.6582713
 108.5053064  30.4442466  86.0703728 107.6630153  31.6622100  86.3849964
 112.6216747  25.6470932  91.0867737 112.5374936  25.0396602  90.3518147
 111.7999453  26.1379951  91.0877233 119.6954031  39.0858096  90.3000905
 119.6224202  39.8913068  90.8120209 119.2531424  39.2850062  89.4748926
 119.4843811  38.3229866  83.8103726 118.7011332  38.8651547  83.9041951
 120.1836556  38.8403846  84.2097967 119.3775429  26.2741879  86.1809616
 119.0073217  25.7212919  86.8690522 119.8734522  25.6700012  85.6284616
 117.2064628  36.7339374  93.2764634 117.9074087  37.3675857  93.4294028
 116.7359743  37.0754105  92.5160274 112.8032346  36.2675729  90.2095737
 113.3885783  35.5219417  90.3423641 112.6057184  36.5779686  91.0932401
 115.6571001  39.3026976  85.2258179 114.9881377  39.7873104  84.7422219
 115.5183871  39.5496197  86.1401558 107.3950001  28.8381329  88.9300180
 107.4334100  28.3044920  89.7237298 106.8890294  28.3116535  88.3111157
 119.7976270  41.3370720  91.8240838 120.3494578  41.5002341  92.5889923
 120.1382463  41.9275158  91.1520863 114.7740763  23.6845870  92.4262722
 114.8382090  24.5460701  92.0140120 114.7107883  23.0719871  91.6935081
 111.0258578  27.5645431  82.0054111 111.3212019  26.6556110  81.9521165
 110.1246614  27.5433171  81.6835114 114.5552825  25.6401428  87.9881660
 113.8339411  26.2537396  87.8489133 115.3446081  26.1759193  87.9098306
 112.7546420  25.2459529  82.1293437 112.4259126  24.3656908  81.9468543
 113.1085791  25.1907198  83.0169826 115.8688243  25.5332499  82.4968914
 116.2084316  26.0618420  81.7747523 116.3160364  25.8712905  83.2727481
 117.8556390  24.0307120  80.6962207 118.5764753  24.4088373  80.1925924
 117.2321694  24.7495997  80.7997185 116.7386735  27.6937983  88.2091284
 116.5931315  28.0078286  89.1015565 116.2611938  28.3122883  87.6562183
 118.5983117  24.6840531  88.2572174 118.5844686  23.7881624  87.9204471
 119.3155545  24.6911194  88.8910460 111.2132397  30.2343327  91.1478945
 110.6685865  31.0103135  91.2799219 112.0911747  30.5814131  90.9898067
 118.0020013  23.5654911  83.5259744 118.1235925  22.6371557  83.7250631
 117.7122056  23.5793597  82.6138059 120.8711204  21.2509821  86.6626464
 120.8932901  21.3149154  85.7078443 121.2879263  20.4114330  86.8566970
 111.9998419  29.3613223  94.0409102 111.2580155  29.5095859  94.6273732
 111.6791163  29.6221489  93.1775851 119.9442081  38.9029201  93.8389492
 120.2529208  38.6578348  94.7112192 120.7417563  39.1075840  93.3508362
 119.9662693  41.0567111  86.0694869 119.5267684  40.5643490  86.7627725
 120.7170810  40.5140079  85.8286944 112.4455032  37.2478652  86.0719497
 113.2713052  36.9482424  85.6918140 112.0949084  36.4786274  86.5209285
 117.4136565  36.6005120  88.1417170 116.7916575  35.9375825  87.8419398
 118.0841432  36.6266252  87.4590818 110.6463637  35.1664978  87.0308430
 109.8095546  34.7387153  86.8492432 110.6187283  35.3597422  87.9679221
 116.9750072  35.1509044  81.6175631 117.1238193  35.8344508  80.9642304
 117.7816516  35.1314134  82.1325087 114.7302705  31.1774221  82.6236700
 114.4848747  30.2736551  82.8216910 114.8998620  31.1791372  81.6816178
 113.9998353  26.9102579  80.1222861 113.3067598  26.9846934  79.4662897
 113.7550105  26.1462922  80.6444378 120.4745478  37.6457174  79.0887378
 119.9019445  38.2647361  78.6357850 121.0478271  38.1956536  79.6227300
 119.0435193  26.9067963  76.3658316 118.1366649  26.6101076  76.4421030
 119.3211174  26.6097781  75.4992602 109.9613134  28.2274327  86.8157362
 109.6415918  27.3739635  86.5231736 109.4146562  28.4422905  87.5715330
 113.7393041  30.9436768  90.5326869 113.9579051  31.8753875  90.5514903
 114.1518815  30.5844742  91.3181673 120.6597259  21.4504853  82.5202557
 119.8497988  21.1051938  82.8957803 121.3481676  21.1412397  83.1090169
 117.8133978  23.7654898  76.5070295 118.6753142  24.0909797  76.7666112
 117.9984322  22.9786394  75.9943361 109.8301394  31.8477238  88.7850484
 109.1364865  31.4331191  88.2720438 110.5774385  31.8897775  88.1883903
 111.7438136  31.7795492  86.6616499 111.7208824  31.8783179  85.7098382
 112.0538773  32.6260643  86.9833665 114.4025514  33.8371647  90.7763113
 115.3568768  33.8055589  90.7093045 114.2038038  33.3762271  91.5913339
 114.9924896  32.4072763  93.3433911 115.8117785  32.9016842  93.3668748
 115.2661704  31.4904731  93.3151478 112.7575743  39.3791266  87.7933311
 112.6230211  38.6191667  87.2271309 112.3407805  40.1032166  87.3262100
 115.9144869  40.2760583  88.0051754 115.7977253  41.2206016  87.9030444
 115.0937315  39.9734145  88.3937553 110.2459811  26.7410897  94.0426108
 110.8918674  26.2309851  94.5313333 110.0376962  27.4779578  94.6169533
 118.7663421  21.0050941  79.7950004 118.7542091  21.9492781  79.9518275
 119.6586843  20.8221087  79.5009465 116.9399383  40.9288845  91.2207682
 117.8426630  40.9612456  91.5374177 116.7136753  39.9989296  91.2354018
 118.6952985  39.6819832  87.8817761 117.7448616  39.6821693  87.7682133
 118.9985471  38.9352566  87.3653795 118.6575779  46.0872654  86.6582713
 119.3446819  45.7734384  86.0703728 118.5023908  46.9914018  86.3849964
 118.2343755  44.1673247  88.9300180 118.2727855  43.6336838  89.7237298
 117.7284048  43.6408452  88.3111157 121.4857392  50.4956896  87.0308430
 120.6489300  50.0679070  86.8492432 121.4581037  50.6889339  87.9679221
 120.8006888  43.5566244  86.8157362 120.4809673  42.7031552  86.5231736
 120.2540317  43.7714822  87.5715330 120.6695148  47.1769156  88.7850484
 119.9758620  46.7623109  88.2720438 121.4168139  47.2189692  88.1883903
 117.5439341  17.5355703  70.4756505 117.4663370  18.4863528  70.5544986
 116.9400984  17.1901575  71.1331432 115.1826170  20.2841097  74.6204707
 115.4222769  20.9159621  75.2983726 114.3395367  19.9329137  74.9070067
 115.6571003  16.3089099  71.9503486 114.9881378  16.7935227  71.4667526
 115.5183872  16.5558319  72.8646864 119.7976271  18.3432842  78.5486144
 120.3494579  18.5064464  79.3135230 120.1382465  18.9337280  77.8766169
 112.7575744  16.3853389  74.5178618 112.6230212  15.6253790  73.9516616
 112.3407807  17.1094289  74.0507407 115.9144870  17.2822706  74.7297060
 115.7977254  18.2268138  74.6275751 115.0937316  16.9796268  75.1182860
 116.9399384  17.9350968  77.9452989 117.8426631  17.9674578  78.2619484
 116.7136754  17.0051419  77.9599325 118.6575780  23.0934776  73.3828020
 119.3446820  22.7796506  72.7949035 118.5023909  23.9976141  73.1095271
 118.2343757  21.1735369  75.6545487 118.2727856  20.6398960  76.4482605
 117.7284049  20.6470575  75.0356464 121.4857393  27.5019019  73.7553737
 120.6489301  27.0741193  73.5737738 121.4581038  27.6951462  74.6924528
 120.8006890  20.5628367  73.5402669 120.4809674  19.7093675  73.2477043
 120.2540318  20.7776945  74.2960636 120.6695150  24.1831278  75.5095791
 119.9758621  23.7685231  74.9965745 121.4168141  24.2251815  74.9129209
  46.5417582  70.6193778 132.0091232  45.8679281  70.9225474 132.6176190
  46.9283404  71.4222858 131.6596689  50.5074323  68.1979261 133.2831055
  51.2025228  68.8185954 133.5018370  50.8497473  67.3474612 133.5583433
  44.5989191  68.3041013 132.1906149  44.0263158  68.9231200 131.7376620
  45.1721985  68.8540375 132.7246071  47.8186451  68.5878163 133.3214731
  48.7517124  68.5223725 133.5247606  47.7309664  69.4234430 132.8629264
  50.4474468  67.9044033 130.2818678  50.3688099  67.5703897 131.1754436
  51.2684135  68.3965801 130.2810151  48.0178420  65.2212029 129.9028657
  48.7214270  65.4262031 130.5186312  47.2941068  65.7888791 130.1677740
  49.9265117  65.6594558 131.9527117  50.7610721  65.2275756 131.7704592
  49.7649460  65.4876572 132.8804011  51.3878972  72.1132105 132.4662069
  50.5516285  72.4506792 132.7871344  51.2483742  71.9781085 131.5289206
  51.2617353  71.9579333 129.6659976  50.3846819  71.8368133 129.3022223
  51.7375106  71.1665411 129.4138865  48.9635821  72.8978335 133.2241632
  48.2705066  72.9722690 132.5681668  48.7187573  72.1338679 133.7463148
  54.0072661  72.8943720 129.4677086  53.1004117  72.5976832 129.5439800
  54.2848642  72.5973538 128.6011373  52.7771446  69.7530655 129.6089066
  53.6390610  70.0785553 129.8684883  52.9621790  68.9662151 129.0962131
  53.7300889  66.9926698 132.8968775  53.7179559  67.9368538 133.0537045
  54.6224311  66.8096843 132.6028236  46.5417583  47.6255900 118.7336538
  45.8679282  47.9287597 119.3421496  46.9283405  48.4284981 118.3841996
  50.5074324  45.2041384 120.0076362  51.2025229  45.8248076 120.2263676
  50.8497474  44.3536735 120.2828740  44.5989193  45.3103135 118.9151455
  44.0263160  45.9293323 118.4621927  45.1721986  45.8602497 119.4491377
  47.8186452  45.5940286 120.0460038  48.7517126  45.5285847 120.2492913
  47.7309665  46.4296552 119.5874570  50.4474469  44.9106156 117.0063985
  50.3688101  44.5766020 117.8999743  51.2684136  45.4027924 117.0055457
  48.0178421  42.2274151 116.6273963  48.7214271  42.4324154 117.2431619
  47.2941070  42.7950913 116.8923047  49.9265118  42.6656681 118.6772423
  50.7610722  42.2337879 118.4949898  49.7649461  42.4938694 119.6049318
  58.5549393  53.1826332 128.7727600  59.1927803  53.0633079 128.0690940
  58.4370236  54.1307176 128.8315552  51.2225915  54.9889236 124.6986016
  50.6590780  54.8979173 123.9302304  51.1078310  54.1689141 125.1788508
  56.8025474  58.6560204 120.0100481  56.1513454  59.2414284 119.6234495
  57.5969837  59.1866399 120.0695518  50.7281101  55.7449341 120.4087615
  51.5011977  55.1978328 120.2700491  51.0806500  56.6093590 120.6202076
  53.0647379  51.9042007 118.0406065  53.3172900  51.3823528 117.2789528
  52.1271938  51.7408153 118.1432749  58.1090662  50.9077786 125.8480808
  58.8953751  50.4897209 125.4971225  58.3729366  51.8123878 126.0162457
  58.2800739  56.3450636 120.5469465  57.6446572  56.4185262 121.2590370
  57.9498146  56.9344235 119.8688544  63.5099089  50.8453019 126.7513787
  64.2424261  50.2752236 126.9851616  62.7538445  50.4574619 127.1920292
  52.7843668  53.8070113 120.2430440  52.6679926  53.1315017 120.9111524
  52.8945928  53.3202487 119.4262593  55.1275209  53.2680260 123.9477129
  54.7633416  52.7410881 124.6590051  55.9842325  52.8778729 123.7743615
  54.7680696  48.2970160 118.9438478  54.9355098  49.1650396 119.3108949
  54.5777865  48.4597442 118.0199767  54.7469917  50.7527817 119.9285145
  54.6269542  51.1984868 120.7670625  54.0522505  51.1013135 119.3698683
  52.5076809  63.5231459 123.5775276  52.4300838  64.4739284 123.6563756
  51.9038452  63.1777332 124.2350202  60.4454983  51.2249291 120.7565479
  61.3572839  51.4576677 120.5813176  59.9364630  51.8086335 120.1940557
  59.0524565  56.2075109 128.1479060  58.4233427  56.3720823 127.4455128
  58.6650227  56.6216719 128.9190024  62.9313797  57.1429547 125.5023424
  62.2464835  57.5228448 124.9520457  63.0157646  57.7524874 126.2355372
  54.6052527  55.9449517 125.4129145  55.0690872  56.2237220 124.6233768
  54.3409325  55.0432962 125.2302236  53.5421413  52.0672670 122.2218710
  54.2445456  52.5193713 122.6892637  53.2102041  51.4256488 122.8498603
  61.3010556  57.6661461 130.2741125  62.1228000  57.2641649 129.9923806
  61.2972959  57.5629696 131.2257240  69.3916549  54.0100210 126.6226096
  68.6380258  53.4407608 126.4670101  69.5264091  53.9762874 127.5696731
  54.7815178  58.8813612 122.2980816  54.6460852  59.7265148 122.7265663
  55.3224990  59.0832890 121.5346749  48.2344575  56.3989050 122.8708741
  48.7469096  57.1932300 123.0214305  48.8867288  55.7015341 122.8042342
  50.0439460  59.5154806 124.9531494  50.2206088  60.4372771 124.7652478
  50.8396293  59.2013226 125.3825874  51.1670775  61.0332980 130.9541836
  51.7178200  60.9050044 130.1818830  50.3282251  61.3327869 130.6036729
  46.1993492  54.7277704 123.6468311  47.0368714  55.1374713 123.4302019
  46.3771759  53.7877147 123.6168505  58.0957924  52.3952785 119.3352144
  57.5804547  53.1657390 119.5740531  57.8235232  51.7217921 119.9585206
  55.6805035  47.2402486 124.3937382  54.8246631  46.8509336 124.2143021
  56.0931987  47.3194447 123.5337168  63.0692198  55.1485140 121.2705318
  62.2921641  54.8096299 120.8260480  63.7483679  55.1537763 120.5960283
  57.8844227  50.2679877 121.1611925  57.5794363  50.5826026 122.0122068
  58.8374669  50.3461297 121.2039258  56.3290659  56.4270101 122.8104879
  55.8012020  55.6922860 122.4978117  55.8278162  57.2044777 122.5644848
  61.3083505  54.6219121 127.9271926  60.6507179  55.3118382 128.0152054
  62.1123904  55.0115553 128.2705912  60.1188964  52.9763494 125.9775867
  60.6320845  53.6093486 126.4797577  60.7690188  52.3764689 125.6119227
  51.3878974  49.1194228 119.1907376  50.5516286  49.4568914 119.5116651
  51.2483743  48.9843208 118.2534513  54.4743259  54.2450311 115.8139852
  53.5670321  54.0139564 116.0131001  54.9714291  53.4487930 116.0013834
  57.3811338  62.9547818 118.7336538  56.7073037  63.2579515 119.3421496
  57.7677160  63.7576898 118.3841996  57.3804842  51.8504365 123.3536888
  58.1276661  52.3625762 123.0444010  57.6496432  51.5288418 124.2141282
  55.6531492  54.3462906 120.3363842  54.7442712  54.0621938 120.4336312
  55.6826576  54.7661984 119.4767149  60.8850760  57.9569495 124.1055010
  60.4313087  57.1160405 124.1620200  60.2544727  58.5930894 124.4429790
  59.8283679  48.8861481 125.3355677  59.0906436  48.3738867 125.6665920
  60.0810453  48.4461863 124.5238954  59.3283699  59.7945992 125.0404828
  59.6206674  60.3551049 124.3217194  59.8382320  60.0874553 125.7957987
  54.2016387  51.9591526 126.4373638  54.2564996  51.0065363 126.3616114
  53.3907589  52.1150965 126.9214936  55.3507580  55.8871649 117.6751921
  54.9127010  55.1707508 117.2157558  56.0918021  56.1147764 117.1137012
  52.1408746  50.5768586 124.1964017  51.3276612  50.8762757 124.6029209
  52.6367741  50.1824275 124.9138499  54.2917324  60.5726343 126.1298281
  54.2493503  60.7987189 125.2006813  55.2080023  60.3389718 126.2784082
  63.4680695  54.1628846 123.7328240  63.3298594  54.3530442 122.8049429
  63.1116914  54.9248229 124.1896291  63.4950075  56.2305373 128.7439511
  63.9286581  56.1380662 129.5922565  64.2081655  56.2062874 128.1059527
  52.4083125  57.4489372 125.9260244  53.2023724  56.9539692 125.7242819
  51.6974817  56.9207235 125.5627950  57.2277970  59.8307468 130.2772612
  57.2814992  60.3998404 131.0450328  56.3592751  60.0009353 129.9126649
  48.7165889  51.5932454 122.0019997  47.7863477  51.5316909 122.2189959
  48.8123361  51.0708406 121.2056638  64.3565624  56.2729074 131.2772396
  64.5501514  57.1774885 131.5231671  64.2566242  55.8136493 132.1110981
  54.9854401  58.0218394 129.6058081  54.8465487  57.6537178 130.4784019
  54.1968997  58.5366033 129.4342039  55.5802553  63.1227490 120.9483618
  55.7554309  62.6515534 121.7629240  54.8935341  63.7493257 121.1764878
  56.5359616  57.3999997 126.9946919  56.2009449  57.3600767 127.8904569
  56.0363562  56.7344713 126.5217329  59.4718808  54.7456031 117.2683979
  58.8547979  54.0202859 117.1717031  59.0035296  55.5065391 116.9251053
  50.1463638  66.2716853 127.7223478  50.3860237  66.9035377 128.4002496
  49.3032835  65.9204893 128.0088837  51.2617354  48.9641455 116.3905283
  50.3846820  48.8430256 116.0267529  51.7375107  48.1727534 116.1384171
  54.6591500  62.0795976 130.1264982  54.5861672  62.8850947 130.6384286
  54.2168893  62.2787941 129.3013003  54.4481280  61.3167746 123.6367803
  53.6648802  61.8589426 123.7306028  55.1474025  61.8341725 124.0362044
  65.6107687  52.8302741 127.9220300  65.5997564  53.7127456 127.5514233
  64.7425067  52.4774291 127.7274837  57.1190184  61.9782810 132.2823140
  57.8318156  62.6130274 132.2099042  56.6280212  62.0746676 131.4663142
  58.8407711  55.8834062 123.8540432  57.9063989  56.0035525 123.6845136
  59.0184379  54.9806529 123.5900442  62.2280262  51.7251382 124.3890466
  62.6940714  52.5579373 124.3150769  62.6787762  51.2596363 125.0935725
  60.2956493  58.0695203 121.3876618  60.5716337  57.9551797 122.2970492
  59.4260992  57.6712688 121.3488791  56.9310557  62.3181554 125.0309432
  57.1132952  61.5003210 125.4937184  57.7543543  62.5349246 124.5934322
  57.2652723  61.2449739 122.2924480  57.7940489  60.7342193 121.6794642
  57.5280942  60.9292269 123.1570013  50.6208471  62.2964856 125.0522256
  49.9518846  62.7810983 124.5686296  50.4821340  62.5434076 125.9665635
  54.7613739  64.3308599 131.6504915  55.3132047  64.4940221 132.4154000
  55.1019933  64.9213037 130.9784940  45.9896048  50.5583311 121.8318188
  46.2849489  49.6493989 121.7785242  45.0884083  50.5371050 121.5099191
  57.8982126  62.2790575 128.6368597  57.7733266  61.4780314 128.1279542
  58.5561218  62.7736768 128.1482567  59.9617035  60.0799595 130.2648147
  59.0147370  59.9604946 130.1926474  60.3099808  59.1922093 130.3474408
  56.9663468  59.8752311 126.4652499  56.8188431  58.9469018 126.6460069
  57.7916962  59.8972402 125.9809574  50.8325712  48.5270378 122.3232991
  51.1721785  49.0556299 121.6011600  51.2797833  48.8650784 123.0991558
  60.5697590  60.6980870 127.5517372  61.4944137  60.4923731 127.4141823
  60.4012893  60.4497271 128.4606713  52.8193860  47.0245000 120.5226284
  53.5402222  47.4026252 120.0190001  52.1959164  47.7433876 120.6261262
  56.9624982  47.7290149 121.4584616  57.1788597  48.6114786 121.1573445
  56.4819050  47.3376362 120.7290258  60.3592906  61.2166537 122.9079463
  60.5329784  60.6512960 122.1553316  60.8521797  62.0167432 122.7258953
  66.2132297  53.9802960 124.5269763  66.6563443  53.2310285 124.1288886
  65.3358808  53.9713096 124.1443495  61.3468079  60.5333301 120.0076362
  62.0418983  61.1539994 120.2263676  61.6891229  59.6828653 120.2828740
  63.2459502  57.9833007 121.5363692  63.7710826  58.3220280 120.8113012
  63.1581854  57.0480022 121.3526827  54.9300163  64.0504990 125.8958946
  54.4905153  63.5581369 126.5891802  55.6808279  63.5077958 125.6551021
  47.4092501  60.2416531 125.8983574  48.2350521  59.9420303 125.5182217
  47.0586553  59.4724154 126.3473362  52.3774035  59.5942999 127.9681247
  51.7554044  58.9313704 127.6683475  53.0478902  59.6204131 127.2854895
  51.9387542  58.1446923 121.4439708  52.0875662  58.8282387 120.7906381
  52.7453985  58.1252013 121.9589164  65.7565162  55.4508198 126.9192211
  66.5912053  55.8898002 127.0829771  65.8924291  54.9746852 126.1000456
  49.6940175  54.1712100 122.4500777  49.4486216  53.2674430 122.6480987
  49.8636089  54.1729251 121.5080255  48.9635822  49.9040458 119.9486938
  48.2705067  49.9784813 119.2926974  48.7187574  49.1400802 120.4708455
  55.4382947  60.6395053 118.9151455  54.8656914  61.2585240 118.4621927
  56.0115741  61.1894415 119.4491377  58.6580207  60.9232203 120.0460038
  59.5910880  60.8577765 120.2492913  58.5703420  61.7588470 119.5874570
  61.2868224  60.2398074 117.0063985  61.2081855  59.9057937 117.8999743
  62.1077890  60.7319842 117.0055457  63.9846415  53.1059813 130.2140304
  63.9522735  52.1675814 130.3999988  64.5947038  53.1843850 129.4806129
  55.8229746  51.9755866 116.2567508  56.7688850  51.8462074 116.3255926
  55.4443991  51.2370528 116.7336936  69.8022965  54.1675820 129.3546340
  70.5326353  53.9061108 129.9154044  69.1929910  53.4304542 129.3948408
  67.8838262  52.3083682 129.9520792  67.1571425  52.1739647 129.3437283
  67.4685549  52.6160511 130.7577510  54.0072663  49.9005842 116.1922393
  53.1004118  49.6038955 116.2685107  54.2848644  49.6035660 115.3256679
  55.6234728  44.4442732 122.3466634  54.8135457  44.0989817 122.7221880
  56.3119145  44.1350276 122.9354246  52.7771447  46.7592778 116.3334372
  53.6390611  47.0847676 116.5930190  52.9621792  45.9724273 115.8207438
  60.9304084  45.6321304 123.4769595  60.3502753  46.2906108 123.0947648
  60.6640017  44.8098649 123.0657013  59.7128962  47.7921394 122.5325943
  58.8254817  48.0771045 122.3146138  60.1282951  47.6315158 121.6853220
  63.0643498  47.8167915 126.2480283  63.8403888  48.3064368 126.5204899
  62.3391632  48.2425970 126.7052152  65.5016057  48.5295535 127.3054223
  66.0960547  48.2891271 126.5947532  65.5742640  47.8102665 127.9327760
  47.7213212  62.3729146 127.6197388  47.5867680  61.6129546 127.0535386
  47.3045275  63.0970045 127.1526177  58.8572175  57.5566069 116.6273963
  59.5608025  57.7616072 117.2431619  58.1334824  58.1242831 116.8923047
  59.6869986  53.3075930 122.7476234  59.6305187  53.7644482 121.9083866
  60.2398328  52.5466615 122.5699076  63.4974792  49.0965662 123.5726353
  63.2411726  48.6962298 124.4034561  62.8727660  49.8109456 123.4476492
  67.8087129  51.8361735 126.0797644  67.2486687  51.9054925 126.8529207
  67.2030633  51.6602720 125.3597141  50.8782338  63.2698463 127.8315831
  50.7614722  64.2143895 127.7294521  50.0574784  62.9672024 128.2201630
  60.7658873  57.9948598 118.6772423  61.6004477  57.5629797 118.4949898
  60.6043216  57.8230612 119.6049318  60.4204765  54.4980712 120.0428763
  60.3653569  54.3324983 119.1017207  59.7950820  55.2056744 120.1990952
  53.7300890  43.9988821 119.6214081  53.7179560  44.9430660 119.7782352
  54.6224312  43.8158966 119.3273542  51.9036852  63.9226724 131.0471759
  52.8064099  63.9550335 131.3638254  51.6774222  62.9927175 131.0618095
  53.6590454  62.6757711 127.7081838  52.7086085  62.6759573 127.5946210
  53.9622940  61.9290446 127.1917872  62.0619670  70.3181154 124.6986016
  61.4984535  70.2271091 123.9302304  61.9472065  69.4981058 125.1788508
  59.6084102  71.8132345 127.5370236  60.4005394  71.4723170 127.1216536
  59.8480752  71.9227321 128.4572390  67.6419229  73.9852122 120.0100481
  66.9907208  74.5706202 119.6234495  68.4363591  74.5158316 120.0695518
  61.5674856  71.0741259 120.4087615  62.3405732  70.5270246 120.2700491
  61.9200255  71.9385508 120.6202076  63.9041134  67.2333925 118.0406065
  64.1566654  66.7115446 117.2789528  62.9665693  67.0700070 118.1432749
  68.9484416  66.2369703 125.8480808  69.7347506  65.8189126 125.4971225
  69.2123121  67.1415795 126.0162457  69.1194494  71.6742554 120.5469465
  68.4840327  71.7477180 121.2590370  68.7891900  72.2636152 119.8688544
  63.6237422  69.1362031 120.2430440  63.5073680  68.4606934 120.9111524
  63.7339682  68.6494405 119.4262593  65.9668963  68.5972178 123.9477129
  65.6027170  68.0702799 124.6590051  66.8236079  68.2070647 123.7743615
  65.6074450  63.6262078 118.9438478  65.7748852  64.4942314 119.3108949
  65.4171619  63.7889359 118.0199767  61.8162265  68.5392853 126.6441013
  60.8912761  68.4069067 126.8518704  62.0646678  69.3187073 127.1410955
  65.5863671  66.0819735 119.9285145  65.4663296  66.5276786 120.7670625
  64.8916259  66.4305053 119.3698683  59.1771076  68.1826127 127.4784802
  59.3063457  68.4360606 128.3924213  58.4968527  68.7753835 127.1589457
  71.2848737  66.5541208 120.7565479  72.1966593  66.7868595 120.5813176
  70.7758384  67.1378252 120.1940557  68.6284712  62.7299244 129.0055339
  67.7669191  63.0280498 129.2972077  68.6547147  62.9469643 128.0736372
  65.4446281  71.2741435 125.4129145  65.9084627  71.5529138 124.6233768
  65.1803079  70.3724879 125.2302236  64.3815167  67.3964587 122.2218710
  65.0839211  67.8485631 122.6892637  64.0495796  66.7548406 122.8498603
  58.1240501  65.6548140 127.5235844  57.3339555  65.9105668 127.0475954
  58.6151749  66.4696478 127.6287884  60.0755247  66.0192719 124.4819321
  59.2786410  66.1311413 125.0002816  59.8480839  66.3579371 123.6160211
  56.4078204  65.9078630 129.9550835  56.6586243  66.7925640 130.2208411
  56.9437753  65.7283232 129.1825926  65.6208932  74.2105530 122.2980816
  65.4854607  75.0557066 122.7265663  66.1618745  74.4124807 121.5346749
  59.0738329  71.7280968 122.8708741  59.5862850  72.5224218 123.0214305
  59.7261042  71.0307258 122.8042342  60.8833214  74.8446724 124.9531494
  61.0599842  75.7664689 124.7652478  61.6790048  74.5305143 125.3825874
  68.9701396  57.7336092 130.8279709  68.6265665  58.6237733 130.7518820
  69.3380358  57.5437749 129.9649294  57.0387246  70.0569622 123.6468311
  57.8762468  70.4666631 123.4302019  57.2165514  69.1169064 123.6168505
  68.9351678  67.7244703 119.3352144  68.4198302  68.4949307 119.5740531
  68.6628987  67.0509839 119.9585206  66.5198789  62.5694404 124.3937382
  65.6640386  62.1801254 124.2143021  66.9325741  62.6486364 123.5337168
  68.0497936  60.1040747 128.7928942  67.5462732  60.0670882 127.9796748
  68.3428543  61.0133490 128.8525599  64.2940822  60.1879477 127.7995124
  65.1593819  59.9922285 127.4401013  64.3618331  59.9589828 128.7264481
  73.9085952  70.4777057 121.2705318  73.1315395  70.1388217 120.8260480
  74.5877433  70.4829681 120.5960283  68.7237981  65.5971795 121.1611925
  68.4188117  65.9117944 122.0122068  69.6768424  65.6753215 121.2039258
  67.1684413  71.7562018 122.8104879  66.6405775  71.0214778 122.4978117
  66.6671916  72.5336695 122.5644848  61.9003141  62.4181685 125.1711491
  62.4746893  62.1956866 124.4384684  62.4874123  62.4870379 125.9240092
  62.2272728  64.4486146 119.1907376  61.3910040  64.7860832 119.5116651
  62.0877498  64.3135125 118.2534513  64.2025809  59.2922933 123.8986560
  63.5490221  58.9771951 123.2743175  64.1606283  58.6698674 124.6246383
  65.3137014  69.5742228 115.8139852  64.4064075  69.3431482 116.0131001
  65.8108046  68.7779848 116.0013834  68.2205092  78.2839736 118.7336538
  67.5466791  78.5871432 119.3421496  68.6070914  79.0868816 118.3841996
  67.4363549  65.7804867 128.2234208  66.5186110  66.0019814 128.0655896
  67.8523693  65.8551177 127.3645915  68.2198597  67.1796283 123.3536888
  68.9670416  67.6917680 123.0444010  68.4890186  66.8580335 124.2141282
  66.4925247  69.6754823 120.3363842  65.5836466  69.3913856 120.4336312
  66.5220331  70.0953902 119.4767149  70.6677434  64.2153399 125.3355677
  69.9300191  63.7030785 125.6665920  70.9204207  63.7753780 124.5238954
  70.7689061  56.9929651 125.9297447  71.0747938  56.1327014 125.6423362
  71.4941666  57.5847271 125.7296441  57.0613417  67.3960337 124.3179045
  56.8637817  66.8029698 123.5930111  56.5060081  67.0912548 125.0354983
  65.0410141  67.2883444 126.4373638  65.0958751  66.3357280 126.3616114
  64.2301343  67.4442883 126.9214936  66.1901335  71.2163567 117.6751921
  65.7520765  70.4999426 117.2157558  66.9311776  71.4439682 117.1137012
  62.9802501  65.9060504 124.1964017  62.1670366  66.2054674 124.6029209
  63.4761495  65.5116192 124.9138499  74.3074450  69.4920764 123.7328240
  74.1692348  69.6822360 122.8049429  73.9510668  70.2540147 124.1896291
  62.4716576  63.4778859 129.8125252  63.1115955  63.3367618 129.1148215
  61.6394106  63.1913373 129.4363854  63.2476880  72.7781290 125.9260244
  64.0417478  72.2831610 125.7242819  62.5368572  72.2499153 125.5627950
  59.5559643  66.9224371 122.0019997  58.6257231  66.8608827 122.2189959
  59.6517115  66.4000324 121.2056638  59.4745192  63.4479184 124.5898238
  59.7352009  64.3624517 124.4807399  60.2962364  62.9803627 124.7394851
  60.9470117  64.8616941 131.7597063  61.6193171  64.6534304 131.1109712
  60.1199904  64.6639027 131.3202295  66.4196308  78.4519408 120.9483618
  66.5948063  77.9807451 121.7629240  65.7329096  79.0785174 121.1764878
  70.3112562  70.0747949 117.2683979  69.6941733  69.3494777 117.1717031
  69.8429051  70.8357309 116.9251053  62.1011108  64.2933373 116.3905283
  61.2240575  64.1722174 116.0267529  62.5768861  63.5019451 116.1384171
  53.6213248  69.0810533 126.4846790  54.3084288  68.7672263 125.8967805
  53.4661377  69.9851897 126.2114041  58.4247971  63.9700729 130.9131814
  58.3406159  63.3626399 130.1782224  57.6030677  64.4609748 130.9141310
  68.5971684  62.4554293 126.2802009  69.0940384  61.7024255 125.9603079
  67.8258666  62.4918609 125.7145218  69.6801465  71.2125980 123.8540432
  68.7457744  71.3327442 123.6845136  69.8578134  70.3098447 123.5900442
  65.1806653  64.5971676 126.0073693  64.8104441  64.0442716 126.6954599
  65.6765746  63.9929809 125.4548693  73.0674016  67.0543299 124.3890466
  73.5334469  67.8871291 124.3150769  73.5181517  66.5888281 125.0935725
  71.1350248  73.3987121 121.3876618  71.4110091  73.2843715 122.2970492
  70.2654746  73.0004605 121.3488791  71.0390679  59.4223886 128.4281368
  70.1253759  59.6528113 128.5963575  71.4683781  59.5062330 129.2795400
  68.1046477  76.5741657 122.2924480  68.6334244  76.0634111 121.6794642
  68.3674697  76.2584187 123.1570013  53.1981225  67.1611126 128.7564257
  53.2365324  66.6274717 129.5501375  52.6921517  66.6346332 128.1375234
  60.5771987  62.0075667 132.2526799  60.6413313  62.8690497 131.8404197
  60.5139107  61.3949668 131.5199158  56.8289802  65.8875228 121.8318188
  57.1243243  64.9785907 121.7785242  55.9277838  65.8662968 121.5099191
  60.3584049  63.9631225 127.8145737  59.6370635  64.5767192 127.6753210
  61.1477305  64.4988990 127.7362383  58.5577644  63.5689326 121.9557514
  58.2290350  62.6886705 121.7732620  58.9117014  63.5136995 122.8433903
  61.6719467  63.8562296 122.3232991  62.0115539  64.3848217 121.6011600
  62.1191587  64.1942702 123.0991558  64.3662908  62.2399346 131.7736059
  64.0259728  61.4407159 132.1756739  63.6601914  62.5401057 131.2012893
  65.0179380  59.3248659 130.2263382  65.8405449  58.8509137 130.1042273
  65.2617443  60.1039143 130.7262069  63.6587614  62.3536917 120.5226284
  64.3795977  62.7318170 120.0190001  63.0352918  63.0725794 120.6261262
  67.8018737  63.0582066 121.4584616  68.0182351  63.9406704 121.1573445
  67.3212804  62.6668280 120.7290258  62.5417958  66.0167779 128.0355361
  62.3962539  66.3308083 128.9279643  62.0643162  66.6352680 127.4826260
  64.4014341  63.0070327 128.0836251  64.3875910  62.1111421 127.7468548
  65.1186769  63.0140991 128.7174537  66.2540472  63.4407668 130.1289378
  65.9958250  64.3624738 130.1273708  65.7225512  63.0438102 130.8189842
  57.0163620  68.5573124 130.9743022  56.4717089  69.3332932 131.1063297
  57.8942970  68.9043928 130.8162144  63.8051237  61.8884708 123.3523821
  63.9267148  60.9601354 123.5514708  63.5153279  61.9023394 122.4402136
  66.6742427  59.5739618 126.4890541  66.6964124  59.6378951 125.5342520
  67.0910486  58.7344127 126.6831047  72.1861833  75.8625219 120.0076362
  72.8812738  76.4831912 120.2263676  72.5284983  75.0120570 120.2828740
  74.0853256  73.3124925 121.5363692  74.6104580  73.6512197 120.8113012
  73.9975609  72.3771940 121.3526827  58.2486256  75.5708449 125.8983574
  59.0744276  75.2712221 125.5182217  57.8980308  74.8016071 126.3473362
  56.4494861  73.4894775 126.8572507  55.6126769  73.0616950 126.6756509
  56.4218506  73.6827219 127.7943298  62.7781296  73.4738840 121.4439708
  62.9269416  74.1574305 120.7906381  63.5847740  73.4543930 121.9589164
  60.5333929  69.5004018 122.4500777  60.2879971  68.5966348 122.6480987
  60.7029844  69.5021168 121.5080255  59.8029577  65.2332376 119.9486938
  59.1098822  65.3076731 119.2926974  59.5581328  64.4692719 120.4708455
  68.4743233  56.7927977 127.3526429  68.7544987  56.1251166 127.9786855
  69.2593840  56.9857073 126.8401093  66.2776702  75.9686971 118.9151455
  65.7050669  76.5877158 118.4621927  66.8509495  76.5186333 119.4491377
  69.4973961  76.2524121 120.0460038  70.4304635  76.1869683 120.2492913
  69.4097174  77.0880388 119.5874570  72.1261978  75.5689991 117.0063985
  72.0475610  75.2349855 117.8999743  72.9471645  76.0611759 117.0055457
  66.6623500  67.3047784 116.2567508  67.6082605  67.1753992 116.3255926
  66.2837745  66.5662446 116.7336936  72.6345385  58.9703790 126.2194400
  72.4370206  58.6618878 127.1037732  73.2445090  59.6965429 126.3492329
  64.8466417  65.2297760 116.1922393  63.9397873  64.9330873 116.2685107
  65.1242398  64.9327578 115.3256679  55.7644358  66.5504123 126.6421439
  55.4447142  65.6969432 126.3495813  55.2177786  66.7652702 127.3979407
  66.4628483  59.7734650 122.3466634  65.6529211  59.4281735 122.7221880
  67.1512900  59.4642193 122.9354246  68.3919031  58.8512697 123.9690931
  68.9450070  59.2708150 124.6280954  68.6289118  57.9248445 124.0113887
  63.6165202  62.0884695 116.3334372  64.4784366  62.4139594 116.5930190
  63.8015546  61.3016191 115.8207438  55.6332618  70.1707035 128.6114561
  54.9396089  69.7560988 128.0984515  56.3805609  70.2127571 128.0147980
  71.7697838  60.9613222 123.4769595  71.1896507  61.6198026 123.0947648
  71.5033771  60.1390566 123.0657013  70.2201405  60.3618279 125.6790915
  70.7201183  60.4734814 124.8705234  70.8637013  60.0579332 126.3191724
  57.5469360  70.1025289 126.4880576  57.5240048  70.2012976 125.5362459
  57.8569997  70.9490439 126.8097742  70.5522716  63.1213312 122.5325943
  69.6648571  63.4062963 122.3146138  70.9676705  62.9607075 121.6853220
  73.9037252  63.1459833 126.2480283  74.6797643  63.6356285 126.5204899
  73.1785387  63.5717887 126.7052152  69.6965930  72.8857987 116.6273963
  70.4001780  73.0907989 117.2431619  68.9728579  73.4534749 116.8923047
  70.5263740  68.6367848 122.7476234  70.4698942  69.0936399 121.9083866
  71.0792083  67.8758533 122.5699076  74.3368546  64.4257580 123.5726353
  74.0805480  64.0254216 124.4034561  73.7121414  65.1401374 123.4476492
  71.6052627  73.3240516 118.6772423  72.4398231  72.8921714 118.4949898
  71.4436970  73.1522530 119.6049318  71.2598519  69.8272629 120.0428763
  71.2047323  69.6616901 119.1017207  70.6344575  70.5348662 120.1990952
  56.0491034  65.0640694 133.8690185  56.6949898  64.5539648 134.3577410
  55.8408186  65.8009375 134.4433610  64.5694645  59.3280738 119.6214081
  64.5573315  60.2722578 119.7782352  65.4618067  59.1450884 119.3273542
  68.3846764  55.9223515 123.8760018  67.6179160  55.3682002 124.0216700
  68.7957469  55.9945384 124.7374170  73.0666483  79.7778063 119.1907376
  72.2303795  80.1152750 119.5116651  72.9271252  79.6427043 118.2534513
  72.9404863  79.6225291 116.3905283  72.0634329  79.5014091 116.0267529
  73.4162616  78.8311369 116.1384171  70.6423331  80.5624293 119.9486938
  69.9492576  80.6368648 119.2926974  70.3975083  79.7984637 120.4708455
  75.6860172  80.5589678 116.1922393  74.7791627  80.2622790 116.2685107
  75.9636153  80.2619496 115.3256679  74.4558956  77.4176613 116.3334372
  75.3178120  77.7431511 116.5930190  74.6409301  76.6308109 115.8207438
  75.4088399  74.6572656 119.6214081  75.3967069  75.6014496 119.7782352
  76.3011821  74.4742801 119.3273542  46.5417585  24.6318023 105.4581845
  45.8679283  24.9349720 106.0666803  46.9283407  25.4347103 105.1087302
  50.5074325  22.2103506 106.7321668  51.2025230  22.8310199 106.9508983
  50.8497476  21.3598858 107.0074046  44.5989194  22.3165258 105.6396762
  44.0263161  22.9355445 105.1867234  45.1721988  22.8664620 106.1736684
  47.8186454  22.6002408 106.7705344  48.7517127  22.5347970 106.9738220
  47.7309666  23.4358675 106.3119877  50.4474470  21.9168279 103.7309292
  50.3688102  21.5828142 104.6245050  51.2684137  22.4090046 103.7300764
  48.0178422  19.2336274 103.3519270  48.7214272  19.4386276 103.9676926
  47.2941071  19.8013036 103.6168354  49.9265120  19.6718803 105.4017730
  50.7610723  19.2400002 105.2195205  49.7649462  19.5000817 106.3294625
  58.5549395  30.1888454 115.4972907  59.1927805  30.0695202 114.7936247
  58.4370237  31.1369298 115.5560859  51.2225917  31.9951359 111.4231322
  50.6590782  31.9041296 110.6547610  51.1078312  31.1751263 111.9033815
  56.8025475  35.6622327 106.7345787  56.1513455  36.2476407 106.3479801
  57.5969838  36.1928521 106.7940825  50.7281102  32.7511464 107.1332922
  51.5011978  32.2040451 106.9945798  51.0806501  33.6155713 107.3447383
  53.0647380  28.9104130 104.7651372  53.3172901  28.3885651 104.0034835
  52.1271939  28.7470275 104.8678055  58.1090663  27.9139908 112.5726115
  58.8953752  27.4959331 112.2216532  58.3729367  28.8186000 112.7407763
  58.2800740  33.3512758 107.2714772  57.6446573  33.4247385 107.9835676
  57.9498147  33.9406357 106.5933851  63.5099090  27.8515141 113.4759093
  64.2424262  27.2814358 113.7096923  62.7538446  27.4636742 113.9165599
  52.7843669  30.8132236 106.9675747  52.6679927  30.1377139 107.6356831
  52.8945929  30.3264610 106.1507900  55.1275210  30.2742383 110.6722436
  54.7633417  29.7473004 111.3835357  55.9842326  29.8840852 110.4988921
  54.7680697  25.3032283 105.6683784  54.9355099  26.1712519 106.0354255
  54.5777866  25.4659564 104.7445074  54.7469918  27.7589940 106.6530451
  54.6269543  28.2046991 107.4915931  54.0522506  28.1075258 106.0943989
  52.5076810  40.5293582 110.3020582  52.4300840  41.4801407 110.3809063
  51.9038453  40.1839454 110.9595509  60.4454984  28.2311413 107.4810785
  61.3572840  28.4638800 107.3058483  59.9364631  28.8148457 106.9185864
  59.0524566  33.2137232 114.8724367  58.4233429  33.3782946 114.1700435
  58.6650228  33.6278841 115.6435331  62.9313798  34.1491670 112.2268730
  62.2464836  34.5290571 111.6765764  63.0157647  34.7586996 112.9600678
  54.6052528  32.9511640 112.1374452  55.0690874  33.2299343 111.3479074
  54.3409326  32.0495084 111.9547542  53.5421414  29.0734792 108.9464017
  54.2445458  29.5255836 109.4137943  53.2102043  28.4318611 109.5743910
  61.3010558  34.6723584 116.9986431  62.1228001  34.2703771 116.7169113
  61.2972961  34.5691818 117.9502547  69.3916551  31.0162332 113.3471403
  68.6380259  30.4469731 113.1915407  69.5264092  30.9824997 114.2942037
  54.7815179  35.8875735 109.0226122  54.6460854  36.7327270 109.4510970
  55.3224991  36.0895012 108.2592056  48.2344576  33.4051173 109.5954047
  48.7469097  34.1994423 109.7459612  48.8867289  32.7077463 109.5287649
  50.0439461  36.5216929 111.6776800  50.2206089  37.4434894 111.4897784
  50.8396294  36.2075348 112.1071180  51.1670776  38.0395103 117.6787143
  51.7178201  37.9112166 116.9064137  50.3282252  38.3389992 117.3282036
  46.1993493  31.7339827 110.3713618  47.0368715  32.1436835 110.1547325
  46.3771761  30.7939269 110.3413812  58.0957925  29.4014908 106.0597451
  57.5804549  30.1719512 106.2985838  57.8235234  28.7280044 106.6830512
  55.6805036  24.2464609 111.1182689  54.8246632  23.8571459 110.9388328
  56.0931988  24.3256569 110.2582475  63.0692199  32.1547262 107.9950624
  62.2921642  31.8158422 107.5505786  63.7483680  32.1599886 107.3205589
  57.8844228  27.2742000 107.8857232  57.5794364  27.5888149 108.7367375
  58.8374670  27.3523420 107.9284565  56.3290660  33.4332223 109.5350186
  55.8012022  32.6984983 109.2223423  55.8278163  34.2106899 109.2890154
  61.3083506  31.6281244 114.6517232  60.6507181  32.3180505 114.7397361
  62.1123905  32.0177676 114.9951219  60.1188965  29.9825616 112.7021174
  60.6320847  30.6155608 113.2042884  60.7690189  29.3826812 112.3364534
  51.3878975  26.1256350 105.9152683  50.5516287  26.4631037 106.2361957
  51.2483744  25.9905330 104.9779820  54.4743260  31.2512433 102.5385159
  53.5670322  31.0201687 102.7376308  54.9714292  30.4550053 102.7259140
  57.3811339  39.9609941 105.4581845  56.7073038  40.2641637 106.0666803
  57.7677161  40.7639021 105.1087302  57.3804844  28.8566488 110.0782195
  58.1276663  29.3687885 109.7689317  57.6496433  28.5350540 110.9386588
  55.6531494  31.3525028 107.0609149  54.7442713  31.0684061 107.1581619
  55.6826578  31.7724107 106.2012456  60.8850761  34.9631618 110.8300317
  60.4313088  34.1222528 110.8865507  60.2544728  35.5993016 111.1675097
  59.8283681  25.8923604 112.0600984  59.0906438  25.3800990 112.3911227
  60.0810454  25.4523985 111.2484261  59.3283700  36.8008114 111.7650135
  59.6206675  37.3613172 111.0462500  59.8382321  37.0936675 112.5203294
  54.2016388  28.9653649 113.1618944  54.2564998  28.0127485 113.0861421
  53.3907590  29.1213088 113.6460243  55.3507582  32.8933772 104.3997228
  54.9127011  32.1769631 103.9402865  56.0918022  33.1209887 103.8382319
  52.1408748  27.5830709 110.9209323  51.3276613  27.8824879 111.3274515
  52.6367742  27.1886397 111.6383805  54.2917326  37.5788466 112.8543588
  54.2493504  37.8049312 111.9252120  55.2080024  37.3451840 113.0029389
  63.4680696  31.1690969 110.4573546  63.3298595  31.3592565 109.5294735
  63.1116915  31.9310352 110.9141597  63.4950076  33.2367496 115.4684818
  63.9286583  33.1442785 116.3167872  64.2081657  33.2124996 114.8304834
  52.4083126  34.4551495 112.6505551  53.2023725  33.9601815 112.4488126
  51.6974819  33.9269358 112.2873256  57.2277971  36.8369590 117.0017918
  57.2814993  37.4060526 117.7695634  56.3592752  37.0071475 116.6371955
  48.7165890  28.5994576 108.7265303  47.7863478  28.5379032 108.9435265
  48.8123362  28.0770529 107.9301945  64.3565625  33.2791197 118.0017703
  64.5501516  34.1837007 118.2476978  64.2566244  32.8198616 118.8356288
  54.9854402  35.0280517 116.3303388  54.8465488  34.6599301 117.2029326
  54.1968999  35.5428156 116.1587346  55.5802554  40.1289613 107.6728924
  55.7554310  39.6577656 108.4874547  54.8935342  40.7555379 107.9010185
  56.5359618  34.4062119 113.7192226  56.2009450  34.3662889 114.6149875
  56.0363563  33.7406835 113.2462636  59.4718809  31.7518154 103.9929285
  58.8547980  31.0264982 103.8962338  59.0035298  32.5127514 103.6496359
  50.1463640  43.2778976 114.4468784  50.3860238  43.9097500 115.1247803
  49.3032836  42.9267016 114.7334144  51.2617355  25.9703578 103.1150589
  50.3846821  25.8492379 102.7512836  51.7375108  25.1789656 102.8629478
  54.6591501  39.0858098 116.8510288  54.5861673  39.8913070 117.3629593
  54.2168895  39.2850064 116.0258310  54.4481281  38.3229868 110.3613110
  53.6648803  38.8651548 110.4551334  55.1474026  38.8403848 110.7607351
  65.6107689  29.8364863 114.6465607  65.5997565  30.7189579 114.2759540
  64.7425068  29.4836414 114.4520144  57.1190185  38.9844932 119.0068447
  57.8318157  39.6192397 118.9344349  56.6280214  39.0808798 118.1908449
  58.8407712  32.8896185 110.5785739  57.9063991  33.0097647 110.4090443
  59.0184380  31.9868652 110.3145749  62.2280263  28.7313504 111.1135773
  62.6940715  29.5641496 111.0396076  62.6787764  28.2658486 111.8181031
  60.2956494  35.0757326 108.1121925  60.5716338  34.9613920 109.0215799
  59.4260993  34.6774810 108.0734098  56.9310558  39.3243676 111.7554739
  57.1132953  38.5065332 112.2182491  57.7543544  39.5411369 111.3179629
  57.2652724  38.2511861 109.0169787  57.7940490  37.7404316 108.4039949
  57.5280943  37.9354392 109.8815320  50.6208472  39.3026978 111.7767563
  49.9518847  39.7873106 111.2931603  50.4821342  39.5496199 112.6910942
  54.7613740  41.3370722 118.3750221  55.3132048  41.5002343 119.1399307
  55.1019934  41.9275160 117.7030246  45.9896049  27.5645433 108.5563495
  46.2849490  26.6556112 108.5030549  45.0884085  27.5433173 108.2344497
  57.8982128  39.2852697 115.3613904  57.7733267  38.4842437 114.8524849
  58.5561219  39.7798891 114.8727873  59.9617036  37.0861717 116.9893454
  59.0147372  36.9667068 116.9171780  60.3099809  36.1984215 117.0719715
  56.9663469  36.8814434 113.1897806  56.8188432  35.9531141 113.3705376
  57.7916963  36.9034524 112.7054881  50.8325714  25.5332501 109.0478298
  51.1721786  26.0618422 108.3256906  51.2797834  25.8712907 109.8236864
  60.5697591  37.7042992 114.2762679  61.4944139  37.4985854 114.1387130
  60.4012895  37.4559393 115.1852020  52.8193861  24.0307122 107.2471591
  53.5402223  24.4088375 106.7435308  52.1959165  24.7495999 107.3506569
  56.9624984  24.7352271 108.1829923  57.1788598  25.6176909 107.8818751
  56.4819051  24.3438485 107.4535565  60.3592907  38.2228660 109.6324770
  60.5329785  37.6575082 108.8798622  60.8521799  39.0229555 109.4504260
  66.2132299  30.9865083 111.2515070  66.6563445  30.2372408 110.8534193
  65.3358809  30.9775219 110.8688802  61.3468080  37.5395424 106.7321668
  62.0418985  38.1602117 106.9508983  61.6891230  36.6890775 107.0074046
  63.2459503  34.9895130 108.2608999  63.7710827  35.3282402 107.5358319
  63.1581856  34.0542145 108.0772134  54.9300164  41.0567113 112.6204252
  54.4905154  40.5643492 113.3137109  55.6808281  40.5140081 112.3796327
  47.4092503  37.2478654 112.6228880  48.2350523  36.9482426 112.2427524
  47.0586555  36.4786276 113.0718669  52.3774036  36.6005122 114.6926554
  51.7554045  35.9375827 114.3928782  53.0478903  36.6266254 114.0100202
  51.9387543  35.1509045 108.1685014  52.0875663  35.8344510 107.5151687
  52.7453986  35.1314135 108.6834470  65.7565163  32.4570321 113.6437517
  66.5912055  32.8960125 113.8075078  65.8924292  31.9808974 112.8245763
  49.6940176  31.1774223 109.1746083  49.4486218  30.2736553 109.3726294
  49.8636090  31.1791373 108.2325561  48.9635823  26.9102581 106.6732245
  48.2705068  26.9846936 106.0172281  48.7187575  26.1462924 107.1953762
  55.4382948  37.6457176 105.6396762  54.8656915  38.2647363 105.1867234
  56.0115742  38.1956537 106.1736684  58.6580208  37.9294326 106.7705344
  59.5910881  37.8639888 106.9738220  58.5703421  38.7650593 106.3119877
  61.2868225  37.2460196 103.7309292  61.2081856  36.9120060 104.6245050
  62.1077892  37.7381964 103.7300764  63.9846416  30.1121936 116.9385610
  63.9522736  29.1737936 117.1245294  64.5947040  30.1905972 116.2051435
  55.8229747  28.9817989 102.9812814  56.7688852  28.8524197 103.0501232
  55.4443992  28.2432650 103.4582243  69.8022966  31.1737942 116.0791647
  70.5326354  30.9123231 116.6399350  69.1929911  30.4366664 116.1193715
  67.8838263  29.3145805 116.6766098  67.1571427  29.1801770 116.0682590
  67.4685550  29.6222634 117.4822816  54.0072664  26.9067965 102.9167700
  53.1004119  26.6101078 102.9930413  54.2848645  26.6097783 102.0501986
  55.6234730  21.4504855 109.0711941  54.8135458  21.1051940 109.4467187
  56.3119147  21.1412398 109.6599552  52.7771449  23.7654900 103.0579679
  53.6390613  24.0909798 103.3175496  52.9621793  22.9786396 102.5452745
  60.9304085  22.6383427 110.2014902  60.3502754  23.2968231 109.8192954
  60.6640018  21.8160771 109.7902319  59.7128963  24.7983517 109.2571250
  58.8254818  25.0833168 109.0391445  60.1282952  24.6377280 108.4098527
  63.0643499  24.8230038 112.9725589  63.8403889  25.3126490 113.2450206
  62.3391633  25.2488092 113.4297459  65.5016058  25.5357657 114.0299530
  66.0960549  25.2953393 113.3192838  65.5742642  24.8164788 114.6573066
  47.7213214  39.3791268 114.3442695  47.5867682  38.6191669 113.7780693
  47.3045276  40.1032168 113.8771484  58.8572177  34.5628192 103.3519270
  59.5608027  34.7678194 103.9676926  58.1334825  35.1304954 103.6168354
  59.6869987  30.3138053 109.4721540  59.6305188  30.7706604 108.6329173
  60.2398329  29.5528738 109.2944383  63.4974793  26.1027785 110.2971660
  63.2411727  25.7024420 111.1279867  62.8727661  26.8171579 110.1721799
  67.8087131  28.8423858 112.8042951  67.2486689  28.9117047 113.5774513
  67.2030634  28.6664843 112.0842447  50.8782339  40.2760585 114.5561137
  50.7614724  41.2206018 114.4539828  50.0574786  39.9734147 114.9446937
  60.7658874  35.0010721 105.4017730  61.6004478  34.5691919 105.2195205
  60.6043217  34.8292735 106.3294625  60.4204766  31.5042834 106.7674069
  60.3653570  31.3387106 105.8262514  59.7950821  32.2118867 106.9236259
  53.7300892  21.0050943 106.3459388  53.7179561  21.9492783 106.5027659
  54.6224314  20.8221089 106.0518849  51.9036854  40.9288847 117.7717066
  52.8064100  40.9612457 118.0883561  51.6774224  39.9989298 117.7863402
  53.6590456  39.6819834 114.4327144  52.7086087  39.6821695 114.3191517
  53.9622942  38.9352568 113.9163179  69.3943149  45.5180372 115.4972907
  70.0321559  45.3987119 114.7936247  69.2763992  46.4661216 115.5560859
  66.2032855  45.4707800 115.4334432  65.8651367  45.3548865 114.5454966
  67.0722624  45.0698965 115.4135438  62.0619671  47.3243276 111.4231322
  61.4984536  47.2333213 110.6547610  61.9472066  46.5043181 111.9033815
  66.6852638  46.6242652 121.3920637  66.6741279  46.2295450 120.5201141
  66.8473278  45.8908724 121.9854409  59.6084103  48.8194468 114.2615543
  60.4005395  48.4785293 113.8461842  59.8480753  48.9289443 115.1817696
  67.6419230  50.9914244 106.7345787  66.9907210  51.5768325 106.3479801
  68.4363593  51.5220439 106.7940825  61.5674857  48.0803381 107.1332922
  62.3405733  47.5332368 106.9945798  61.9200256  48.9447631 107.3447383
  63.4059900  49.4079764 120.3399821  63.1149765  50.3125394 120.2246487
  64.0416884  49.4496291 121.0543891  64.3316106  46.7856612 116.9301181
  64.9279679  46.5612635 116.2158144  64.3891078  46.0441358 117.5326629
  63.9041135  44.2396047 104.7651372  64.1566655  43.7177569 104.0034835
  62.9665694  44.0762193 104.8678055  68.9484418  43.2431826 112.5726115
  69.7347507  42.8251249 112.2216532  69.2123122  44.1477918 112.7407763
  69.1194495  48.6804676 107.2714772  68.4840328  48.7539303 107.9835676
  68.7891901  49.2698275 106.5933851  74.3492845  43.1807059 113.4759093
  75.0818017  42.6106276 113.7096923  73.5932200  42.7928659 113.9165599
  63.6237423  46.1424153 106.9675747  63.5073682  45.4669057 107.6356831
  63.7339683  45.6556527 106.1507900  65.9668964  45.6034301 110.6722436
  65.6027172  45.0764921 111.3835357  66.8236080  45.2132770 110.4988921
  71.8718265  36.8928633 117.9353702  71.5401590  37.7624044 117.7114917
  71.2763878  36.5764917 118.6147732  65.6074451  40.6324200 105.6683784
  65.7748854  41.5004437 106.0354255  65.4171620  40.7951482 104.7445074
  68.3649785  49.0941179 117.3349615  68.0650508  49.9966218 117.2265422
  68.0200844  48.8273362 118.1870768  61.8162266  45.5454976 113.3686319
  60.8912763  45.4131190 113.5764011  62.0646679  46.3249195 113.8656262
  71.7646928  41.6123719 115.0147052  70.8563806  41.5439128 114.7205813
  71.7134524  42.0895664 115.8428878  65.5863672  43.0881858 106.6530451
  65.4663297  43.5338908 107.4915931  64.8916261  43.4367175 106.0943989
  59.1771077  45.1888250 114.2030108  59.3063458  45.4422728 115.1169520
  58.4968528  45.7815958 113.8834763  63.3470564  55.8585499 110.3020582
  63.2694594  56.8093325 110.3809063  62.7432208  55.5131372 110.9595509
  65.8387794  43.0313365 122.9581949  65.0621128  43.5907285 122.9484814
  66.4778357  43.5170148 123.4796819  73.6308575  39.8140158 116.7924926
  72.9882955  40.1072691 116.1464721  73.1263503  39.6993078 117.5978123
  71.2848738  43.5603331 107.4810785  72.1966595  43.7930718 107.3058483
  70.7758386  44.1440375 106.9185864  64.0934166  45.8398818 122.5199916
  64.8348851  46.3783862 122.2434740  63.3871152  46.4665107 122.6771468
  69.5689506  47.9827959 121.1172078  69.9772862  47.5410369 120.3726710
  68.8466768  47.4080586 121.3706271  65.9220576  42.9200565 118.4905635
  66.7681771  43.3439979 118.6340284  65.8619214  42.2634190 119.1844198
  69.8918321  48.5429149 114.8724367  69.2627183  48.7074863 114.1700435
  69.5043983  48.9570759 115.6435331  73.7707553  49.4783587 112.2268730
  73.0858591  49.8582489 111.6765764  73.8551402  50.0878914 112.9600678
  69.0720021  40.5804934 120.1486808  68.8280953  41.3346994 119.6121084
  69.3479952  40.9590281 120.9834055  71.0258484  47.1243546 118.8264074
  71.2375379  47.7675306 118.1498455  70.9788232  46.2905863 118.3586004
  68.6284713  39.7361367 115.7300646  67.7669192  40.0342620 116.0217384
  68.6547148  39.9531766 114.7981679  65.4446283  48.2803557 112.1374452
  65.9084628  48.5591260 111.3479074  65.1803081  47.3787002 111.9547542
  62.3370364  47.8275039 115.0754215  62.9071721  48.2562307 114.4371700
  62.9278476  47.5457624 115.7738401  64.3815169  44.4026710 108.9464017
  65.0839212  44.8547753 109.4137943  64.0495797  43.7610529 109.5743910
  62.8295530  42.9938466 123.3215226  62.1994191  43.6754747 123.5550623
  62.7231618  42.8821548 122.3768365  58.1240503  42.6610262 114.2481150
  57.3339557  42.9167791 113.7721261  58.6151750  43.4758600 114.3533191
  72.1404312  50.0015502 116.9986431  72.9621756  49.5995689 116.7169113
  72.1366715  49.8983736 117.9502547  60.0755248  43.0254842 111.2064627
  59.2786411  43.1373536 111.7248123  59.8480840  43.3641494 110.3405518
  65.9060916  49.5499545 119.1547142  65.9705348  50.0119952 119.9905314
  65.1971840  48.9196910 119.2829452  56.4078206  42.9140753 116.6796141
  56.6586244  43.7987763 116.9453717  56.9437754  42.7345354 115.9071233
  80.2310305  46.3454250 113.3471403  79.4774014  45.7761648 113.1915407
  80.3657846  46.3116915 114.2942037  65.6208933  51.2167652 109.0226122
  65.4854608  52.0619188 109.4510970  66.1618746  51.4186930 108.2592056
  59.0738331  48.7343090 109.5954047  59.5862851  49.5286341 109.7459612
  59.7261044  48.0369381 109.5287649  60.8833215  51.8508847 111.6776800
  61.0599844  52.7726811 111.4897784  61.6790049  51.5367266 112.1071180
  65.0244234  38.7117111 123.2760734  65.7653947  39.3124264 123.1965196
  65.2562157  37.9694749 122.7178777  60.1685572  43.8973479 121.5538964
  60.0539087  42.9958736 121.8546063  59.3130090  44.1437175 121.2023780
  67.2477410  51.8391219 123.1526464  66.8041264  51.0527597 122.8347369
  67.9094623  52.0270369 122.4870355  62.0064531  53.3687021 117.6787143
  62.5571956  53.2404084 116.9064137  61.1676007  53.6681910 117.3282036
  69.3458648  52.1194019 121.1807866  69.3277123  52.9402900 120.6888135
  70.2678568  51.9948094 121.4058007  65.8031702  49.6338148 122.0231374
  66.3360039  48.8726437 121.7930682  65.2745783  49.3411800 122.7655528
  68.9701397  34.7398214 117.5525016  68.6265666  35.6299856 117.4764126
  69.3380359  34.5499872 116.6894601  57.0387247  47.0631745 110.3713618
  57.8762469  47.4728753 110.1547325  57.2165515  46.1231187 110.3413812
  68.9351680  44.7306825 106.0597451  68.4198303  45.5011430 106.2985838
  68.6628988  44.0571962 106.6830512  66.5198791  39.5756526 111.1182689
  65.6640387  39.1863377 110.9388328  66.9325742  39.6548487 110.2582475
  68.0497937  37.1102869 115.5174249  67.5462733  37.0733005 114.7042054
  68.3428544  38.0195612 115.5770906  64.2940823  37.1941599 114.5240431
  65.1593820  36.9984408 114.1646320  64.3618332  36.9651951 115.4509787
  73.9085954  47.4839180 107.9950624  73.1315396  47.1450340 107.5505786
  74.5877435  47.4891803 107.3205589  68.7237983  42.6033918 107.8857232
  68.4188118  42.9180067 108.7367375  69.6768425  42.6815337 107.9284565
  67.1684415  48.7624141 109.5350186  66.6405776  48.0276900 109.2223423
  66.6671917  49.5398817 109.2890154  72.1477261  46.9573161 114.6517232
  71.4900935  47.6472423 114.7397361  72.9517660  47.3469593 114.9951219
  61.9003142  39.4243807 111.8956797  62.4746894  39.2018989 111.1629990
  62.4874125  39.4932502 112.6485399  70.9582719  45.3117534 112.7021174
  71.4714601  45.9447526 113.2042884  71.6083943  44.7118730 112.3364534
  62.2272729  41.4548268 105.9152683  61.3910042  41.7922955 106.2361957
  62.0877499  41.3197248 104.9779820  64.2025810  36.2985056 110.6231867
  63.5490222  35.9834073 109.9988482  64.1606284  35.6760796 111.3491690
  65.3137015  46.5804351 102.5385159  64.4064077  46.3493605 102.7376308
  65.8108047  45.7841970 102.7259140  68.2205094  55.2901858 105.4581845
  67.5466792  55.5933555 106.0666803  68.6070916  56.0930939 105.1087302
  67.4363550  42.7866990 114.9479514  66.5186112  43.0081937 114.7901203
  67.8523694  42.8613300 114.0891222  68.2198598  44.1858405 110.0782195
  68.9670417  44.6979802 109.7689317  68.4890188  43.8642458 110.9386588
  66.4925248  46.6816946 107.0609149  65.5836467  46.3975979 107.1581619
  66.5220332  47.1016025 106.2012456  71.7244516  50.2923535 110.8300317
  71.2706843  49.4514445 110.8865507  71.0938482  50.9284934 111.1675097
  70.6677435  41.2215521 112.0600984  69.9300192  40.7092908 112.3911227
  70.9204209  40.7815903 111.2484261  70.1677455  52.1300032 111.7650135
  70.4600429  52.6905089 111.0462500  70.6776075  52.4228593 112.5203294
  70.7689063  33.9991773 112.6542753  71.0747939  33.1389137 112.3668668
  71.4941667  34.5909394 112.4541747  57.0613419  44.4022460 111.0424351
  56.8637818  43.8091821 110.3175418  56.5060083  44.0974670 111.7600290
  65.0410142  44.2945567 113.1618944  65.0958752  43.3419403 113.0861421
  64.2301344  44.4505006 113.6460243  66.1901336  48.2225690 104.3997228
  65.7520766  47.5061549 103.9402865  66.9311777  48.4501804 103.8382319
  62.9802502  42.9122626 110.9209323  62.1670368  43.2116797 111.3274515
  63.4761496  42.5178315 111.6383805  65.1311080  52.9080383 112.8543588
  65.0887259  53.1341230 111.9252120  66.0473779  52.6743758 113.0029389
  68.5776714  43.3764451 119.7524217  68.9326102  43.6035924 120.6118683
  69.2248845  43.7082828 119.1301472  74.3074451  46.4982887 110.4573546
  74.1692349  46.6884483 109.5294735  73.9510670  47.2602269 110.9141597
  62.4716577  40.4840982 116.5370558  63.1115956  40.3429741 115.8393522
  61.6394107  40.1975495 116.1609160  74.3343830  48.5659414 115.4684818
  74.7680337  48.4734703 116.3167872  75.0475411  48.5416914 114.8304834
  63.2476881  49.7843412 112.6505551  64.0417479  49.2893732 112.4488126
  62.5368573  49.2561275 112.2873256  68.0671725  52.1661508 117.0017918
  68.1208748  52.7352444 117.7695634  67.1986507  52.3363393 116.6371955
  59.5559644  43.9286494 108.7265303  58.6257232  43.8670949 108.9435265
  59.6517116  43.4062447 107.9301945  59.4745193  40.4541307 111.3143545
  59.7352011  41.3686640 111.2052705  60.2962366  39.9865749 111.4640158
  60.9470119  41.8679064 118.4842370  61.6193172  41.6596426 117.8355018
  60.1199905  41.6701150 118.0447602  75.1959380  48.6083114 118.0017703
  75.3895270  49.5128925 118.2476978  75.0959998  48.1490533 118.8356288
  66.8495691  38.4941005 120.5008030  66.2023606  39.1930955 120.4072507
  67.6196706  38.9277149 120.8684279  70.2574489  48.7589857 123.5758584
  70.1059995  48.5300409 122.6588667  70.2479168  49.7160458 123.5889929
  67.0259825  46.3321770 118.5604850  67.9551885  46.4832929 118.3873817
  66.6050855  46.4205791 117.7053497  65.8248157  50.3572434 116.3303388
  65.6859243  49.9891219 117.2029326  65.0362753  50.8720074 116.1587346
  66.4196309  55.4581531 107.6728924  66.5948065  54.9869574 108.4874547
  65.7329097  56.0847297 107.9010185  67.3753372  49.7354037 113.7192226
  67.0403205  49.6954807 114.6149875  66.8757318  49.0698753 113.2462636
  61.3497616  45.1421667 119.2444807  61.2117414  44.4101906 119.8456346
  62.2602539  45.0530567 118.9628994  70.3112564  47.0810071 103.9929285
  69.6941734  46.3556899 103.8962338  69.8429052  47.8419432 103.6496359
  63.9779917  44.8541626 118.7328486  64.6879535  44.2134818 118.6915105
  63.9349225  45.1054521 119.6554667  71.9666695  51.7908980 121.6535066
  71.9079241  51.1068200 120.9865649  72.3686214  52.5327970 121.2015692
  62.6908851  41.8406844 120.5524126  62.1546208  41.3897583 121.2045722
  62.1025559  41.9752753 119.8094590  60.9857394  58.6070893 114.4468784
  61.2253992  59.2389418 115.1247803  60.1426591  58.2558933 114.7334144
  62.1011110  41.2995496 103.1150589  61.2240576  41.1784296 102.7512836
  62.5768863  40.5081574 102.8629478  71.9684103  49.7548564 119.8849045
  71.0810881  49.4174485 120.0075444  72.5382654  49.0231595 120.1217811
  53.6213250  46.0872655 113.2092097  54.3084290  45.7734385 112.6213112
  53.4661378  46.9914020 112.9359348  58.4247972  40.9762852 117.6377120
  58.3406161  40.3688521 116.9027530  57.6030678  41.4671870 117.6386617
  65.4985256  54.4150016 116.8510288  65.4255427  55.2204987 117.3629593
  65.0562649  54.6141982 116.0258310  65.2875036  53.6521786 110.3613110
  64.5042557  54.1943466 110.4551334  65.9867781  54.1695766 110.7607351
  68.5971686  39.4616415 113.0047315  69.0940385  38.7086378 112.6848386
  67.8258667  39.4980732 112.4390525  76.4501443  45.1656781 114.6465607
  76.4391319  46.0481496 114.2759540  75.5818823  44.8128332 114.4520144
  67.9583939  54.3136850 119.0068447  68.6711912  54.9484315 118.9344349
  67.4673968  54.4100716 118.1908449  69.6801466  48.2188103 110.5785739
  68.7457745  48.3389565 110.4090443  69.8578135  47.3160569 110.3145749
  65.1806654  41.6033798 112.7319000  64.8104442  41.0504839 113.4199906
  65.6765747  40.9991932 112.1794000  73.0674018  44.0605422 111.1135773
  73.5334470  44.8933413 111.0396076  73.5181518  43.5950403 111.8181031
  63.0095853  52.0631293 119.8274018  63.7105313  52.6967776 119.9803412
  62.5390968  52.4046025 119.0669657  71.1350249  50.4049243 108.1121925
  71.4110093  50.2905838 109.0215799  70.2654748  50.0066728 108.0734098
  71.0390680  36.4286009 115.1526674  70.1253760  36.6590236 115.3208881
  71.4683782  36.5124453 116.0040707  70.8097139  44.6175901 117.6526568
  70.1568589  44.8651808 116.9979021  71.1877519  43.8040039 117.3189046
  67.7704313  54.6535594 111.7554739  67.9526707  53.8357250 112.2182491
  68.5937299  54.8703286 111.3179629  68.1046478  53.5803779 109.0169787
  68.6334245  53.0696234 108.4039949  68.3674698  53.2646309 109.8815320
  66.8584712  45.3595712 124.1392605  66.1825349  45.2589841 124.8094981
  67.6812346  45.2034926 124.6028603  58.6063571  51.5967648 116.7605121
  59.1917008  50.8511336 116.8933025  58.4088410  51.9071605 117.6441784
  61.4602226  54.6318896 111.7767563  60.7912602  55.1165023 111.2931603
  61.3215096  54.8788116 112.6910942  53.1981226  44.1673249 115.4809564
  53.2365325  43.6336839 116.2746682  52.6921519  43.6408454 114.8620541
  65.6007495  56.6662639 118.3750221  66.1525803  56.8294261 119.1399307
  65.9413688  57.2567077 117.7030246  60.5771988  39.0137789 118.9772106
  60.6413315  39.8752620 118.5649504  60.5139108  38.4011791 118.2444465
  70.4518369  51.4923897 124.2298876  70.9958273  52.1053855 123.7353831
  69.8705214  52.0503475 124.7465889  56.8289803  42.8937351 108.5563495
  57.1243244  41.9848029 108.5030549  55.9277839  42.8725090 108.2344497
  68.7375882  54.6144615 115.3613904  68.6127022  53.8134355 114.8524849
  69.3954973  55.1090808 114.8727873  60.3584050  40.9693347 114.5391044
  59.6370636  41.5829315 114.3998517  61.1477306  41.5051112 114.4607690
  70.8010791  52.4153635 116.9893454  69.8541126  52.2958986 116.9171780
  71.1493564  51.5276133 117.0719715  63.1610364  38.3047774 120.8131695
  63.6844766  38.5510070 121.5758005  62.9422697  39.1367809 120.3934833
  58.5577645  40.5751448 108.6802820  58.2290351  39.6948827 108.4977926
  58.9117016  40.5199117 109.5679210  67.8057224  52.2106351 113.1897806
  67.6582186  51.2823059 113.3705376  68.6310717  52.2326442 112.7054881
  61.6719468  40.8624418 109.0478298  62.0115541  41.3910340 108.3256906
  62.1191589  41.2004824 109.8236864  71.4091346  53.0334910 114.2762679
  72.3337893  52.8277771 114.1387130  71.2406649  52.7851311 115.1852020
  64.3662909  39.2461469 118.4981366  64.0259729  38.4469282 118.9002046
  63.6601915  39.5463180 117.9258199  65.0179381  36.3310781 116.9508689
  65.8405450  35.8571260 116.8287579  65.2617444  37.1101265 117.4507375
  63.6587615  39.3599040 107.2471591  64.3795978  39.7380293 106.7435308
  63.0352919  40.0787917 107.3506569  67.8018738  40.0644189 108.1829923
  68.0182353  40.9468827 107.8818751  67.3212805  39.6730402 107.4535565
  62.5417960  43.0229902 114.7600668  62.3962540  43.3370205 115.6524949
  62.0643163  43.6414802 114.2071566  64.4014342  40.0132450 114.8081557
  64.3875911  39.1173543 114.4713855  65.1186771  40.0203114 115.4419843
  66.2540473  40.4469790 116.8534685  65.9958251  41.3686861 116.8519015
  65.7225514  40.0500225 117.5435149  71.1986662  53.5520577 109.6324770
  71.3723539  52.9867000 108.8798622  71.6915553  54.3521472 109.4504260
  57.0163622  45.5635246 117.6988329  56.4717090  46.3395054 117.8308603
  57.8942972  45.9106051 117.5407450  63.8051238  38.8946830 110.0769127
  63.9267150  37.9663476 110.2760015  63.5153281  38.9085516 109.1647443
  66.6742429  36.5801741 113.2135847  66.6964126  36.6441074 112.2587827
  67.0910488  35.7406249 113.4076353  77.0526053  46.3157000 111.2515070
  77.4957199  45.5664326 110.8534193  76.1752563  46.3067137 110.8688802
  72.1861834  52.8687342 106.7321668  72.8812739  53.4894034 106.9508983
  72.5284985  52.0182693 107.0074046  57.8029644  44.6905143 120.5918486
  57.0611380  44.8387778 121.1783116  57.4822388  44.9513408 119.7285235
  74.0853258  50.3187047 108.2608999  74.6104582  50.6574320 107.5358319
  73.9975610  49.3834063 108.0772134  65.7473306  54.2321121 120.3898876
  66.0560433  53.9870268 121.2621575  66.5448788  54.4367759 119.9017746
  65.7693918  56.3859031 112.6204252  65.3298909  55.8935409 113.3137109
  66.5202035  55.8431998 112.3796327  58.2486257  52.5770571 112.6228880
  59.0744277  52.2774343 112.2427524  57.8980309  51.8078194 113.0718669
  63.2167790  51.9297040 114.6926554  62.5947800  51.2667745 114.3928782
  63.8872657  51.9558172 114.0100202  56.4494862  50.4956898 113.5817814
  55.6126771  50.0679072 113.4001815  56.4218508  50.6889341 114.5188605
  73.7747164  50.9519951 123.5660197  72.9842707  50.9344090 123.0264696
  73.5380518  51.4908245 124.3209234  73.8945039  47.8012417 120.8792926
  73.9443044  47.6362425 121.8208448  73.7858962  46.9339676 120.4890806
  62.7781297  50.4800963 108.1685014  62.9269418  51.1636427 107.5151687
  63.5847741  50.4606053 108.6834470  71.1848801  43.7843345 122.1952232
  72.0858664  43.6449810 121.9036230  71.2596776  43.9497800 123.1350410
  65.5191606  41.1610200 121.0405419  64.6494916  41.4543766 120.7688007
  65.7551087  41.7450645 121.7612682  75.3963235  50.2209359 121.1234947
  75.1048044  50.5839339 121.9598408  74.7835367  49.5076367 120.9448279
  76.5958918  47.7862239 113.6437517  77.4305809  48.2252043 113.8075078
  76.7318047  47.3100892 112.8245763  73.6450424  45.3441973 119.5915005
  74.1204545  45.5369620 118.7833856  72.7215989  45.4001159 119.3458389
  60.5333930  46.5066141 109.1746083  60.2879972  45.6028471 109.3726294
  60.7029845  46.5083291 108.2325561  68.2230640  37.3789817 118.5570839
  68.7412584  38.1150844 118.2317328  67.8685773  37.6853810 119.3917598
  59.8029578  42.2394498 106.6732245  59.1098823  42.3138853 106.0172281
  59.5581330  41.4754842 107.1953762  68.4743234  33.7990100 114.0771736
  68.7544988  33.1313289 114.7032162  69.2593841  33.9919195 113.5646399
  66.2776703  52.9749093 105.6396762  65.7050670  53.5939281 105.1867234
  66.8509497  53.5248455 106.1736684  72.3452093  42.2207734 117.8243311
  73.2969516  42.3205831 117.8455535  72.1755543  41.4286002 118.3341395
  70.3666472  39.3063317 118.0102712  69.7716404  39.5868329 117.3149200
  70.0816169  39.7957218 118.7819453  69.4973963  53.2586244 106.7705344
  70.4304636  53.1931805 106.9738220  69.4097175  54.0942510 106.3119877
  72.1261979  52.5752114 103.7309292  72.0475611  52.2411978 104.6245050
  72.9471646  53.0673882 103.7300764  74.8240170  45.4413853 116.9385610
  74.7916491  44.5029854 117.1245294  75.4340794  45.5197890 116.2051435
  66.6623501  44.3109906 102.9812814  67.6082606  44.1816114 103.0501232
  66.2837746  43.5724568 103.4582243  74.9734659  42.2324897 116.9843894
  74.4573708  41.4483353 116.7973822  75.8574607  41.9043613 117.1490413
  72.6345386  35.9765912 112.9439706  72.4370207  35.6681000 113.8283038
  73.2445091  36.7027551 113.0737636  80.6416720  46.5029860 116.0791647
  81.3720109  46.2415148 116.6399350  80.0323666  45.7658582 116.1193715
  78.7232017  44.6437723 116.6766098  77.9965181  44.5093688 116.0682590
  78.3079304  44.9514551 117.4822816  66.5462194  48.3627652 124.4413471
  67.4665203  48.5406251 124.6353518  66.5111777  47.4183698 124.2893171
  64.8466418  42.2359883 102.9167700  63.9397874  41.9392995 102.9930413
  65.1242400  41.9389701 102.0501986  55.7644359  43.5566246 113.3666746
  55.4447143  42.7031554 113.0741120  55.2177787  43.7714824 114.1224713
  59.5424266  46.2728687 117.0836253  59.7610276  47.2045795 117.1024286
  59.9550040  45.9136661 117.8691056  66.4628484  36.7796772 109.0711941
  65.6529213  36.4343857 109.4467187  67.1512901  36.4704316 109.6599552
  68.3919033  35.8574819 110.6936238  68.9450071  36.2770273 111.3526261
  68.6289119  34.9310567 110.7359194  63.6165203  39.0946818 103.0579679
  64.4784367  39.4201716 103.3175496  63.8015547  38.3078314 102.5452745
  55.6332619  47.1769157 115.3359868  54.9396090  46.7623110 114.8229822
  56.3805610  47.2189694 114.7393286  71.7697840  37.9675344 110.2014902
  71.1896509  38.6260148 109.8192954  71.5033772  37.1452689 109.7902319
  70.2201406  37.3680402 112.4036222  70.7201184  37.4796937 111.5950541
  70.8637014  37.0641455 113.0437031  64.2783402  45.2759032 125.2904063
  63.7950483  46.0759392 125.4967952  64.3644341  45.2866976 124.3371507
  57.5469361  47.1087411 113.2125882  57.5240050  47.2075099 112.2607766
  57.8569998  47.9552562 113.5343049  60.2056739  49.1663566 117.3272497
  61.1599993  49.1347509 117.2602428  60.0069263  48.7054190 118.1422723
  60.7956121  47.7364682 119.8943295  61.6149010  48.2308761 119.9178132
  61.0692929  46.8196650 119.8660862  70.5522718  40.1275435 109.2571250
  69.6648573  40.4125085 109.0391445  70.9676707  39.9669198 108.4098527
  73.9037254  40.1521956 112.9725589  74.6797644  40.6418408 113.2450206
  73.1785388  40.5780010 113.4297459  76.3409812  40.8649575 114.0299530
  76.9354303  40.6245311 113.3192838  76.4136396  40.1456705 114.6573066
  58.5606968  54.7083186 114.3442695  58.4261436  53.9483587 113.7780693
  58.1439030  55.4324086 113.8771484  69.6965931  49.8920109 103.3519270
  70.4001781  50.0970112 103.9676926  68.9728580  50.4596871 103.6168354
  70.5263741  45.6429971 109.4721540  70.4698943  46.0998522 108.6329173
  71.0792084  44.8820655 109.2944383  74.3368547  41.4319702 110.2971660
  74.0805482  41.0316338 111.1279867  73.7121415  42.1463496 110.1721799
  78.6480885  44.1715776 112.8042951  78.0880443  44.2408965 113.5774513
  78.0424388  43.9956760 112.0842447  61.7176094  55.6052503 114.5561137
  61.6008478  56.5497935 114.4539828  60.8968540  55.3026064 114.9446937
  71.6052628  50.3302639 105.4017730  72.4398232  49.8983837 105.2195205
  71.4436971  50.1584652 106.3294625  71.2598521  46.8334752 106.7674069
  71.2047324  46.6679023 105.8262514  70.6344576  47.5410785 106.9236259
  56.0491036  42.0702816 120.5935492  56.6949899  41.5601770 121.0822717
  55.8408187  42.8071498 121.1678917  68.5744428  49.1383664 126.0927632
  69.4435587  49.3124316 125.7314267  68.0951179  49.9578081 125.9703362
  64.5694646  36.3342861 106.3459388  64.5573316  37.2784701 106.5027659
  65.4618068  36.1513006 106.0518849  62.7430608  56.2580765 117.7717066
  63.6457855  56.2904375 118.0883561  62.5167978  55.3281216 117.7863402
  64.4984210  55.0111751 114.4327144  63.5479841  55.0113613 114.3191517
  64.8016696  54.2644486 113.9163179  68.3846766  32.9285637 110.6005325
  67.6179161  32.3744124 110.7462007  68.7957471  33.0007506 111.4619476
  80.2336904  60.8472290 115.4972907  80.8715314  60.7279037 114.7936247
  80.1157746  61.7953134 115.5560859  77.0426610  60.7999718 115.4334432
  76.7045121  60.6840782 114.5454966  77.9116378  60.3990883 115.4135438
  72.9013426  62.6535194 111.4231322  72.3378291  62.5625131 110.6547610
  72.7865821  61.8335099 111.9033815  77.5246393  61.9534569 121.3920637
  77.5135034  61.5587368 120.5201141  77.6867032  61.2200642 121.9854409
  70.4477857  64.1486386 114.2615543  71.2399149  63.8077210 113.8461842
  70.6874508  64.2581361 115.1817696  78.4812984  66.3206162 106.7345787
  77.8300964  66.9060242 106.3479801  79.2757347  66.8512357 106.7940825
  72.4068611  63.4095299 107.1332922  73.1799487  62.8624286 106.9945798
  72.7594010  64.2739548 107.3447383  74.2453654  64.7371681 120.3399821
  73.9543520  65.6417312 120.2246487  74.8810638  64.7788209 121.0543891
  75.1709861  62.1148530 116.9301181  75.7673433  61.8904552 116.2158144
  75.2284832  61.3733275 117.5326629  74.7434889  59.5687965 104.7651372
  74.9960410  59.0469486 104.0034835  73.8059448  59.4054111 104.8678055
  79.7878172  58.5723743 112.5726115  80.5741261  58.1543167 112.2216532
  80.0516876  59.4769836 112.7407763  79.9588249  64.0096594 107.2714772
  79.3234082  64.0831220 107.9835676  79.6285656  64.5990193 106.5933851
  85.1886599  58.5098977 113.4759093  85.9211771  57.9398193 113.7096923
  84.4325955  58.1220577 113.9165599  74.4631178  61.4716071 106.9675747
  74.3467436  60.7960974 107.6356831  74.5733438  60.9848445 106.1507900
  76.8062719  60.9326218 110.6722436  76.4420926  60.4056839 111.3835357
  77.6629835  60.5424687 110.4988921  82.7112020  52.2220551 117.9353702
  82.3795344  53.0915962 117.7114917  82.1157633  51.9056835 118.6147732
  76.4468206  55.9616118 105.6683784  76.6142608  56.8296354 106.0354255
  76.2565375  56.1243400 104.7445074  79.2043539  64.4233097 117.3349615
  78.9044262  65.3258136 117.2265422  78.8594599  64.1565280 118.1870768
  72.6556021  60.8746894 113.3686319  71.7306517  60.7423108 113.5764011
  72.9040434  61.6541113 113.8656262  82.6040683  56.9415637 115.0147052
  81.6957560  56.8731045 114.7205813  82.5528279  57.4187582 115.8428878
  76.4257427  58.4173775 106.6530451  76.3057052  58.8630826 107.4915931
  75.7310015  58.7659093 106.0943989  70.0164832  60.5180167 114.2030108
  70.1457213  60.7714646 115.1169520  69.3362283  61.1107875 113.8834763
  74.1864319  71.1877417 110.3020582  74.1088349  72.1385242 110.3809063
  73.5825962  70.8423290 110.9595509  76.6781549  58.3605283 122.9581949
  75.9014883  58.9199203 122.9484814  77.3172112  58.8462066 123.4796819
  84.4702329  55.1432075 116.7924926  83.8276710  55.4364609 116.1464721
  83.9657258  55.0284996 117.5978123  82.1242493  58.8895249 107.4810785
  83.0360349  59.1222635 107.3058483  81.6152140  59.4732293 106.9185864
  74.9327921  61.1690736 122.5199916  75.6742605  61.7075780 122.2434740
  74.2264906  61.7957025 122.6771468  80.4083261  63.3119876 121.1172078
  80.8166617  62.8702287 120.3726710  79.6860522  62.7372504 121.3706271
  76.7614331  58.2492483 118.4905635  77.6075526  58.6731897 118.6340284
  76.7012968  57.5926107 119.1844198  80.7312075  63.8721067 114.8724367
  80.1020938  64.0366781 114.1700435  80.3437737  64.2862677 115.6435331
  84.6101307  64.8075505 112.2268730  83.9252345  65.1874406 111.6765764
  84.6945156  65.4170832 112.9600678  79.9113776  55.9096852 120.1486808
  79.6674708  56.6638912 119.6121084  80.1873706  56.2882199 120.9834055
  81.8652239  62.4535464 118.8264074  82.0769134  63.0967224 118.1498455
  81.8181987  61.6197780 118.3586004  79.4678468  55.0653285 115.7300646
  78.6062947  55.3634538 116.0217384  79.4940902  55.2823683 114.7981679
  76.2840037  63.6095475 112.1374452  76.7478383  63.8883178 111.3479074
  76.0196835  62.7078920 111.9547542  73.1764118  63.1566957 115.0754215
  73.7465475  63.5854225 114.4371700  73.7672230  62.8749541 115.7738401
  75.2208923  59.7318627 108.9464017  75.9232967  60.1839671 109.4137943
  74.8889552  59.0902446 109.5743910  73.6689285  58.3230384 123.3215226
  73.0387945  59.0046665 123.5550623  73.5625373  58.2113466 122.3768365
  68.9634257  57.9902180 114.2481150  68.1733311  58.2459709 113.7721261
  69.4545504  58.8050518 114.3533191  82.9798067  65.3307419 116.9986431
  83.8015510  64.9287607 116.7169113  82.9760470  65.2275653 117.9502547
  70.9149003  58.3546759 111.2064627  70.1180166  58.4665454 111.7248123
  70.6874595  58.6933412 110.3405518  76.7454670  64.8791463 119.1547142
  76.8099103  65.3411870 119.9905314  76.0365594  64.2488828 119.2829452
  67.2471960  58.2432671 116.6796141  67.4979999  59.1279680 116.9453717
  67.7831509  58.0637272 115.9071233  91.0704060  61.6746168 113.3471403
  90.3167768  61.1053566 113.1915407  91.2051601  61.6408832 114.2942037
  76.4602688  66.5459570 109.0226122  76.3248363  67.3911106 109.4510970
  77.0012500  66.7478848 108.2592056  72.9470027  52.6251150 125.6840477
  72.5536973  52.0717348 126.3588122  73.7636168  52.9361728 126.0746995
  69.9132085  64.0635008 109.5954047  70.4256606  64.8578258 109.7459612
  70.5654798  63.3661299 109.5287649  71.7226970  67.1800764 111.6776800
  71.8993598  68.1018729 111.4897784  72.5183803  66.8659184 112.1071180
  75.8637988  54.0409029 123.2760734  76.6047702  54.6416182 123.1965196
  76.0955911  53.2986667 122.7178777  71.0079326  59.2265396 121.5538964
  70.8932842  58.3250654 121.8546063  70.1523844  59.4729093 121.2023780
  78.0871164  67.1683137 123.1526464  77.6435018  66.3819515 122.8347369
  78.7488378  67.3562287 122.4870355  72.8458285  68.6978938 117.6787143
  73.3965710  68.5696002 116.9064137  72.0069761  68.9973827 117.3282036
  80.1852402  67.4485937 121.1807866  80.1670878  68.2694818 120.6888135
  81.1072322  67.3240012 121.4058007  76.6425456  64.9630066 122.0231374
  77.1753793  64.2018354 121.7930682  76.1139537  64.6703718 122.7655528
  79.8095151  50.0690132 117.5525016  79.4659421  50.9591774 117.4764126
  80.1774114  49.8791790 116.6894601  67.8781002  62.3923662 110.3713618
  68.7156224  62.8020671 110.1547325  68.0559270  61.4523105 110.3413812
  79.7745434  60.0598743 106.0597451  79.2592058  60.8303348 106.2985838
  79.5022743  59.3863879 106.6830512  77.3592545  54.9048444 111.1182689
  76.5034141  54.5155294 110.9388328  77.7719497  54.9840405 110.2582475
  78.8891692  52.4394787 115.5174249  78.3856487  52.4024922 114.7042054
  79.1822299  53.3487530 115.5770906  75.1334578  52.5233517 114.5240431
  75.9987574  52.3276326 114.1646320  75.2012087  52.2943869 115.4509787
  84.7479708  62.8131098 107.9950624  83.9709151  62.4742257 107.5505786
  85.4271189  62.8183721 107.3205589  79.5631737  57.9325835 107.8857232
  79.2581873  58.2471984 108.7367375  80.5162179  58.0107255 107.9284565
  78.0078169  64.0916058 109.5350186  77.4799531  63.3568818 109.2223423
  77.5065672  64.8690735 109.2890154  82.9871015  62.2865079 114.6517232
  82.3294690  62.9764340 114.7397361  83.7911414  62.6761511 114.9951219
  72.7396897  54.7535725 111.8956797  73.3140649  54.5310906 111.1629990
  73.3267879  54.8224419 112.6485399  81.7976474  60.6409452 112.7021174
  82.3108356  61.2739444 113.2042884  82.4477698  60.0410647 112.3364534
  73.0666484  56.7840186 105.9152683  72.2303796  57.1214872 106.2361957
  72.9271253  56.6489166 104.9779820  75.0419564  51.6276974 110.6231867
  74.3883977  51.3125991 109.9988482  75.0000039  51.0052714 111.3491690
  76.1530769  61.9096269 102.5385159  75.2457831  61.6785522 102.7376308
  76.6501801  61.1133888 102.7259140  79.0598848  70.6193776 105.4581845
  78.3860547  70.9225473 106.0666803  79.4464670  71.4222856 105.1087302
  78.2757305  58.1158907 114.9479514  77.3579866  58.3373854 114.7901203
  78.6917448  58.1905218 114.0891222  79.0592353  59.5150323 110.0782195
  79.8064171  60.0271720 109.7689317  79.3283942  59.1934376 110.9386588
  77.3319003  62.0108864 107.0609149  76.4230222  61.7267896 107.1581619
  77.3614087  62.4307942 106.2012456  82.5638270  65.6215453 110.8300317
  82.1100597  64.7806363 110.8865507  81.9332237  66.2576851 111.1675097
  81.5071190  56.5507439 112.0600984  80.7693946  56.0384825 112.3911227
  81.7597963  56.1107821 111.2484261  81.0071209  67.4591950 111.7650135
  81.2994184  68.0197007 111.0462500  81.5169830  67.7520511 112.5203294
  81.6082817  49.3283691 112.6542753  81.9141694  48.4681055 112.3668668
  82.3335422  49.9201311 112.4541747  67.9007173  59.7314378 111.0424351
  67.7031573  59.1383738 110.3175418  67.3453837  59.4266588 111.7600290
  75.8803897  59.6237484 113.1618944  75.9352507  58.6711321 113.0861421
  75.0695099  59.7796923 113.6460243  77.0295091  63.5517607 104.3997228
  76.5914520  62.8353466 103.9402865  77.7705531  63.7793722 103.8382319
  73.8196257  58.2414544 110.9209323  73.0064122  58.5408715 111.3274515
  74.3155251  57.8470233 111.6383805  75.9704835  68.2372301 112.8543588
  75.9281013  68.4633147 111.9252120  76.8867533  68.0035675 113.0029389
  79.4170468  58.7056368 119.7524217  79.7719856  58.9327842 120.6118683
  80.0642600  59.0374745 119.1301472  85.1468205  61.8274804 110.4573546
  85.0086104  62.0176400 109.5294735  84.7904424  62.5894187 110.9141597
  73.3110331  55.8132899 116.5370558  73.9509711  55.6721659 115.8393522
  72.4787862  55.5267413 116.1609160  85.1737585  63.8951331 115.4684818
  85.6074092  63.8026620 116.3167872  85.8869166  63.8708832 114.8304834
  74.0870635  65.1135330 112.6505551  74.8811234  64.6185650 112.4488126
  73.3762328  64.5853193 112.2873256  78.9065480  67.4953425 117.0017918
  78.9602502  68.0644362 117.7695634  78.0380261  67.6655310 116.6371955
  70.3953399  59.2578412 108.7265303  69.4650987  59.1962867 108.9435265
  70.4910871  58.7354364 107.9301945  70.3138948  55.7833224 111.3143545
  70.5745765  56.6978558 111.2052705  71.1356120  55.3157667 111.4640158
  71.7863873  57.1970982 118.4842370  72.4586927  56.9888344 117.8355018
  70.9593660  56.9993068 118.0447602  86.0353134  63.9375032 118.0017703
  86.2289025  64.8420842 118.2476978  85.9353753  63.4782451 118.8356288
  77.6889445  53.8232923 120.5008030  77.0417360  54.5222872 120.4072507
  78.4590461  54.2569066 120.8684279  81.0968243  64.0881775 123.5758584
  80.9453750  63.8592326 122.6588667  81.0872923  65.0452376 123.5889929
  77.8653580  61.6613687 118.5604850  78.7945640  61.8124847 118.3873817
  77.4444610  61.7497708 117.7053497  76.6641911  65.6864352 116.3303388
  76.5252997  65.3183136 117.2029326  75.8756508  66.2011991 116.1587346
  77.2590063  70.7873448 107.6728924  77.4341819  70.3161492 108.4874547
  76.5722851  71.4139215 107.9010185  78.2147126  65.0645955 113.7192226
  77.8796959  65.0246725 114.6149875  77.7151072  64.3990671 113.2462636
  72.1891370  60.4713585 119.2444807  72.0511168  59.7393823 119.8456346
  73.0996294  60.3822485 118.9628994  81.1506318  62.4101989 103.9929285
  80.5335489  61.6848817 103.8962338  80.6822807  63.1711349 103.6496359
  74.8173671  60.1833544 118.7328486  75.5273290  59.5426736 118.6915105
  74.7742979  60.4346439 119.6554667  82.8060450  67.1200897 121.6535066
  82.7472996  66.4360117 120.9865649  83.2079968  67.8619887 121.2015692
  73.5302605  57.1698762 120.5524126  72.9939962  56.7189500 121.2045722
  72.9419314  57.3044671 119.8094590  71.8251149  73.9362811 114.4468784
  72.0647747  74.5681335 115.1247803  70.9820345  73.5850851 114.7334144
  72.9404864  56.6287413 103.1150589  72.0634330  56.5076214 102.7512836
  73.4162617  55.8373492 102.8629478  82.8077857  65.0840481 119.8849045
  81.9204636  64.7466403 120.0075444  83.3776408  64.3523512 120.1217811
  64.4607004  61.4164573 113.2092097  65.1478044  61.1026303 112.6213112
  64.3055133  62.3205938 112.9359348  69.2641726  56.3054770 117.6377120
  69.1799915  55.6980439 116.9027530  68.4424433  56.7963788 117.6386617
  76.3379010  69.7441934 116.8510288  76.2649182  70.5496905 117.3629593
  75.8956404  69.9433899 116.0258310  76.1268790  68.9813704 110.3613110
  75.3436312  69.5235384 110.4551334  76.8261535  69.4987683 110.7607351
  79.4365440  54.7908333 113.0047315  79.9334140  54.0378295 112.6848386
  78.6652422  54.8272650 112.4390525  87.2895198  60.4948699 114.6465607
  87.2785074  61.3773414 114.2759540  86.4212577  60.1420249 114.4520144
  78.7977694  69.6428768 119.0068447  79.5105666  70.2776232 118.9344349
  78.3067723  69.7392634 118.1908449  80.5195221  63.5480020 110.5785739
  79.5851500  63.6681483 110.4090443  80.6971889  62.6452487 110.3145749
  76.0200409  56.9325716 112.7319000  75.6498196  56.3796756 113.4199906
  76.5159501  56.3283850 112.1794000  83.9067772  59.3897340 111.1135773
  84.3728224  60.2225331 111.0396076  84.3575273  58.9242321 111.8181031
  73.8489608  67.3923211 119.8274018  74.5499067  68.0259694 119.9803412
  73.3784722  67.7337943 119.0669657  81.9744003  65.7341161 108.1121925
  82.2503847  65.6197755 109.0215799  81.1048502  65.3358646 108.0734098
  81.8784435  51.7577927 115.1526674  80.9647515  51.9882153 115.3208881
  82.3077536  51.8416371 116.0040707  81.6490893  59.9467819 117.6526568
  80.9962344  60.1943726 116.9979021  82.0271273  59.1331957 117.3189046
  78.6098067  69.9827512 111.7554739  78.7920462  69.1649168 112.2182491
  79.4331053  70.1995204 111.3179629  78.9440233  68.9095697 109.0169787
  79.4727999  68.3988151 108.4039949  79.2068452  68.5938227 109.8815320
  77.6978466  60.6887630 124.1392605  77.0219104  60.5881759 124.8094981
  78.5206100  60.5326843 124.6028603  69.4457326  66.9259566 116.7605121
  70.0310762  66.1803254 116.8933025  69.2482164  67.2363523 117.6441784
  72.2995981  69.9610814 111.7767563  71.6306356  70.4456941 111.2931603
  72.1608850  70.2080034 112.6910942  64.0374980  59.4965166 115.4809564
  64.0759080  58.9628757 116.2746682  63.5315273  58.9700372 114.8620541
  76.4401249  71.9954557 118.3750221  76.9919557  72.1586179 119.1399307
  76.7807443  72.5858995 117.7030246  71.4165743  54.3429707 118.9772106
  71.4807069  55.2044538 118.5649504  71.3532863  53.7303708 118.2444465
  70.8918015  56.4152839 122.6245140  71.5190054  56.0329917 123.2382665
  70.0345934  56.1967041 122.9900833  67.6683558  58.2229268 108.5563495
  67.9636999  57.3139947 108.5030549  66.7671594  58.2017008 108.2344497
  79.5769637  69.9436533 115.3613904  79.4520776  69.1426272 114.8524849
  80.2348728  70.4382726 114.8727873  71.1977805  56.2985265 114.5391044
  70.4764391  56.9121233 114.3998517  71.9871061  56.8343030 114.4607690
  81.6404545  67.7445553 116.9893454  80.6934881  67.6250904 116.9171780
  81.9887318  66.8568051 117.0719715  74.0004118  53.6339692 120.8131695
  74.5238520  53.8801988 121.5758005  73.7816452  54.4659726 120.3934833
  69.3971399  55.9043366 108.6802820  69.0684106  55.0240745 108.4977926
  69.7510770  55.8491035 109.5679210  78.6450978  67.5398269 113.1897806
  78.4975941  66.6114976 113.3705376  79.4704472  67.5618360 112.7054881
  72.5113223  56.1916336 109.0478298  72.8509295  56.7202257 108.3256906
  72.9585343  56.5296742 109.8236864  82.2485100  68.3626828 114.2762679
  83.1731648  68.1569689 114.1387130  82.0800404  68.1143229 115.1852020
  75.2056663  54.5753387 118.4981366  74.8653484  53.7761200 118.9002046
  74.4995670  54.8755098 117.9258199  75.8573135  51.6602699 116.9508689
  76.6799205  51.1863177 116.8287579  76.1011199  52.4393183 117.4507375
  74.4981370  54.6890958 107.2471591  75.2189732  55.0672210 106.7435308
  73.8746674  55.4079834 107.3506569  78.6412493  55.3936107 108.1829923
  78.8576107  56.2760744 107.8818751  78.1606560  55.0022320 107.4535565
  73.3811714  58.3521820 114.7600668  73.2356295  58.6662123 115.6524949
  72.9036918  58.9706720 114.2071566  75.2408097  55.3424368 114.8081557
  75.2269666  54.4465461 114.4713855  75.9580525  55.3495031 115.4419843
  77.0934228  55.7761708 116.8534685  76.8352005  56.6978779 116.8519015
  76.5619268  55.3792142 117.5435149  82.0380416  68.8812495 109.6324770
  82.2117294  68.3158918 108.8798622  82.5309308  69.6813390 109.4504260
  67.8557376  60.8927164 117.6988329  67.3110844  61.6686972 117.8308603
  68.7336726  61.2397969 117.5407450  74.6444993  54.2238748 110.0769127
  74.7660904  53.2955394 110.2760015  74.3547035  54.2377434 109.1647443
  77.5136183  51.9093658 113.2135847  77.5357880  51.9732992 112.2587827
  77.9304242  51.0698167 113.4076353  87.8919808  61.6448918 111.2515070
  88.3350954  60.8956243 110.8534193  87.0146318  61.6359054 110.8688802
  83.0255589  68.1979259 106.7321668  83.7206494  68.8185952 106.9508983
  83.3678739  67.3474611 107.0074046  68.6423398  60.0197060 120.5918486
  67.9005134  60.1679696 121.1783116  68.3216142  60.2805326 119.7285235
  84.9247012  65.6478965 108.2608999  85.4498336  65.9866238 107.5358319
  84.8369365  64.7125980 108.0772134  76.5867061  69.5613039 120.3898876
  76.8954187  69.3162185 121.2621575  77.3842543  69.7659677 119.9017746
  76.6087673  71.7150948 112.6204252  76.1692663  71.2227327 113.3137109
  77.3595790  71.1723916 112.3796327  69.0880012  67.9062489 112.6228880
  69.9138032  67.6066261 112.2427524  68.7374064  67.1370112 113.0718669
  74.0561545  67.2588957 114.6926554  73.4341554  66.5959662 114.3928782
  74.7266412  67.2850089 114.0100202  67.2888617  65.8248816 113.5817814
  66.4520525  65.3970990 113.4001815  67.2612262  66.0181259 114.5188605
  74.1286072  55.7370745 124.2859060  74.1774228  56.6132868 123.9036830
  74.6708587  55.1948138 123.7130703  84.7338793  63.1304335 120.8792926
  84.7836798  62.9654342 121.8208448  84.6252716  62.2631594 120.4890806
  73.6175052  65.8092881 108.1685014  73.7663172  66.4928345 107.5151687
  74.4241495  65.7897971 108.6834470  82.0242556  59.1135263 122.1952232
  82.9252418  58.9741728 121.9036230  82.0990530  59.2789718 123.1350410
  76.3585361  56.4902118 121.0405419  75.4888670  56.7835684 120.7688007
  76.5944841  57.0742563 121.7612682  86.2356990  65.5501277 121.1234947
  85.9441798  65.9131257 121.9598408  85.6229121  64.8368285 120.9448279
  87.4352672  63.1154156 113.6437517  88.2699564  63.5543960 113.8075078
  87.5711801  62.6392809 112.8245763  84.4844178  60.6733891 119.5915005
  84.9598300  60.8661537 118.7833856  83.5609744  60.7293077 119.3458389
  71.3727685  61.8358058 109.1746083  71.1273727  60.9320388 109.3726294
  71.5423599  61.8375209 108.2325561  79.0624395  52.7081735 118.5570839
  79.5806339  53.4442762 118.2317328  78.7079527  53.0145728 119.3917598
  70.6423332  57.5686416 106.6732245  69.9492577  57.6430771 106.0172281
  70.3975084  56.8046760 107.1953762  79.3136989  49.1282017 114.0771736
  79.5938743  48.4605206 114.7032162  80.0987596  49.3211113 113.5646399
  77.1170457  68.3041011 105.6396762  76.5444424  68.9231198 105.1867234
  77.6903251  68.8540373 106.1736684  83.1845847  57.5499651 117.8243311
  84.1363270  57.6497749 117.8455535  83.0149298  56.7577920 118.3341395
  81.2060227  54.6355234 118.0102712  80.6110159  54.9160247 117.3149200
  80.9209923  55.1249135 118.7819453  80.3367717  68.5878161 106.7705344
  81.2698390  68.5223723 106.9738220  80.2490930  69.4234428 106.3119877
  82.9655734  67.9044032 103.7309292  82.8869365  67.5703895 104.6245050
  83.7865401  68.3965800 103.7300764  85.6633925  60.7705771 116.9385610
  85.6310245  59.8321772 117.1245294  86.2734549  60.8489808 116.2051435
  77.5017256  59.6401824 102.9812814  78.4476361  59.5108032 103.0501232
  77.1231501  58.9016486 103.4582243  85.8128413  57.5616814 116.9843894
  85.2967462  56.7775271 116.7973822  86.6968362  57.2335531 117.1490413
  83.4739140  51.3057830 112.9439706  83.2763962  50.9972918 113.8283038
  84.0838846  52.0319469 113.0737636  91.4810475  61.8321778 116.0791647
  92.2113863  61.5707066 116.6399350  90.8717420  61.0950500 116.1193715
  89.5625772  59.9729640 116.6766098  88.8358936  59.8385605 116.0682590
  89.1473059  60.2806469 117.4822816  77.3855948  63.6919570 124.4413471
  78.3058958  63.8698169 124.6353518  77.3505531  62.7475615 124.2893171
  75.6860173  57.5651800 102.9167700  74.7791628  57.2684913 102.9930413
  75.9636154  57.2681618 102.0501986  66.6038113  58.8858164 113.3666746
  66.2840898  58.0323472 113.0741120  66.0571542  59.1006742 114.1224713
  70.3818021  61.6020605 117.0836253  70.6004031  62.5337712 117.1024286
  70.7943795  61.2428579 117.8691056  77.3022239  52.1088690 109.0711941
  76.4922967  51.7635775 109.4467187  77.9906656  51.7996234 109.6599552
  79.2312787  51.1866737 110.6936238  79.7843826  51.6062190 111.3526261
  79.4682873  50.2602485 110.7359194  75.2545886  57.1753810 126.4739001
  75.1542613  58.1248167 126.4051093  75.0367428  56.8472049 125.6015072
  74.4558958  54.4238735 103.0579679  75.3178122  54.7493634 103.3175496
  74.6409302  53.6370231 102.5452745  66.4726373  62.5061075 115.3359868
  65.7789845  62.0915028 114.8229822  67.2199364  62.5481612 114.7393286
  82.6091594  53.2967262 110.2014902  82.0290263  53.9552066 109.8192954
  82.3427527  52.4744607 109.7902319  81.0595160  52.6972320 112.4036222
  81.5594939  52.8088854 111.5950541  81.7030768  52.3933373 113.0437031
  75.1177156  60.6050949 125.2904063  74.6344238  61.4051309 125.4967952
  75.2038095  60.6158894 124.3371507  68.3863116  62.4379329 113.2125882
  68.3633804  62.5367016 112.2607766  68.6963752  63.2844480 113.5343049
  71.0450494  64.4955484 117.3272497  71.9993747  64.4639426 117.2602428
  70.8463017  64.0346108 118.1422723  71.6349876  63.0656600 119.8943295
  72.4542765  63.5600679 119.9178132  71.9086684  62.1488568 119.8660862
  81.3916472  55.4567352 109.2571250  80.5042327  55.7417003 109.0391445
  81.8070461  55.2961116 108.4098527  84.7431008  55.4813873 112.9725589
  85.5191398  55.9710326 113.2450206  84.0179142  55.9071928 113.4297459
  87.1803567  56.1941493 114.0299530  87.7748058  55.9537228 113.3192838
  87.2530151  55.4748623 114.6573066  69.4000723  70.0375103 114.3442695
  69.2655190  69.2775504 113.7780693  68.9832785  70.7616003 113.8771484
  80.5359686  65.2212027 103.3519270  81.2395536  65.4262030 103.9676926
  79.8122334  65.7888789 103.6168354  81.3657496  60.9721888 109.4721540
  81.3092697  61.4290440 108.6329173  81.9185838  60.2112573 109.2944383
  85.1762302  56.7611620 110.2971660  84.9199236  56.3608256 111.1279867
  84.5515170  57.4755414 110.1721799  89.4874640  59.5007693 112.8042951
  88.9274198  59.5700883 113.5774513  88.8818143  59.3248678 112.0842447
  72.5569848  70.9344420 114.5561137  72.4402233  71.8789853 114.4539828
  71.7362295  70.6317982 114.9446937  82.4446383  65.6594556 105.4017730
  83.2791987  65.2275755 105.2195205  82.2830726  65.4876570 106.3294625
  82.0992275  62.1626670 106.7674069  82.0441079  61.9970941 105.8262514
  81.4738330  62.8702702 106.9236259  66.8884790  57.3994734 120.5935492
  67.5343654  56.8893688 121.0822717  66.6801941  58.1363416 121.1678917
  75.4088401  51.6634779 106.3459388  75.3967070  52.6076618 106.5027659
  76.3011822  51.4804924 106.0518849  73.5824363  71.5872682 117.7717066
  74.4851609  71.6196293 118.0883561  73.3561733  70.6573133 117.7863402
  75.3377965  70.3403669 114.4327144  74.3873596  70.3405531 114.3191517
  75.6410451  69.5936403 113.9163179  79.2240520  48.2577555 110.6005325
  78.4572916  47.7036042 110.7462007  79.6351225  48.3299424 111.4619476
  71.2282281  54.5462351 124.6910506  72.0913743  54.1899156 124.9013830
  70.6547692  54.2076246 125.3785910  83.7407180  77.9827112 111.4231322
  83.1772045  77.8917049 110.6547610  83.6259575  77.1627016 111.9033815
  81.2871612  79.4778303 114.2615543  82.0792904  79.1369128 113.8461842
  81.5268262  79.5873278 115.1817696  89.3206739  81.6498080 106.7345787
  88.6694719  82.2352160 106.3479801  90.1151102  82.1804274 106.7940825
  83.2462366  78.7387217 107.1332922  84.0193242  78.1916204 106.9945798
  83.5987765  79.6031466 107.3447383  85.5828644  74.8979883 104.7651372
  85.8354164  74.3761404 104.0034835  84.6453203  74.7346028 104.8678055
  90.6271927  73.9015661 112.5726115  91.4135016  73.4835084 112.2216532
  90.8910631  74.8061753 112.7407763  90.7982004  79.3388511 107.2714772
  90.1627837  79.4123138 107.9835676  90.4679410  79.9282110 106.5933851
  85.3024932  76.8007989 106.9675747  85.1861191  76.1252892 107.6356831
  85.4127192  76.3140363 106.1507900  87.6456473  76.2618136 110.6722436
  87.2814681  75.7348757 111.3835357  88.5023589  75.8716605 110.4988921
  87.2861960  71.2908036 105.6683784  87.4536363  72.1588272 106.0354255
  87.0959129  71.4535317 104.7445074  83.4949775  76.2038811 113.3686319
  82.5700272  76.0715025 113.5764011  83.7434188  76.9833031 113.8656262
  87.2651181  73.7465693 106.6530451  87.1450806  74.1922744 107.4915931
  86.5703770  74.0951011 106.0943989  80.8558586  75.8472085 114.2030108
  80.9850967  76.1006564 115.1169520  80.1756037  76.4399793 113.8834763
  92.9636247  74.2187166 107.4810785  93.8754104  74.4514553 107.3058483
  92.4545894  74.8024210 106.9185864  90.3072222  70.3945202 115.7300646
  89.4456701  70.6926456 116.0217384  90.3334657  70.6115601 114.7981679
  87.1233792  78.9387393 112.1374452  87.5872137  79.2175096 111.3479074
  86.8590590  78.0370837 111.9547542  86.0602678  75.0610545 108.9464017
  86.7626721  75.5131589 109.4137943  85.7283306  74.4194364 109.5743910
  79.8028012  73.3194098 114.2481150  79.0127066  73.5751626 113.7721261
  80.2939259  74.1342436 114.3533191  81.7542757  73.6838677 111.2064627
  80.9573920  73.7957371 111.7248123  81.5268349  74.0225329 110.3405518
  78.0865715  73.5724588 116.6796141  78.3373753  74.4571598 116.9453717
  78.6225263  73.3929190 115.9071233  87.2996442  81.8751488 109.0226122
  87.1642117  82.7203023 109.4510970  87.8406255  82.0770765 108.2592056
  80.7525840  79.3926926 109.5954047  81.2650360  80.1870176 109.7459612
  81.4048552  78.6953216 109.5287649  82.5620724  82.5092682 111.6776800
  82.7387353  83.4310647 111.4897784  83.3577558  82.1951101 112.1071180
  90.6488906  65.3982050 117.5525016  90.3053175  66.2883691 117.4764126
  91.0167868  65.2083707 116.6894601  78.7174756  77.7215580 110.3713618
  79.5549978  78.1312588 110.1547325  78.8953024  76.7815022 110.3413812
  90.6139189  75.3890661 106.0597451  90.0985812  76.1595265 106.2985838
  90.3416497  74.7155797 106.6830512  88.1986300  70.2340362 111.1182689
  87.3427896  69.8447212 110.9388328  88.6113251  70.3132322 110.2582475
  89.7285446  67.7686705 115.5174249  89.2250242  67.7316840 114.7042054
  90.0216053  68.6779448 115.5770906  85.9728332  67.8525435 114.5240431
  86.8381329  67.6568243 114.1646320  86.0405841  67.6235786 115.4509787
  95.5873463  78.1423015 107.9950624  94.8102905  77.8034175 107.5505786
  96.2664944  78.1475639 107.3205589  90.4025492  73.2617753 107.8857232
  90.0975627  73.5763902 108.7367375  91.3555934  73.3399173 107.9284565
  88.8471924  79.4207976 109.5350186  88.3193285  78.6860736 109.2223423
  88.3459426  80.1982653 109.2890154  83.5790651  70.0827642 111.8956797
  84.1534403  69.8602824 111.1629990  84.1661634  70.1516337 112.6485399
  83.9060238  72.1132103 105.9152683  83.0697551  72.4506790 106.2361957
  83.7665008  71.9781083 104.9779820  85.8813319  66.9568891 110.6231867
  85.2277731  66.6417909 109.9988482  85.8393793  66.3344632 111.3491690
  86.9924524  77.2388186 102.5385159  86.0851586  77.0077440 102.7376308
  87.4895556  76.4425806 102.7259140  89.8992603  85.9485694 105.4581845
  89.2254301  86.2517390 106.0666803  90.2858425  86.7514774 105.1087302
  89.1151059  73.4450825 114.9479514  88.1973621  73.6665772 114.7901203
  89.5311203  73.5197135 114.0891222  89.8986107  74.8442241 110.0782195
  90.6457926  75.3563638 109.7689317  90.1677697  74.5226293 110.9386588
  88.1712757  77.3400781 107.0609149  87.2623976  77.0559814 107.1581619
  88.2007841  77.7599860 106.2012456  92.3464944  71.8799357 112.0600984
  91.6087701  71.3676743 112.3911227  92.5991718  71.4399738 111.2484261
  92.4476571  64.6575609 112.6542753  92.7535448  63.7972972 112.3668668
  93.1729176  65.2493229 112.4541747  78.7400928  75.0606295 111.0424351
  78.5425327  74.4675656 110.3175418  78.1847592  74.7558506 111.7600290
  86.7197651  74.9529402 113.1618944  86.7746261  74.0003238 113.0861421
  85.9088853  75.1088841 113.6460243  87.8688845  78.8809525 104.3997228
  87.4308275  78.1645384 103.9402865  88.6099286  79.1085640 103.8382319
  84.6590011  73.5706462 110.9209323  83.8457877  73.8700632 111.3274515
  85.1549005  73.1762150 111.6383805  95.9861960  77.1566722 110.4573546
  95.8479858  77.3468318 109.5294735  95.6298179  77.9186105 110.9141597
  84.1504086  71.1424817 116.5370558  84.7903465  71.0013576 115.8393522
  83.3181616  70.8559331 116.1609160  84.9264390  80.4427248 112.6505551
  85.7204988  79.9477568 112.4488126  84.2156082  79.9145111 112.2873256
  81.2347153  74.5870329 108.7265303  80.3044741  74.5254785 108.9435265
  81.3304625  74.0646282 107.9301945  81.1532702  71.1125142 111.3143545
  81.4139520  72.0270475 111.2052705  81.9749875  70.6449585 111.4640158
  82.6257628  72.5262899 118.4842370  83.2980681  72.3180261 117.8355018
  81.7987414  72.3284985 118.0447602  88.0983818  86.1165366 107.6728924
  88.2735573  85.6453409 108.4874547  87.4116606  86.7431132 107.9010185
  91.9900073  77.7393907 103.9929285  91.3729243  77.0140735 103.8962338
  91.5216561  78.5003267 103.6496359  83.7798619  71.9579331 103.1150589
  82.9028085  71.8368132 102.7512836  84.2556372  71.1665409 102.8629478
  75.3000759  76.7456491 113.2092097  75.9871799  76.4318221 112.6213112
  75.1448887  77.6497855 112.9359348  80.1035481  71.6346687 117.6377120
  80.0193670  71.0272357 116.9027530  79.2818187  72.1255706 117.6386617
  90.2759195  70.1200251 113.0047315  90.7727894  69.3670213 112.6848386
  89.5046176  70.1564567 112.4390525  91.3588975  78.8771938 110.5785739
  90.4245254  78.9973400 110.4090443  91.5365644  77.9744405 110.3145749
  86.8594163  72.2617634 112.7319000  86.4891951  71.7088674 113.4199906
  87.3553256  71.6575767 112.1794000  94.7461527  74.7189257 111.1135773
  95.2121979  75.5517249 111.0396076  95.1969027  74.2534239 111.8181031
  92.8137758  81.0633079 108.1121925  93.0897602  80.9489673 109.0215799
  91.9442257  80.6650563 108.0734098  92.7178189  67.0869844 115.1526674
  91.8041269  67.3174071 115.3208881  93.1471291  67.1708288 116.0040707
  89.7833987  84.2387615 109.0169787  90.3121754  83.7280069 108.4039949
  90.0462207  83.9230145 109.8815320  74.8768735  74.8257084 115.4809564
  74.9152834  74.2920675 116.2746682  74.3709028  74.2992290 114.8620541
  82.2559497  69.6721625 118.9772106  82.3200824  70.5336455 118.5649504
  82.1926617  69.0595626 118.2444465  78.5077312  73.5521186 108.5563495
  78.8030753  72.6431865 108.5030549  77.6065348  73.5308926 108.2344497
  82.0371559  71.6277183 114.5391044  81.3158145  72.2413150 114.3998517
  82.8264815  72.1634948 114.4607690  80.2365154  71.2335284 108.6802820
  79.9077860  70.3532663 108.4977926  80.5904525  71.1782953 109.5679210
  83.3506977  71.5208254 109.0478298  83.6903050  72.0494175 108.3256906
  83.7979098  71.8588660 109.8236864  86.0450418  69.9045304 118.4981366
  85.7047238  69.1053117 118.9002046  85.3389424  70.2047015 117.9258199
  86.6966890  66.9894617 116.9508689  87.5192959  66.5155095 116.8287579
  86.9404953  67.7685101 117.4507375  85.3375124  70.0182875 107.2471591
  86.0583487  70.3964128 106.7435308  84.7140428  70.7371752 107.3506569
  89.4806247  70.7228024 108.1829923  89.6969862  71.6052662 107.8818751
  89.0000314  70.3314238 107.4535565  84.2205469  73.6813737 114.7600668
  84.0750049  73.9954040 115.6524949  83.7430672  74.2998638 114.2071566
  86.0801851  70.6716285 114.8081557  86.0663420  69.7757379 114.4713855
  86.7974280  70.6786949 115.4419843  87.9327982  71.1053626 116.8534685
  87.6745760  72.0270696 116.8519015  87.4013022  70.7084060 117.5435149
  78.6951131  76.2219082 117.6988329  78.1504599  76.9978890 117.8308603
  79.5730481  76.5689886 117.5407450  85.4838747  69.5530666 110.0769127
  85.6054659  68.6247312 110.2760015  85.1940790  69.5669352 109.1647443
  88.3529938  67.2385576 113.2135847  88.3751635  67.3024909 112.2587827
  88.7697997  66.3990085 113.4076353  93.8649343  83.5271177 106.7321668
  94.5600248  84.1477870 106.9508983  94.2072494  82.6766528 107.0074046
  95.7640766  80.9770883 108.2608999  96.2892091  81.3158155 107.5358319
  95.6763119  80.0417898 108.0772134  79.9273766  83.2354407 112.6228880
  80.7531786  82.9358179 112.2427524  79.5767818  82.4662029 113.0718669
  78.1282371  81.1540733 113.5817814  77.2914280  80.7262908 113.4001815
  78.1006017  81.3473177 114.5188605  84.4568806  81.1384798 108.1685014
  84.6056927  81.8220263 107.5151687  85.2635250  81.1189888 108.6834470
  82.2121439  77.1649976 109.1746083  81.9667481  76.2612306 109.3726294
  82.3817354  77.1667126 108.2325561  81.4817087  72.8978334 106.6732245
  80.7886332  72.9722689 106.0172281  81.2368839  72.1338677 107.1953762
  90.1530743  64.4573935 114.0771736  90.4332497  63.7897124 114.7032162
  90.9381350  64.6503031 113.5646399  87.9564212  83.6332929 105.6396762
  87.3838179  84.2523116 105.1867234  88.5297005  84.1832290 106.1736684
  91.1761472  83.9170079 106.7705344  92.1092145  83.8515641 106.9738220
  91.0884684  84.7526346 106.3119877  93.8049488  83.2335949 103.7309292
  93.7263120  82.8995813 104.6245050  94.6259155  83.7257717 103.7300764
  88.3411010  74.9693742 102.9812814  89.2870115  74.8399950 103.0501232
  87.9625255  74.2308403 103.4582243  94.3132895  66.6349748 112.9439706
  94.1157716  66.3264836 113.8283038  94.9232600  67.3611386 113.0737636
  86.5253927  72.8943718 102.9167700  85.6185383  72.5976831 102.9930413
  86.8029908  72.5973536 102.0501986  77.4431868  74.2150081 113.3666746
  77.1234652  73.3615390 113.0741120  76.8965296  74.4298660 114.1224713
  88.1415993  67.4380608 109.0711941  87.3316722  67.0927693 109.4467187
  88.8300410  67.1288151 109.6599552  90.0706541  66.5158654 110.6936238
  90.6237580  66.9354108 111.3526261  90.3076628  65.5894403 110.7359194
  85.2952712  69.7530653 103.0579679  86.1571876  70.0785551 103.3175496
  85.4803056  68.9662149 102.5452745  77.3120128  77.8352993 115.3359868
  76.6183599  77.4206946 114.8229822  78.0593119  77.8773529 114.7393286
  93.4485349  68.6259180 110.2014902  92.8684018  69.2843984 109.8192954
  93.1821281  67.8036524 109.7902319  91.8988915  68.0264237 112.4036222
  92.3988693  68.1380772 111.5950541  92.5424523  67.7225290 113.0437031
  79.2256870  77.7671247 113.2125882  79.2027558  77.8658934 112.2607766
  79.5357507  78.6136397 113.5343049  92.2310227  70.7859270 109.2571250
  91.3436082  71.0708921 109.0391445  92.6464216  70.6253033 108.4098527
  95.5824763  70.8105791 112.9725589  96.3585153  71.3002243 113.2450206
  94.8572897  71.2363845 113.4297459  91.3753440  80.5503945 103.3519270
  92.0789290  80.7553947 103.9676926  90.6516089  81.1180707 103.6168354
  92.2051250  76.3013806 109.4721540  92.1486452  76.7582357 108.6329173
  92.7579593  75.5404491 109.2944383  96.0156056  72.0903538 110.2971660
  95.7592990  71.6900173 111.1279867  95.3908924  72.8047332 110.1721799
  93.2840137  80.9886474 105.4017730  94.1185741  80.5567672 105.2195205
  93.1224480  80.8168488 106.3294625  92.9386030  77.4918587 106.7674069
  92.8834833  77.3262859 105.8262514  92.3132085  78.1994620 106.9236259
  77.7278545  72.7286652 120.5935492  78.3737408  72.2185606 121.0822717
  77.5195696  73.4655333 121.1678917  86.2482155  66.9926696 106.3459388
  86.2360825  67.9368536 106.5027659  87.1405577  66.8096842 106.0518849
  90.0634275  63.5869473 110.6005325  89.2966670  63.0327960 110.7462007
  90.4744980  63.6591342 111.4619476  94.7453993  87.4424021 105.9152683
  93.9091305  87.7798708 106.2361957  94.6058762  87.3073001 104.9779820
  94.6192373  87.2871249 103.1150589  93.7421839  87.1660049 102.7512836
  95.0950126  86.4957327 102.8629478  92.3210841  88.2270251 106.6732245
  91.6280086  88.3014606 106.0172281  92.0762593  87.4630595 107.1953762
  97.3647682  88.2235636 102.9167700  96.4579137  87.9268748 102.9930413
  97.6423663  87.9265454 102.0501986  96.1346467  85.0822571 103.0579679
  96.9965631  85.4077469 103.3175496  96.3196811  84.2954067 102.5452745
  97.0875910  82.3218614 106.3459388  97.0754579  83.2660454 106.5027659
  97.9799331  82.1388759 106.0518849  46.5417586   1.6380146  92.1827152
  45.8679285   1.9411842  92.7912110  46.9283408   2.4409226  91.8332609
  50.5074327  -0.7834371  93.4566975  51.2025231  -0.1627678  93.6754290
  50.8497477  -1.6339020  93.7319353  44.5989195  -0.6772619  92.3642069
  44.0263162  -0.0582432  91.9112540  45.1721989  -0.1273258  92.8981990
  47.8186455  -0.3935469  93.4950651  48.7517128  -0.4589907  93.6983526
  47.7309668   0.4420798  93.0365183  50.4474472  -1.0769599  90.4554598
  50.3688103  -1.4109735  91.3490356  51.2684138  -0.5847831  90.4546071
  48.0178423  -3.7601603  90.0764577  48.7214273  -3.5551601  90.6922232
  47.2941072  -3.1924842  90.3413660  49.9265121  -3.3219074  92.1263037
  50.7610725  -3.7537876  91.9440512  49.7649464  -3.4937061  93.0539931
  58.5549396   7.1950577 102.2218213  59.1927806   7.0757324 101.5181554
  58.4370239   8.1431421 102.2806166  51.2225918   9.0013481  98.1476629
  50.6590783   8.9103418  97.3792917  51.1078313   8.1813386  98.6279122
  56.8025477  12.6684449  93.4591094  56.1513456  13.2538530  93.0725108
  57.5969839  13.1990644  93.5186132  50.7281104   9.7573586  93.8578228
  51.5011980   9.2102573  93.7191104  51.0806503  10.6217836  94.0692690
  53.0647382   5.9166252  91.4896678  53.3172902   5.3947774  90.7280141
  52.1271941   5.7532398  91.5923362  58.1090664   4.9202031  99.2971422
  58.8953754   4.5021454  98.9461839  58.3729369   5.8248123  99.4653070
  58.2800742  10.3574881  93.9960078  57.6446575  10.4309508  94.7080983
  57.9498148  10.9468480  93.3179158  63.5099091   4.8577264 100.2004400
  64.2424263   4.2876481 100.4342230  62.7538447   4.4698864 100.6410906
  52.7843670   7.8194358  93.6921053  52.6679928   7.1439262  94.3602138
  52.8945930   7.3326732  92.8753206  55.1275211   7.2804505  97.3967742
  54.7633418   6.7535126  98.1080664  55.9842327   6.8902974  97.2234228
  54.7680698   2.3094405  92.3929091  54.9355101   3.1774642  92.7599562
  54.5777867   2.4721687  91.4690380  54.7469919   4.7652063  93.3775758
  54.6269544   5.2109113  94.2161238  54.0522507   5.1137380  92.8189296
  52.5076811  17.5355704  97.0265889  52.4300841  18.4863529  97.1054370
  51.9038455  17.1901577  97.6840815  60.4454985   5.2373536  94.2056092
  61.3572841   5.4700923  94.0303789  59.9364632   5.8210580  93.6431170
  59.0524568  10.2199354 101.5969673  58.4233430  10.3845068 100.8945741
  58.6650230  10.6340964 102.3680637  62.9313799  11.1553792  98.9514037
  62.2464838  11.5352693  98.4011070  63.0157649  11.7649119  99.6845985
  54.6052529   9.9573762  98.8619758  55.0690875  10.2361465  98.0724381
  54.3409327   9.0557207  98.6792849  53.5421415   6.0796915  95.6709324
  54.2445459   6.5317958  96.1383250  53.2102044   5.4380734  96.2989217
  61.3010559  11.6785707 103.7231738  62.1228003  11.2765894 103.4414420
  61.2972962  11.5753941 104.6747854  69.3916552   8.0224455 100.0716709
  68.6380260   7.4531853  99.9160714  69.5264093   7.9887120 101.0187344
  54.7815180  12.8937857  95.7471429  54.6460855  13.7389393  96.1756277
  55.3224993  13.0957135  94.9837363  48.2344577  10.4113295  96.3199354
  48.7469098  11.2056546  96.4704919  48.8867290   9.7139586  96.2532955
  50.0439462  13.5279052  98.4022107  50.2206090  14.4497016  98.2143091
  50.8396296  13.2137471  98.8316487  51.1670778  15.0457225 104.4032449
  51.7178203  14.9174289 103.6309443  50.3282254  15.3452114 104.0527342
  46.1993494   8.7401950  97.0958924  47.0368716   9.1498958  96.8792632
  46.3771762   7.8001392  97.0659118  58.0957926   6.4077030  92.7842757
  57.5804550   7.1781635  93.0231145  57.8235235   5.7342166  93.4075819
  55.6805037   1.2526731  97.8427996  54.8246634   0.8633581  97.6633634
  56.0931989   1.3318692  96.9827781  63.0692200   9.1609385  94.7195931
  62.2921643   8.8220544  94.2751093  63.7483681   9.1662008  94.0450896
  57.8844230   4.2804122  94.6102539  57.5794365   4.5950272  95.4612682
  58.8374672   4.3585542  94.6529872  56.3290661  10.4394346  96.2595493
  55.8012023   9.7047105  95.9468730  55.8278164  11.2169022  96.0135461
  61.3083507   8.6343366 101.3762539  60.6507182   9.3242628 101.4642667
  62.1123907   9.0239798 101.7196525  60.1188966   6.9887739  99.4266481
  60.6320848   7.6217731  99.9288190  60.7690190   6.3888934  99.0609841
  51.3878976   3.1318473  92.6397989  50.5516288   3.4693160  92.9607264
  51.2483746   2.9967453  91.7025126  54.4743262   8.2574556  89.2630466
  53.5670323   8.0263809  89.4621615  54.9714294   7.4612175  89.4504447
  57.3811340  16.9672063  92.1827152  56.7073039  17.2703760  92.7912110
  57.7677162  17.7701144  91.8332609  57.3804845   5.8628610  96.8027501
  58.1276664   6.3750007  96.4934623  57.6496434   5.5412663  97.6631895
  55.6531495   8.3587151  93.7854456  54.7442714   8.0746184  93.8826925
  55.6826579   8.7786229  92.9257763  60.8850762  11.9693740  97.5545623
  60.4313090  11.1284650  97.6110814  60.2544729  12.6055139  97.8920403
  59.8283682   2.8985726  98.7846291  59.0906439   2.3863113  99.1156533
  60.0810456   2.4586108  97.9729568  59.3283702  13.8070237  98.4895441
  59.6206676  14.3675294  97.7707807  59.8382322  14.0998798  99.2448600
  54.2016389   5.9715771  99.8864251  54.2564999   5.0189608  99.8106728
  53.3907591   6.1275211 100.3705549  55.3507583   9.8995895  91.1242534
  54.9127013   9.1831753  90.6648172  56.0918024  10.1272009  90.5627626
  52.1408749   4.5892831  97.6454630  51.3276614   4.8887002  98.0519822
  52.6367743   4.1948520  98.3629112  54.2917327  14.5850588  99.5788895
  54.2493506  14.8111434  98.6497427  55.2080026  14.3513963  99.7274696
  63.4680698   8.1753092  97.1818853  63.3298596   8.3654688  96.2540042
  63.1116916   8.9372474  97.6386904  63.4950077  10.2429619 102.1930124
  63.9286584  10.1504908 103.0413178  64.2081658  10.2187119 101.5550140
  52.4083128  11.4613617  99.3750857  53.2023726  10.9663937  99.1733432
  51.6974820  10.9331480  99.0118563  57.2277972  13.8431713 103.7263225
  57.2814994  14.4122649 104.4940941  56.3592753  14.0133598 103.3617262
  48.7165891   5.6056699  95.4510610  47.7863479   5.5441154  95.6680572
  48.8123363   5.0832652  94.6547251  64.3565627  10.2853319 104.7263010
  64.5501517  11.1899130 104.9722285  64.2566245   9.8260738 105.5601595
  54.9854404  12.0342639 103.0548694  54.8465489  11.6661424 103.9274632
  54.1969000  12.5490279 102.8832652  55.5802556  17.1351736  94.3974231
  55.7554311  16.6639779  95.2119854  54.8935344  17.7617502  94.6255492
  56.5359619  11.4124242 100.4437532  56.2009451  11.3725012 101.3395182
  56.0363564  10.7468958  99.9707942  59.4718810   8.7580276  90.7174592
  58.8547981   8.0327104  90.6207644  59.0035299   9.5189636  90.3741666
  50.1463641  20.2841098 101.1714091  50.3860239  20.9159623 101.8493110
  49.3032837  19.9329138 101.4579450  51.2617356   2.9765700  89.8395896
  50.3846823   2.8554501  89.4758143  51.7375109   2.1851779  89.5874785
  54.6591503  16.0920221 103.5755595  54.5861674  16.8975192 104.0874900
  54.2168896  16.2912187 102.7503616  54.4481282  15.3291991  97.0858417
  53.6648804  15.8713671  97.1796641  55.1474028  15.8465970  97.4852658
  65.6107690   6.8426986 101.3710913  65.5997566   7.7251701 101.0004847
  64.7425069   6.4898537 101.1765451  57.1190186  15.9907055 105.7313754
  57.8318158  16.6254520 105.6589655  56.6280215  16.0870921 104.9153756
  58.8407713   9.8958308  97.3031045  57.9063992  10.0159770  97.1335750
  59.0184382   8.9930774  97.0391055  62.2280265   5.7375627  97.8381080
  62.6940717   6.5703618  97.7641382  62.6787765   5.2720608  98.5426338
  60.2956496  12.0819448  94.8367232  60.5716340  11.9676043  95.7461106
  59.4260994  11.6836933  94.7979405  56.9310560  16.3305799  98.4800045
  57.1132954  15.5127455  98.9427798  57.7543546  16.5473491  98.0424935
  57.2652725  15.2573984  95.7415094  57.7940492  14.7466439  95.1285256
  57.5280945  14.9416514  96.6060627  50.6208473  16.3089101  98.5012870
  49.9518848  16.7935228  98.0176910  50.4821343  16.5558321  99.4156248
  54.7613742  18.3432844 105.0995528  55.3132050  18.5064466 105.8644613
  55.1019935  18.9337282 104.4275553  45.9896050   4.5707556  95.2808802
  46.2849491   3.6618234  95.2275855  45.0884086   4.5495295  94.9589804
  57.8982129  16.2914820 102.0859210  57.7733268  15.4904560 101.5770156
  58.5561220  16.7861013 101.5973180  59.9617037  14.0923840 103.7138760
  59.0147373  13.9729191 103.6417087  60.3099810  13.2046338 103.7965022
  56.9663471  13.8876556  99.9143112  56.8188433  12.9593264 100.0950682
  57.7916964  13.9096647  99.4300188  50.8325715   2.5394623  95.7723605
  51.1721787   3.0680544  95.0502213  51.2797835   2.8775029  96.5482171
  60.5697592  14.7105115 101.0007985  61.4944140  14.5047976 100.8632436
  60.4012896  14.4621516 101.9097327  52.8193862   1.0369245  93.9716897
  53.5402225   1.4150498  93.4680614  52.1959166   1.7558122  94.0751875
  56.9624985   1.7414394  94.9075230  57.1788599   2.6239032  94.6064058
  56.4819052   1.3500607  94.1780872  60.3592909  15.2290782  96.3570077
  60.5329786  14.6637205  95.6043929  60.8521800  16.0291677  96.1749567
  66.2132300   7.9927205  97.9760376  66.6563446   7.2434530  97.5779500
  65.3358810   7.9837342  97.5934108  61.3468081  14.5457547  93.4566975
  62.0418986  15.1664239  93.6754290  61.6891231  13.6952898  93.7319353
  63.2459504  11.9957252  94.9854306  63.7710828  12.3344525  94.2603626
  63.1581857  11.0604268  94.8017440  54.9300165  18.0629235  99.3449559
  54.4905155  17.5705614 100.0382416  55.6808282  17.5202203  99.1041634
  47.4092504  14.2540776  99.3474187  48.2350524  13.9544548  98.9672830
  47.0586556  13.4848399  99.7963976  52.3774037  13.6067245 101.4171861
  51.7554046  12.9437950 101.1174088  53.0478904  13.6328376 100.7345508
  51.9387544  12.1571168  94.8930321  52.0875664  12.8406632  94.2396994
  52.7453988  12.1376258  95.4079777  65.7565165   9.4632444 100.3682824
  66.5912056   9.9022248 100.5320384  65.8924293   8.9871097  99.5491070
  49.6940177   8.1836346  95.8991390  49.4486219   7.2798676  96.0971600
  49.8636092   8.1853496  94.9570868  48.9635825   3.9164703  93.3977551
  48.2705070   3.9909058  92.7417587  48.7187576   3.1525047  93.9199068
  55.4382950  14.6519298  92.3642069  54.8656917  15.2709486  91.9112540
  56.0115743  15.2018660  92.8981990  58.6580209  14.9356449  93.4950651
  59.5910883  14.8702010  93.6983526  58.5703422  15.7712715  93.0365183
  61.2868226  14.2522319  90.4554598  61.2081858  13.9182182  91.3490356
  62.1077893  14.7444087  90.4546071  63.9846417   7.1184058 103.6630917
  63.9522737   6.1800059 103.8490601  64.5947041   7.1968095 102.9296742
  55.8229748   5.9880111  89.7058121  56.7688853   5.8586319  89.7746539
  55.4443993   5.2494773  90.1827549  69.8022967   8.1800065 102.8036954
  70.5326356   7.9185353 103.3644657  69.1929913   7.4428787 102.8439022
  67.8838264   6.3207928 103.4011405  67.1571428   6.1863893 102.7927897
  67.4685551   6.6284756 104.2068123  54.0072665   3.9130088  89.6413006
  53.1004121   3.6163200  89.7175720  54.2848646   3.6159906  88.7747292
  55.6234731  -1.5433023  95.7957248  54.8135459  -1.8885938  96.1712494
  56.3119148  -1.8525479  96.3844859  52.7771450   0.7717023  89.7824985
  53.6390614   1.0971921  90.0420803  52.9621794  -0.0151481  89.2698051
  60.9304086  -0.3554451  96.9260208  60.3502755   0.3030353  96.5438261
  60.6640019  -1.1777106  96.5147626  59.7128964   1.8045640  95.9816557
  58.8254819   2.0895290  95.7636751  60.1282953   1.6439403  95.1343834
  63.0643501   1.8292161  99.6970896  63.8403891   2.3188613  99.9695513
  62.3391635   2.2550215 100.1542765  65.5016059   2.5419780 100.7544837
  66.0960550   2.3015516 100.0438145  65.5742643   1.8226910 101.3818373
  47.7213215  16.3853391 101.0688001  47.5867683  15.6253792 100.5025999
  47.3045277  17.1094291 100.6016790  58.8572178  11.5690314  90.0764577
  59.5608028  11.7740317  90.6922232  58.1334827  12.1367076  90.3413660
  59.6869988   7.3200176  96.1966847  59.6305190   7.7768727  95.3574479
  60.2398331   6.5590860  96.0189690  63.4974794   3.1089907  97.0216966
  63.2411728   2.7086543  97.8525174  62.8727662   3.8233701  96.8967106
  67.8087132   5.8485981  99.5288258  67.2486690   5.9179170 100.3019820
  67.2030635   5.6726965  98.8087754  50.8782341  17.2822708 101.2806444
  50.7614725  18.2268140 101.1785134  50.0574787  16.9796269 101.6692243
  60.7658875  12.0072843  92.1263037  61.6004479  11.5754042  91.9440512
  60.6043218  11.8354857  93.0539931  60.4204767   8.5104957  93.4919376
  60.3653571   8.3449228  92.5507820  59.7950823   9.2180990  93.6481566
  53.7300893  -1.9886934  93.0704694  53.7179563  -1.0445094  93.2272965
  54.6224315  -2.1716789  92.7764156  51.9036855  17.9350970 104.4962372
  52.8064102  17.9674580 104.8128867  51.6774225  17.0051421 104.5108708
  53.6590457  16.6881956 101.1572451  52.7086088  16.6883818 101.0436823
  53.9622943  15.9414691 100.6408486  69.3943150  22.5242495 102.2218213
  70.0321560  22.4049242 101.5181554  69.2763993  23.4723339 102.2806166
  66.2032857  22.4769923 102.1579738  65.8651368  22.3610987 101.2700273
  67.0722625  22.0761088 102.1380744  62.0619672  24.3305399  98.1476629
  61.4984537  24.2395336  97.3792917  61.9472067  23.5105304  98.6279122
  66.6852640  23.6304774 108.1165944  66.6741280  23.2357573 107.2446447
  66.8473279  22.8970847 108.7099715  59.6084104  25.8256591 100.9860850
  60.4005396  25.4847415 100.5707149  59.8480754  25.9351566 101.9063003
  67.6419231  27.9976367  93.4591094  66.9907211  28.5830447  93.0725108
  68.4363594  28.5282562  93.5186132  61.5674858  25.0865504  93.8578228
  62.3405734  24.5394491  93.7191104  61.9200257  25.9509753  94.0692690
  63.4059901  26.4141886 107.0645128  63.1149767  27.3187517 106.9491794
  64.0416885  26.4558414 107.7789197  64.3316108  23.7918735 103.6546487
  64.9279680  23.5674757 102.9403450  64.3891079  23.0503480 104.2571935
  63.9041136  21.2458170  91.4896678  64.1566657  20.7239691  90.7280141
  62.9665695  21.0824315  91.5923362  68.9484419  20.2493948  99.2971422
  69.7347508  19.8313372  98.9461839  69.2123123  21.1540041  99.4653070
  69.1194496  25.6866799  93.9960078  68.4840329  25.7601425  94.7080983
  68.7891903  26.2760398  93.3179158  74.3492846  20.1869182 100.2004400
  75.0818018  19.6168398 100.4342230  73.5932202  19.7990782 100.6410906
  63.6237425  23.1486276  93.6921053  63.5073683  22.4731179  94.3602138
  63.7339685  22.6618650  92.8753206  65.9668966  22.6096423  97.3967742
  65.6027173  22.0827044  98.1080664  66.8236082  22.2194892  97.2234228
  71.8718266  13.8990756 104.6599009  71.5401591  14.7686167 104.4360224
  71.2763880  13.5827040 105.3393039  65.6074453  17.6386323  92.3929091
  65.7748855  18.5066559  92.7599562  65.4171622  17.8013605  91.4690380
  68.3649786  26.1003302 104.0594921  68.0650509  27.0028341 103.9510729
  68.0200845  25.8335485 104.9116074  61.8162267  22.5517099 100.0931626
  60.8912764  22.4193313 100.3009318  62.0646681  23.3311318 100.5901568
  71.7646930  18.6185842 101.7392359  70.8563807  18.5501250 101.4451120
  71.7134525  19.0957787 102.5674184  65.5863674  20.0943980  93.3775758
  65.4663299  20.5401031  94.2161238  64.8916262  20.4429298  92.8189296
  59.1771078  22.1950372 100.9275415  59.3063460  22.4484851 101.8414827
  58.4968530  22.7878080 100.6080070  63.3470566  32.8647622  97.0265889
  63.2694595  33.8155447  97.1054370  62.7432209  32.5193495  97.6840815
  65.8387795  20.0375487 109.6827256  65.0621129  20.5969408 109.6730121
  66.4778358  20.5232270 110.2042126  73.6308576  16.8202280 103.5170233
  72.9882956  17.1134813 102.8710027  73.1263505  16.7055201 104.3223429
  71.2848740  20.5665453  94.2056092  72.1966596  20.7992840  94.0303789
  70.7758387  21.1502498  93.6431170  64.0934168  22.8460941 109.2445223
  64.8348852  23.3845985 108.9680047  63.3871153  23.4727230 109.4016775
  69.5689507  24.9890081 107.8417384  69.9772863  24.5472492 107.0972017
  68.8466769  24.4142709 108.0951577  65.9220577  19.9262688 105.2150941
  66.7681773  20.3502102 105.3585590  65.8619215  19.2696312 105.9089505
  69.8918322  25.5491272 101.5969673  69.2627184  25.7136986 100.8945741
  69.5043984  25.9632881 102.3680637  73.7707554  26.4845710  98.9514037
  73.0858592  26.8644611  98.4011070  73.8551403  27.0941036  99.6845985
  69.0720023  17.5867056 106.8732115  68.8280955  18.3409117 106.3366391
  69.3479953  17.9652404 107.7079362  71.0258486  24.1305669 105.5509381
  71.2375381  24.7737429 104.8743762  70.9788234  23.2967985 105.0831311
  68.6284714  16.7423489 102.4545953  67.7669193  17.0404743 102.7462690
  68.6547149  16.9593888 101.5226985  65.4446284  25.2865680  98.8619758
  65.9084629  25.5653383  98.0724381  65.1803082  24.3849125  98.6792849
  62.3370365  24.8337162 101.7999522  62.9071722  25.2624430 101.1617006
  62.9278477  24.5519746 102.4983707  64.3815170  21.4088832  95.6709324
  65.0839213  21.8609876  96.1383250  64.0495798  20.7672651  96.2989217
  62.8295531  20.0000589 110.0460533  62.1994192  20.6816870 110.2795930
  62.7231619  19.8883671 109.1013671  58.1240504  19.6672385 100.9726457
  57.3339558  19.9229914 100.4966568  58.6151751  20.4820723 101.0778498
  72.1404313  27.0077624 103.7231738  72.9621757  26.6057812 103.4414420
  72.1366716  26.9045858 104.6747854  60.0755249  20.0316964  97.9309934
  59.2786413  20.1435659  98.4493430  59.8480841  20.3703617  97.0650824
  65.9060917  26.5561668 105.8792448  65.9705349  27.0182075 106.7150620
  65.1971841  25.9259032 106.0074758  56.4078207  19.9202875 103.4041448
  56.6586245  20.8049885 103.6699024  56.9437755  19.7407477 102.6316540
  80.2310307  23.3516373 100.0716709  79.4774015  22.7823771  99.9160714
  80.3657848  23.3179037 101.0187344  65.6208935  28.2229775  95.7471429
  65.4854609  29.0681311  96.1756277  66.1618747  28.4249053  94.9837363
  59.0738332  25.7405213  96.3199354  59.5862853  26.5348463  96.4704919
  59.7261045  25.0431503  96.2532955  60.8833217  28.8570969  98.4022107
  61.0599845  29.7788934  98.2143091  61.6790050  28.5429389  98.8316487
  65.0244235  15.7179234 110.0006041  65.7653949  16.3186387 109.9210503
  65.2562158  14.9756872 109.4424083  60.1685573  20.9035601 108.2784270
  60.0539088  20.0020858 108.5791369  59.3130091  21.1499298 107.9269087
  67.2477411  28.8453342 109.8771771  66.8041265  28.0589720 109.5592675
  67.9094625  29.0332492 109.2115662  62.0064532  30.3749143 104.4032449
  62.5571957  30.2466206 103.6309443  61.1676008  30.6744032 104.0527342
  69.3458649  29.1256141 107.9053172  69.3277124  29.9465022 107.4133441
  70.2678569  29.0010217 108.1303313  65.8031703  26.6400271 108.7476681
  66.3360040  25.8788559 108.5175988  65.2745784  26.3473923 109.4900835
  68.9701398  11.7460337 104.2770322  68.6265668  12.6361979 104.2009433
  69.3380361  11.5561995 103.4139907  57.0387249  24.0693867  97.0958924
  57.8762471  24.4790876  96.8792632  57.2165516  23.1293310  97.0659118
  68.9351681  21.7368948  92.7842757  68.4198304  22.5073553  93.0231145
  68.6628989  21.0634084  93.4075819  66.5198792  16.5818649  97.8427996
  65.6640388  16.1925499  97.6633634  66.9325744  16.6610610  96.9827781
  68.0497939  14.1164992 102.2419556  67.5462734  14.0795127 101.4287361
  68.3428545  15.0257735 102.3016212  64.2940824  14.2003722 101.2485737
  65.1593821  14.0046530 100.8891627  64.3618333  13.9714074 102.1755094
  73.9085955  24.4901303  94.7195931  73.1315398  24.1512462  94.2751093
  74.5877436  24.4953926  94.0450896  68.7237984  19.6096040  94.6102539
  68.4188120  19.9242189  95.4612682  69.6768426  19.6877460  94.6529872
  67.1684416  25.7686263  96.2595493  66.6405777  25.0339023  95.9468730
  66.6671919  26.5460940  96.0135461  72.1477262  23.9635284 101.3762539
  71.4900936  24.6534545 101.4642667  72.9517661  24.3531716 101.7196525
  61.9003143  16.4305930  98.6202104  62.4746895  16.2081111  97.8875297
  62.4874126  16.4994624  99.3730705  70.9582721  22.3179657  99.4266481
  71.4714602  22.9509648  99.9288190  71.6083945  21.7180852  99.0609841
  62.2272731  18.4610391  92.6397989  61.3910043  18.7985077  92.9607264
  62.0877500  18.3259371  91.7025126  64.2025811  13.3047179  97.3477173
  63.5490224  12.9896196  96.7233788  64.1606285  12.6822919  98.0736996
  65.3137016  23.5866474  89.2630466  64.4064078  23.3555727  89.4621615
  65.8108048  22.7904093  89.4504447  68.2205095  32.2963981  92.1827152
  67.5466794  32.5995678  92.7912110  68.6070917  33.0993061  91.8332609
  67.4363552  19.7929112 101.6724821  66.5186113  20.0144059 101.5146509
  67.8523695  19.8675423 100.8136528  68.2198599  21.1920528  96.8027501
  68.9670418  21.7041925  96.4934623  68.4890189  20.8704581  97.6631895
  66.4925249  23.6879069  93.7854456  65.5836469  23.4038101  93.8826925
  66.5220333  24.1078147  92.9257763  71.7244517  27.2985658  97.5545623
  71.2706844  26.4576568  97.6110814  71.0938484  27.9347056  97.8920403
  70.6677436  18.2277644  98.7846291  69.9300193  17.7155030  99.1156533
  70.9204210  17.7878026  97.9729568  70.1677456  29.1362155  98.4895441
  70.4600431  29.6967212  97.7707807  70.6776077  29.4290716  99.2448600
  70.7689064  11.0053896  99.3788060  71.0747941  10.1451260  99.0913975
  71.4941669  11.5971516  99.1787054  57.0613420  21.4084583  97.7669658
  56.8637820  20.8153943  97.0420724  56.5060084  21.1036793  98.4845597
  65.0410144  21.3007689  99.8864251  65.0958753  20.3481526  99.8106728
  64.2301346  21.4567128 100.3705549  66.1901337  25.2287812  91.1242534
  65.7520767  24.5123671  90.6648172  66.9311778  25.4563927  90.5627626
  62.9802503  19.9184749  97.6454630  62.1670369  20.2178919  98.0519822
  63.4761498  19.5240438  98.3629112  65.1311081  29.9142506  99.5788895
  65.0887260  30.1403352  98.6497427  66.0473780  29.6805880  99.7274696
  68.5776715  20.3826573 106.4769524  68.9326103  20.6098046 107.3363990
  69.2248846  20.7144950 105.8546779  74.3074452  23.5045009  97.1818853
  74.1692351  23.6946605  96.2540042  73.9510671  24.2664392  97.6386904
  62.4716578  17.4903104 103.2615865  63.1115958  17.3491864 102.5638828
  61.6394109  17.2037618 102.8854467  74.3343832  25.5721536 102.1930124
  74.7680338  25.4796825 103.0413178  75.0475412  25.5479037 101.5550140
  63.2476882  26.7905535  99.3750857  64.0417481  26.2955855  99.1733432
  62.5368574  26.2623398  99.0118563  68.0671727  29.1723630 103.7263225
  68.1208749  29.7414567 104.4940941  67.1986508  29.3425515 103.3617262
  59.5559646  20.9348617  95.4510610  58.6257234  20.8733072  95.6680572
  59.6517118  20.4124569  94.6547251  59.4745195  17.4603429  98.0388852
  59.7352012  18.3748763  97.9298012  60.2962367  16.9927872  98.1885464
  60.9470120  18.8741187 105.2087676  61.6193173  18.6658549 104.5600325
  60.1199906  18.6763273 104.7692908  75.1959381  25.6145237 104.7263010
  75.3895271  26.5191047 104.9722285  75.0959999  25.1552656 105.5601595
  66.8495692  15.5003127 107.2253337  66.2023607  16.1993077 107.1317813
  67.6196707  15.9339271 107.5929585  70.2574490  25.7651980 110.3003890
  70.1059996  25.5362531 109.3833974  70.2479169  26.7222581 110.3135235
  67.0259826  23.3383892 105.2850157  67.9551886  23.4895052 105.1119124
  66.6050856  23.4267913 104.4298803  65.8248158  27.3634557 103.0548694
  65.6859244  26.9953341 103.9274632  65.0362754  27.8782196 102.8832652
  66.4196310  32.4643653  94.3974231  66.5948066  31.9931696  95.2119854
  65.7329098  33.0909419  94.6255492  67.3753373  26.7416160 100.4437532
  67.0403206  26.7016929 101.3395182  66.8757319  26.0760875  99.9707942
  61.3497617  22.1483790 105.9690113  61.2117415  21.4164028 106.5701652
  62.2602541  22.0592690 105.6874301  70.3112565  24.0872194  90.7174592
  69.6941736  23.3619022  90.6207644  69.8429053  24.8481554  90.3741666
  63.9779918  21.8603749 105.4573793  64.6879536  21.2196941 105.4160411
  63.9349226  22.1116644 106.3799974  71.9666697  28.7971102 108.3780372
  71.9079243  28.1130322 107.7110955  72.3686215  29.5390092 107.9260998
  62.6908852  18.8468967 107.2769432  62.1546209  18.3959705 107.9291029
  62.1025560  18.9814876 106.5339897  60.9857395  35.6133016 101.1714091
  61.2253994  36.2451540 101.8493110  60.1426592  35.2621056 101.4579450
  62.1011111  18.3057618  89.8395896  61.2240577  18.1846419  89.4758143
  62.5768864  17.5143696  89.5874785  71.9684104  26.7610686 106.6094352
  71.0810883  26.4236608 106.7320751  72.5382655  26.0293717 106.8463117
  53.6213251  23.0934778  99.9337403  54.3084291  22.7796508  99.3458419
  53.4661380  23.9976143  99.6604655  58.4247973  17.9824974 104.3622427
  58.3406162  17.3750644 103.6272837  57.6030679  18.4733993 104.3631923
  65.4985257  31.4212138 103.5755595  65.4255429  32.2267110 104.0874900
  65.0562650  31.6204104 102.7503616  65.2875037  30.6583909  97.0858417
  64.5042559  31.2005589  97.1796641  65.9867782  31.1757888  97.4852658
  68.5971687  16.4678538  99.7292622  69.0940386  15.7148500  99.4093692
  67.8258668  16.5042855  99.1635831  76.4501444  22.1718904 101.3710913
  76.4391321  23.0543619 101.0004847  75.5818824  21.8190454 101.1765451
  67.9583941  31.3198973 105.7313754  68.6711913  31.9546437 105.6589655
  67.4673969  31.4162839 104.9153756  69.6801468  25.2250225  97.3031045
  68.7457746  25.3451688  97.1335750  69.8578136  24.3222692  97.0391055
  65.1806656  18.6095921  99.4564307  64.8104443  18.0566961 100.1445212
  65.6765748  18.0054054  98.9039307  73.0674019  21.0667544  97.8381080
  73.5334471  21.8995536  97.7641382  73.5181519  20.6012526  98.5426338
  63.0095854  29.0693416 106.5519325  63.7105314  29.7029899 106.7048719
  62.5390969  29.4108148 105.7914964  71.1350250  27.4111366  94.8367232
  71.4110094  27.2967960  95.7461106  70.2654749  27.0128851  94.7979405
  71.0390682  13.4348131 101.8771981  70.1253762  13.6652358 102.0454188
  71.4683783  13.5186576 102.7286013  70.8097140  21.6238023 104.3771875
  70.1568590  21.8713931 103.7224328  71.1877520  20.8102162 104.0434352
  67.7704314  31.6597717  98.4800045  67.9526709  30.8419373  98.9427798
  68.5937300  31.8765409  98.0424935  68.1046480  30.5865902  95.7415094
  68.6334246  30.0758356  95.1285256  68.3674699  30.2708432  96.6060627
  66.8584713  22.3657834 110.8637912  66.1825350  22.2651964 111.5340287
  67.6812347  22.2097048 111.3273909  58.6063572  28.6029771 103.4850427
  59.1917009  27.8573459 103.6178331  58.4088411  28.9133728 104.3687091
  61.4602228  31.6381018  98.5012870  60.7912603  32.1227146  98.0176910
  61.3215097  31.8850239  99.4156248  53.1981227  21.1735371 102.2054870
  53.2365327  20.6398962 102.9991988  52.6921520  20.6470577 101.5865848
  65.6007496  33.6724762 105.0995528  66.1525804  33.8356383 105.8644613
  65.9413690  34.2629200 104.4275553  60.5771989  16.0199912 105.7017413
  60.6413316  16.8814743 105.2894810  60.5139110  15.4073913 104.9689771
  70.4518370  28.4986019 110.9544182  70.9958274  29.1115978 110.4599137
  69.8705215  29.0565598 111.4711195  56.8289805  19.8999473  95.2808802
  57.1243246  18.9910152  95.2275855  55.9277840  19.8787213  94.9589804
  68.7375883  31.6206737 102.0859210  68.6127023  30.8196477 101.5770156
  69.3954975  32.1152931 101.5973180  60.3584052  17.9755470 101.2636350
  59.6370637  18.5891438 101.1243824  61.1477307  18.5113235 101.1852996
  70.8010792  29.4215758 103.7138760  69.8541127  29.3021109 103.6417087
  71.1493565  28.5338256 103.7965022  63.1610365  15.3109896 107.5377002
  63.6844767  15.5572193 108.3003311  62.9422698  16.1429931 107.1180139
  58.5577646  17.5813571  95.4048127  58.2290352  16.7010950  95.2223233
  58.9117017  17.5261240  96.2924516  67.8057225  29.2168474  99.9143112
  67.6582188  28.2885181 100.0950682  68.6310719  29.2388564  99.4300188
  61.6719469  17.8686541  95.7723605  62.0115542  18.3972462  95.0502213
  62.1191590  18.2066947  96.5482171  71.4091347  30.0397032 101.0007985
  72.3337894  29.8339894 100.8632436  71.2406650  29.7913434 101.9097327
  64.3662910  16.2523592 105.2226673  64.0259731  15.4531405 105.6247353
  63.6601916  16.5525302 104.6503506  65.0179382  13.3372904 103.6753996
  65.8405451  12.8633382 103.5532886  65.2617446  14.1163388 104.1752682
  63.6587617  16.3661162  93.9716897  64.3795979  16.7442415  93.4680614
  63.0352921  17.0850039  94.0751875  67.8018739  17.0706311  94.9075230
  68.0182354  17.9530949  94.6064058  67.3212807  16.6792525  94.1780872
  62.5417961  20.0292025 101.4845974  62.3962542  20.3432328 102.3770256
  62.0643164  20.6476925 100.9316873  64.4014344  17.0194573 101.5326864
  64.3875912  16.1235666 101.1959162  65.1186772  17.0265236 102.1665150
  66.2540474  17.4531913 103.5779991  65.9958252  18.3748983 103.5764322
  65.7225515  17.0562347 104.2680455  71.1986663  30.5582700  96.3570077
  71.3723541  29.9929122  95.6043929  71.6915554  31.3583595  96.1749567
  57.0163623  22.5697369 104.4233635  56.4717091  23.3457177 104.5553910
  57.8942973  22.9168174 104.2652757  63.8051240  15.9008953  96.8014434
  63.9267151  14.9725599  97.0005321  63.5153282  15.9147639  95.8892749
  66.6742430  13.5863863  99.9381154  66.6964127  13.6503196  98.9833133
  67.0910489  12.7468372 100.1321660  77.0526054  23.3219123  97.9760376
  77.4957200  22.5726448  97.5779500  76.1752565  23.3129259  97.5934108
  72.1861836  29.8749464  93.4566975  72.8812740  30.4956157  93.6754290
  72.5284986  29.0244816  93.7319353  57.8029645  21.6967265 107.3163792
  57.0611381  21.8449901 107.9028423  57.4822389  21.9575531 106.4530542
  74.0853259  27.3249170  94.9854306  74.6104583  27.6636443  94.2603626
  73.9975611  26.3896185  94.8017440  65.7473307  31.2383244 107.1144182
  66.0560434  30.9932390 107.9866882  66.5448789  31.4429882 106.6263053
  65.7693920  33.3921153  99.3449559  65.3298910  32.8997532 100.0382416
  66.5202036  32.8494121  99.1041634  58.2486258  29.5832694  99.3474187
  59.0744278  29.2836466  98.9672830  57.8980310  28.8140316  99.7963976
  63.2167792  28.9359162 101.4171861  62.5947801  28.2729867 101.1174088
  63.8872659  28.9620294 100.7345508  56.4494864  27.5019020 100.3063121
  55.6126772  27.0741195 100.1247122  56.4218509  27.6951464 101.2433912
  73.7747165  27.9582074 110.2905504  72.9842709  27.9406212 109.7510003
  73.5380519  28.4970367 111.0454540  73.8945040  24.8074540 107.6038232
  73.9443045  24.6424547 108.5453755  73.7858963  23.9401799 107.2136113
  62.7781299  27.4863086  94.8930321  62.9269419  28.1698550  94.2396994
  63.5847742  27.4668176  95.4079777  71.1848802  20.7905468 108.9197539
  72.0858665  20.6511933 108.6281537  71.2596777  20.9559923 109.8595716
  65.5191608  18.1672323 107.7650725  64.6494917  18.4605889 107.4933314
  65.7551088  18.7512768 108.4857989  75.3963237  27.2271481 107.8480254
  75.1048045  27.5901462 108.6843715  74.7835368  26.5138490 107.6693586
  76.5958919  24.7924361 100.3682824  77.4305810  25.2314165 100.5320384
  76.7318048  24.3163014  99.5491070  73.6450425  22.3504096 106.3160312
  74.1204547  22.5431742 105.5079163  72.7215990  22.4063282 106.0703695
  60.5333932  23.5128263  95.8991390  60.2879973  22.6090593  96.0971600
  60.7029846  23.5145414  94.9570868  68.2230641  14.3851940 105.2816146
  68.7412585  15.1212967 104.9562634  67.8685774  14.6915933 106.1162905
  59.8029579  19.2456621  93.3977551  59.1098824  19.3200976  92.7417587
  59.5581331  18.4816964  93.9199068  68.4743236  10.8052222 100.8017042
  68.7544989  10.1375411 101.4277469  69.2593843  10.9981318 100.2891706
  66.2776704  29.9811216  92.3642069  65.7050671  30.6001403  91.9112540
  66.8509498  30.5310578  92.8981990  72.3452094  19.2269856 104.5488617
  73.2969517  19.3267954 104.5700841  72.1755544  18.4348125 105.0586702
  70.3666473  16.3125439 104.7348018  69.7716406  16.5930452 104.0394507
  70.0816170  16.8019340 105.5064759  69.4973964  30.2648366  93.4950651
  70.4304637  30.1993928  93.6983526  69.4097177  31.1004633  93.0365183
  72.1261981  29.5814237  90.4554598  72.0475612  29.2474100  91.3490356
  72.9471647  30.0736004  90.4546071  74.8240172  22.4475976 103.6630917
  74.7916492  21.5091977 103.8490601  75.4340795  22.5260013 102.9296742
  66.6623503  21.3172029  89.7058121  67.6082607  21.1878237  89.7746539
  66.2837748  20.5786691  90.1827549  74.9734660  19.2387019 103.7089200
  74.4573709  18.4545476 103.5219129  75.8574609  18.9105736 103.8735720
  72.6345387  12.9828035  99.6685013  72.4370208  12.6743123 100.5528345
  73.2445093  13.7089674  99.7982943  80.6416722  23.5091983 102.8036954
  81.3720110  23.2477271 103.3644657  80.0323667  22.7720705 102.8439022
  78.7232019  21.6499845 103.4011405  77.9965182  21.5155810 102.7927897
  78.3079306  21.9576674 104.2068123  66.5462195  25.3689775 111.1658778
  67.4665205  25.5468374 111.3598825  66.5111778  24.4245820 111.0138477
  64.8466420  19.2422005  89.6413006  63.9397875  18.9455118  89.7175720
  65.1242401  18.9451823  88.7747292  55.7644360  20.5628369 100.0912053
  55.4447144  19.7093677  99.7986427  55.2177788  20.7776947 100.8470020
  59.5424268  23.2790810 103.8081559  59.7610277  24.2107917 103.8269593
  59.9550042  22.9198784 104.5936363  66.4628485  13.7858895  95.7957248
  65.6529214  13.4405980  96.1712494  67.1512902  13.4766439  96.3844859
  68.3919034  12.8636942  97.4181544  68.9450072  13.2832395  98.0771567
  68.6289120  11.9372690  97.4604500  63.6165204  16.1008940  89.7824985
  64.4784368  16.4263839  90.0420803  63.8015549  15.3140436  89.2698051
  55.6332620  24.1831280 102.0605174  54.9396092  23.7685233 101.5475129
  56.3805611  24.2251817 101.4638593  71.7697841  14.9737467  96.9260208
  71.1896510  15.6322271  96.5438261  71.5033774  14.1514811  96.5147626
  70.2201407  14.3742525  99.1281529  70.7201186  14.4859059  98.3195848
  70.8637015  14.0703577  99.7682337  64.2783403  22.2821154 112.0149370
  63.7950485  23.0821514 112.2213259  64.3644342  22.2929099 111.0616814
  57.5469363  24.1149534  99.9371189  57.5240051  24.2137221  98.9853072
  57.8569999  24.9614685 100.2588355  60.2056741  26.1725689 104.0517804
  61.1599994  26.1409631 103.9847735  60.0069264  25.7116313 104.8668029
  60.7956123  24.7426805 106.6188601  61.6149012  25.2370884 106.6423438
  61.0692930  23.8258773 106.5906169  70.5522719  17.1337557  95.9816557
  69.6648574  17.4187208  95.7636751  70.9676708  16.9731321  95.1343834
  73.9037255  17.1584078  99.6970896  74.6797645  17.6480531  99.9695513
  73.1785389  17.5842132 100.1542765  76.3409814  17.8711697 100.7544837
  76.9354304  17.6307433 100.0438145  76.4136397  17.1518828 101.3818373
  58.5606969  31.7145308 101.0688001  58.4261437  30.9545709 100.5025999
  58.1439032  32.4386208 100.6016790  69.6965932  26.8982232  90.0764577
  70.4001782  27.1032234  90.6922232  68.9728581  27.4658994  90.3413660
  70.5263743  22.6492093  96.1966847  70.4698944  23.1060645  95.3574479
  71.0792085  21.8882778  96.0189690  74.3368549  18.4381825  97.0216966
  74.0805483  18.0378461  97.8525174  73.7121417  19.1525619  96.8967106
  78.6480886  21.1777898  99.5288258  78.0880444  21.2471088 100.3019820
  78.0424390  21.0018883  98.8087754  61.7176095  32.6114625 101.2806444
  61.6008479  33.5560058 101.1785134  60.8968541  32.3088187 101.6692243
  71.6052630  27.3364761  92.1263037  72.4398234  26.9045960  91.9440512
  71.4436973  27.1646775  93.0539931  71.2598522  23.8396874  93.4919376
  71.2047326  23.6741146  92.5507820  70.6344577  24.5472907  93.6481566
  56.0491037  19.0764939 107.3180798  56.6949901  18.5663893 107.8068023
  55.8408188  19.8133620 107.8924224  68.5744429  26.1445786 112.8172939
  69.4435589  26.3186439 112.4559574  68.0951181  26.9640203 112.6948668
  64.5694647  13.3404983  93.0704694  64.5573317  14.2846823  93.2272965
  65.4618069  13.1575129  92.7764156  62.7430609  33.2642887 104.4962372
  63.6457856  33.2966498 104.8128867  62.5167979  32.3343338 104.5108708
  64.4984211  32.0173874 101.1572451  63.5479842  32.0175735 101.0436823
  64.8016697  31.2706608 100.6408486  68.3846767   9.9347760  97.3250631
  67.6179163   9.3806247  97.4707314  68.7957472  10.0069629  98.1864783
  80.2336905  37.8534412 102.2218213  80.8715315  37.7341160 101.5181554
  80.1157748  38.8015256 102.2806166  77.0426611  37.8061840 102.1579738
  76.7045123  37.6902905 101.2700273  77.9116379  37.4053005 102.1380744
  72.9013427  39.6597317  98.1476629  72.3378292  39.5687254  97.3792917
  72.7865822  38.8397221  98.6279122  77.5246394  38.9596692 108.1165944
  77.5135035  38.5649490 107.2446447  77.6867034  38.2262765 108.7099715
  70.4477859  41.1548508 100.9860850  71.2399151  40.8139333 100.5707149
  70.6874509  41.2643483 101.9063003  78.4812986  43.3268284  93.4591094
  77.8300965  43.9122365  93.0725108  79.2757348  43.8574479  93.5186132
  72.4068613  40.4157422  93.8578228  73.1799489  39.8686409  93.7191104
  72.7594012  41.2801671  94.0692690  74.2453655  41.7433804 107.0645128
  73.9543521  42.6479435 106.9491794  74.8810640  41.7850331 107.7789197
  75.1709862  39.1210652 103.6546487  75.7673434  38.8966675 102.9403450
  75.2284834  38.3795398 104.2571935  74.7434891  36.5750088  91.4896678
  74.9960411  36.0531609  90.7280141  73.8059450  36.4116233  91.5923362
  79.7878173  35.5785866  99.2971422  80.5741263  35.1605289  98.9461839
  80.0516878  36.4831958  99.4653070  79.9588251  41.0158716  93.9960078
  79.3234084  41.0893343  94.7080983  79.6285657  41.6052315  93.3179158
  85.1886600  35.5161099 100.2004400  85.9211772  34.9460316 100.4342230
  84.4325956  35.1282700 100.6410906  74.4631179  38.4778194  93.6921053
  74.3467437  37.8023097  94.3602138  74.5733439  37.9910568  92.8753206
  76.8062720  37.9388341  97.3967742  76.4420927  37.4118962  98.1080664
  77.6629836  37.5486810  97.2234228  82.7112021  29.2282673 104.6599009
  82.3795346  30.0978084 104.4360224  82.1157634  28.9118957 105.3393039
  76.4468207  32.9678240  92.3929091  76.6142610  33.8358477  92.7599562
  76.2565376  33.1305522  91.4690380  79.2043540  41.4295219 104.0594921
  78.9044263  42.3320258 103.9510729  78.8594600  41.1627403 104.9116074
  72.6556022  37.8809016 100.0931626  71.7306518  37.7485230 100.3009318
  72.9040435  38.6603235 100.5901568  82.6040684  33.9477760 101.7392359
  81.6957561  33.8793168 101.4451120  82.5528280  34.4249704 102.5674184
  76.4257428  35.4235898  93.3775758  76.3057053  35.8692949  94.2161238
  75.7310016  35.7721216  92.8189296  70.0164833  37.5242290 100.9275415
  70.1457214  37.7776769 101.8414827  69.3362284  38.1169998 100.6080070
  74.1864320  48.1939540  97.0265889  74.1088350  49.1447365  97.1054370
  73.5825964  47.8485412  97.6840815  76.6781550  35.3667405 109.6827256
  75.9014884  35.9261325 109.6730121  77.3172113  35.8524188 110.2042126
  84.4702331  32.1494198 103.5170233  83.8276711  32.4426731 102.8710027
  83.9657259  32.0347118 104.3223429  82.1242494  35.8957371  94.2056092
  83.0360350  36.1284758  94.0303789  81.6152141  36.4794415  93.6431170
  74.9327922  38.1752859 109.2445223  75.6742607  38.7137902 108.9680047
  74.2264908  38.8019147 109.4016775  80.4083262  40.3181999 107.8417384
  80.8166618  39.8764410 107.0972017  79.6860523  39.7434626 108.0951577
  76.7614332  35.2554606 105.2150941  77.6075527  35.6794019 105.3585590
  76.7012970  34.5988230 105.9089505  80.7312076  40.8783190 101.5969673
  80.1020939  41.0428904 100.8945741  80.3437739  41.2924799 102.3680637
  84.6101308  41.8137627  98.9514037  83.9252347  42.1936529  98.4011070
  84.6945158  42.4232954  99.6845985  79.9113777  32.9158974 106.8732115
  79.6674709  33.6701035 106.3366391  80.1873708  33.2944322 107.7079362
  81.8652240  39.4597586 105.5509381  82.0769135  40.1029346 104.8743762
  81.8181988  38.6259903 105.0831311  79.4678469  32.0715407 102.4545953
  78.6062948  32.3696661 102.7462690  79.4940904  32.2885806 101.5226985
  76.2840038  40.6157598  98.8619758  76.7478384  40.8945301  98.0724381
  76.0196836  39.7141042  98.6792849  73.1764119  40.1629079 101.7999522
  73.7465476  40.5916348 101.1617006  73.7672231  39.8811664 102.4983707
  75.2208924  36.7380750  95.6709324  75.9232968  37.1901794  96.1383250
  74.8889553  36.0964569  96.2989217  73.6689286  35.3292507 110.0460533
  73.0387947  36.0108788 110.2795930  73.5625374  35.2175588 109.1013671
  68.9634258  34.9964303 100.9726457  68.1733312  35.2521831 100.4966568
  69.4545506  35.8112641 101.0778498  82.9798068  42.3369542 103.7231738
  83.8015512  41.9349729 103.4414420  82.9760471  42.2337776 104.6747854
  70.9149004  35.3608882  97.9309934  70.1180167  35.4727576  98.4493430
  70.6874596  35.6995534  97.0650824  76.7454671  41.8853585 105.8792448
  76.8099104  42.3473992 106.7150620  76.0365595  41.2550950 106.0074758
  67.2471961  35.2494793 103.4041448  67.4980000  36.1341803 103.6699024
  67.7831510  35.0699395 102.6316540  91.0704061  38.6808290 100.0716709
  90.3167769  38.1115688  99.9160714  91.2051602  38.6470955 101.0187344
  76.4602689  43.5521693  95.7471429  76.3248364  44.3973228  96.1756277
  77.0012502  43.7540970  94.9837363  72.9470029  29.6313273 112.4085784
  72.5536974  29.0779471 113.0833428  73.7636169  29.9423851 112.7992302
  69.9132086  41.0697131  96.3199354  70.4256607  41.8640381  96.4704919
  70.5654799  40.3723421  96.2532955  71.7226971  44.1862887  98.4022107
  71.8993599  45.1080852  98.2143091  72.5183805  43.8721306  98.8316487
  75.8637990  31.0471152 110.0006041  76.6047703  31.6478305 109.9210503
  76.0955912  30.3048789 109.4424083  71.0079328  36.2327519 108.2784270
  70.8932843  35.3312776 108.5791369  70.1523845  36.4791216 107.9269087
  78.0871165  44.1745259 109.8771771  77.6435020  43.3881638 109.5592675
  78.7488379  44.3624410 109.2115662  72.8458287  45.7041061 104.4032449
  73.3965712  45.5758124 103.6309443  72.0069763  46.0035950 104.0527342
  80.1852403  44.4548059 107.9053172  80.1670879  45.2756940 107.4133441
  81.1072324  44.3302134 108.1303313  76.6425458  41.9692189 108.7476681
  77.1753794  41.2080477 108.5175988  76.1139539  41.6765840 109.4900835
  79.8095153  27.0752255 104.2770322  79.4659422  27.9653896 104.2009433
  80.1774115  26.8853912 103.4139907  67.8781003  39.3985785  97.0958924
  68.7156225  39.8082793  96.8792632  68.0559271  38.4585227  97.0659118
  79.7745435  37.0660866  92.7842757  79.2592059  37.8365470  93.0231145
  79.5022744  36.3926002  93.4075819  77.3592546  31.9110566  97.8427996
  76.5034143  31.5217417  97.6633634  77.7719498  31.9902527  96.9827781
  78.8891693  29.4456910 102.2419556  78.3856489  29.4087045 101.4287361
  79.1822300  30.3549652 102.3016212  75.1334579  29.5295639 101.2485737
  75.9987576  29.3338448 100.8891627  75.2012088  29.3005991 102.1755094
  84.7479709  39.8193220  94.7195931  83.9709152  39.4804380  94.2751093
  85.4271190  39.8245843  94.0450896  79.5631739  34.9387958  94.6102539
  79.2581874  35.2534107  95.4612682  80.5162181  35.0169378  94.6529872
  78.0078170  41.0978181  96.2595493  77.4799532  40.3630941  95.9468730
  77.5065673  41.8752857  96.0135461  82.9871016  39.2927202 101.3762539
  82.3294691  39.9826463 101.4642667  83.7911416  39.6823634 101.7196525
  72.7396898  31.7597847  98.6202104  73.3140650  31.5373029  97.8875297
  73.3267880  31.8286542  99.3730705  81.7976475  37.6471574  99.4266481
  82.3108357  38.2801566  99.9288190  82.4477699  37.0472770  99.0609841
  73.0666485  33.7902308  92.6397989  72.2303797  34.1276995  92.9607264
  72.9271255  33.6551288  91.7025126  75.0419566  28.6339096  97.3477173
  74.3883978  28.3188113  96.7233788  75.0000040  28.0114837  98.0736996
  76.1530771  38.9158391  89.2630466  75.2457832  38.6847645  89.4621615
  76.6501803  38.1196011  89.4504447  79.0598849  47.6255899  92.1827152
  78.3860548  47.9287595  92.7912110  79.4464671  48.4284979  91.8332609
  78.2757306  35.1221030 101.6724821  77.3579867  35.3435977 101.5146509
  78.6917450  35.1967340 100.8136528  79.0592354  36.5212445  96.8027501
  79.8064173  37.0333843  96.4934623  79.3283943  36.1996498  97.6631895
  77.3319004  39.0170986  93.7854456  76.4230223  38.7330019  93.8826925
  77.3614088  39.4370065  92.9257763  82.5638271  42.6277576  97.5545623
  82.1100598  41.7868486  97.6110814  81.9332238  43.2638974  97.8920403
  81.5071191  33.5569562  98.7846291  80.7693948  33.0446948  99.1156533
  81.7597964  33.1169943  97.9729568  81.0071211  44.4654072  98.4895441
  81.2994185  45.0259130  97.7707807  81.5169831  44.7582633  99.2448600
  81.6082818  26.3345814  99.3788060  81.9141695  25.4743177  99.0913975
  82.3335423  26.9263434  99.1787054  67.9007174  36.7376500  97.7669658
  67.7031574  36.1445861  97.0420724  67.3453838  36.4328711  98.4845597
  75.8803898  36.6299607  99.8864251  75.9352508  35.6773443  99.8106728
  75.0695100  36.7859046 100.3705549  77.0295092  40.5579730  91.1242534
  76.5914522  39.8415589  90.6648172  77.7705533  40.7855845  90.5627626
  73.8196258  35.2476667  97.6454630  73.0064123  35.5470837  98.0519822
  74.3155252  34.8532355  98.3629112  75.9704836  45.2434423  99.5788895
  75.9281015  45.4695270  98.6497427  76.8867535  45.0097798  99.7274696
  79.4170470  35.7118491 106.4769524  79.7719857  35.9389964 107.3363990
  80.0642601  36.0436868 105.8546779  85.1468207  38.8336927  97.1818853
  85.0086105  39.0238523  96.2540042  84.7904425  39.5956310  97.6386904
  73.3110333  32.8195022 103.2615865  73.9509712  32.6783781 102.5638828
  72.4787863  32.5329535 102.8854467  85.1737586  40.9013454 102.1930124
  85.6074093  40.8088743 103.0413178  85.8869167  40.8770954 101.5550140
  74.0870637  42.1197453  99.3750857  74.8811235  41.6247773  99.1733432
  73.3762329  41.5915316  99.0118563  78.9065481  44.5015548 103.7263225
  78.9602503  45.0706484 104.4940941  78.0380262  44.6717433 103.3617262
  70.3953400  36.2640534  95.4510610  69.4650988  36.2024990  95.6680572
  70.4910872  35.7416487  94.6547251  70.3138949  32.7895347  98.0388852
  70.5745766  33.7040680  97.9298012  71.1356121  32.3219790  98.1885464
  71.7863874  34.2033104 105.2087676  72.4586928  33.9950466 104.5600325
  70.9593661  34.0055190 104.7692908  86.0353136  40.9437155 104.7263010
  86.2289026  41.8482965 104.9722285  85.9353754  40.4844574 105.5601595
  77.6889446  30.8295045 107.2253337  77.0417361  31.5284995 107.1317813
  78.4590462  31.2631189 107.5929585  81.0968244  41.0943897 110.3003890
  80.9453751  40.8654449 109.3833974  81.0872924  42.0514499 110.3135235
  77.8653581  38.6675810 105.2850157  78.7945641  38.8186970 105.1119124
  77.4444611  38.7559831 104.4298803  76.6641913  42.6926474 103.0548694
  76.5252998  42.3245259 103.9274632  75.8756509  43.2074114 102.8832652
  77.2590065  47.7935571  94.3974231  77.4341820  47.3223614  95.2119854
  76.5722853  48.4201337  94.6255492  78.2147128  42.0708077 100.4437532
  77.8796960  42.0308847 101.3395182  77.7151073  41.4052793  99.9707942
  72.1891372  37.4775707 105.9690113  72.0511170  36.7455946 106.5701652
  73.0996295  37.3884607 105.6874301  81.1506319  39.4164112  90.7174592
  80.5335490  38.6910940  90.6207644  80.6822808  40.1773472  90.3741666
  74.8173672  37.1895667 105.4573793  75.5273291  36.5488859 105.4160411
  74.7742981  37.4408561 106.3799974  82.8060451  44.1263020 108.3780372
  82.7472997  43.4422240 107.7110955  83.2079969  44.8682010 107.9260998
  73.5302606  34.1760884 107.2769432  72.9939963  33.7251623 107.9291029
  72.9419315  34.3106793 106.5339897  71.8251150  50.9424934 101.1714091
  72.0647748  51.5743458 101.8493110  70.9820346  50.5912974 101.4579450
  72.9404865  33.6349536  89.8395896  72.0634332  33.5138337  89.4758143
  73.4162618  32.8435614  89.5874785  82.8077858  42.0902604 106.6094352
  81.9204637  41.7528526 106.7320751  83.3776409  41.3585635 106.8463117
  64.4607005  38.4226696  99.9337403  65.1478045  38.1088426  99.3458419
  64.3055134  39.3268060  99.6604655  69.2641728  33.3116892 104.3622427
  69.1799916  32.7042562 103.6272837  68.4424434  33.8025910 104.3631923
  76.3379012  46.7504056 103.5755595  76.2649183  47.5559028 104.0874900
  75.8956405  46.9496022 102.7503616  76.1268791  45.9875826  97.0858417
  75.3436313  46.5297506  97.1796641  76.8261537  46.5049806  97.4852658
  79.4365441  31.7970456  99.7292622  79.9334141  31.0440418  99.4093692
  78.6652423  31.8334772  99.1635831  87.2895199  37.5010821 101.3710913
  87.2785075  38.3835537 101.0004847  86.4212578  37.1482372 101.1765451
  78.7977695  46.6490890 105.7313754  79.5105667  47.2838355 105.6589655
  78.3067724  46.7454756 104.9153756  80.5195222  40.5542143  97.3031045
  79.5851501  40.6743605  97.1335750  80.6971891  39.6514610  97.0391055
  76.0200410  33.9387839  99.4564307  75.6498198  33.3858879 100.1445212
  76.5159503  33.3345972  98.9039307  83.9067773  36.3959462  97.8381080
  84.3728226  37.2287454  97.7641382  84.3575274  35.9304444  98.5426338
  73.8489609  44.3985334 106.5519325  74.5499068  45.0321817 106.7048719
  73.3784724  44.7400065 105.7914964  81.9744005  42.7403283  94.8367232
  82.2503848  42.6259878  95.7461106  81.1048503  42.3420768  94.7979405
  81.8784436  28.7640049 101.8771981  80.9647516  28.9944276 102.0454188
  82.3077538  28.8478493 102.7286013  81.6490895  36.9529941 104.3771875
  80.9962345  37.2005849 103.7224328  82.0271275  36.1394079 104.0434352
  78.6098069  46.9889634  98.4800045  78.7920463  46.1711290  98.9427798
  79.4331055  47.2057327  98.0424935  78.9440234  45.9157819  95.7415094
  79.4728001  45.4050274  95.1285256  79.2068454  45.6000350  96.6060627
  77.6978468  37.6949752 110.8637912  77.0219105  37.5943882 111.5340287
  78.5206102  37.5388966 111.3273909  69.4457327  43.9321689 103.4850427
  70.0310764  43.1865377 103.6178331  69.2482165  44.2425645 104.3687091
  72.2995982  46.9672936  98.5012870  71.6306357  47.4519064  98.0176910
  72.1608852  47.2142157  99.4156248  64.0374982  36.5027289 102.2054870
  64.0759081  35.9690880 102.9991988  63.5315274  35.9762494 101.5865848
  76.4401251  49.0016680 105.0995528  76.9919559  49.1648301 105.8644613
  76.7807444  49.5921117 104.4275553  71.4165744  31.3491829 105.7017413
  71.4807070  32.2106660 105.2894810  71.3532864  30.7365831 104.9689771
  70.8918016  33.4214962 109.3490447  71.5190055  33.0392039 109.9627971
  70.0345935  33.2029164 109.7146139  81.2912125  43.8277937 110.9544182
  81.8352029  44.4407895 110.4599137  80.7098970  44.3857516 111.4711195
  67.6683559  35.2291391  95.2808802  67.9637000  34.3202069  95.2275855
  66.7671595  35.2079131  94.9589804  79.5769638  46.9498655 102.0859210
  79.4520777  46.1488395 101.5770156  80.2348729  47.4444849 101.5973180
  71.1977806  33.3047388 101.2636350  70.4764392  33.9183355 101.1243824
  71.9871062  33.8405152 101.1852996  81.6404546  44.7507675 103.7138760
  80.6934882  44.6313026 103.6417087  81.9887319  43.8630173 103.7965022
  74.0004120  30.6401814 107.5377002  74.5238521  30.8864111 108.3003311
  73.7816453  31.4721849 107.1180139  69.3971401  32.9105489  95.4048127
  69.0684107  32.0302868  95.2223233  69.7510771  32.8553157  96.2924516
  78.6450980  44.5460391  99.9143112  78.4975942  43.6177099 100.0950682
  79.4704473  44.5680482  99.4300188  72.5113224  33.1978459  95.7723605
  72.8509296  33.7264380  95.0502213  72.9585344  33.5358865  96.5482171
  82.2485101  45.3688950 101.0007985  83.1731649  45.1631812 100.8632436
  82.0800405  45.1205351 101.9097327  75.2056665  31.5815509 105.2226673
  74.8653485  30.7823322 105.6247353  74.4995671  31.8817220 104.6503506
  75.8573137  28.6664822 103.6753996  76.6799206  28.1925300 103.5532886
  76.1011200  29.4455305 104.1752682  74.4981371  31.6953080  93.9716897
  75.2189734  32.0734333  93.4680614  73.8746675  32.4141957  94.0751875
  78.6412494  32.3998229  94.9075230  78.8576108  33.2822867  94.6064058
  78.1606561  32.0084443  94.1780872  73.3811715  35.3583942 101.4845974
  73.2356296  35.6724245 102.3770256  72.9036919  35.9768843 100.9316873
  75.2408098  32.3486490 101.5326864  75.2269667  31.4527584 101.1959162
  75.9580526  32.3557154 102.1665150  77.0934229  32.7823831 103.5779991
  76.8352007  33.7040901 103.5764322  76.5619269  32.3854265 104.2680455
  82.0380418  45.8874618  96.3570077  82.2117295  45.3221040  95.6043929
  82.5309309  46.6875513  96.1749567  67.8557377  37.8989287 104.4233635
  67.3110846  38.6749095 104.5553910  68.7336727  38.2460091 104.2652757
  74.6444994  31.2300871  96.8014434  74.7660905  30.3017517  97.0005321
  74.3547036  31.2439557  95.8892749  77.5136184  28.9155781  99.9381154
  77.5357881  28.9795114  98.9833133  77.9304243  28.0760290 100.1321660
  87.8919809  38.6511041  97.9760376  88.3350955  37.9018366  97.5779500
  87.0146319  38.6421177  97.5934108  83.0255590  45.2041382  93.4566975
  83.7206495  45.8248075  93.6754290  83.3678740  44.3536733  93.7319353
  68.6423399  37.0259183 107.3163792  67.9005135  37.1741818 107.9028423
  68.3216144  37.2867449 106.4530542  84.9247013  42.6541088  94.9854306
  85.4498337  42.9928360  94.2603626  84.8369366  41.7188103  94.8017440
  76.5867062  46.5675161 107.1144182  76.8954188  46.3224308 107.9866882
  77.3842544  46.7721800 106.6263053  76.6087674  48.7213071  99.3449559
  76.1692664  48.2289450 100.0382416  77.3595791  48.1786039  99.1041634
  69.0880013  44.9124612  99.3474187  69.9138033  44.6128384  98.9672830
  68.7374065  44.1432234  99.7963976  74.0561546  44.2651080 101.4171861
  73.4341555  43.6021785 101.1174088  74.7266413  44.2912212 100.7345508
  67.2888618  42.8310938 100.3063121  66.4520526  42.4033113 100.1247122
  67.2612263  43.0243382 101.2433912  74.1286074  32.7432868 111.0104367
  74.1774229  33.6194991 110.6282136  74.6708588  32.2010261 110.4376010
  84.6140919  43.2873991 110.2905504  83.8236463  43.2698130 109.7510003
  84.3774274  43.8262285 111.0454540  84.7338794  40.1366458 107.6038232
  84.7836799  39.9716465 108.5453755  84.6252718  39.2693717 107.2136113
  73.6175053  42.8155003  94.8930321  73.7663173  43.4990468  94.2396994
  74.4241497  42.7960093  95.4079777  82.0242557  36.1197386 108.9197539
  82.9252420  35.9803850 108.6281537  82.0990531  36.2851840 109.8595716
  76.3585362  33.4964240 107.7650725  75.4888671  33.7897806 107.4933314
  76.5944842  34.0804685 108.4857989  86.2356991  42.5563399 107.8480254
  85.9441800  42.9193380 108.6843715  85.6229122  41.8430407 107.6693586
  87.4352674  40.1216279 100.3682824  88.2699565  40.5606083 100.5320384
  87.5711802  39.6454932  99.5491070  84.4844179  37.6796014 106.3160312
  84.9598301  37.8723660 105.5079163  83.5609745  37.7355200 106.0703695
  71.3727686  38.8420181  95.8991390  71.1273728  37.9382511  96.0971600
  71.5423601  38.8437331  94.9570868  79.0624396  29.7143857 105.2816146
  79.5806340  30.4504884 104.9562634  78.7079529  30.0207851 106.1162905
  70.6423334  34.5748538  93.3977551  69.9492579  34.6492893  92.7417587
  70.3975085  33.8108882  93.9199068  79.3136990  26.1344140 100.8017042
  79.5938744  25.4667329 101.4277469  80.0987597  26.3273235 100.2891706
  77.1170459  45.3103134  92.3642069  76.5444426  45.9293321  91.9112540
  77.6903252  45.8602495  92.8981990  83.1845848  34.5561774 104.5488617
  84.1363271  34.6559871 104.5700841  83.0149299  33.7640042 105.0586702
  81.2060228  31.6417357 104.7348018  80.6110160  31.9222370 104.0394507
  80.9209925  32.1311258 105.5064759  80.3367718  45.5940284  93.4950651
  81.2698392  45.5285846  93.6983526  80.2490931  46.4296551  93.0365183
  82.9655735  44.9106154  90.4554598  82.8869367  44.5766018  91.3490356
  83.7865402  45.4027922  90.4546071  85.6633926  37.7767894 103.6630917
  85.6310246  36.8383894 103.8490601  86.2734550  37.8551930 102.9296742
  77.5017257  36.6463946  89.7058121  78.4476362  36.5170155  89.7746539
  77.1231502  35.9078608  90.1827549  85.8128415  34.5678937 103.7089200
  85.2967463  33.7837394 103.5219129  86.6968363  34.2397654 103.8735720
  83.4739142  28.3119953  99.6685013  83.2763963  28.0035041 100.5528345
  84.0838847  29.0381591  99.7982943  91.4810476  38.8383900 102.8036954
  92.2113865  38.5769188 103.3644657  90.8717422  38.1012622 102.8439022
  89.5625773  36.9791763 103.4011405  88.8358937  36.8447728 102.7927897
  89.1473060  37.2868592 104.2068123  77.3855950  40.6981693 111.1658778
  78.3058959  40.8760292 111.3598825  77.3505533  39.7537738 111.0138477
  75.6860174  34.5713923  89.6413006  74.7791630  34.2747036  89.7175720
  75.9636155  34.2743741  88.7747292  66.6038115  35.8920286 100.0912053
  66.2840899  35.0385594  99.7986427  66.0571543  36.1068864 100.8470020
  70.3818022  38.6082727 103.8081559  70.6004032  39.5399835 103.8269593
  70.7943796  38.2490702 104.5936363  77.3022240  29.1150813  95.7957248
  76.4922968  28.7697898  96.1712494  77.9906657  28.8058356  96.3844859
  79.2312788  28.1928859  97.4181544  79.7843827  28.6124313  98.0771567
  79.4682875  27.2664607  97.4604500  75.2545887  34.1815933 113.1984308
  75.1542614  35.1310290 113.1296399  75.0367430  33.8534172 112.3260378
  74.4558959  31.4300858  89.7824985  75.3178123  31.7555756  90.0420803
  74.6409303  30.6432354  89.2698051  66.4726375  39.5123198 102.0605174
  65.7789846  39.0977151 101.5475129  67.2199366  39.5543734 101.4638593
  82.6091595  30.3029385  96.9260208  82.0290264  30.9614189  96.5438261
  82.3427528  29.4806729  96.5147626  81.0595162  29.7034442  99.1281529
  81.5594940  29.8150977  98.3195848  81.7030770  29.3995495  99.7682337
  75.1177158  37.6113072 112.0149370  74.6344239  38.4113432 112.2213259
  75.2038097  37.6221017 111.0616814  68.3863117  39.4441452  99.9371189
  68.3633805  39.5429139  98.9853072  68.6963754  40.2906602 100.2588355
  71.0450495  41.5017607 104.0517804  71.9993749  41.4701549 103.9847735
  70.8463019  41.0408230 104.8668029  71.6349877  40.0718723 106.6188601
  72.4542766  40.5662801 106.6423438  71.9086685  39.1550691 106.5906169
  81.3916473  32.4629475  95.9816557  80.5042328  32.7479126  95.7636751
  81.8070462  32.3023238  95.1343834  84.7431010  32.4875996  99.6970896
  85.5191400  32.9772448  99.9695513  84.0179144  32.9134050 100.1542765
  87.1803568  33.2003615 100.7544837  87.7748059  32.9599351 100.0438145
  87.2530152  32.4810746 101.3818373  69.4000724  47.0437226 101.0688001
  69.2655192  46.2837627 100.5025999  68.9832786  47.7678126 100.6016790
  80.5359687  42.2274150  90.0764577  81.2395537  42.4324152  90.6922232
  79.8122336  42.7950911  90.3413660  81.3657497  37.9784011  96.1966847
  81.3092699  38.4352562  95.3574479  81.9185840  37.2174695  96.0189690
  85.1762303  33.7673743  97.0216966  84.9199237  33.3670378  97.8525174
  84.5515171  34.4817537  96.8967106  89.4874641  36.5069816  99.5288258
  88.9274199  36.5763005 100.3019820  88.8818144  36.3310801  98.8087754
  72.5569850  47.9406543 101.2806444  72.4402234  48.8851976 101.1785134
  71.7362296  47.6380105 101.6692243  82.4446384  42.6656679  92.1263037
  83.2791988  42.2337877  91.9440512  82.2830727  42.4938692  93.0539931
  82.0992276  39.1688792  93.4919376  82.0441080  39.0033064  92.5507820
  81.4738332  39.8764825  93.6481566  66.8884791  34.4056856 107.3180798
  67.5343655  33.8955810 107.8068023  66.6801943  35.1425538 107.8924224
  79.4138184  41.4737704 112.8172939  80.2829343  41.6478356 112.4559574
  78.9344935  42.2932121 112.6948668  75.4088402  28.6696901  93.0704694
  75.3967072  29.6138741  93.2272965  76.3011824  28.4867047  92.7764156
  73.5824364  48.5934805 104.4962372  74.4851611  48.6258415 104.8128867
  73.3561734  47.6635256 104.5108708  75.3377966  47.3465792 101.1572451
  74.3873597  47.3467653 101.0436823  75.6410452  46.5998526 100.6408486
  79.2240521  25.2639678  97.3250631  78.4572917  24.7098164  97.4707314
  79.6351226  25.3361547  98.1864783  71.2282282  31.5524474 111.4155812
  72.0913744  31.1961278 111.6259137  70.6547693  31.2138368 112.1031217
  91.0730659  53.1826330 102.2218213  91.7109069  53.0633077 101.5181554
  90.9551502  54.1307174 102.2806166  87.8820366  53.1353758 102.1579738
  87.5438877  53.0194823 101.2700273  88.7510134  52.7344923 102.1380744
  83.7407181  54.9889234  98.1476629  83.1772046  54.8979171  97.3792917
  83.6259576  54.1689139  98.6279122  88.3640149  54.2888610 108.1165944
  88.3528789  53.8941408 107.2446447  88.5260788  53.5554682 108.7099715
  81.2871613  56.4840426 100.9860850  82.0792905  56.1431251 100.5707149
  81.5268263  56.5935401 101.9063003  89.3206740  58.6560202  93.4591094
  88.6694720  59.2414283  93.0725108  90.1151103  59.1866397  93.5186132
  83.2462367  55.7449339  93.8578228  84.0193243  55.1978326  93.7191104
  83.5987766  56.6093589  94.0692690  85.0847410  57.0725722 107.0645128
  84.7937276  57.9771352 106.9491794  85.7204394  57.1142249 107.7789197
  86.0103617  54.4502570 103.6546487  86.6067189  54.2258592 102.9403450
  86.0678588  53.7087316 104.2571935  85.5828645  51.9042005  91.4896678
  85.8354166  51.3823527  90.7280141  84.6453204  51.7408151  91.5923362
  90.6271928  50.9077784  99.2971422  91.4135017  50.4897207  98.9461839
  90.8910632  51.8123876  99.4653070  90.7982005  56.3450634  93.9960078
  90.1627838  56.4185261  94.7080983  90.4679412  56.9344233  93.3179158
  96.0280355  50.8453017 100.2004400  96.7605527  50.2752234 100.4342230
  95.2719711  50.4574617 100.6410906  85.3024934  53.8070111  93.6921053
  85.1861192  53.1315015  94.3602138  85.4127194  53.3202485  92.8753206
  87.6456475  53.2680258  97.3967742  87.2814682  52.7410879  98.1080664
  88.5023591  52.8778728  97.2234228  93.5505775  44.5574591 104.6599009
  93.2189100  45.4270002 104.4360224  92.9551389  44.2410875 105.3393039
  87.2861962  48.2970158  92.3929091  87.4536364  49.1650395  92.7599562
  87.0959131  48.4597440  91.4690380  90.0437295  56.7587137 104.0594921
  89.7438018  57.6612176 103.9510729  89.6988354  56.4919320 104.9116074
  83.4949776  53.2100934 100.0931626  82.5700273  53.0777148 100.3009318
  83.7434190  53.9895153 100.5901568  93.4434439  49.2769677 101.7392359
  92.5351316  49.2085086 101.4451120  93.3922034  49.7541622 102.5674184
  87.2651183  50.7527816  93.3775758  87.1450808  51.1984866  94.2161238
  86.5703771  51.1013133  92.8189296  80.8558587  52.8534207 100.9275415
  80.9850969  53.1068686 101.8414827  80.1756039  53.4461915 100.6080070
  85.0258075  63.5231457  97.0265889  84.9482104  64.4739282  97.1054370
  84.4219718  63.1777330  97.6840815  87.5175304  50.6959323 109.6827256
  86.7408638  51.2553243 109.6730121  88.1565867  51.1816106 110.2042126
  95.3096085  47.4786116 103.5170233  94.6670465  47.7718649 102.8710027
  94.8051014  47.3639036 104.3223429  92.9636249  51.2249289  94.2056092
  93.8754105  51.4576676  94.0303789  92.4545896  51.8086333  93.6431170
  85.7721677  53.5044776 109.2445223  86.5136361  54.0429820 108.9680047
  85.0658662  54.1311065 109.4016775  91.2477016  55.6473917 107.8417384
  91.6560372  55.2056327 107.0972017  90.5254278  55.0726544 108.0951577
  87.6008086  50.5846523 105.2150941  88.4469282  51.0085937 105.3585590
  87.5406724  49.9280148 105.9089505  91.5705831  56.2075107 101.5969673
  90.9414693  56.3720821 100.8945741  91.1831493  56.6216717 102.3680637
  95.4495063  57.1429545  98.9514037  94.7646101  57.5228446  98.4011070
  95.5338912  57.7524872  99.6845985  90.7507532  48.2450892 106.8732115
  90.5068464  48.9992952 106.3366391  91.0267462  48.6236239 107.7079362
  92.7045994  54.7889504 105.5509381  92.9162890  55.4321264 104.8743762
  92.6575743  53.9551821 105.0831311  90.3072223  47.4007325 102.4545953
  89.4456702  47.6988578 102.7462690  90.3334658  47.6177724 101.5226985
  87.1233793  55.9449515  98.8619758  87.5872138  56.2237218  98.0724381
  86.8590591  55.0432960  98.6792849  84.0157874  55.4920997 101.7999522
  84.5859231  55.9208265 101.1617006  84.6065986  55.2103582 102.4983707
  86.0602679  52.0672668  95.6709324  86.7626722  52.5193711  96.1383250
  85.7283307  51.4256487  96.2989217  84.5083040  50.6584424 110.0460533
  83.8781701  51.3400705 110.2795930  84.4019128  50.5467506 109.1013671
  79.8028013  50.3256220 100.9726457  79.0127067  50.5813749 100.4966568
  80.2939260  51.1404558 101.0778498  93.8191822  57.6661460 103.7231738
  94.6409266  57.2641647 103.4414420  93.8154225  57.5629694 104.6747854
  81.7542758  50.6900800  97.9309934  80.9573922  50.8019494  98.4493430
  81.5268350  51.0287452  97.0650824  87.5848426  57.2145503 105.8792448
  87.6492858  57.6765910 106.7150620  86.8759350  56.5842868 106.0074758
  78.0865716  50.5786711 103.4041448  78.3373754  51.4633721 103.6699024
  78.6225264  50.3991312 102.6316540 101.9097815  54.0100208 100.0716709
 101.1561524  53.4407606  99.9160714 102.0445357  53.9762873 101.0187344
  87.2996444  58.8813610  95.7471429  87.1642118  59.7265146  96.1756277
  87.8406256  59.0832888  94.9837363  83.7863783  44.9605190 112.4085784
  83.3930729  44.4071389 113.0833428  84.6029923  45.2715769 112.7992302
  80.7525841  56.3989048  96.3199354  81.2650361  57.1932299  96.4704919
  81.4048554  55.7015339  96.2532955  82.5620726  59.5154805  98.4022107
  82.7387354  60.4372769  98.2143091  83.3577559  59.2013224  98.8316487
  86.7031744  46.3763069 110.0006041  87.4441458  46.9770222 109.9210503
  86.9349667  45.6340707 109.4424083  81.8473082  51.5619437 108.2784270
  81.7326597  50.6604694 108.5791369  80.9917600  51.8083133 107.9269087
  88.9264920  59.5037177 109.8771771  88.4828774  58.7173555 109.5592675
  89.5882133  59.6916327 109.2115662  83.6852041  61.0332978 104.4032449
  84.2359466  60.9050042 103.6309443  82.8463517  61.3327867 104.0527342
  91.0246158  59.7839977 107.9053172  91.0064633  60.6048858 107.4133441
  91.9466078  59.6594052 108.1303313  87.4819212  57.2984106 108.7476681
  88.0147549  56.5372394 108.5175988  86.9533293  57.0057758 109.4900835
  90.6488907  42.4044172 104.2770322  90.3053176  43.2945814 104.2009433
  91.0167870  42.2145830 103.4139907  78.7174758  54.7277703  97.0958924
  79.5549980  55.1374711  96.8792632  78.8953025  53.7877145  97.0659118
  90.6139190  52.3952783  92.7842757  90.0985813  53.1657388  93.0231145
  90.3416498  51.7217920  93.4075819  88.1986301  47.2402484  97.8427996
  87.3427897  46.8509335  97.6633634  88.6113253  47.3194445  96.9827781
  89.7285447  44.7748827 102.2419556  89.2250243  44.7378963 101.4287361
  90.0216054  45.6841570 102.3016212  85.9728333  44.8587557 101.2485737
  86.8381330  44.6630366 100.8891627  86.0405842  44.6297909 102.1755094
  95.5873464  55.1485138  94.7195931  94.8102907  54.8096297  94.2751093
  96.2664945  55.1537761  94.0450896  90.4025493  50.2679875  94.6102539
  90.0975629  50.5826025  95.4612682  91.3555935  50.3461295  94.6529872
  88.8471925  56.4270099  96.2595493  88.3193286  55.6922858  95.9468730
  88.3459428  57.2044775  96.0135461  93.8264771  54.6219119 101.3762539
  93.1688445  55.3118381 101.4642667  94.6305170  55.0115551 101.7196525
  83.5790652  47.0889765  98.6202104  84.1534404  46.8664947  97.8875297
  84.1661635  47.1578460  99.3730705  92.6370230  52.9763492  99.4266481
  93.1502111  53.6093484  99.9288190  93.2871454  52.3764687  99.0609841
  83.9060240  49.1194226  92.6397989  83.0697552  49.4568913  92.9607264
  83.7665009  48.9843206  91.7025126  85.8813320  43.9631014  97.3477173
  85.2277733  43.6480031  96.7233788  85.8393794  43.3406754  98.0736996
  86.9924525  54.2450309  89.2630466  86.0851587  54.0139562  89.4621615
  87.4895557  53.4487928  89.4504447  89.8992604  62.9547816  92.1827152
  89.2254303  63.2579513  92.7912110  90.2858426  63.7576897  91.8332609
  89.1151061  50.4512947 101.6724821  88.1973622  50.6727894 101.5146509
  89.5311204  50.5259258 100.8136528  89.8986108  51.8504363  96.8027501
  90.6457927  52.3625760  96.4934623  90.1677698  51.5288416  97.6631895
  88.1712758  54.3462904  93.7854456  87.2623978  54.0621937  93.8826925
  88.2007842  54.7661982  92.9257763  93.4032026  57.9569493  97.5545623
  92.9494353  57.1160403  97.6110814  92.7725993  58.5930892  97.8920403
  92.3464945  48.8861479  98.7846291  91.6087702  48.3738866  99.1156533
  92.5991719  48.4461861  97.9729568  91.8464965  59.7945990  98.4895441
  92.1387939  60.3551047  97.7707807  92.3563586  60.0874551  99.2448600
  92.4476573  41.6637731  99.3788060  92.7535450  40.8035095  99.0913975
  93.1729178  42.2555352  99.1787054  78.7400929  52.0668418  97.7669658
  78.5425329  51.4737779  97.0420724  78.1847593  51.7620628  98.4845597
  86.7197652  51.9591524  99.8864251  86.7746262  51.0065361  99.8106728
  85.9088855  52.1150964 100.3705549  87.8688846  55.8871648  91.1242534
  87.4308276  55.1707506  90.6648172  88.6099287  56.1147762  90.5627626
  84.6590012  50.5768584  97.6454630  83.8457878  50.8762755  98.0519822
  85.1549007  50.1824273  98.3629112  86.8098590  60.5726341  99.5788895
  86.7674769  60.7987187  98.6497427  87.7261289  60.3389716  99.7274696
  90.2564224  51.0410409 106.4769524  90.6113612  51.2681882 107.3363990
  90.9036355  51.3728786 105.8546779  95.9861961  54.1628845  97.1818853
  95.8479860  54.3530441  96.2540042  95.6298180  54.9248227  97.6386904
  84.1504087  48.1486940 103.2615865  84.7903467  48.0075699 102.5638828
  83.3181618  47.8621453 102.8854467  96.0131341  56.2305372 102.1930124
  96.4467847  56.1380661 103.0413178  96.7262921  56.2062872 101.5550140
  84.9264391  57.4489370  99.3750857  85.7204990  56.9539690  99.1733432
  84.2156083  56.9207233  99.0118563  89.7459236  59.8307466 103.7263225
  89.7996258  60.3998402 104.4940941  88.8774017  60.0009351 103.3617262
  81.2347155  51.5932452  95.4510610  80.3044743  51.5316907  95.6680572
  81.3304627  51.0708405  94.6547251  81.1532704  48.1187265  98.0388852
  81.4139521  49.0332598  97.9298012  81.9749876  47.6511707  98.1885464
  82.6257629  49.5325022 105.2087676  83.2980682  49.3242384 104.5600325
  81.7987415  49.3347108 104.7692908  96.8746890  56.2729072 104.7263010
  97.0682780  57.1774883 104.9722285  96.7747508  55.8136491 105.5601595
  88.5283201  46.1586963 107.2253337  87.8811116  46.8576913 107.1317813
  89.2984216  46.5923107 107.5929585  91.9361999  56.4235815 110.3003890
  91.7847505  56.1946367 109.3833974  91.9266678  57.3806416 110.3135235
  88.7047335  53.9967728 105.2850157  89.6339395  54.1478887 105.1119124
  88.2838365  54.0851749 104.4298803  87.5035667  58.0218392 103.0548694
  87.3646753  57.6537177 103.9274632  86.7150263  58.5366032 102.8832652
  88.0983819  63.1227489  94.3974231  88.2735575  62.6515532  95.2119854
  87.4116607  63.7493255  94.6255492  89.0540882  57.3999995 100.4437532
  88.7190715  57.3600765 101.3395182  88.5544828  56.7344711  99.9707942
  83.0285126  52.8067625 105.9690113  82.8904924  52.0747864 106.5701652
  83.9390050  52.7176525 105.6874301  91.9900074  54.7456029  90.7174592
  91.3729245  54.0202857  90.6207644  91.5216562  55.5065389  90.3741666
  85.6567427  52.5187584 105.4573793  86.3667045  51.8780776 105.4160411
  85.6136735  52.7700479 106.3799974  93.6454206  59.4554938 108.3780372
  93.5866752  58.7714158 107.7110955  94.0473724  60.1973928 107.9260998
  84.3696361  49.5052802 107.2769432  83.8333718  49.0543541 107.9291029
  83.7813069  49.6398711 106.5339897  82.6644904  66.2716851 101.1714091
  82.9041503  66.9035376 101.8493110  81.8214101  65.9204891 101.4579450
  83.7798620  48.9641454  89.8395896  82.9028086  48.8430254  89.4758143
  84.2556373  48.1727532  89.5874785  93.6471613  57.4194522 106.6094352
  92.7598392  57.0820443 106.7320751  94.2170164  56.6877553 106.8463117
  75.3000760  53.7518613  99.9337403  75.9871800  53.4380343  99.3458419
  75.1448889  54.6559978  99.6604655  80.1035482  48.6408810 104.3622427
  80.0193671  48.0334479 103.6272837  79.2818188  49.1317828 104.3631923
  87.1772766  62.0795974 103.5755595  87.1042938  62.8850945 104.0874900
  86.7350159  62.2787940 102.7503616  86.9662546  61.3167744  97.0858417
  86.1830068  61.8589424  97.1796641  87.6655291  61.8341724  97.4852658
  90.2759196  47.1262373  99.7292622  90.7727895  46.3732336  99.4093692
  89.5046177  47.1626690  99.1635831  98.1288953  52.8302739 101.3710913
  98.1178830  53.7127454 101.0004847  97.2606333  52.4774290 101.1765451
  89.6371450  61.9782808 105.7313754  90.3499422  62.6130273 105.6589655
  89.1461478  62.0746674 104.9153756  91.3588977  55.8834061  97.3031045
  90.4245255  56.0035523  97.1335750  91.5365645  54.9806527  97.0391055
  86.8594165  49.2679756  99.4564307  86.4891952  48.7150797 100.1445212
  87.3553257  48.6637890  98.9039307  94.7461528  51.7251380  97.8381080
  95.2121980  52.5579371  97.7641382  95.1969028  51.2596361  98.5426338
  84.6883363  59.7277251 106.5519325  85.3892823  60.3613734 106.7048719
  84.2178478  60.0691983 105.7914964  92.8137759  58.0695201  94.8367232
  93.0897603  57.9551796  95.7461106  91.9442258  57.6712686  94.7979405
  92.7178191  44.0931967 101.8771981  91.8041271  44.3236194 102.0454188
  93.1471292  44.1770411 102.7286013  92.4884649  52.2821859 104.3771875
  91.8356099  52.5297766 103.7224328  92.8665029  51.4685997 104.0434352
  89.4491823  62.3181552  98.4800045  89.6314218  61.5003208  98.9427798
  90.2724809  62.5349244  98.0424935  89.7833989  61.2449737  95.7415094
  90.3121755  60.7342192  95.1285256  90.0462208  60.9292267  96.6060627
  88.5372222  53.0241670 110.8637912  87.8612859  52.9235799 111.5340287
  89.3599856  52.8680884 111.3273909  80.2851081  59.2613606 103.4850427
  80.8704518  58.5157294 103.6178331  80.0875920  59.5717563 104.3687091
  83.1389737  62.2964854  98.5012870  82.4700112  62.7810981  98.0176910
  83.0002606  62.5434074  99.4156248  74.8768736  51.8319207 102.2054870
  74.9152836  51.2982797 102.9991988  74.3709029  51.3054412 101.5865848
  87.2795005  64.3308597 105.0995528  87.8313313  64.4940219 105.8644613
  87.6201199  64.9213035 104.4275553  82.2559498  46.6783747 105.7017413
  82.3200825  47.5398578 105.2894810  82.1926619  46.0657749 104.9689771
  81.7311771  48.7506880 109.3490447  82.3583810  48.3683957 109.9627971
  80.8739690  48.5321082 109.7146139  92.1305879  59.1569855 110.9544182
  92.6745783  59.7699813 110.4599137  91.5492724  59.7149433 111.4711195
  78.5077314  50.5583309  95.2808802  78.8030755  49.6493987  95.2275855
  77.6065349  50.5371048  94.9589804  90.4163392  62.2790573 102.0859210
  90.2914532  61.4780313 101.5770156  91.0742484  62.7736766 101.5973180
  82.0371561  48.6339305 101.2636350  81.3158146  49.2475273 101.1243824
  82.8264816  49.1697070 101.1852996  92.4798301  60.0799593 103.7138760
  91.5328636  59.9604944 103.6417087  92.8281074  59.1922091 103.7965022
  84.8397874  45.9693732 107.5377002  85.3632276  46.2156028 108.3003311
  84.6210207  46.8013767 107.1180139  80.2365155  48.2397406  95.4048127
  79.9077861  47.3594785  95.2223233  80.5904526  48.1845075  96.2924516
  89.4844734  59.8752309  99.9143112  89.3369697  58.9469017 100.0950682
  90.3098228  59.8972400  99.4300188  83.3506978  48.5270376  95.7723605
  83.6903051  49.0556297  95.0502213  83.7979099  48.8650782  96.5482171
  93.0878856  60.6980868 101.0007985  94.0125403  60.4923729 100.8632436
  92.9194159  60.4497269 101.9097327  86.0450419  46.9107427 105.2226673
  85.7047240  46.1115240 105.6247353  85.3389425  47.2109138 104.6503506
  86.6966891  43.9956739 103.6753996  87.5192960  43.5217218 103.5532886
  86.9404955  44.7747223 104.1752682  85.3375126  47.0244998  93.9716897
  86.0583488  47.4026251  93.4680614  84.7140430  47.7433875  94.0751875
  89.4806248  47.7290147  94.9075230  89.6969863  48.6114785  94.6064058
  89.0000316  47.3376360  94.1780872  84.2205470  50.6875860 101.4845974
  84.0750050  51.0016163 102.3770256  83.7430673  51.3060760 100.9316873
  86.0801853  47.6778408 101.5326864  86.0663421  46.7819501 101.1959162
  86.7974281  47.6849072 102.1665150  87.9327983  48.1115748 103.5779991
  87.6745761  49.0332819 103.5764322  87.4013024  47.7146183 104.2680455
  92.8774172  61.2166535  96.3570077  93.0511050  60.6512958  95.6043929
  93.3703063  62.0167430  96.1749567  78.6951132  53.2281204 104.4233635
  78.1504600  54.0041012 104.5553910  79.5730482  53.5752009 104.2652757
  85.4838749  46.5592788  96.8014434  85.6054660  45.6309434  97.0005321
  85.1940791  46.5731474  95.8892749  88.3529939  44.2447699  99.9381154
  88.3751636  44.3087032  98.9833133  88.7697998  43.4052207 100.1321660
  98.7313563  53.9802958  97.9760376  99.1744709  53.2310283  97.5779500
  97.8540074  53.9713095  97.5934108  93.8649345  60.5333300  93.4566975
  94.5600249  61.1539992  93.6754290  94.2072495  59.6828651  93.7319353
  79.4817154  52.3551101 107.3163792  78.7398890  52.5033736 107.9028423
  79.1609898  52.6159366 106.4530542  95.7640768  57.9833005  94.9854306
  96.2892092  58.3220278  94.2603626  95.6763120  57.0480021  94.8017440
  87.4260816  61.8967079 107.1144182  87.7347943  61.6516226 107.9866882
  88.2236298  62.1013717 106.6263053  87.4481428  64.0504989  99.3449559
  87.0086419  63.5581367 100.0382416  88.1989545  63.5077956  99.1041634
  79.9273767  60.2416529  99.3474187  80.7531787  59.9420301  98.9672830
  79.5767819  59.4724152  99.7963976  84.8955301  59.5942998 101.4171861
  84.2735310  58.9313703 101.1174088  85.5660168  59.6204130 100.7345508
  78.1282373  58.1602856 100.3063121  77.2914281  57.7325030 100.1247122
  78.1006018  58.3535299 101.2433912  84.9679828  48.0724786 111.0104367
  85.0167984  48.9486908 110.6282136  85.5102342  47.5302179 110.4376010
  95.4534674  58.6165909 110.2905504  94.6630218  58.5990048 109.7510003
  95.2168028  59.1554203 111.0454540  95.5732549  55.4658375 107.6038232
  95.6230554  55.3008383 108.5453755  95.4646472  54.5985634 107.2136113
  84.4568808  58.1446921  94.8930321  84.6056928  58.8282385  94.2396994
  85.2635251  58.1252011  95.4079777  92.8636311  51.4489303 108.9197539
  93.7646174  51.3095768 108.6281537  92.9384286  51.6143758 109.8595716
  87.1979117  48.8256158 107.7650725  86.3282426  49.1189724 107.4933314
  87.4338597  49.4096603 108.4857989  97.0750746  57.8855317 107.8480254
  96.7835554  58.2485297 108.6843715  96.4622877  57.1722325 107.6693586
  98.2746428  55.4508197 100.3682824  99.1093319  55.8898001 100.5320384
  98.4105557  54.9746850  99.5491070  95.3237934  53.0087931 106.3160312
  95.7992056  53.2015578 105.5079163  94.4003499  53.0647117 106.0703695
  82.2121441  54.1712099  95.8991390  81.9667482  53.2674429  96.0971600
  82.3817355  54.1729249  94.9570868  89.9018150  45.0435775 105.2816146
  90.4200094  45.7796802 104.9562634  89.5473283  45.3499768 106.1162905
  81.4817088  49.9040456  93.3977551  80.7886333  49.9784811  92.7417587
  81.2368840  49.1400800  93.9199068  90.1530745  41.4636058 100.8017042
  90.4332498  40.7959247 101.4277469  90.9381352  41.6565153 100.2891706
  87.9564213  60.6395051  92.3642069  87.3838180  61.2585239  91.9112540
  88.5297007  61.1894413  92.8981990  94.0239603  49.8853691 104.5488617
  94.9757026  49.9851789 104.5700841  93.8543053  49.0931960 105.0586702
  92.0453982  46.9709275 104.7348018  91.4503915  47.2514287 104.0394507
  91.7603679  47.4603176 105.5064759  91.1761473  60.9232202  93.4950651
  92.1092146  60.8577763  93.6983526  91.0884686  61.7588468  93.0365183
  93.8049490  60.2398072  90.4554598  93.7263121  59.9057935  91.3490356
  94.6259156  60.7319840  90.4546071  96.5027681  53.1059811 103.6630917
  96.4704001  52.1675812 103.8490601  97.1128304  53.1843848 102.9296742
  88.3411012  51.9755864  89.7058121  89.2870116  51.8462072  89.7746539
  87.9625257  51.2370526  90.1827549  96.6522169  49.8970855 103.7089200
  96.1361218  49.1129311 103.5219129  97.5362118  49.5689571 103.8735720
  94.3132896  43.6411870  99.6685013  94.1157717  43.3326958 100.5528345
  94.9232602  44.3673509  99.7982943 102.3204231  54.1675818 102.8036954
 103.0507619  53.9061106 103.3644657 101.7111176  53.4304540 102.8439022
 100.4019528  52.3083681 103.4011405  99.6752691  52.1739646 102.7927897
  99.9866815  52.6160509 104.2068123  88.2249704  56.0273610 111.1658778
  89.1452714  56.2052209 111.3598825  88.1899287  55.0829656 111.0138477
  86.5253929  49.9005841  89.6413006  85.6185384  49.6038953  89.7175720
  86.8029910  49.6035659  88.7747292  77.4431869  51.2212204 100.0912053
  77.1234653  50.3677512  99.7986427  76.8965297  51.4360782 100.8470020
  81.2211777  53.9374645 103.8081559  81.4397786  54.8691753 103.8269593
  81.6337550  53.5782619 104.5936363  88.1415994  44.4442730  95.7957248
  87.3316723  44.0989815  96.1712494  88.8300411  44.1350274  96.3844859
  90.0706543  43.5220777  97.4181544  90.6237581  43.9416230  98.0771567
  90.3076629  42.5956525  97.4604500  86.0939642  49.5107851 113.1984308
  85.9936369  50.4602208 113.1296399  85.8761184  49.1826090 112.3260378
  85.2952713  46.7592776  89.7824985  86.1571877  47.0847674  90.0420803
  85.4803058  45.9724272  89.2698051  77.3120129  54.8415115 102.0605174
  76.6183601  54.4269068 101.5475129  78.0593120  54.8835652 101.4638593
  93.4485350  45.6321302  96.9260208  92.8684019  46.2906106  96.5438261
  93.1821283  44.8098647  96.5147626  91.8988916  45.0326360  99.1281529
  92.3988695  45.1442894  98.3195848  92.5424524  44.7287413  99.7682337
  85.9570912  52.9404990 112.0149370  85.4737994  53.7405350 112.2213259
  86.0431851  52.9512934 111.0616814  79.2256872  54.7733369  99.9371189
  79.2027560  54.8721056  98.9853072  79.5357508  55.6198520 100.2588355
  81.8844250  56.8309524 104.0517804  82.8387503  56.7993467 103.9847735
  81.6856773  56.3700148 104.8668029  82.4743632  55.4010640 106.6188601
  83.2936521  55.8954719 106.6423438  82.7480439  54.4842608 106.5906169
  92.2310228  47.7921393  95.9816557  91.3436083  48.0771043  95.7636751
  92.6464217  47.6315156  95.1343834  95.5824764  47.8167914  99.6970896
  96.3585154  48.3064366  99.9695513  94.8572898  48.2425968 100.1542765
  98.0197323  48.5295533 100.7544837  98.6141813  48.2891269 100.0438145
  98.0923906  47.8102663 101.3818373  80.2394478  62.3729144 101.0688001
  80.1048946  61.6129545 100.5025999  79.8226541  63.0970044 100.6016790
  91.3753441  57.5566067  90.0764577  92.0789291  57.7616070  90.6922232
  90.6516090  58.1242829  90.3413660  92.2051252  53.3075929  96.1966847
  92.1486453  53.7644480  95.3574479  92.7579594  52.5466613  96.0189690
  96.0156058  49.0965660  97.0216966  95.7592992  48.6962296  97.8525174
  95.3908926  49.8109454  96.8967106 100.3268395  51.8361734  99.5288258
  99.7667953  51.9054923 100.3019820  99.7211899  51.6602718  98.8087754
  83.3963604  63.2698461 101.2806444  83.2795988  64.2143893 101.1785134
  82.5756050  62.9672022 101.6692243  93.2840139  57.9948596  92.1263037
  94.1185743  57.5629795  91.9440512  93.1224482  57.8230610  93.0539931
  92.9386031  54.4980710  93.4919376  92.8834835  54.3324981  92.5507820
  92.3132086  55.2056743  93.6481566  77.7278546  49.7348774 107.3180798
  78.3737409  49.2247728 107.8068023  77.5195697  50.4717456 107.8924224
  90.2531938  56.8029622 112.8172939  91.1223098  56.9770274 112.4559574
  89.7738690  57.6224038 112.6948668  86.2482156  43.9988819  93.0704694
  86.2360826  44.9430659  93.2272965  87.1405578  43.8158964  92.7764156
  84.4218118  63.9226723 104.4962372  85.3245365  63.9550333 104.8128867
  84.1955488  62.9927174 104.5108708  86.1771720  62.6757709 101.1572451
  85.2267351  62.6759571 101.0436823  86.4804206  61.9290444 100.6408486
  90.0634276  40.5931595  97.3250631  89.2966672  40.0390082  97.4707314
  90.4744981  40.6653464  98.1864783  82.0676037  46.8816391 111.4155812
  82.9307498  46.5253196 111.6259137  81.4941448  46.5430286 112.1031217
 101.9124414  68.5118248 102.2218213 102.5502824  68.3924995 101.5181554
 101.7945257  69.4599092 102.2806166  98.7214120  68.4645676 102.1579738
  98.3832632  68.3486740 101.2700273  99.5903888  68.0636841 102.1380744
  94.5800936  70.3181152  98.1476629  94.0165801  70.2271089  97.3792917
  94.4653331  69.4981057  98.6279122  99.2033903  69.6180527 108.1165944
  99.1922544  69.2233326 107.2446447  99.3654543  68.8846600 108.7099715
  92.1265368  71.8132344 100.9860850  92.9186660  71.4723168 100.5707149
  92.3662018  71.9227319 101.9063003 100.1600495  73.9852120  93.4591094
  99.5088474  74.5706200  93.0725108 100.9544857  74.5158315  93.5186132
  94.0856122  71.0741257  93.8578228  94.8586998  70.5270244  93.7191104
  94.4381521  71.9385506  94.0692690  95.9241164  72.4017639 107.0645128
  95.6331030  73.3063270 106.9491794  96.5598149  72.4434167 107.7789197
  96.8497371  69.7794488 103.6546487  97.4460943  69.5550510 102.9403450
  96.9072343  69.0379233 104.2571935  96.4222399  67.2333923  91.4896678
  96.6747920  66.7115444  90.7280141  95.4846959  67.0700069  91.5923362
 101.4665682  66.2369701  99.2971422 102.2528772  65.8189125  98.9461839
 101.7304387  67.1415794  99.4653070 101.6375760  71.6742552  93.9960078
 101.0021593  71.7477178  94.7080983 101.3073166  72.2636151  93.3179158
 106.8674109  66.1744935 100.2004400 107.5999281  65.6044151 100.4342230
 106.1113465  65.7866535 100.6410906  96.1418688  69.1362029  93.6921053
  96.0254946  68.4606932  94.3602138  96.2520948  68.6494403  92.8753206
  98.4850229  68.5972176  97.3967742  98.1208436  68.0702797  98.1080664
  99.3417345  68.2070645  97.2234228 104.3899530  59.8866509 104.6599009
 104.0582855  60.7561920 104.4360224 103.7945143  59.5702793 105.3393039
  98.1255716  63.6262076  92.3929091  98.2930118  64.4942312  92.7599562
  97.9352885  63.7889358  91.4690380 100.8831049  72.0879055 104.0594921
 100.5831772  72.9904094 103.9510729 100.5382109  71.8211238 104.9116074
  94.3343531  68.5392852 100.0931626  93.4094027  68.4069066 100.3009318
  94.5827944  69.3187071 100.5901568 104.2828193  64.6061595 101.7392359
 103.3745070  64.5377003 101.4451120 104.2315789  65.0833540 102.5674184
  98.1044937  66.0819733  93.3775758  97.9844562  66.5276784  94.2161238
  97.4097525  66.4305051  92.8189296  91.6952342  68.1826125 100.9275415
  91.8244723  68.4360604 101.8414827  91.0149793  68.7753833 100.6080070
  95.8651829  78.8523375  97.0265889  95.7875859  79.8031200  97.1054370
  95.2613473  78.5069248  97.6840815  98.3569059  66.0251241 109.6827256
  97.5802393  66.5845161 109.6730121  98.9959622  66.5108023 110.2042126
 106.1489840  62.8078033 103.5170233 105.5064220  63.1010566 102.8710027
 105.6444768  62.6930954 104.3223429 103.8030003  66.5541207  94.2056092
 104.7147859  66.7868593  94.0303789 103.2939650  67.1378251  93.6431170
  96.6115431  68.8336694 109.2445223  97.3530116  69.3721738 108.9680047
  95.9052417  69.4602983 109.4016775 102.0870771  70.9765834 107.8417384
 102.4954127  70.5348245 107.0972017 101.3648032  70.4018462 108.0951577
  98.4401841  65.9138441 105.2150941  99.2863036  66.3377855 105.3585590
  98.3800479  65.2572065 105.9089505 102.4099585  71.5367025 101.5969673
 101.7808448  71.7012739 100.8945741 102.0225248  71.9508635 102.3680637
 106.2888817  72.4721463  98.9514037 105.6039856  72.8520364  98.4011070
 106.3732667  73.0816789  99.6845985 101.5901286  63.5742809 106.8732115
 101.3462218  64.3284870 106.3366391 101.8661217  63.9528157 107.7079362
 103.5439749  70.1181422 105.5509381 103.7556644  70.7613182 104.8743762
 103.4969497  69.2843738 105.0831311 101.1465978  62.7299242 102.4545953
 100.2850457  63.0280496 102.7462690 101.1728413  62.9469641 101.5226985
  97.9627547  71.2741433  98.8619758  98.4265893  71.5529136  98.0724381
  97.6984345  70.3724878  98.6792849  94.8551628  70.8212915 101.7999522
  95.4252985  71.2500183 101.1617006  95.4459740  70.5395499 102.4983707
  96.8996433  67.3964585  95.6709324  97.6020477  67.8485629  96.1383250
  96.5677062  66.7548404  96.2989217  95.3476795  65.9876342 110.0460533
  94.7175456  66.6692623 110.2795930  95.2412883  65.8759424 109.1013671
  90.6421767  65.6548138 100.9726457  89.8520821  65.9105667 100.4966568
  91.1333015  66.4696476 101.0778498 104.6585577  72.9953377 103.7231738
 105.4803021  72.5933565 103.4414420 104.6547980  72.8921611 104.6747854
  92.5936513  66.0192717  97.9309934  91.7967676  66.1311412  98.4493430
  92.3662105  66.3579370  97.0650824  98.4242180  72.5437421 105.8792448
  98.4886613  73.0057828 106.7150620  97.7153104  71.9134785 106.0074758
  88.9259470  65.9078629 103.4041448  89.1767509  66.7925638 103.6699024
  89.4619019  65.7283230 102.6316540 112.7491570  69.3392126 100.0716709
 111.9955278  68.7699524  99.9160714 112.8839111  69.3054790 101.0187344
  98.1390198  74.2105528  95.7471429  98.0035873  75.0557064  96.1756277
  98.6800011  74.4124806  94.9837363  94.6257538  60.2897108 112.4085784
  94.2324483  59.7363306 113.0833428  95.4423678  60.6007686 112.7992302
  91.5919595  71.7280966  96.3199354  92.1044116  72.5224216  96.4704919
  92.2442308  71.0307257  96.2532955  93.4014480  74.8446722  98.4022107
  93.5781108  75.7664687  98.2143091  94.1971314  74.5305142  98.8316487
  97.5425499  61.7054987 110.0006041  98.2835212  62.3062140 109.9210503
  97.7743421  60.9632625 109.4424083  92.6866837  66.8911354 108.2784270
  92.5720352  65.9896611 108.5791369  91.8311354  67.1375051 107.9269087
  99.7658674  74.8329095 109.8771771  99.3222529  74.0465473 109.5592675
 100.4275888  75.0208245 109.2115662  94.5245796  76.3624896 104.4032449
  95.0753221  76.2341960 103.6309443  93.6857271  76.6619785 104.0527342
 101.8639912  75.1131894 107.9053172 101.8458388  75.9340776 107.4133441
 102.7859833  74.9885970 108.1303313  98.3212967  72.6276024 108.7476681
  98.8541303  71.8664312 108.5175988  97.7927048  72.3349676 109.4900835
 101.4882662  57.7336090 104.2770322 101.1446931  58.6237732 104.2009433
 101.8561624  57.5437748 103.4139907  89.5568512  70.0569620  97.0958924
  90.3943734  70.4666629  96.8792632  89.7346780  69.1169063  97.0659118
 101.4532944  67.7244701  92.7842757 100.9379568  68.4949306  93.0231145
 101.1810253  67.0509837  93.4075819  99.0380055  62.5694402  97.8427996
  98.1821652  62.1801252  97.6633634  99.4507007  62.6486363  96.9827781
 100.5679202  60.1040745 102.2419556 100.0643998  60.0670880 101.4287361
 100.8609809  61.0133488 102.3016212  96.8122088  60.1879475 101.2485737
  97.6775085  59.9922283 100.8891627  96.8799597  59.9589827 102.1755094
 106.4267218  70.4777056  94.7195931 105.6496661  70.1388215  94.2751093
 107.1058699  70.4829679  94.0450896 101.2419247  65.5971793  94.6102539
 100.9369383  65.9117942  95.4612682 102.1949690  65.6753213  94.6529872
  99.6865679  71.7562016  96.2595493  99.1587041  71.0214776  95.9468730
  99.1853182  72.5336693  96.0135461 104.6658525  69.9511037 101.3762539
 104.0082200  70.6410298 101.4642667 105.4698925  70.3407469 101.7196525
  94.4184407  62.4181683  98.6202104  94.9928159  62.1956864  97.8875297
  95.0055389  62.4870377  99.3730705 103.4763984  68.3055410  99.4266481
 103.9895866  68.9385401  99.9288190 104.1265208  67.7056605  99.0609841
  94.7453994  64.4486144  92.6397989  93.9091306  64.7860830  92.9607264
  94.6058764  64.3135124  91.7025126  96.7207075  59.2922932  97.3477173
  96.0671487  58.9771949  96.7233788  96.6787549  58.6698672  98.0736996
  97.8318280  69.5742227  89.2630466  96.9245341  69.3431480  89.4621615
  98.3289311  68.7779846  89.4504447 100.7386358  78.2839734  92.1827152
 100.0648057  78.5871431  92.7912110 101.1252180  79.0868814  91.8332609
  99.9544815  65.7804865 101.6724821  99.0367376  66.0019812 101.5146509
 100.3704959  65.8551176 100.8136528 100.7379863  67.1796281  96.8027501
 101.4851682  67.6917678  96.4934623 101.0071452  66.8580334  97.6631895
  99.0106513  69.6754822  93.7854456  98.1017732  69.3913854  93.8826925
  99.0401597  70.0953900  92.9257763 104.2425780  73.2861411  97.5545623
 103.7888107  72.4452321  97.6110814 103.6119747  73.9222809  97.8920403
 103.1858700  64.2153397  98.7846291 102.4481457  63.7030783  99.1156533
 103.4385473  63.7753779  97.9729568 102.6858720  75.1237908  98.4895441
 102.9781694  75.6842965  97.7707807 103.1957340  75.4166469  99.2448600
 103.2870327  56.9929649  99.3788060 103.5929204  56.1327013  99.0913975
 104.0122932  57.5847269  99.1787054  89.5794683  67.3960336  97.7669658
  89.3819083  66.8029696  97.0420724  89.0241347  67.0912546  98.4845597
  97.5591407  67.2883442  99.8864251  97.6140017  66.3357279  99.8106728
  96.7482609  67.4442881 100.3705549  98.7082601  71.2163565  91.1242534
  98.2702031  70.4999424  90.6648172  99.4493042  71.4439680  90.5627626
  95.4983767  65.9060502  97.6454630  94.6851632  66.2054672  98.0519822
  95.9942761  65.5116191  98.3629112  97.6492345  75.9018259  99.5788895
  97.6068524  76.1279105  98.6497427  98.5655044  75.6681633  99.7274696
 101.0957979  66.3702326 106.4769524 101.4507366  66.5973800 107.3363990
 101.7430110  66.7020703 105.8546779 106.8255716  69.4920762  97.1818853
 106.6873614  69.6822358  96.2540042 106.4691934  70.2540145  97.6386904
  94.9897842  63.4778857 103.2615865  95.6297221  63.3367617 102.5638828
  94.1575372  63.1913371 102.8854467 106.8525095  71.5597289 102.1930124
 107.2861602  71.4672578 103.0413178 107.5656676  71.5354790 101.5550140
  95.7658146  72.7781288  99.3750857  96.5598744  72.2831608  99.1733432
  95.0549838  72.2499151  99.0118563 100.5852990  75.1599383 103.7263225
 100.6390012  75.7290320 104.4940941  99.7167771  75.3301268 103.3617262
  92.0740909  66.9224370  95.4510610  91.1438497  66.8608825  95.6680572
  92.1698381  66.4000322  94.6547251  91.9926458  63.4479182  98.0388852
  92.2533275  64.3624516  97.9298012  92.8143630  62.9803625  98.1885464
  93.4651383  64.8616940 105.2087676  94.1374437  64.6534302 104.5600325
  92.6381170  64.6639026 104.7692908 107.7140645  71.6020990 104.7263010
 107.9076535  72.5066800 104.9722285 107.6141263  71.1428409 105.5601595
  99.3676955  61.4878881 107.2253337  98.7204870  62.1868830 107.1317813
 100.1377971  61.9215024 107.5929585 102.7755753  71.7527733 110.3003890
 102.6241260  71.5238284 109.3833974 102.7660433  72.7098334 110.3135235
  99.5441090  69.3259645 105.2850157 100.4733150  69.4770805 105.1119124
  99.1232120  69.4143666 104.4298803  98.3429422  73.3510310 103.0548694
  98.2040507  72.9829094 103.9274632  97.5544018  73.8657949 102.8832652
  98.9377574  78.4519406  94.3974231  99.1129329  77.9807450  95.2119854
  98.2510362  79.0785173  94.6255492  99.8934637  72.7291913 100.4437532
  99.5584469  72.6892683 101.3395182  99.3938582  72.0636628  99.9707942
  93.8678881  68.1359543 105.9690113  93.7298679  67.4039781 106.5701652
  94.7783804  68.0468443 105.6874301 102.8293828  70.0747947  90.7174592
 102.2122999  69.3494775  90.6207644 102.3610317  70.8357307  90.3741666
  96.4961181  67.8479502 105.4573793  97.2060800  67.2072694 105.4160411
  96.4530490  68.0992397 106.3799974 104.4847960  74.7846855 108.3780372
 104.4260506  74.1006075 107.7110955 104.8867478  75.5265845 107.9260998
  95.2090115  64.8344720 107.2769432  94.6727472  64.3835458 107.9291029
  94.6206824  64.9690629 106.5339897  93.5038659  81.6008769 101.1714091
  93.7435257  82.2327293 101.8493110  92.6607855  81.2496809 101.4579450
  94.6192374  64.2933371  89.8395896  93.7421841  64.1722172  89.4758143
  95.0950127  63.5019449  89.5874785 104.4865367  72.7486439 106.6094352
 103.5992146  72.4112361 106.7320751 105.0563918  72.0169470 106.8463117
  86.1394514  69.0810531  99.9337403  86.8265554  68.7672261  99.3458419
  85.9842643  69.9851896  99.6604655  90.9429237  63.9700727 104.3622427
  90.8587425  63.3626397 103.6272837  90.1211943  64.4609746 104.3631923
  98.0166521  77.4087892 103.5755595  97.9436692  78.2142863 104.0874900
  97.5743914  77.6079857 102.7503616  97.8056300  76.6459662  97.0858417
  97.0223822  77.1881342  97.1796641  98.5049045  77.1633641  97.4852658
 101.1152950  62.4554291  99.7292622 101.6121650  61.7024253  99.4093692
 100.3439932  62.4918608  99.1635831 108.9682708  68.1594657 101.3710913
 108.9572584  69.0419372 101.0004847 108.1000087  67.8066207 101.1765451
 100.4765204  77.3074726 105.7313754 101.1893176  77.9422190 105.6589655
  99.9855233  77.4038592 104.9153756 102.1982731  71.2125978  97.3031045
 101.2639010  71.3327441  97.1335750 102.3759400  70.3098445  97.0391055
  97.6987919  64.5971674  99.4564307  97.3285707  64.0442714 100.1445212
  98.1947012  63.9929807  98.9039307 105.5855282  67.0543298  97.8381080
 106.0515735  67.8871289  97.7641382 106.0362783  66.5888279  98.5426338
  95.5277118  75.0569169 106.5519325  96.2286577  75.6905652 106.7048719
  95.0572233  75.3983901 105.7914964 103.6531514  73.3987119  94.8367232
 103.9291357  73.2843713  95.7461106 102.7836012  73.0004604  94.7979405
 103.5571945  59.4223885 101.8771981 102.6435025  59.6528111 102.0454188
 103.9865047  59.5062329 102.7286013 103.3278404  67.6113776 104.3771875
 102.6749854  67.8589684 103.7224328 103.7058784  66.7977915 104.0434352
 100.2885578  77.6473470  98.4800045 100.4707972  76.8295126  98.9427798
 101.1118564  77.8641162  98.0424935 100.6227743  76.5741655  95.7415094
 101.1515510  76.0634109  95.1285256 100.8855963  76.2584185  96.6060627
  99.3765977  68.3533588 110.8637912  98.7006614  68.2527717 111.5340287
 100.1993611  68.1972801 111.3273909  91.1244836  74.5905524 103.4850427
  91.7098273  73.8449212 103.6178331  90.9269674  74.9009481 104.3687091
  93.9783491  77.6256771  98.5012870  93.3093866  78.1102899  98.0176910
  93.8396361  77.8725992  99.4156248  85.7162491  67.1611124 102.2054870
  85.7546590  66.6274715 102.9991988  85.2102783  66.6346330 101.5865848
  98.1188760  79.6600515 105.0995528  98.6707068  79.8232136 105.8644613
  98.4594953  80.2504953 104.4275553  93.0953253  62.0075665 105.7017413
  93.1594579  62.8690496 105.2894810  93.0320373  61.3949666 104.9689771
  92.5705525  64.0798797 109.3490447  93.1977564  63.6975875 109.9627971
  91.7133444  63.8612999 109.7146139  89.3471068  65.8875226  95.2808802
  89.6424509  64.9785905  95.2275855  88.4459104  65.8662966  94.9589804
 101.2557147  77.6082491 102.0859210 101.1308286  76.8072230 101.5770156
 101.9136238  78.1028684 101.5973180  92.8765315  63.9631223 101.2636350
  92.1551901  64.5767191 101.1243824  93.6658571  64.4988988 101.1852996
 103.3192055  75.4091511 103.7138760 102.3722391  75.2896862 103.6417087
 103.6674828  74.5214009 103.7965022  95.6791629  61.2985650 107.5377002
  96.2026030  61.5447946 108.3003311  95.4603962  62.1305684 107.1180139
  91.0758910  63.5689324  95.4048127  90.7471616  62.6886703  95.2223233
  91.4298280  63.5136993  96.2924516 100.3238489  75.2044227  99.9143112
 100.1763451  74.2760934 100.0950682 101.1491982  75.2264318  99.4300188
  94.1900733  63.8562294  95.7723605  94.5296805  64.3848215  95.0502213
  94.6372853  64.1942700  96.5482171 103.9272610  76.0272786 101.0007985
 104.8519158  75.8215647 100.8632436 103.7587914  75.7789187 101.9097327
  96.8844174  62.2399345 105.2226673  96.5440994  61.4407158 105.6247353
  96.1783180  62.5401055 104.6503506  97.5360646  59.3248657 103.6753996
  98.3586715  58.8509135 103.5532886  97.7798709  60.1039141 104.1752682
  96.1768880  62.3536915  93.9716897  96.8977242  62.7318168  93.4680614
  95.5534184  63.0725792  94.0751875 100.3200003  63.0582064  94.9075230
 100.5363617  63.9406702  94.6064058  99.8394070  62.6668278  94.1780872
  95.0599224  66.0167778 101.4845974  94.9143805  66.3308081 102.3770256
  94.5824428  66.6352678 100.9316873  96.9195607  63.0070326 101.5326864
  96.9057176  62.1111419 101.1959162  97.6368035  63.0140989 102.1665150
  98.7721738  63.4407666 103.5779991  98.5139516  64.3624737 103.5764322
  98.2406778  63.0438100 104.2680455 103.7167927  76.5458453  96.3570077
 103.8904804  75.9804875  95.6043929 104.2096818  77.3459348  96.1749567
  89.5344886  68.5573122 104.4233635  88.9898355  69.3332930 104.5553910
  90.4124236  68.9043927 104.2652757  96.3232503  61.8884706  96.8014434
  96.4448414  60.9601352  97.0005321  96.0334545  61.9023392  95.8892749
  99.1923693  59.5739616  99.9381154  99.2145390  59.6378949  98.9833133
  99.6091752  58.7344125 100.1321660 109.5707318  69.3094876  97.9760376
 110.0138464  68.5602201  97.5779500 108.6933828  69.3005012  97.5934108
 104.7043099  75.8625217  93.4566975 105.3994004  76.4831910  93.6754290
 105.0466249  75.0120569  93.7319353  90.3210908  67.6843018 107.3163792
  89.5792644  67.8325654 107.9028423  90.0003653  67.9451284 106.4530542
 106.6034522  73.3124923  94.9854306 107.1285846  73.6512196  94.2603626
 106.5156875  72.3771938  94.8017440  98.2654571  77.2258997 107.1144182
  98.5741697  76.9808143 107.9866882  99.0630053  77.4305635 106.6263053
  98.2875183  79.3796906  99.3449559  97.8480173  78.8873285 100.0382416
  99.0383300  78.8369874  99.1041634  90.7667522  75.5708447  99.3474187
  91.5925542  75.2712219  98.9672830  90.4161574  74.8016069  99.7963976
  95.7349055  74.9234915 101.4171861  95.1129064  74.2605620 101.1174088
  96.4053922  74.9496047 100.7345508  88.9676127  73.4894774 100.3063121
  88.1308035  73.0616948 100.1247122  88.9399772  73.6827217 101.2433912
  95.8073583  63.4016703 111.0104367  95.8561738  64.2778826 110.6282136
  96.3496097  62.8594096 110.4376010 106.4126303  70.7950293 107.6038232
 106.4624308  70.6300300 108.5453755 106.3040227  69.9277552 107.2136113
  95.2962562  73.4738839  94.8930321  95.4450682  74.1574303  94.2396994
  96.1029005  73.4543929  95.4079777 103.7030066  66.7781221 108.9197539
 104.6039928  66.6387686 108.6281537 103.7778040  66.9435676 109.8595716
  98.0372871  64.1548076 107.7650725  97.1676180  64.4481642 107.4933314
  98.2732351  64.7388521 108.4857989 107.9144500  73.2147234 107.8480254
 107.6229308  73.5777215 108.6843715 107.3016631  72.5014243 107.6693586
 109.1140182  70.7800114 100.3682824 109.9487074  71.2189918 100.5320384
 109.2499311  70.3038767  99.5491070 106.1631688  68.3379849 106.3160312
 106.6385810  68.5307495 105.5079163 105.2397254  68.3939035 106.0703695
  93.0515195  69.5004016  95.8991390  92.8061237  68.5966346  96.0971600
  93.2211110  69.5021167  94.9570868 100.7411905  60.3727693 105.2816146
 101.2593849  61.1088720 104.9562634 100.3867038  60.6791686 106.1162905
  92.3210843  65.2332374  93.3977551  91.6280087  65.3076729  92.7417587
  92.0762594  64.4692717  93.9199068 100.9924499  56.7927975 100.8017042
 101.2726253  56.1251164 101.4277469 101.7775106  56.9857071 100.2891706
  98.7957968  75.9686969  92.3642069  98.2231935  76.5877156  91.9112540
  99.3690761  76.5186331  92.8981990 104.8633357  65.2145609 104.5488617
 105.8150780  65.3143707 104.5700841 104.6936808  64.4223878 105.0586702
 102.8847737  62.3001192 104.7348018 102.2897669  62.5806205 104.0394507
 102.5997434  62.7895093 105.5064759 102.0155227  76.2524119  93.4950651
 102.9485901  76.1869681  93.6983526 101.9278440  77.0880386  93.0365183
 104.6443244  75.5689990  90.4554598 104.5656876  75.2349853  91.3490356
 105.4652911  76.0611757  90.4546071 107.3421435  68.4351729 103.6630917
 107.3097755  67.4967730 103.8490601 107.9522059  68.5135766 102.9296742
  99.1804766  67.3047782  89.7058121 100.1263871  67.1753990  89.7746539
  98.8019011  66.5662444  90.1827549 107.4915924  65.2262772 103.7089200
 106.9754972  64.4421229 103.5219129 108.3755872  64.8981489 103.8735720
 105.1526651  58.9703788  99.6685013 104.9551472  58.6618876 100.5528345
 105.7626356  59.6965427  99.7982943 113.1597985  69.4967736 102.8036954
 113.8901374  69.2353024 103.3644657 112.5504931  68.7596458 102.8439022
 111.2413282  67.6375598 103.4011405 110.5146446  67.5031563 102.7927897
 110.8260569  67.9452427 104.2068123  99.0643459  71.3565528 111.1658778
  99.9846468  71.5344127 111.3598825  99.0293042  70.4121573 111.0138477
  97.3647683  65.2297758  89.6413006  96.4579139  64.9330871  89.7175720
  97.6423664  64.9327576  88.7747292  88.2825624  66.5504122 100.0912053
  87.9628408  65.6969430  99.7986427  87.7359052  66.7652700 100.8470020
  92.0605531  69.2666563 103.8081559  92.2791541  70.1983670 103.8269593
  92.4731305  68.9074537 104.5936363  98.9809749  59.7734648  95.7957248
  98.1710477  59.4281733  96.1712494  99.6694166  59.4642192  96.3844859
 100.9100297  58.8512695  97.4181544 101.4631336  59.2708148  98.0771567
 101.1470384  57.9248443  97.4604500  96.9333396  64.8399768 113.1984308
  96.8330123  65.7894125 113.1296399  96.7154939  64.5118007 112.3260378
  96.1346468  62.0884693  89.7824985  96.9965632  62.4139592  90.0420803
  96.3196812  61.3016189  89.2698051  88.1513884  70.1707033 102.0605174
  87.4577355  69.7560986 101.5475129  88.8986875  70.2127570 101.4638593
 104.2879104  60.9613220  96.9260208 103.7077773  61.6198024  96.5438261
 104.0215037  60.1390564  96.5147626 102.7382671  60.3618278  99.1281529
 103.2382449  60.4734812  98.3195848 103.3818279  60.0579330  99.7682337
  96.7964667  68.2696907 112.0149370  96.3131748  69.0697267 112.2213259
  96.8825606  68.2804852 111.0616814  90.0650626  70.1025287  99.9371189
  90.0421314  70.2012974  98.9853072  90.3751263  70.9490438 100.2588355
  92.7238004  72.1601442 104.0517804  93.6781258  72.1285384 103.9847735
  92.5250528  71.6992066 104.8668029  93.3137386  70.7302558 106.6188601
  94.1330275  71.2246637 106.6423438  93.5874194  69.8134526 106.5906169
 103.0703982  63.1213310  95.9816557 102.1829837  63.4062961  95.7636751
 103.4857971  62.9607074  95.1343834 106.4218518  63.1459831  99.6970896
 107.1978909  63.6356284  99.9695513 105.6966653  63.5717885 100.1542765
 108.8591077  63.8587450 100.7544837 109.4535568  63.6183186 100.0438145
 108.9317661  63.1394581 101.3818373  91.0788233  77.7021061 101.0688001
  90.9442701  76.9421462 100.5025999  90.6620295  78.4261961 100.6016790
 102.2147196  72.8857985  90.0764577 102.9183046  73.0907987  90.6922232
 101.4909845  73.4534747  90.3413660 103.0445006  68.6367846  96.1966847
 102.9880207  69.0936398  95.3574479 103.5973349  67.8758531  96.0189690
 106.8549812  64.4257578  97.0216966 106.5986746  64.0254214  97.8525174
 106.2302680  65.1401372  96.8967106 111.1662150  67.1653651  99.5288258
 110.6061708  67.2346841 100.3019820 110.5605653  66.9894636  98.8087754
  94.2357359  78.5990378 101.2806444  94.1189743  79.5435811 101.1785134
  93.4149805  78.2963940 101.6692243 104.1233893  73.3240514  92.1263037
 104.9579497  72.8921713  91.9440512 103.9618236  73.1522528  93.0539931
 103.7779785  69.8272627  93.4919376 103.7228589  69.6616899  92.5507820
 103.1525841  70.5348660  93.6481566  88.5672300  65.0640692 107.3180798
  89.2131164  64.5539646 107.8068023  88.3589451  65.8009373 107.8924224
  97.0875911  59.3280736  93.0704694  97.0754581  60.2722576  93.2272965
  97.9799333  59.1450882  92.7764156  95.2611873  79.2518640 104.4962372
  96.1639120  79.2842251 104.8128867  95.0349243  78.3219091 104.5108708
  97.0165475  78.0049627 101.1572451  96.0661106  78.0051488 101.0436823
  97.3197961  77.2582361 100.6408486 100.9028030  55.9223513  97.3250631
 100.1360426  55.3682000  97.4707314 101.3138735  55.9945382  98.1864783
  92.9069791  62.2108309 111.4155812  93.7701253  61.8545114 111.6259137
  92.3335202  61.8722204 112.1031217 105.4194690  85.6473070  98.1476629
 104.8559555  85.5563007  97.3792917 105.3047085  84.8272974  98.6279122
 102.9659122  87.1424261 100.9860850 103.7580414  86.8015086 100.5707149
 103.2055772  87.2519236 101.9063003 110.9994249  89.3144037  93.4591094
 110.3482229  89.8998118  93.0725108 111.7938612  89.8450232  93.5186132
 104.9249876  86.4033175  93.8578228 105.6980752  85.8562162  93.7191104
 105.2775275  87.2677424  94.0692690 107.2616154  82.5625841  91.4896678
 107.5141675  82.0407362  90.7280141 106.3240713  82.3991986  91.5923362
 112.3059437  81.5661619  99.2971422 113.0922526  81.1481042  98.9461839
 112.5698141  82.4707711  99.4653070 112.4769514  87.0034469  93.9960078
 111.8415347  87.0769096  94.7080983 112.1466921  87.5928068  93.3179158
 106.9812443  84.4653947  93.6921053 106.8648701  83.7898850  94.3602138
 107.0914703  83.9786321  92.8753206 109.3243984  83.9264094  97.3967742
 108.9602191  83.3994715  98.1080664 110.1811100  83.5362563  97.2234228
 108.9649471  78.9553994  92.3929091 109.1323873  79.8234230  92.7599562
 108.7746640  79.1181275  91.4690380 105.1737285  83.8684769 100.0931626
 104.2487782  83.7360983 100.3009318 105.4221698  84.6478988 100.5901568
 108.9438691  81.4111651  93.3775758 108.8238317  81.8568702  94.2161238
 108.2491280  81.7596969  92.8189296 102.5346096  83.5118043 100.9275415
 102.6638477  83.7652522 101.8414827 101.8543548  84.1045751 100.6080070
 114.6423758  81.8833124  94.2056092 115.5541614  82.1160511  94.0303789
 114.1333405  82.4670168  93.6431170 111.9859732  78.0591160 102.4545953
 111.1244211  78.3572414 102.7462690 112.0122167  78.2761559 101.5226985
 108.8021302  86.6033351  98.8619758 109.2659647  86.8821054  98.0724381
 108.5378100  85.7016795  98.6792849 107.7390188  82.7256503  95.6709324
 108.4414231  83.1777547  96.1383250 107.4070816  82.0840322  96.2989217
 101.4815522  80.9840056 100.9726457 100.6914576  81.2397584 100.4966568
 101.9726769  81.7988394 101.0778498 103.4330267  81.3484635  97.9309934
 102.6361431  81.4603329  98.4493430 103.2055859  81.6871287  97.0650824
  99.7653225  81.2370546 103.4041448 100.0161263  82.1217556 103.6699024
 100.3012773  81.0575148 102.6316540 108.9783953  89.5397446  95.7471429
 108.8429627  90.3848981  96.1756277 109.5193765  89.7416723  94.9837363
 102.4313350  87.0572884  96.3199354 102.9437870  87.8516134  96.4704919
 103.0836063  86.3599174  96.2532955 104.2408235  90.1738640  98.4022107
 104.4174863  91.0956605  98.2143091 105.0365068  89.8597059  98.8316487
 112.3276416  73.0628008 104.2770322 111.9840685  73.9529649 104.2009433
 112.6955379  72.8729665 103.4139907 100.3962267  85.3861538  97.0958924
 101.2337489  85.7958546  96.8792632 100.5740534  84.4460980  97.0659118
 112.2926699  83.0536619  92.7842757 111.7773322  83.8241223  93.0231145
 112.0204007  82.3801755  93.4075819 109.8773810  77.8986319  97.8427996
 109.0215406  77.5093170  97.6633634 110.2900762  77.9778280  96.9827781
 111.4072956  75.4332663 102.2419556 110.9037752  75.3962798 101.4287361
 111.7003563  76.3425405 102.3016212 107.6515842  75.5171392 101.2485737
 108.5168839  75.3214201 100.8891627 107.7193351  75.2881744 102.1755094
 117.2660973  85.8068973  94.7195931 116.4890416  85.4680133  94.2751093
 117.9452454  85.8121597  94.0450896 112.0813002  80.9263711  94.6102539
 111.7763138  81.2409860  95.4612682 113.0343444  81.0045131  94.6529872
 110.5259434  87.0853934  96.2595493 109.9980795  86.3506694  95.9468730
 110.0246937  87.8628610  96.0135461 105.2578161  77.7473600  98.6202104
 105.8321913  77.5248782  97.8875297 105.8449144  77.8162295  99.3730705
 105.5847749  79.7778061  92.6397989 104.7485061  80.1152748  92.9607264
 105.4452518  79.6427041  91.7025126 107.5600829  74.6214849  97.3477173
 106.9065241  74.3063866  96.7233788 107.5181303  73.9990590  98.0736996
 108.6712034  84.9034144  89.2630466 107.7639096  84.6723398  89.4621615
 109.1683066  84.1071764  89.4504447 111.5780113  93.6131652  92.1827152
 110.9041812  93.9163348  92.7912110 111.9645935  94.4160732  91.8332609
 110.7938570  81.1096783 101.6724821 109.8761131  81.3311730 101.5146509
 111.2098713  81.1843093 100.8136528 111.5773617  82.5088199  96.8027501
 112.3245436  83.0209596  96.4934623 111.8465207  82.1872251  97.6631895
 109.8500267  85.0046739  93.7854456 108.9411487  84.7205772  93.8826925
 109.8795351  85.4245818  92.9257763 114.0252454  79.5445315  98.7846291
 113.2875211  79.0322701  99.1156533 114.2779228  79.1045696  97.9729568
 114.1264082  72.3221567  99.3788060 114.4322959  71.4618930  99.0913975
 114.8516687  72.9139187  99.1787054 100.4188438  82.7252253  97.7669658
 100.2212838  82.1321614  97.0420724  99.8635102  82.4204464  98.4845597
 108.3985161  82.6175360  99.8864251 108.4533771  81.6649196  99.8106728
 107.5876364  82.7734799 100.3705549 109.5476355  86.5455483  91.1242534
 109.1095785  85.8291342  90.6648172 110.2886796  86.7731598  90.5627626
 106.3377521  81.2352420  97.6454630 105.5245387  81.5346590  98.0519822
 106.8336516  80.8408108  98.3629112 117.6649470  84.8212680  97.1818853
 117.5267369  85.0114276  96.2540042 117.3085689  85.5832063  97.6386904
 105.8291596  78.8070775 103.2615865 106.4690975  78.6659534 102.5638828
 104.9969127  78.5205289 102.8854467 106.6051900  88.1073206  99.3750857
 107.3992499  87.6123526  99.1733432 105.8943592  87.5791069  99.0118563
 102.9134664  82.2516287  95.4510610 101.9832252  82.1900743  95.6680572
 103.0092136  81.7292240  94.6547251 102.8320213  78.7771100  98.0388852
 103.0927030  79.6916433  97.9298012 103.6537385  78.3095543  98.1885464
 104.3045138  80.1908857 105.2087676 104.9768191  79.9826219 104.5600325
 103.4774924  79.9930943 104.7692908 109.7771328  93.7811324  94.3974231
 109.9523084  93.3099367  95.2119854 109.0904116  94.4077090  94.6255492
 113.6687583  85.4039865  90.7174592 113.0516753  84.6786693  90.6207644
 113.2004071  86.1649225  90.3741666 105.4586129  79.6225289  89.8395896
 104.5815595  79.5014090  89.4758143 105.9343882  78.8311367  89.5874785
  96.9788269  84.4102449  99.9337403  97.6659309  84.0964179  99.3458419
  96.8236398  85.3143813  99.6604655 101.7822991  79.2992645 104.3622427
 101.6981180  78.6918315 103.6272837 100.9605697  79.7901663 104.3631923
 111.9546705  77.7846209  99.7292622 112.4515404  77.0316171  99.4093692
 111.1833686  77.8210525  99.1635831 113.0376486  86.5417896  97.3031045
 112.1032764  86.6619358  97.1335750 113.2153154  85.6390363  97.0391055
 108.5381674  79.9263592  99.4564307 108.1679461  79.3734632 100.1445212
 109.0340766  79.3221725  98.9039307 116.4249037  82.3835215  97.8381080
 116.8909489  83.2163207  97.7641382 116.8756537  81.9180197  98.5426338
 114.4925268  88.7279036  94.8367232 114.7685112  88.6135631  95.7461106
 113.6229767  88.3296521  94.7979405 114.3965700  74.7515802 101.8771981
 113.4828779  74.9820029 102.0454188 114.8258801  74.8354246 102.7286013
 111.4621498  91.9033572  95.7415094 111.9909264  91.3926027  95.1285256
 111.7249717  91.5876103  96.6060627  96.5556245  82.4903042 102.2054870
  96.5940345  81.9566633 102.9991988  96.0496538  81.9638247 101.5865848
 103.9347007  77.3367582 105.7017413 103.9988334  78.1982413 105.2894810
 103.8714128  76.7241584 104.9689771 100.1864823  81.2167144  95.2808802
 100.4818264  80.3077823  95.2275855  99.2852858  81.1954884  94.9589804
 103.7159070  79.2923141 101.2636350 102.9945655  79.9059108 101.1243824
 104.5052325  79.8280906 101.1852996 101.9152664  78.8981242  95.4048127
 101.5865370  78.0178621  95.2223233 102.2692035  78.8428910  96.2924516
 105.0294487  79.1854212  95.7723605 105.3690560  79.7140133  95.0502213
 105.4766608  79.5234618  96.5482171 107.7237928  77.5691262 105.2226673
 107.3834749  76.7699075 105.6247353 107.0176934  77.8692973 104.6503506
 108.3754400  74.6540575 103.6753996 109.1980469  74.1801053 103.5532886
 108.6192464  75.4331058 104.1752682 107.0162634  77.6828833  93.9716897
 107.7370997  78.0610086  93.4680614 106.3927939  78.4017710  94.0751875
 111.1593757  78.3873982  94.9075230 111.3757372  79.2698620  94.6064058
 110.6787825  77.9960196  94.1780872 105.8992979  81.3459695 101.4845974
 105.7537559  81.6599998 102.3770256 105.4218182  81.9644596 100.9316873
 107.7589362  78.3362243 101.5326864 107.7450930  77.4403337 101.1959162
 108.4761790  78.3432907 102.1665150 109.6115492  78.7699584 103.5779991
 109.3533270  79.6916654 103.5764322 109.0800533  78.3730018 104.2680455
 100.3738641  83.8865040 104.4233635  99.8292109  84.6624848 104.5553910
 101.2517991  84.2335844 104.2652757 107.1626258  77.2176624  96.8014434
 107.2842169  76.2893270  97.0005321 106.8728300  77.2315310  95.8892749
 110.0317448  74.9031534  99.9381154 110.0539145  74.9670867  98.9833133
 110.4485507  74.0636043 100.1321660 115.5436854  91.1917135  93.4566975
 116.2387758  91.8123828  93.6754290 115.8860004  90.3412486  93.7319353
 117.4428277  88.6416841  94.9854306 117.9679601  88.9804113  94.2603626
 117.3550629  87.7063856  94.8017440 101.6061276  90.9000365  99.3474187
 102.4319296  90.6004137  98.9672830 101.2555328  90.1307987  99.7963976
  99.8069882  88.8186691 100.3063121  98.9701790  88.3908866 100.1247122
  99.7793527  89.0119135 101.2433912 106.1356317  88.8030756  94.8930321
 106.2844437  89.4866221  94.2396994 106.9422760  88.7835846  95.4079777
 103.8908950  84.8295934  95.8991390 103.6454991  83.9258264  96.0971600
 104.0604864  84.8313084  94.9570868 103.1604597  80.5624292  93.3977551
 102.4673842  80.6368647  92.7417587 102.9156349  79.7984635  93.9199068
 111.8318254  72.1219893 100.8017042 112.1120007  71.4543082 101.4277469
 112.6168860  72.3148988 100.2891706 109.6351722  91.2978887  92.3642069
 109.0625689  91.9169074  91.9112540 110.2084516  91.8478248  92.8981990
 112.8548982  91.5816037  93.4950651 113.7879655  91.5161599  93.6983526
 112.7672195  92.4172304  93.0365183 115.4836999  90.8981907  90.4554598
 115.4050630  90.5641771  91.3490356 116.3046665  91.3903675  90.4546071
 110.0198521  82.6339700  89.7058121 110.9657625  82.5045908  89.7746539
 109.6412766  81.8954361  90.1827549 115.9920405  74.2995706  99.6685013
 115.7945226  73.9910794 100.5528345 116.6020111  75.0257344  99.7982943
 108.2041438  80.5589676  89.6413006 107.2972893  80.2622789  89.7175720
 108.4817419  80.2619494  88.7747292  99.1219378  81.8796039 100.0912053
  98.8022162  81.0261347  99.7986427  98.5752806  82.0944617 100.8470020
 109.8203503  75.1026566  95.7957248 109.0104232  74.7573651  96.1712494
 110.5087920  74.7934109  96.3844859 111.7494052  74.1804612  97.4181544
 112.3025090  74.6000066  98.0771567 111.9864138  73.2540361  97.4604500
 106.9740222  77.4176611  89.7824985 107.8359386  77.7431509  90.0420803
 107.1590566  76.6308107  89.2698051  98.9907638  85.4998951 102.0605174
  98.2971110  85.0852904 101.5475129  99.7380629  85.5419487 101.4638593
 115.1272859  76.2905138  96.9260208 114.5471528  76.9489942  96.5438261
 114.8608791  75.4682482  96.5147626 113.5776425  75.6910195  99.1281529
 114.0776204  75.8026730  98.3195848 114.2212033  75.3871248  99.7682337
 100.9044381  85.4317205  99.9371189 100.8815069  85.5304892  98.9853072
 101.2145017  86.2782355 100.2588355 113.9097737  78.4505228  95.9816557
 113.0223592  78.7354879  95.7636751 114.3251726  78.2898991  95.1343834
 117.2612273  78.4751749  99.6970896 118.0372663  78.9648201  99.9695513
 116.5360407  78.9009803 100.1542765 113.0540950  88.2149903  90.0764577
 113.7576800  88.4199905  90.6922232 112.3303599  88.7826665  90.3413660
 113.8838761  83.9659764  96.1966847 113.8273962  84.4228315  95.3574479
 114.4367103  83.2050448  96.0189690 117.6943566  79.7549496  97.0216966
 117.4380501  79.3546131  97.8525174 117.0696435  80.4693290  96.8967106
 114.9627648  88.6532432  92.1263037 115.7973252  88.2213630  91.9440512
 114.8011991  88.4814446  93.0539931 114.6173540  85.1564545  93.4919376
 114.5622344  84.9908817  92.5507820 113.9919595  85.8640578  93.6481566
  99.4066055  80.3932610 107.3180798 100.0524918  79.8831563 107.8068023
  99.1983206  81.1301291 107.8924224 107.9269665  74.6572654  93.0704694
 107.9148335  75.6014494  93.2272965 108.8193087  74.4742800  92.7764156
 111.7421785  71.2515431  97.3250631 110.9754181  70.6973917  97.4707314
 112.1532490  71.3237300  98.1864783 116.4241503  95.1069979  92.6397989
 115.5878815  95.4444666  92.9607264 116.2846273  94.9718959  91.7025126
 116.2979883  94.9517207  89.8395896 115.4209350  94.8306007  89.4758143
 116.7737636  94.1603285  89.5874785 113.9998352  95.8916209  93.3977551
 113.3067596  95.9660564  92.7417587 113.7550103  95.1276553  93.9199068
 119.0435192  95.8881594  89.6413006 118.1366648  95.5914706  89.7175720
 119.3211173  95.5911412  88.7747292 117.8133977  92.7468529  89.7824985
 118.6753141  93.0723427  90.0420803 117.9984321  91.9600025  89.2698051
 118.7663420  89.9864572  93.0704694 118.7542090  90.9306412  93.2272965
 119.6586842  89.8034717  92.7764156  52.5076812  -5.4582173  83.7511196
  52.4300842  -4.5074348  83.8299676  51.9038456  -5.8036301  84.4086122
  50.1463642  -2.7096779  87.8959398  50.3860240  -2.0778255  88.5738416
  49.3032839  -3.0608739  88.1824757  50.6208474  -6.6848777  85.2258176
  49.9518850  -6.2002649  84.7422216  50.4821344  -6.4379556  86.1401555
  54.7613743  -4.6505033  91.8240835  55.3132051  -4.4873412  92.5889920
  55.1019936  -4.0600595  91.1520859  47.7213216  -6.6084487  87.7933308
  47.5867684  -7.3684086  87.2271306  47.3045278  -5.8843587  87.3262097
  50.8782342  -5.7115170  88.0051751  50.7614726  -4.7669737  87.9030441
  50.0574788  -6.0141608  88.3937550  51.9036856  -5.0586908  91.2207679
  52.8064103  -5.0263298  91.5374174  51.6774226  -5.9886457  91.2354015
  66.2032858  -0.5167955  88.8825045  65.8651369  -0.6326890  87.9945580
  67.0722626  -0.9176790  88.8626051  62.0619674   1.3367522  84.8721936
  61.4984539   1.2457459  84.1038224  61.9472069   0.5167426  85.3524428
  66.6852641   0.6366897  94.8411250  66.6741282   0.2419695  93.9691754
  66.8473280  -0.0967030  95.4345022  59.6084106   2.8318713  87.7106156
  60.4005397   2.4909538  87.2952456  59.8480756   2.9413688  88.6308310
  67.6419232   5.0038489  80.1836401  66.9907212   5.5892570  79.7970414
  68.4363595   5.5344684  80.2431438  61.5674859   2.0927627  80.5823535
  62.3405735   1.5456614  80.4436411  61.9200258   2.9571876  80.7937996
  63.4059902   3.4204009  93.7890434  63.1149768   4.3249640  93.6737101
  64.0416886   3.4620536  94.5034504  64.3316109   0.7980857  90.3791794
  64.9279681   0.5736880  89.6648757  64.3891080   0.0565603  90.9817242
  69.1194497   2.6928921  80.7205385  68.4840330   2.7663548  81.4326290
  68.7891904   3.2822520  80.0424464  63.6237426   0.1548399  80.4166360
  63.5073684  -0.5206698  81.0847444  63.7339686  -0.3319227  79.5998513
  65.9668967  -0.3841454  84.1213049  65.6027174  -0.9110833  84.8325971
  66.8236083  -0.7742985  83.9479535  68.3649787   3.1065424  90.7840228
  68.0650510   4.0090463  90.6756035  68.0200847   2.8397608  91.6361381
  61.8162269  -0.4420779  86.8176932  60.8912765  -0.5744565  87.0254624
  62.0646682   0.3373440  87.3146875  59.1771080  -0.7987505  87.6520722
  59.3063461  -0.5453026  88.5660133  58.4968531  -0.2059797  87.3325377
  63.3470567   9.8709745  83.7511196  63.2694597  10.8217570  83.8299676
  62.7432210   9.5255617  84.4086122  64.0934169  -0.1476937  95.9690530
  64.8348853   0.3908107  95.6925353  63.3871154   0.4789352  96.1262081
  69.5689509   1.9952204  94.5662691  69.9772865   1.5534614  93.8217323
  68.8466770   1.4204831  94.8196884  69.8918323   2.5553395  88.3214980
  69.2627186   2.7199109  87.6191048  69.5043985   2.9695004  89.0925944
  73.7707555   3.4907832  85.6759344  73.0858593   3.8706734  85.1256377
  73.8551404   4.1003159  86.4091291  71.0258487   1.1367791  92.2754687
  71.2375382   1.7799551  91.5989068  70.9788235   0.3030108  91.8076617
  65.4446285   2.2927803  85.5865065  65.9084631   2.5715506  84.7969688
  65.1803083   1.3911247  85.4038156  62.3370366   1.8399284  88.5244828
  62.9071723   2.2686553  87.8862313  62.9278478   1.5581869  89.2229014
  58.1240505  -3.3265492  87.6971764  57.3339559  -3.0707964  87.2211874
  58.6151753  -2.5117154  87.8023804  72.1404315   4.0139747  90.4477045
  72.9621758   3.6119934  90.1659726  72.1366718   3.9107981  91.3993160
  60.0755251  -2.9620913  84.6555240  59.2786414  -2.8502219  85.1738736
  59.8480843  -2.6234261  83.7896131  65.9060918   3.5623790  92.6037755
  65.9705351   4.0244197  93.4395927  65.1971842   2.9321155  92.7320065
  56.4078208  -3.0735002  90.1286755  56.6586247  -2.1887992  90.3944331
  56.9437757  -3.2530400  89.3561846  65.6208936   5.2291898  82.4716735
  65.4854611   6.0743433  82.9001583  66.1618748   5.4311175  81.7082669
  59.0738333   2.7467336  83.0444661  59.5862854   3.5410586  83.1950225
  59.7261046   2.0493626  82.9778262  60.8833218   5.8633092  85.1267414
  61.0599846   6.7851057  84.9388398  61.6790051   5.5491511  85.5561793
  60.1685574  -2.0902276  95.0029577  60.0539090  -2.9917019  95.3036676
  59.3130092  -1.8438579  94.6514393  67.2477412   5.8515464  96.6017078
  66.8041266   5.0651843  96.2837982  67.9094626   6.0394615  95.9360968
  62.0064533   7.3811266  91.1277756  62.5571958   7.2528329  90.3554750
  61.1676009   7.6806155  90.7772649  69.3458650   6.1318264  94.6298479
  69.3277126   6.9527145  94.1378748  70.2678570   6.0072339  94.8548620
  65.8031704   3.6462394  95.4721987  66.3360041   2.8850682  95.2421295
  65.2745786   3.3536045  96.2146142  57.0387250   1.0755990  83.8204231
  57.8762472   1.4852998  83.6037939  57.2165518   0.1355432  83.7904425
  67.1684417   2.7748386  82.9840799  66.6405779   2.0401146  82.6714037
  66.6671920   3.5523062  82.7380767  72.1477263   0.9697406  88.1007845
  71.4900938   1.6596668  88.1887974  72.9517662   1.3593838  88.4441832
  65.3137017   0.5928596  75.9875772  64.4064079   0.3617850  76.1866921
  65.8108049  -0.2033784  76.1749754  68.2205096   9.3026103  78.9072458
  67.5466795   9.6057800  79.5157416  68.6070918  10.1055184  78.5577915
  66.4925251   0.6941191  80.5099762  65.5836470   0.4100224  80.6072232
  66.5220335   1.1140270  79.6503069  71.7244518   4.3047781  84.2790930
  71.2706845   3.4638691  84.3356120  71.0938485   4.9409179  84.6165710
  70.1677457   6.1424277  85.2140748  70.4600432   6.7029334  84.4953114
  70.6776078   6.4352838  85.9693907  57.0613421  -1.5853295  84.4914964
  56.8637821  -2.1783934  83.7666031  56.5060085  -1.8901085  85.2090903
  66.1901339   2.2349935  77.8487841  65.7520768   1.5185794  77.3893478
  66.9311779   2.4626050  77.2872932  65.1311083   6.9204628  86.3034201
  65.0887261   7.1465475  85.3742733  66.0473781   6.6868003  86.4520002
  74.3343833   2.5783659  88.9175431  74.7680340   2.4858948  89.7658485
  75.0475414   2.5541159  88.2795447  63.2476883   3.7967657  86.0996164
  64.0417482   3.3017978  85.8978739  62.5368576   3.2685521  85.7363869
  68.0671728   6.1785753  90.4508532  68.1208750   6.7476689  91.2186247
  67.1986509   6.3487638  90.0862569  59.5559647  -2.0589261  82.1755917
  58.6257235  -2.1204805  82.3925879  59.6517119  -2.5813308  81.3792558
  75.1959382   2.6207360  91.4508316  75.3895273   3.5253170  91.6967591
  75.0960001   2.1614779  92.2846901  70.2574491   2.7714102  97.0249197
  70.1059998   2.5424654  96.1079281  70.2479171   3.7284704  97.0380542
  67.0259828   0.3446015  92.0095463  67.9551888   0.4957175  91.8364431
  66.6050858   0.4330036  91.1544110  65.8248159   4.3696679  89.7794001
  65.6859245   4.0015464  90.6519939  65.0362756   4.8844319  89.6077959
  66.4196311   9.4705776  81.1219538  66.5948067   8.9993819  81.9365160
  65.7329099  10.0971542  81.3500798  67.3753375   3.7478282  87.1682839
  67.0403207   3.7079052  88.0640489  66.8757320   3.0822998  86.6953249
  61.3497618  -0.8454088  92.6935420  61.2117416  -1.5773849  93.2946959
  62.2602542  -0.9345188  92.4119608  70.3112566   1.0934316  77.4419898
  69.6941737   0.3681145  77.3452951  69.8429055   1.8543677  77.0986973
  63.9779919  -1.1334129  92.1819100  64.6879538  -1.7740936  92.1405718
  63.9349227  -0.8821234  93.1045280  71.9666698   5.8033225  95.1025679
  71.9079244   5.1192445  94.4356262  72.3686216   6.5452215  94.6506305
  60.9857397  12.6195139  87.8959398  61.2253995  13.2513663  88.5738416
  60.1426593  12.2683179  88.1824757  71.9684105   3.7672809  93.3339658
  71.0810884   3.4298731  93.4566057  72.5382656   3.0355840  93.5708424
  53.6213252   0.0996900  86.6582710  54.3084292  -0.2141369  86.0703725
  53.4661381   1.0038265  86.3849961  65.4985258   8.4274261  90.3000902
  65.4255430   9.2329233  90.8120206  65.0562652   8.6266227  89.4748923
  65.2875038   7.6646031  83.8103723  64.5042560   8.2067711  83.9041948
  65.9867783   8.1820011  84.2097964  67.9583942   8.3261095  92.4559060
  68.6711914   8.9608560  92.3834962  67.4673971   8.4224961  91.6399062
  69.6801469   2.2312348  84.0276352  68.7457748   2.3513810  83.8581056
  69.8578137   1.3284815  83.7636362  63.0095856   6.0755539  93.2764631
  63.7105315   6.7092022  93.4294025  62.5390971   6.4170270  92.5160270
  71.1350251   4.4173488  81.5612538  71.4110095   4.3030083  82.4706412
  70.2654750   4.0190973  81.5224711  67.7704315   8.6659839  85.2045352
  67.9526710   7.8481495  85.6673104  68.5937301   8.8827531  84.7670242
  68.1046481   7.5928024  82.4660400  68.6334247   7.0820479  81.8530562
  68.3674700   7.2770555  83.3305933  66.8584715  -0.6280043  97.5883219
  66.1825352  -0.7285914  98.2585594  67.6812348  -0.7840829  98.0519216
  58.6063574   5.6091894  90.2095734  59.1917010   4.8635582  90.3423638
  58.4088412   5.9195850  91.0932398  61.4602229   8.6443141  85.2258176
  60.7912604   9.1289269  84.7422216  61.3215099   8.8912361  86.1401555
  53.1981228  -1.8202506  88.9300177  53.2365328  -2.3538915  89.7237295
  52.6921521  -2.3467301  88.3111154  65.6007497  10.6786885  91.8240835
  66.1525805  10.8418506  92.5889920  65.9413691  11.2691322  91.1520859
  70.4518372   5.5048142  97.6789489  70.9958276   6.1178100  97.1844444
  69.8705217   6.0627720  98.1956502  56.8289806  -3.0938404  82.0054108
  57.1243247  -4.0027726  81.9521162  55.9277842  -3.1150665  81.6835111
  68.7375885   8.6268860  88.8104517  68.6127024   7.8258600  88.3015462
  69.3954976   9.1215053  88.3218487  70.8010793   6.4277880  90.4384067
  69.8541129   6.3083231  90.3662394  71.1493566   5.5400378  90.5210328
  67.8057226   6.2230596  86.6388419  67.6582189   5.2947304  86.8195989
  68.6310720   6.2450687  86.1545494  71.4091348   7.0459155  87.7253292
  72.3337896   6.8402016  87.5877743  71.2406652   6.7975556  88.6342633
  71.1986664   7.5644823  83.0815383  71.3723542   6.9991245  82.3289236
  71.6915556   8.3645717  82.8994873  57.0163624  -0.4240508  91.1478942
  56.4717092   0.3519300  91.2799216  57.8942974  -0.0769704  90.9898064
  72.1861837   6.8811587  80.1812282  72.8812742   7.5018280  80.3999596
  72.5284987   6.0306938  80.4564659  57.8029646  -1.2970612  94.0409099
  57.0611382  -1.1487977  94.6273729  57.4822390  -1.0362346  93.1775848
  74.0853260   4.3311292  81.7099612  74.6104584   4.6698565  80.9848932
  73.9975613   3.3958308  81.5262747  65.7473309   8.2445366  93.8389489
  66.0560435   7.9994513  94.7112189  66.5448791   8.4492005  93.3508359
  65.7693921  10.3983276  86.0694866  65.3298911   9.9059654  86.7627722
  66.5202038   9.8556243  85.8286941  58.2486260   6.5894817  86.0719494
  59.0744280   6.2898588  85.6918137  57.8980312   5.8202439  86.5209282
  63.2167793   5.9421285  88.1417167  62.5947802   5.2791990  87.8419395
  63.8872660   5.9682417  87.4590815  56.4494865   4.5081143  87.0308427
  55.6126773   4.0803317  86.8492428  56.4218510   4.7013586  87.9679218
  73.7747166   4.9644196  97.0150810  72.9842710   4.9468335  96.4755310
  73.5380521   5.5032490  97.7699847  62.7781300   4.4925208  81.6175628
  62.9269420   5.1760673  80.9642300  63.5847743   4.4730298  82.1325083
  75.3963238   4.2333604  94.5725560  75.1048046   4.5963585  95.4089021
  74.7835369   3.5200612  94.3938892  60.5333933   0.5190386  82.6236697
  60.2879975  -0.3847284  82.8216907  60.7029847   0.5207536  81.6816175
  66.2776705   6.9873339  79.0887375  65.7050672   7.6063526  78.6357847
  66.8509499   7.5372700  79.6227297  69.4973965   7.2710489  80.2195957
  70.4304638   7.2056050  80.4228833  69.4097178   8.1066756  79.7610490
  72.1261982   6.5876359  77.1799905  72.0475613   6.2536223  78.0735663
  72.9471649   7.0798127  77.1791377  66.5462196   2.3751898  97.8904085
  67.4665206   2.5530497  98.0844131  66.5111779   1.4307943  97.7383784
  55.7644361  -2.4309509  86.8157359  55.4447146  -3.2844201  86.5231733
  55.2177790  -2.2160931  87.5715327  59.5424269   0.2852932  90.5326866
  59.7610279   1.2170040  90.5514900  59.9550043  -0.0739093  91.3181670
  55.6332621   1.1893403  88.7850481  54.9396093   0.7747355  88.2720435
  56.3805612   1.2313939  88.1883900  64.2783404  -0.7116723  98.7394676
  63.7950486   0.0883637  98.9458565  64.3644343  -0.7008778  97.7862120
  57.5469364   1.1211656  86.6616496  57.5240052   1.2199344  85.7098379
  57.8570000   1.9676807  86.9833662  60.2056742   3.1787811  90.7763110
  61.1599995   3.1471754  90.7093042  60.0069265   2.7178435  91.5913336
  60.7956124   1.7488928  93.3433908  61.6149013   2.2433006  93.3668745
  61.0692932   0.8320896  93.3151475  58.5606971   8.7207431  87.7933308
  58.4261439   7.9607832  87.2271306  58.1439033   9.4448331  87.3262097
  69.6965934   3.9044355  76.8009883  70.4001784   4.1094357  77.4167539
  68.9728582   4.4721116  77.0658967  61.7176096   9.6176748  88.0051751
  61.6008481  10.5622180  87.9030441  60.8968543   9.3150310  88.3937550
  71.6052631   4.3426884  78.8508343  72.4398235   3.9108082  78.6685818
  71.4436974   4.1708897  79.7785238  71.2598523   0.8458997  80.2164683
  71.2047327   0.6803268  79.2753127  70.6344578   1.5535030  80.3726872
  56.0491038  -3.9172939  94.0426105  56.6949902  -4.4273985  94.5313330
  55.8408189  -3.1804257  94.6169530  68.5744430   3.1507909  99.5418245
  69.4435590   3.3248561  99.1804880  68.0951182   3.9702326  99.4193975
  62.7430611  10.2705010  91.2207679  63.6457857  10.3028620  91.5374174
  62.5167981   9.3405461  91.2354015  64.4984213   9.0235996  87.8817758
  63.5479844   9.0237858  87.7682130  64.8016699   8.2768731  87.3653792
  80.2336906  14.8596535  88.9463520  80.8715316  14.7403282  88.2426860
  80.1157749  15.8077379  89.0051472  77.0426612  14.8123963  88.8825045
  76.7045124  14.6965028  87.9945580  77.9116381  14.4115128  88.8626051
  72.9013428  16.6659439  84.8721936  72.3378293  16.5749376  84.1038224
  72.7865823  15.8459344  85.3524428  77.5246395  15.9658815  94.8411250
  77.5135036  15.5711613  93.9691754  77.6867035  15.2324887  95.4345022
  70.4477860  18.1610631  87.7106156  71.2399152  17.8201456  87.2952456
  70.6874510  18.2705606  88.6308310  78.4812987  20.3330407  80.1836401
  77.8300967  20.9184487  79.7970414  79.2757350  20.8636602  80.2431438
  72.4068614  17.4219544  80.5823535  73.1799490  16.8748531  80.4436411
  72.7594013  18.2863794  80.7937996  74.2453657  18.7495926  93.7890434
  73.9543522  19.6541557  93.6737101  74.8810641  18.7912454  94.5034504
  75.1709863  16.1272775  90.3791794  75.7673436  15.9028797  89.6648757
  75.2284835  15.3857520  90.9817242  74.7434892  13.5812210  78.2141985
  74.9960412  13.0593732  77.4525448  73.8059451  13.4178356  78.3168669
  79.7878175  12.5847989  86.0216728  80.5741264  12.1667412  85.6707145
  80.0516879  13.4894081  86.1898377  79.9588252  18.0220839  80.7205385
  79.3234085  18.0955466  81.4326290  79.6285658  18.6114438  80.0424464
  85.1886602  12.5223222  86.9249707  85.9211774  11.9522439  87.1587536
  84.4325957  12.1344822  87.3656212  74.4631181  15.4840316  80.4166360
  74.3467439  14.8085220  81.0847444  74.5733440  14.9972690  79.5998513
  76.8062721  14.9450463  84.1213049  76.4420929  14.4181084  84.8325971
  77.6629837  14.5548932  83.9479535  82.7112022   6.2344796  91.3844315
  82.3795347   7.1040207  91.1605530  82.1157635   5.9181080  92.0638346
  76.4468208   9.9740363  79.1174398  76.6142611  10.8420599  79.4844869
  76.2565377  10.1367645  78.1935687  79.2043542  18.4357342  90.7840228
  78.9044265  19.3382381  90.6756035  78.8594601  18.1689525  91.6361381
  72.6556023  14.8871139  86.8176932  71.7306520  14.7547353  87.0254624
  72.9040436  15.6665358  87.3146875  82.6040685  10.9539882  88.4637665
  81.6957563  10.8855291  88.1696426  82.5528281  11.4311827  89.2919491
  76.4257429  12.4298021  80.1021064  76.3057054  12.8755071  80.9406545
  75.7310018  12.7783338  79.5434603  70.0164834  14.5304412  87.6520722
  70.1457215  14.7838891  88.5660133  69.3362285  15.1232120  87.3325377
  74.1864321  25.2001662  83.7511196  74.1088351  26.1509487  83.8299676
  73.5825965  24.8547535  84.4086122  76.6781551  12.3729528  96.4072563
  75.9014885  12.9323448  96.3975427  77.3172114  12.8586311  96.9287433
  84.4702332   9.1556321  90.2415539  83.8276712   9.4488854  89.5955334
  83.9657260   9.0409241  91.0468736  82.1242495  12.9019494  80.9301399
  83.0360352  13.1346881  80.7549096  81.6152143  13.4856538  80.3676477
  74.9327923  15.1814981  95.9690530  75.6742608  15.7200025  95.6925353
  74.2264909  15.8081270  96.1262081  80.4083263  17.3244122  94.5662691
  80.8166619  16.8826532  93.8217323  79.6860525  16.7496749  94.8196884
  76.7614333  12.2616728  91.9396248  77.6075528  12.6856142  92.0830897
  76.7012971  11.6050353  92.6334811  80.7312078  17.8845312  88.3214980
  80.1020940  18.0491026  87.6191048  80.3437740  18.2986922  89.0925944
  84.6101310  18.8199750  85.6759344  83.9252348  19.1998651  85.1256377
  84.6945159  19.4295077  86.4091291  79.9113778   9.9221097  93.5977422
  79.6674710  10.6763157  93.0611697  80.1873709  10.3006444  94.4324669
  81.8652241  16.4659709  92.2754687  82.0769136  17.1091469  91.5989068
  81.8181990  15.6322026  91.8076617  79.4678470   9.0777530  89.1791259
  78.6062949   9.3758783  89.4707997  79.4940905   9.2947929  88.2472292
  76.2840040  17.6219720  85.5865065  76.7478385  17.9007423  84.7969688
  76.0196838  16.7203165  85.4038156  73.1764121  17.1691202  88.5244828
  73.7465478  17.5978470  87.8862313  73.7672233  16.8873787  89.2229014
  75.2208926  13.7442873  82.3954630  75.9232969  14.1963916  82.8628557
  74.8889554  13.1026692  83.0234523  73.6689287  12.3354629  96.7705840
  73.0387948  13.0170910  97.0041236  73.5625375  12.2237711  95.8258978
  68.9634260  12.0026425  87.6971764  68.1733314  12.2583954  87.2211874
  69.4545507  12.8174763  87.8023804  82.9798069  19.3431665  90.4477045
  83.8015513  18.9411852  90.1659726  82.9760472  19.2399899  91.3993160
  70.9149005  12.3671005  84.6555240  70.1180168  12.4789699  85.1738736
  70.6874597  12.7057657  83.7896131  76.7454673  18.8915708  92.6037755
  76.8099105  19.3536115  93.4395927  76.0365597  18.2613073  92.7320065
  67.2471963  12.2556916  90.1286755  67.4980001  13.1403926  90.3944331
  67.7831511  12.0761517  89.3561846  91.0704062  15.6870413  86.7962016
  90.3167771  15.1177811  86.6406021  91.2051603  15.6533077  87.7432651
  76.4602690  20.5583815  82.4716735  76.3248365  21.4035351  82.9001583
  77.0012503  20.7603093  81.7082669  72.9470030   6.6375395  99.1331091
  72.5536976   6.0841594  99.8078735  73.7636170   6.9485974  99.5237608
  69.9132088  18.0759253  83.0444661  70.4256608  18.8702504  83.1950225
  70.5654801  17.3785544  82.9778262  71.7226972  21.1925010  85.1267414
  71.8993601  22.1142974  84.9388398  72.5183806  20.8783429  85.5561793
  75.8637991   8.0533274  96.7251347  76.6047704   8.6540427  96.6455810
  76.0955914   7.3110912  96.1669390  71.0079329  13.2389641  95.0029577
  70.8932844  12.3374899  95.3036676  70.1523847  13.4853338  94.6514393
  78.0871167  21.1807382  96.6017078  77.6435021  20.3943760  96.2837982
  78.7488380  21.3686532  95.9360968  72.8458288  22.7103183  91.1277756
  73.3965713  22.5820247  90.3554750  72.0069764  23.0098072  90.7772649
  80.1852405  21.4610182  94.6298479  80.1670880  22.2819063  94.1378748
  81.1072325  21.3364257  94.8548620  76.6425459  18.9754311  95.4721987
  77.1753796  18.2142599  95.2421295  76.1139540  18.6827963  96.2146142
  79.8095154   4.0814377  91.0015629  79.4659423   4.9716019  90.9254739
  80.1774116   3.8916035  90.1385214  67.8781004  16.4047908  83.8204231
  68.7156226  16.8144916  83.6037939  68.0559272  15.4647350  83.7904425
  79.7745437  14.0722988  79.5088064  79.2592060  14.8427593  79.7476451
  79.5022745  13.3988124  80.1321125  77.3592548   8.9172689  84.5673302
  76.5034144   8.5279539  84.3878941  77.7719499   8.9964650  83.7073088
  78.8891694   6.4519032  88.9664862  78.3856490   6.4149167  88.1532667
  79.1822301   7.3611775  89.0261519  75.1334580   6.5357762  87.9731044
  75.9987577   6.3400571  87.6136933  75.2012089   6.3068114  88.9000401
  84.7479711  16.8255343  81.4441237  83.9709153  16.4866502  80.9996400
  85.4271192  16.8307966  80.7696203  79.5631740  11.9450080  81.3347845
  79.2581875  12.2596230  82.1857988  80.5162182  12.0231500  81.3775178
  78.0078172  18.1040304  82.9840799  77.4799533  17.3693063  82.6714037
  77.5065674  18.8814980  82.7380767  82.9871018  16.2989324  88.1007845
  82.3294692  16.9888586  88.1887974  83.7911417  16.6885756  88.4441832
  72.7396899   8.7659970  85.3447411  73.3140651   8.5435151  84.6120604
  73.3267882   8.8348664  86.0976012  81.7976476  14.6533697  86.1511787
  82.3108358  15.2863689  86.6533497  82.4477700  14.0534892  85.7855147
  73.0666486  10.7964431  79.3643296  72.2303799  11.1339118  79.6852571
  72.9271256  10.6613411  78.4270433  75.0419567   5.6401219  84.0722480
  74.3883979   5.3250236  83.4479095  75.0000041   5.0176959  84.7982303
  76.1530772  15.9220514  75.9875772  75.2457834  15.6909767  76.1866921
  76.6501804  15.1258133  76.1749754  79.0598851  24.6318021  78.9072458
  78.3860549  24.9349718  79.5157416  79.4464673  25.4347101  78.5577915
  78.2757307  12.1283152  88.3970128  77.3579869  12.3498099  88.2391816
  78.6917451  12.2029463  87.5381835  79.0592355  13.5274568  83.5272808
  79.8064174  14.0395965  83.2179930  79.3283945  13.2058621  84.3877202
  77.3319005  16.0233109  80.5099762  76.4230224  15.7392142  80.6072232
  77.3614089  16.4432187  79.6503069  82.5638273  19.6339698  84.2790930
  82.1100600  18.7930608  84.3356120  81.9332239  20.2701097  84.6165710
  81.5071192  10.5631684  85.5091597  80.7693949  10.0509071  85.8401840
  81.7597966  10.1232066  84.6974874  81.0071212  21.4716195  85.2140748
  81.2994186  22.0321252  84.4953114  81.5169832  21.7644756  85.9693907
  67.9007176  13.7438623  84.4914964  67.7031575  13.1507984  83.7666031
  67.3453840  13.4390833  85.2090903  75.8803899  13.6361729  86.6109558
  75.9352509  12.6835566  86.5352034  75.0695101  13.7921169  87.0950856
  77.0295093  17.5641852  77.8487841  76.5914523  16.8477711  77.3893478
  77.7705534  17.7917967  77.2872932  73.8196259  12.2538789  84.3699937
  73.0064125  12.5532960  84.7765129  74.3155253  11.8594478  85.0874419
  75.9704837  22.2496546  86.3034201  75.9281016  22.4757392  85.3742733
  76.8867536  22.0159921  86.4520002  79.4170471  12.7180614  93.2014830
  79.7719859  12.9452087  94.0609296  80.0642602  13.0498990  92.5792086
  85.1468208  15.8399050  83.9064159  85.0086106  16.0300645  82.9785349
  84.7904427  16.6018432  84.3632211  73.3110334   9.8257145  89.9861171
  73.9509713   9.6845904  89.2884135  72.4787864   9.5391658  89.6099773
  85.1737587  17.9075577  88.9175431  85.6074094  17.8150866  89.7658485
  85.8869168  17.8833077  88.2795447  74.0870638  19.1259575  86.0996164
  74.8811236  18.6309895  85.8978739  73.3762330  18.5977438  85.7363869
  78.9065482  21.5077671  90.4508532  78.9602505  22.0768607  91.2186247
  78.0380264  21.6779556  90.0862569  70.3953401  13.2702657  82.1755917
  69.4650989  13.2087112  82.3925879  70.4910873  12.7478610  81.3792558
  70.3138950   9.7957470  84.7634158  70.5745768  10.7102803  84.6543319
  71.1356123   9.3281912  84.9130771  71.7863876  11.2095227  91.9332983
  72.4586929  11.0012589  91.2845632  70.9593662  11.0117313  91.4938215
  86.0353137  17.9499277  91.4508316  86.2289027  18.8545088  91.6967591
  85.9353755  17.4906696  92.2846901  77.6889448   7.8357168  93.9498644
  77.0417363   8.5347117  93.8563120  78.4590463   8.2693312  94.3174892
  81.0968246  18.1006020  97.0249197  80.9453752  17.8716572  96.1079281
  81.0872925  19.0576621  97.0380542  77.8653582  15.6737933  92.0095463
  78.7945642  15.8249092  91.8364431  77.4444612  15.7621953  91.1544110
  76.6641914  19.6988597  89.7794001  76.5253000  19.3307381  90.6519939
  75.8756510  20.2136237  89.6077959  77.2590066  24.7997694  81.1219538
  77.4341822  24.3285737  81.9365160  76.5722854  25.4263460  81.3500798
  78.2147129  19.0770200  87.1682839  77.8796962  19.0370970  88.0640489
  77.7151075  18.4114916  86.6953249  72.1891373  14.4837830  92.6935420
  72.0511171  13.7518069  93.2946959  73.0996296  14.3946730  92.4119608
  81.1506321  16.4226234  77.4419898  80.5335491  15.6973062  77.3452951
  80.6822809  17.1835594  77.0986973  74.8173674  14.1957789  92.1819100
  75.5273292  13.5550981  92.1405718  74.7742982  14.4470684  93.1045280
  82.8060452  21.1325142  95.1025679  82.7472998  20.4484363  94.4356262
  83.2079971  21.8744132  94.6506305  73.5302608  11.1823007  94.0014739
  72.9939965  10.7313745  94.6536335  72.9419316  11.3168916  93.2585203
  71.8251151  27.9487056  87.8959398  72.0647749  28.5805580  88.5738416
  70.9820348  27.5975096  88.1824757  72.9404867  10.6411658  76.5641203
  72.0634333  10.5200459  76.2003449  73.4162620   9.8497737  76.3120091
  82.8077860  19.0964726  93.3339658  81.9204638  18.7590648  93.4566057
  83.3776411  18.3647758  93.5708424  64.4607007  15.4288818  86.6582710
  65.1478047  15.1150548  86.0703725  64.3055135  16.3330183  86.3849961
  69.2641729  10.3179015  91.0867734  69.1799918   9.7104684  90.3518144
  68.4424435  10.8088033  91.0877230  76.3379013  23.7566179  90.3000902
  76.2649184  24.5621150  90.8120206  75.8956406  23.9558145  89.4748923
  76.1268793  22.9937949  83.8103723  75.3436314  23.5359629  83.9041948
  76.8261538  23.5111928  84.2097964  79.4365443   8.8032578  86.4537929
  79.9334142   8.0502541  86.1338999  78.6652424   8.8396895  85.8881138
  87.2895200  14.5072944  88.0956220  87.2785076  15.3897659  87.7250153
  86.4212580  14.1544495  87.9010757  78.7977696  23.6553013  92.4559060
  79.5105669  24.2900478  92.3834962  78.3067725  23.7516879  91.6399062
  80.5195223  17.5604265  84.0276352  79.5851502  17.6805728  83.8581056
  80.6971892  16.6576732  83.7636362  76.0200411  10.9449961  86.1809613
  75.6498199  10.3921002  86.8690519  76.5159504  10.3408095  85.6284613
  83.9067775  13.4021585  84.5626386  84.3728227  14.2349576  84.4886689
  84.3575275  12.9366566  85.2671645  73.8489610  21.4047456  93.2764631
  74.5499070  22.0383939  93.4294025  73.3784725  21.7462188  92.5160270
  81.9744006  19.7465406  81.5612538  82.2503850  19.6322001  82.4706412
  81.1048505  19.3482891  81.5224711  81.8784437   5.7702172  88.6017287
  80.9647517   6.0006399  88.7699494  82.3077539   5.8540616  89.4531320
  81.6490896  13.9592064  91.1017182  80.9962346  14.2067971  90.4469634
  82.0271276  13.1456202  90.7679659  78.6098070  23.9951757  85.2045352
  78.7920464  23.1773413  85.6673104  79.4331056  24.2119449  84.7670242
  78.9440235  22.9219942  82.4660400  79.4728002  22.4112397  81.8530562
  79.2068455  22.6062472  83.3305933  77.6978469  14.7011875  97.5883219
  77.0219106  14.6006004  98.2585594  78.5206103  14.5451089  98.0519216
  69.4457328  20.9383811  90.2095734  70.0310765  20.1927499  90.3423638
  69.2482167  21.2487768  91.0932398  72.2995983  23.9735059  85.2258176
  71.6306359  24.4581186  84.7422216  72.1608853  24.2204279  86.1401555
  64.0374983  13.5089412  88.9300177  64.0759082  12.9753002  89.7237295
  63.5315276  12.9824617  88.3111154  76.4401252  26.0078802  91.8240835
  76.9919560  26.1710424  92.5889920  76.7807445  26.5983240  91.1520859
  71.4165745   8.3553952  92.4262719  71.4807072   9.2168783  92.0140117
  71.3532865   7.7427954  91.6935078  70.8918018  10.4277085  96.0735754
  71.5190056  10.0454162  96.6873278  70.0345937  10.2091287  96.4391446
  81.2912126  20.8340060  97.6789489  81.8352030  21.4470018  97.1844444
  80.7098971  21.3919638  98.1956502  67.6683560  12.2353514  82.0054108
  67.9637001  11.3264192  81.9521162  66.7671596  12.2141253  81.6835111
  79.5769639  23.9560778  88.8104517  79.4520779  23.1550518  88.3015462
  80.2348730  24.4506971  88.3218487  71.1977807  10.3109510  87.9881657
  70.4764393  10.9245478  87.8489130  71.9871063  10.8467275  87.9098303
  81.6404548  21.7569798  90.4384067  80.6934883  21.6375149  90.3662394
  81.9887321  20.8692296  90.5210328  74.0004121   7.6463937  94.2622309
  74.5238523   7.8926233  95.0248618  73.7816454   8.4783972  93.8425446
  69.3971402   9.9167611  82.1293434  69.0684108   9.0364990  81.9468539
  69.7510773   9.8615280  83.0169823  78.6450981  21.5522514  86.6388419
  78.4975943  20.6239221  86.8195989  79.4704474  21.5742605  86.1545494
  72.5113225  10.2040581  82.4968911  72.8509298  10.7326502  81.7747520
  72.9585346  10.5420987  83.2727478  82.2485103  22.3751073  87.7253292
  83.1731650  22.1693934  87.5877743  82.0800406  22.1267474  88.6342633
  75.2056666   8.5877632  91.9471979  74.8653486   7.7885445  92.3492659
  74.4995672   8.8879343  91.3748812  75.8573138   5.6726944  90.3999302
  76.6799207   5.1987422  90.2778193  76.1011201   6.4517428  90.8997989
  74.4981372   8.7015203  80.6962204  75.2189735   9.0796456  80.1925921
  73.8746676   9.4204080  80.7997182  78.6412495   9.4060352  81.6320536
  78.8576110  10.2884990  81.3309364  78.1606562   9.0146565  80.9026178
  73.3811717  12.3646065  88.2091281  73.2356297  12.6786368  89.1015562
  72.9036920  12.9830965  87.6562180  75.2408099   9.3548613  88.2572170
  75.2269668   8.4589706  87.9204468  75.9580528   9.3619277  88.8910457
  77.0934230   9.7885953  90.3025298  76.8352008  10.7103024  90.3009628
  76.5619271   9.3916388  90.9925762  82.0380419  22.8936740  83.0815383
  82.2117296  22.3283163  82.3289236  82.5309310  23.6937635  82.8994873
  67.8557379  14.9051409  91.1478942  67.3110847  15.6811217  91.2799216
  68.7336729  15.2522214  90.9898064  74.6444995   8.2362993  83.5259741
  74.7660907   7.3079639  83.7250628  74.3547038   8.2501679  82.6138056
  77.5136186   5.9217904  86.6626460  77.5357883   5.9857237  85.7078440
  77.9304245   5.0822412  86.8566967  87.8919810  15.6573163  84.7005683
  88.3350956  14.9080488  84.3024806  87.0146320  15.6483300  84.3179415
  83.0255591  22.2103505  80.1812282  83.7206496  22.8310197  80.3999596
  83.3678742  21.3598856  80.4564659  68.6423401  14.0321306  94.0409099
  67.9005137  14.1803941  94.6273729  68.3216145  14.2929571  93.1775848
  84.9247015  19.6603210  81.7099612  85.4498339  19.9990483  80.9848932
  84.8369367  18.7250225  81.5262747  76.5867063  23.5737284  93.8389489
  76.8954190  23.3286431  94.7112189  77.3842545  23.7783922  93.3508359
  76.6087675  25.7275193  86.0694866  76.1692666  25.2351572  86.7627722
  77.3595792  25.1848161  85.8286941  69.0880014  21.9186734  86.0719494
  69.9138034  21.6190506  85.6918137  68.7374066  21.1494357  86.5209282
  74.0561547  21.2713203  88.1417167  73.4341557  20.6083908  87.8419395
  74.7266414  21.2974334  87.4590815  67.2888619  19.8373061  87.0308427
  66.4520528  19.4095235  86.8492428  67.2612265  20.0305504  87.9679218
  74.1286075   9.7494991  97.7349673  74.1774230  10.6257113  97.3527443
  74.6708589   9.2072384  97.1621316  84.6140921  20.2936114  97.0150810
  83.8236464  20.2760253  96.4755310  84.3774275  20.8324407  97.7699847
  84.7338796  17.1428580  94.3283539  84.7836801  16.9778588  95.2699062
  84.6252719  16.2755839  93.9381420  73.6175054  19.8217126  81.6175628
  73.7663175  20.5052590  80.9642300  74.4241498  19.8022216  82.1325083
  82.0242558  13.1259508  95.6442846  82.9252421  12.9865973  95.3526843
  82.0990533  13.2913963  96.5841023  76.3585363  10.5026363  94.4896032
  75.4888673  10.7959929  94.2178620  76.5944844  11.0866808  95.2103295
  86.2356992  19.5625522  94.5725560  85.9441801  19.9255502  95.4089021
  85.6229124  18.8492530  94.3938892  87.4352675  17.1278401  87.0928131
  88.2699566  17.5668206  87.2565691  87.5711804  16.6517055  86.2736376
  84.4844181  14.6858136  93.0405618  84.9598302  14.8785783  92.2324470
  83.5609746  14.7417322  92.7949002  71.3727687  15.8482304  82.6236697
  71.1273729  14.9444634  82.8216907  71.5423602  15.8499454  81.6816175
  79.0624397   6.7205980  92.0061452  79.5806341   7.4567007  91.6807941
  78.7079530   7.0269973  92.8408211  70.6423335  11.5810661  80.1222858
  69.9492580  11.6555016  79.4662894  70.3975087  10.8171005  80.6444375
  77.1170460  22.3165256  79.0887375  76.5444427  22.9355443  78.6357847
  77.6903254  22.8664618  79.6227297  83.1845850  11.5623896  91.2733924
  84.1363273  11.6621994  91.2946148  83.0149300  10.7702165  91.7832008
  81.2060229   8.6479480  91.4593325  80.6110161   8.9284492  90.7639813
  80.9209926   9.1373381  92.2310066  80.3367720  22.6002406  80.2195957
  81.2698393  22.5347968  80.4228833  80.2490932  23.4358673  79.7610490
  82.9655736  21.9168277  77.1799905  82.8869368  21.5828140  78.0735663
  83.7865403  22.4090045  77.1791377  85.6633927  14.7830016  90.3876224
  85.6310248  13.8446017  90.5735907  86.2734551  14.8614053  89.6542048
  77.5017258  13.6526069  76.4303428  78.4476363  13.5232277  76.4991846
  77.1231503  12.9140731  76.9072856  85.8128416  11.5741060  90.4334507
  85.2967465  10.7899516  90.2464436  86.6968364  11.2459776  90.5981026
  83.4739143   5.3182075  86.3930319  83.2763964   5.0097163  87.2773651
  84.0838848   6.0443714  86.5228249  91.4810477  15.8446023  89.5282260
  92.2113866  15.5831311  90.0889964  90.8717423  15.1074745  89.5684328
  89.5625774  13.9853886  90.1256712  88.8358938  13.8509850  89.5173203
  89.1473061  14.2930714  90.9313430  77.3855951  17.7043815  97.8904085
  78.3058960  17.8822414  98.0844131  77.3505534  16.7599861  97.7383784
  75.6860176  11.5776045  76.3658313  74.7791631  11.2809158  76.4421026
  75.9636157  11.2805864  75.4992599  66.6038116  12.8982409  86.8157359
  66.2840900  12.0447717  86.5231733  66.0571544  13.1130987  87.5715327
  70.3818023  15.6144850  90.5326866  70.6004033  16.5461958  90.5514900
  70.7943797  15.2552824  91.3181670  77.3022241   6.1212935  82.5202554
  76.4922970   5.7760020  82.8957800  77.9906658   5.8120479  83.1090166
  79.2312790   5.1990982  84.1426851  79.7843828   5.6186435  84.8016874
  79.4682876   4.2726730  84.1849807  75.2545889  11.1878056  99.9229615
  75.1542616  12.1372413  99.8541706  75.0367431  10.8596295  99.0505685
  74.4558960   8.4362981  76.5070292  75.3178124   8.7617879  76.7666109
  74.6409304   7.6494477  75.9943358  66.4726376  16.5185320  88.7850481
  65.7789847  16.1039273  88.2720435  67.2199367  16.5605857  88.1883900
  82.6091597   7.3091507  83.6505515  82.0290266   7.9676311  83.2683567
  82.3427529   6.4868852  83.2392933  81.0595163   6.7096565  85.8526835
  81.5594941   6.8213099  85.0441154  81.7030771   6.4057618  86.4927644
  75.1177159  14.6175194  98.7394676  74.6344241  15.4175555  98.9458565
  75.2038098  14.6283139  97.7862120  68.3863118  16.4503574  86.6616496
  68.3633807  16.5491261  85.7098379  68.6963755  17.2968725  86.9833662
  71.0450496  18.5079729  90.7763110  71.9993750  18.4763672  90.7093042
  70.8463020  18.0470353  91.5913336  71.6349878  17.0780845  93.3433908
  72.4542767  17.5724924  93.3668745  71.9086686  16.1612813  93.3151475
  81.3916475   9.4691598  82.7061863  80.5042330   9.7541248  82.4882058
  81.8070464   9.3085361  81.8589140  84.7431011   9.4938119  86.4216203
  85.5191401   9.9834571  86.6940819  84.0179145   9.9196173  86.8788072
  87.1803569  10.2065738  87.4790143  87.7748060   9.9661474  86.7683451
  87.2530153   9.4872868  88.1063679  69.4000725  24.0499349  87.7933308
  69.2655193  23.2899750  87.2271306  68.9832787  24.7740249  87.3262097
  80.5359688  19.2336272  76.8009883  81.2395538  19.4386275  77.4167539
  79.8122337  19.8013034  77.0658967  81.3657498  14.9846133  82.9212153
  81.3092700  15.4414685  82.0819786  81.9185841  14.2236818  82.7434996
  85.1762304  10.7735865  83.7462273  84.9199239  10.3732501  84.5770481
  84.5515172  11.4879659  83.6212412  89.4874642  13.5131939  86.2533564
  88.9274200  13.5825128  87.0265126  88.8818145  13.3372923  85.5333061
  72.5569851  24.9468666  88.0051751  72.4402235  25.8914098  87.9030441
  71.7362297  24.6442227  88.3937550  82.4446385  19.6718801  78.8508343
  83.2791989  19.2400000  78.6685818  82.2830728  19.5000815  79.7785238
  82.0992278  16.1750915  80.2164683  82.0441081  16.0095186  79.2753127
  81.4738333  16.8826948  80.3726872  66.8884793  11.4118979  94.0426105
  67.5343656  10.9017933  94.5313330  66.6801944  12.1487661  94.6169530
  79.4138185  18.4799827  99.5418245  80.2829344  18.6540479  99.1804880
  78.9344936  19.2994243  99.4193975  75.4088403   5.6759024  79.7950001
  75.3967073   6.6200864  79.9518272  76.3011825   5.4929169  79.5009462
  73.5824365  25.5996928  91.2207679  74.4851612  25.6320538  91.5374174
  73.3561735  24.6697379  91.2354015  75.3377967  24.3527914  87.8817758
  74.3873598  24.3529776  87.7682130  75.6410453  23.6060649  87.3653792
  71.2282284   8.5586596  98.1401119  72.0913745   8.2023401  98.3504444
  70.6547694   8.2200491  98.8276523  91.0730661  30.1888453  88.9463520
  91.7109071  30.0695200  88.2426860  90.9551503  31.1369296  89.0051472
  87.8820367  30.1415881  88.8825045  87.5438878  30.0256945  87.9945580
  88.7510135  29.7407046  88.8626051  83.7407183  31.9951357  84.8721936
  83.1772048  31.9041294  84.1038224  83.6259578  31.1751261  85.3524428
  88.3640150  31.2950732  94.8411250  88.3528791  30.9003531  93.9691754
  88.5260789  30.5616805  95.4345022  81.2871614  33.4902549  87.7106156
  82.0792906  33.1493373  87.2952456  81.5268265  33.5997524  88.6308310
  89.3206741  35.6622325  80.1836401  88.6694721  36.2476405  79.7970414
  90.1151104  36.1928520  80.2431438  83.2462368  32.7511462  80.5823535
  84.0193244  32.2040449  80.4436411  83.5987767  33.6155711  80.7937996
  85.0847411  34.0787844  93.7890434  84.7937277  34.9833475  93.6737101
  85.7204395  34.1204372  94.5034504  86.0103618  31.4564693  90.3791794
  86.6067190  31.2320715  89.6648757  86.0678589  30.7149438  90.9817242
  85.5828646  28.9104128  78.2141985  85.8354167  28.3885649  77.4525448
  84.6453205  28.7470273  78.3168669  90.6271929  27.9139906  86.0216728
  91.4135018  27.4959330  85.6707145  90.8910633  28.8185999  86.1898377
  90.7982006  33.3512757  80.7205385  90.1627839  33.4247383  81.4326290
  90.4679413  33.9406355  80.0424464  96.0280356  27.8515140  86.9249707
  96.7605528  27.2814356  87.1587536  95.2719712  27.4636740  87.3656212
  85.3024935  30.8132234  80.4166360  85.1861193  30.1377137  81.0847444
  85.4127195  30.3264608  79.5998513  87.6456476  30.2742381  84.1213049
  87.2814683  29.7473002  84.8325971  88.5023592  29.8840850  83.9479535
  93.5505777  21.5636714  91.3844315  93.2189101  22.4332125  91.1605530
  92.9551390  21.2472998  92.0638346  87.2861963  25.3032281  79.1174398
  87.4536365  26.1712517  79.4844869  87.0959132  25.4659562  78.1935687
  90.0437296  33.7649260  90.7840228  89.7438019  34.6674298  90.6756035
  89.6988356  33.4981443  91.6361381  83.4949778  30.2163056  86.8176932
  82.5700274  30.0839271  87.0254624  83.7434191  30.9957276  87.3146875
  93.4434440  26.2831800  88.4637665  92.5351317  26.2147208  88.1696426
  93.3922036  26.7603745  89.2919491  87.2651184  27.7589938  80.1021064
  87.1450809  28.2046989  80.9406545  86.5703772  28.1075256  79.5434603
  80.8558589  29.8596330  87.6520722  80.9850970  30.1130809  88.5660133
  80.1756040  30.4524038  87.3325377  85.0258076  40.5293580  83.7511196
  84.9482106  41.4801405  83.8299676  84.4219719  40.1839453  84.4086122
  87.5175306  27.7021445  96.4072563  86.7408640  28.2615366  96.3975427
  88.1565869  28.1878228  96.9287433  95.3096086  24.4848238  90.2415539
  94.6670467  24.7780771  89.5955334  94.8051015  24.3701159  91.0468736
  92.9636250  28.2311411  80.9301399  93.8754106  28.4638798  80.7549096
  92.4545897  28.8148456  80.3676477  85.7721678  30.5106899  95.9690530
  86.5136362  31.0491943  95.6925353  85.0658663  31.1373188  96.1262081
  91.2477018  32.6536039  94.5662691  91.6560374  32.2118450  93.8217323
  90.5254279  32.0788667  94.8196884  87.6008088  27.5908646  91.9396248
  88.4469283  28.0148060  92.0830897  87.5406725  26.9342270  92.6334811
  91.5705832  33.2137230  88.3214980  90.9414695  33.3782944  87.6191048
  91.1831494  33.6278839  89.0925944  95.4495064  34.1491668  85.6759344
  94.7646102  34.5290569  85.1256377  95.5338913  34.7586994  86.4091291
  90.7507533  25.2513014  93.5977422  90.5068465  26.0055075  93.0611697
  91.0267463  25.6298362  94.4324669  92.7045996  31.7951627  92.2754687
  92.9162891  32.4383387  91.5989068  92.6575744  30.9613943  91.8076617
  90.3072225  24.4069447  89.1791259  89.4456704  24.7050701  89.4707997
  90.3334659  24.6239846  88.2472292  87.1233794  32.9511638  85.5865065
  87.5872140  33.2299341  84.7969688  86.8590592  32.0495083  85.4038156
  84.0157875  32.4983120  88.5244828  84.5859232  32.9270388  87.8862313
  84.6065987  32.2165704  89.2229014  86.0602680  29.0734790  82.3954630
  86.7626724  29.5255834  82.8628557  85.7283309  28.4318609  83.0234523
  84.5083042  27.6646547  96.7705840  83.8781702  28.3462828  97.0041236
  84.4019130  27.5529629  95.8258978  79.8028014  27.3318343  87.6971764
  79.0127068  27.5875872  87.2211874  80.2939262  28.1466681  87.8023804
  93.8191824  34.6723582  90.4477045  94.6409267  34.2703769  90.1659726
  93.8154227  34.5691816  91.3993160  81.7542760  27.6962922  84.6555240
  80.9573923  27.8081616  85.1738736  81.5268352  28.0349574  83.7896131
  87.5848427  34.2207625  92.6037755  87.6492860  34.6828033  93.4395927
  86.8759351  33.5904990  92.7320065  78.0865717  27.5848833  90.1286755
  78.3373756  28.4695843  90.3944331  78.6225266  27.4053435  89.3561846
 101.9097817  31.0162331  86.7962016 101.1561525  30.4469729  86.6406021
 102.0445358  30.9824995  87.7432651  87.2996445  35.8875733  82.4716735
  87.1642120  36.7327269  82.9001583  87.8406257  36.0895011  81.7082669
  83.7863784  21.9667313  99.1331091  83.3930730  21.4133511  99.8078735
  84.6029925  22.2777891  99.5237608  80.7525842  33.4051171  83.0444661
  81.2650363  34.1994421  83.1950225  81.4048555  32.7077461  82.9778262
  82.5620727  36.5216927  85.1267414  82.7387355  37.4434892  84.9388398
  83.3577560  36.2075346  85.5561793  86.7031745  23.3825192  96.7251347
  87.4441459  23.9832345  96.6455810  86.9349668  22.6402830  96.1669390
  81.8473083  28.5681559  95.0029577  81.7326599  27.6666816  95.3036676
  80.9917601  28.8145256  94.6514393  88.9264921  36.5099299  96.6017078
  88.4828775  35.7235678  96.2837982  89.5882135  36.6978450  95.9360968
  83.6852042  38.0395101  91.1277756  84.2359467  37.9112164  90.3554750
  82.8463518  38.3389990  90.7772649  91.0246159  36.7902099  94.6298479
  91.0064635  37.6110980  94.1378748  91.9466079  36.6656175  94.8548620
  87.4819213  34.3046229  95.4721987  88.0147550  33.5434517  95.2421295
  86.9533294  34.0119881  96.2146142  90.6488908  19.4106295  91.0015629
  90.3053178  20.3007937  90.9254739  91.0167871  19.2207952  90.1385214
  78.7174759  31.7339825  83.8204231  79.5549981  32.1436834  83.6037939
  78.8953027  30.7939267  83.7904425  90.6139191  29.4014906  79.5088064
  90.0985815  30.1719511  79.7476451  90.3416500  28.7280042  80.1321125
  88.1986302  24.2464607  84.5673302  87.3427898  23.8571457  84.3878941
  88.6113254  24.3256568  83.7073088  89.7285449  21.7810950  88.9664862
  89.2250244  21.7441085  88.1532667  90.0216056  22.6903693  89.0261519
  85.9728335  21.8649680  87.9731044  86.8381331  21.6692488  87.6136933
  86.0405844  21.6360031  88.9000401  95.5873465  32.1547261  81.4441237
  94.8102908  31.8158420  80.9996400  96.2664946  32.1599884  80.7696203
  90.4025494  27.2741998  81.3347845  90.0975630  27.5888147  82.1857988
  91.3555936  27.3523418  81.3775178  88.8471926  33.4332221  82.9840799
  88.3193288  32.6984981  82.6714037  88.3459429  34.2106898  82.7380767
  93.8264772  31.6281242  88.1007845  93.1688447  32.3180503  88.1887974
  94.6305171  32.0177674  88.4441832  83.5790654  24.0951888  85.3447411
  84.1534406  23.8727069  84.6120604  84.1661636  24.1640582  86.0976012
  92.6370231  29.9825615  86.1511787  93.1502113  30.6155606  86.6533497
  93.2871455  29.3826810  85.7855147  83.9060241  26.1256349  79.3643296
  83.0697553  26.4631035  79.6852571  83.7665010  25.9905328  78.4270433
  85.8813321  20.9693137  84.0722480  85.2277734  20.6542154  83.4479095
  85.8393796  20.3468877  84.7982303  89.8992605  39.9609939  78.9072458
  89.2254304  40.2641636  79.5157416  90.2858427  40.7639019  78.5577915
  89.1151062  27.4575070  88.3970128  88.1973623  27.6790017  88.2391816
  89.5311205  27.5321381  87.5381835  89.8986110  28.8566486  83.5272808
  90.6457928  29.3687883  83.2179930  90.1677699  28.5350538  84.3877202
  88.1712760  31.3525026  80.5099762  87.2623979  31.0684059  80.6072232
  88.2007844  31.7724105  79.6503069  93.4032027  34.9631616  84.2790930
  92.9494354  34.1222526  84.3356120  92.7725994  35.5993014  84.6165710
  92.3464947  25.8923602  85.5091597  91.6087703  25.3800988  85.8401840
  92.5991720  25.4523984  84.6974874  91.8464966  36.8008113  85.2140748
  92.1387941  37.3613170  84.4953114  92.3563587  37.0936674  85.9693907
  92.4476574  18.6699854  86.1033367  92.7535451  17.8097217  85.8159282
  93.1729179  19.2617474  85.9032360  78.7400930  29.0730541  84.4914964
  78.5425330  28.4799901  83.7666031  78.1847594  28.7682751  85.2090903
  86.7197654  28.9653647  86.6109558  86.7746264  28.0127483  86.5352034
  85.9088856  29.1213086  87.0950856  87.8688848  32.8933770  77.8487841
  87.4308277  32.1769629  77.3893478  88.6099288  33.1209885  77.2872932
  84.6590014  27.5830707  84.3699937  83.8457879  27.8824877  84.7765129
  85.1549008  27.1886396  85.0874419  86.8098592  37.5788464  86.3034201
  86.7674770  37.8049310  85.3742733  87.7261290  37.3451838  86.4520002
  90.2564225  28.0472531  93.2014830  90.6113613  28.2744004  94.0609296
  90.9036357  28.3790908  92.5792086  95.9861962  31.1690967  83.9064159
  95.8479861  31.3592563  82.9785349  95.6298181  31.9310350  84.3632211
  84.1504088  25.1549062  89.9861171  84.7903468  25.0137821  89.2884135
  83.3181619  24.8683576  89.6099773  96.0131342  33.2367494  88.9175431
  96.4467849  33.1442783  89.7658485  96.7262923  33.2124995  88.2795447
  84.9264392  34.4551493  86.0996164  85.7204991  33.9601813  85.8978739
  84.2156085  33.9269356  85.7363869  89.7459237  36.8369588  90.4508532
  89.7996259  37.4060525  91.2186247  88.8774018  37.0071473  90.0862569
  81.2347156  28.5994575  82.1755917  80.3044744  28.5379030  82.3925879
  81.3304628  28.0770527  81.3792558  81.1532705  25.1249387  84.7634158
  81.4139522  26.0394721  84.6543319  81.9749877  24.6573830  84.9130771
  82.6257630  26.5387145  91.9332983  83.2980684  26.3304507  91.2845632
  81.7987417  26.3409231  91.4938215  96.8746891  33.2791195  91.4508316
  97.0682782  34.1837005  91.6967591  96.7747510  32.8198614  92.2846901
  88.5283202  23.1649085  93.9498644  87.8811117  23.8639035  93.8563120
  89.2984218  23.5985229  94.3174892  91.9362000  33.4297938  97.0249197
  91.7847507  33.2008489  96.1079281  91.9266680  34.3868539  97.0380542
  88.7047337  31.0029850  92.0095463  89.6339397  31.1541010  91.8364431
  88.2838367  31.0913871  91.1544110  87.5035668  35.0280515  89.7794001
  87.3646754  34.6599299  90.6519939  86.7150265  35.5428154  89.6077959
  88.0983820  40.1289611  81.1219538  88.2735576  39.6577654  81.9365160
  87.4116608  40.7555377  81.3500798  89.0540883  34.4062117  87.1682839
  88.7190716  34.3662887  88.0640489  88.5544829  33.7406833  86.6953249
  83.0285127  29.8129747  92.6935420  82.8904925  29.0809986  93.2946959
  83.9390051  29.7238648  92.4119608  85.6567428  29.5249707  92.1819100
  86.3667047  28.8842899  92.1405718  85.6136736  29.7762602  93.1045280
  93.6454207  36.4617060  95.1025679  93.5866753  35.7776280  94.4356262
  94.0473725  37.2036050  94.6506305  84.3696362  26.5114925  94.0014739
  83.8333719  26.0605663  94.6536335  83.7813071  26.6460834  93.2585203
  82.6644906  43.2778974  87.8959398  82.9041504  43.9097498  88.5738416
  81.8214102  42.9267014  88.1824757  93.6471614  34.4256644  93.3339658
  92.7598393  34.0882566  93.4566057  94.2170165  33.6939675  93.5708424
  75.3000761  30.7580736  86.6582710  75.9871801  30.4442466  86.0703725
  75.1448890  31.6622100  86.3849961  80.1035483  25.6470932  91.0867734
  80.0193672  25.0396602  90.3518144  79.2818190  26.1379951  91.0877230
  87.1772767  39.0858096  90.3000902  87.1042939  39.8913068  90.8120206
  86.7350161  39.2850062  89.4748923  86.9662547  38.3229866  83.8103723
  86.1830069  38.8651547  83.9041948  87.6655292  38.8403846  84.2097964
  90.2759197  24.1324496  86.4537929  90.7727897  23.3794458  86.1338999
  89.5046179  24.1688813  85.8881138  98.1288955  29.8364861  88.0956220
  98.1178831  30.7189577  87.7250153  97.2606334  29.4836412  87.9010757
  89.6371451  38.9844930  92.4559060  90.3499423  39.6192395  92.3834962
  89.1461480  39.0808796  91.6399062  91.3588978  32.8896183  84.0276352
  90.4245257  33.0097646  83.8581056  91.5365646  31.9868650  83.7636362
  86.8594166  26.2741879  86.1809613  86.4891953  25.7212919  86.8690519
  87.3553258  25.6700012  85.6284613  94.7461529  28.7313502  84.5626386
  95.2121981  29.5641494  84.4886689  95.1969030  28.2658484  85.2671645
  84.6883365  36.7339374  93.2764631  85.3892824  37.3675857  93.4294025
  84.2178480  37.0754105  92.5160270  92.8137760  35.0757324  81.5612538
  93.0897604  34.9613918  82.4706412  91.9442259  34.6774809  81.5224711
  92.7178192  21.0994089  88.6017287  91.8041272  21.3298316  88.7699494
  93.1471293  21.1832533  89.4531320  92.4884650  29.2883981  91.1017182
  91.8356101  29.5359889  90.4469634  92.8665030  28.4748120  90.7679659
  89.4491824  39.3243675  85.2045352  89.6314219  38.5065330  85.6673104
  90.2724810  39.5411367  84.7670242  89.7833990  38.2511860  82.4660400
  90.3121756  37.7404314  81.8530562  90.0462209  37.9354390  83.3305933
  88.5372223  30.0303792  97.5883219  87.8612861  29.9297922  98.2585594
  89.3599857  29.8743006  98.0519216  80.2851083  36.2675729  90.2095734
  80.8704519  35.5219417  90.3423638  80.0875921  36.5779686  91.0932398
  83.1389738  39.3026976  85.2258176  82.4700113  39.7873104  84.7422216
  83.0002607  39.5496197  86.1401555  74.8768737  28.8381329  88.9300177
  74.9152837  28.3044920  89.7237295  74.3709030  28.3116535  88.3111154
  87.2795006  41.3370720  91.8240835  87.8313314  41.5002341  92.5889920
  87.6201200  41.9275158  91.1520859  82.2559500  23.6845870  92.4262719
  82.3200826  24.5460701  92.0140117  82.1926620  23.0719871  91.6935078
  81.7311772  25.7569002  96.0735754  82.3583811  25.3746080  96.6873278
  80.8739691  25.5383204  96.4391446  92.1305881  36.1631977  97.6789489
  92.6745785  36.7761936  97.1844444  91.5492726  36.7211556  98.1956502
  78.5077315  27.5645431  82.0054108  78.8030756  26.6556110  81.9521162
  77.6065351  27.5433171  81.6835111  90.4163394  39.2852695  88.8104517
  90.2914533  38.4842435  88.3015462  91.0742485  39.7798889  88.3218487
  82.0371562  25.6401428  87.9881657  81.3158148  26.2537396  87.8489130
  82.8264818  26.1759193  87.9098303  92.4798302  37.0861716  90.4384067
  91.5328638  36.9667067  90.3662394  92.8281075  36.1984214  90.5210328
  84.8397875  22.9755854  94.2622309  85.3632277  23.2218151  95.0248618
  84.6210209  23.8075889  93.8425446  80.2365156  25.2459529  82.1293434
  79.9077863  24.3656908  81.9468539  80.5904527  25.1907198  83.0169823
  89.4844735  36.8814432  86.6388419  89.3369698  35.9531139  86.8195989
  90.3098229  36.9034522  86.1545494  83.3506980  25.5332499  82.4968911
  83.6903052  26.0618420  81.7747520  83.7979100  25.8712905  83.2727478
  93.0878857  37.7042990  87.7253292  94.0125405  37.4985852  87.5877743
  92.9194161  37.4559392  88.6342633  86.0450420  23.9169550  91.9471979
  85.7047241  23.1177363  92.3492659  85.3389427  24.2171260  91.3748812
  86.6966892  21.0018862  90.3999302  87.5192962  20.5279340  90.2778193
  86.9404956  21.7809346  90.8997989  85.3375127  24.0307120  80.6962204
  86.0583489  24.4088373  80.1925921  84.7140431  24.7495997  80.7997182
  89.4806250  24.7352269  81.6320536  89.6969864  25.6176907  81.3309364
  89.0000317  24.3438483  80.9026178  84.2205471  27.6937983  88.2091281
  84.0750052  28.0078286  89.1015562  83.7430675  28.3122883  87.6562180
  86.0801854  24.6840531  88.2572170  86.0663423  23.7881624  87.9204468
  86.7974282  24.6911194  88.8910457  87.9327985  25.1177871  90.3025298
  87.6745762  26.0394941  90.3009628  87.4013025  24.7208305  90.9925762
  92.8774173  38.2228658  83.0815383  93.0511051  37.6575080  82.3289236
  93.3703065  39.0229553  82.8994873  78.6951133  30.2343327  91.1478942
  78.1504601  31.0103135  91.2799216  79.5730483  30.5814131  90.9898064
  85.4838750  23.5654911  83.5259741  85.6054661  22.6371557  83.7250628
  85.1940792  23.5793597  82.6138056  88.3529940  21.2509821  86.6626460
  88.3751637  21.3149154  85.7078440  88.7697999  20.4114330  86.8566967
  98.7313565  30.9865081  84.7005683  99.1744711  30.2372406  84.3024806
  97.8540075  30.9775217  84.3179415  93.8649346  37.5395422  80.1812282
  94.5600251  38.1602115  80.3999596  94.2072496  36.6890774  80.4564659
  79.4817155  29.3613223  94.0409099  78.7398891  29.5095859  94.6273729
  79.1609899  29.6221489  93.1775848  95.7640769  34.9895128  81.7099612
  96.2892093  35.3282401  80.9848932  95.6763122  34.0542143  81.5262747
  87.4260818  38.9029201  93.8389489  87.7347944  38.6578348  94.7112189
  88.2236300  39.1075840  93.3508359  87.4481430  41.0567111  86.0694866
  87.0086420  40.5643490  86.7627722  88.1989547  40.5140079  85.8286941
  79.9273769  37.2478652  86.0719494  80.7531789  36.9482424  85.6918137
  79.5767821  36.4786274  86.5209282  84.8955302  36.6005120  88.1417167
  84.2735311  35.9375825  87.8419395  85.5660169  36.6266252  87.4590815
  78.1282374  35.1664978  87.0308427  77.2914282  34.7387153  86.8492428
  78.1006019  35.3597422  87.9679218  84.9679829  25.0786908  97.7349673
  85.0167985  25.9549031  97.3527443  85.5102344  24.5364301  97.1621316
  95.4534675  35.6228031  97.0150810  94.6630219  35.6052170  96.4755310
  95.2168030  36.1616325  97.7699847  95.5732550  32.4720498  94.3283539
  95.6230555  32.3070505  95.2699062  95.4646473  31.6047757  93.9381420
  84.4568809  35.1509044  81.6175628  84.6056929  35.8344508  80.9642300
  85.2635252  35.1314134  82.1325083  92.8636313  28.4551426  95.6442846
  93.7646175  28.3157891  95.3526843  92.9384287  28.6205881  96.5841023
  87.1979118  25.8318281  94.4896032  86.3282427  26.1251847  94.2178620
  87.4338598  26.4158726  95.2103295  97.0750747  34.8917439  94.5725560
  96.7835555  35.2547420  95.4089021  96.4622878  34.1784448  94.3938892
  98.2746429  32.4570319  87.0928131  99.1093321  32.8960123  87.2565691
  98.4105558  31.9808972  86.2736376  95.3237935  30.0150054  93.0405618
  95.7992057  30.2077700  92.2324470  94.4003501  30.0709240  92.7949002
  82.2121442  31.1774221  82.6236697  81.9667484  30.2736551  82.8216907
  82.3817356  31.1791372  81.6816175  89.9018152  22.0497898  92.0061452
  90.4200096  22.7858924  91.6807941  89.5473284  22.3561891  92.8408211
  81.4817089  26.9102579  80.1222858  80.7886334  26.9846934  79.4662894
  81.2368841  26.1462922  80.6444375  90.1530746  18.4698180  87.5262349
  90.4332500  17.8021369  88.1522775  90.9381353  18.6627276  87.0137013
  87.9564214  37.6457174  79.0887375  87.3838181  38.2647361  78.6357847
  88.5297008  38.1956536  79.6227297  94.0239604  26.8915814  91.2733924
  94.9757027  26.9913912  91.2946148  93.8543055  26.0994083  91.7832008
  92.0453984  23.9771397  91.4593325  91.4503916  24.2576410  90.7639813
  91.7603680  24.4665298  92.2310066  91.1761474  37.9294324  80.2195957
  92.1092147  37.8639886  80.4228833  91.0884687  38.7650591  79.7610490
  93.8049491  37.2460194  77.1799905  93.7263122  36.9120058  78.0735663
  94.6259158  37.7381962  77.1791377  96.5027682  30.1121934  90.3876224
  96.4704002  29.1737935  90.5735907  97.1128306  30.1905970  89.6542048
  88.3411013  28.9817987  76.4303428  89.2870118  28.8524195  76.4991846
  87.9625258  28.2432649  76.9072856  96.6522170  26.9032977  90.4334507
  96.1361219  26.1191434  90.2464436  97.5362119  26.5751694  90.5981026
  94.3132897  20.6473993  86.3930319  94.1157719  20.3389081  87.2773651
  94.9232603  21.3735632  86.5228249 102.3204232  31.1737941  89.5282260
 103.0507620  30.9123229  90.0889964 101.7111177  30.4366663  89.5684328
 100.4019529  29.3145803  90.1256712  99.6752693  29.1801768  89.5173203
  99.9866816  29.6222632  90.9313430  88.2249705  33.0335733  97.8904085
  89.1452715  33.2114332  98.0844131  88.1899288  32.0891778  97.7383784
  77.4431870  28.2274327  86.8157359  77.1234655  27.3739635  86.5231733
  76.8965299  28.4422905  87.5715327  81.2211778  30.9436768  90.5326866
  81.4397788  31.8753875  90.5514900  81.6337552  30.5844742  91.3181670
  88.1415996  21.4504853  82.5202554  87.3316724  21.1051938  82.8957800
  88.8300413  21.1412397  83.1090166  90.0706544  20.5282900  84.1426851
  90.6237583  20.9478353  84.8016874  90.3076630  19.6018648  84.1849807
  86.0939643  26.5169973  99.9229615  85.9936370  27.4664330  99.8541706
  85.8761185  26.1888212  99.0505685  85.2952715  23.7654898  76.5070292
  86.1571879  24.0909797  76.7666109  85.4803059  22.9786394  75.9943358
  77.3120130  31.8477238  88.7850481  76.6183602  31.4331191  88.2720435
  78.0593121  31.8897775  88.1883900  93.4485351  22.6383425  83.6505515
  92.8684020  23.2968229  83.2683567  93.1821284  21.8160769  83.2392933
  91.8988917  22.0388483  85.8526835  92.3988696  22.1505017  85.0441154
  92.5424525  21.7349535  86.4927644  85.9570913  29.9467112  98.7394676
  85.4737995  30.7467472  98.9458565  86.0431852  29.9575057  97.7862120
  79.2256873  31.7795492  86.6616496  79.2027561  31.8783179  85.7098379
  79.5357509  32.6260643  86.9833662  81.8844251  33.8371647  90.7763110
  82.8387504  33.8055589  90.7093042  81.6856774  33.3762271  91.5913336
  82.4743633  32.4072763  93.3433908  83.2936522  32.9016842  93.3668745
  82.7480441  31.4904731  93.3151475  92.2310229  24.7983515  82.7061863
  91.3436084  25.0833166  82.4882058  92.6464218  24.6377279  81.8589140
  95.5824765  24.8230036  86.4216203  96.3585155  25.3126489  86.6940819
  94.8572899  25.2488090  86.8788072  98.0197324  25.5357655  87.4790143
  98.6141815  25.2953391  86.7683451  98.0923908  24.8164786  88.1063679
  80.2394480  39.3791266  87.7933308  80.1048947  38.6191667  87.2271306
  79.8226542  40.1032166  87.3262097  92.2051253  30.3138051  82.9212153
  92.1486454  30.7706603  82.0819786  92.7579595  29.5528736  82.7434996
  96.0156059  26.1027783  83.7462273  95.7592993  25.7024419  84.5770481
  95.3908927  26.8171577  83.6212412 100.3268397  28.8423856  86.2533564
  99.7667955  28.9117046  87.0265126  99.7211900  28.6664841  85.5333061
  83.3963605  40.2760583  88.0051751  83.2795990  41.2206016  87.9030441
  82.5756052  39.9734145  88.3937550  93.2840140  35.0010719  78.8508343
  94.1185744  34.5691918  78.6685818  93.1224483  34.8292733  79.7785238
  92.9386032  31.5042832  80.2164683  92.8834836  31.3387104  79.2753127
  92.3132087  32.2118865  80.3726872  77.7278547  26.7410897  94.0426105
  78.3737411  26.2309851  94.5313330  77.5195698  27.4779578  94.6169530
  90.2531939  33.8091744  99.5418245  91.1223099  33.9832397  99.1804880
  89.7738691  34.6286161  99.4193975  86.2482158  21.0050941  79.7950001
  86.2360827  21.9492781  79.9518272  87.1405579  20.8221087  79.5009462
  84.4218120  40.9288845  91.2207679  85.3245366  40.9612456  91.5374174
  84.1955490  39.9989296  91.2354015  86.1771722  39.6819832  87.8817758
  85.2267353  39.6821693  87.7682130  86.4804208  38.9352566  87.3653792
  90.0634277  17.5993718  84.0495938  89.2966673  17.0452205  84.1952620
  90.4744982  17.6715587  84.9110089  82.0676038  23.8878514  98.1401119
  82.9307500  23.5315319  98.3504444  81.4941449  23.5492409  98.8276523
 101.9124415  45.5180370  88.9463520 102.5502825  45.3987118  88.2426860
 101.7945258  46.4661214  89.0051472  98.7214121  45.4707798  88.8825045
  98.3832633  45.3548863  87.9945580  99.5903890  45.0698963  88.8626051
  94.5800937  47.3243275  84.8721936  94.0165802  47.2333212  84.1038224
  94.4653332  46.5043179  85.3524428  99.2033904  46.6242650  94.8411250
  99.1922545  46.2295448  93.9691754  99.3654544  45.8908723  95.4345022
  92.1265369  48.8194466  87.7106156  92.9186661  48.4785291  87.2952456
  92.3662019  48.9289441  88.6308310 100.1600496  50.9914242  80.1836401
  99.5088476  51.5768323  79.7970414 100.9544859  51.5220437  80.2431438
  94.0856123  48.0803380  80.5823535  94.8586999  47.5332367  80.4436411
  94.4381522  48.9447629  80.7937996  95.9241165  49.4079762  93.7890434
  95.6331031  50.3125393  93.6737101  96.5598150  49.4496289  94.5034504
  96.8497372  46.7856610  90.3791794  97.4460945  46.5612633  89.6648757
  96.9072344  46.0441356  90.9817242  96.4222401  44.2396046  78.2141985
  96.6747921  43.7177567  77.4525448  95.4846960  44.0762191  78.3168669
 101.4665684  43.2431824  86.0216728 102.2528773  42.8251247  85.6707145
 101.7304388  44.1477916  86.1898377 101.6375761  48.6804674  80.7205385
 101.0021594  48.7539301  81.4326290 101.3073167  49.2698273  80.0424464
 106.8674111  43.1807057  86.9249707 107.5999283  42.6106274  87.1587536
 106.1113466  42.7928658  87.3656212  96.1418689  46.1424152  80.4166360
  96.0254948  45.4669055  81.0847444  96.2520949  45.6556526  79.5998513
  98.4850230  45.6034299  84.1213049  98.1208438  45.0764920  84.8325971
  99.3417346  45.2132768  83.9479535 104.3899531  36.8928631  91.3844315
 104.0582856  37.7624042  91.1605530 103.7945144  36.5764915  92.0638346
  98.1255717  40.6324198  79.1174398  98.2930120  41.5004435  79.4844869
  97.9352886  40.7951480  78.1935687 100.8831051  49.0941177  90.7840228
 100.5831774  49.9966216  90.6756035 100.5382110  48.8273361  91.6361381
  94.3343532  45.5454974  86.8176932  93.4094029  45.4131188  87.0254624
  94.5827945  46.3249193  87.3146875 104.2828194  41.6123718  88.4637665
 103.3745072  41.5439126  88.1696426 104.2315790  42.0895662  89.2919491
  98.1044938  43.0881856  80.1021064  97.9844563  43.5338907  80.9406545
  97.4097527  43.4367174  79.5434603  91.6952343  45.1888248  87.6520722
  91.8244724  45.4422727  88.5660133  91.0149794  45.7815956  87.3325377
  95.8651830  55.8585498  83.7511196  95.7875860  56.8093323  83.8299676
  95.2613474  55.5131370  84.4086122  98.3569060  43.0313363  96.4072563
  97.5802394  43.5907283  96.3975427  98.9959623  43.5170146  96.9287433
 106.1489841  39.8140156  90.2415539 105.5064221  40.1072689  89.5955334
 105.6444769  39.6993076  91.0468736 103.8030004  43.5603329  80.9301399
 104.7147861  43.7930716  80.7549096 103.2939651  44.1440373  80.3676477
  96.6115432  45.8398816  95.9690530  97.3530117  46.3783860  95.6925353
  95.9052418  46.4665105  96.1262081 102.0870772  47.9827957  94.5662691
 102.4954128  47.5410367  93.8217323 101.3648034  47.4080584  94.8196884
  98.4401842  42.9200564  91.9396248  99.2863037  43.3439977  92.0830897
  98.3800480  42.2634188  92.6334811 102.4099587  48.5429148  88.3214980
 101.7808449  48.7074862  87.6191048 102.0225249  48.9570757  89.0925944
 106.2888819  49.4783585  85.6759344 105.6039857  49.8582487  85.1256377
 106.3732668  50.0878912  86.4091291 101.5901287  40.5804932  93.5977422
 101.3462219  41.3346993  93.0611697 101.8661218  40.9590280  94.4324669
 103.5439750  47.1243544  92.2754687 103.7556645  47.7675304  91.5989068
 103.4969498  46.2905861  91.8076617 101.1465979  39.7361365  89.1791259
 100.2850458  40.0342619  89.4707997 101.1728414  39.9531764  88.2472292
  97.9627549  48.2803556  85.5865065  98.4265894  48.5591259  84.7969688
  97.6984347  47.3787000  85.4038156  94.8551630  47.8275037  88.5244828
  95.4252987  48.2562306  87.8862313  95.4459742  47.5457622  89.2229014
  96.8996435  44.4026708  82.3954630  97.6020478  44.8547752  82.8628557
  96.5677063  43.7610527  83.0234523  95.3476796  42.9938465  96.7705840
  94.7175457  43.6754745  97.0041236  95.2412884  42.8821546  95.8258978
  90.6421769  42.6610261  87.6971764  89.8520823  42.9167789  87.2211874
  91.1333016  43.4758599  87.8023804 104.6585578  50.0015500  90.4477045
 105.4803022  49.5995687  90.1659726 104.6547981  49.8983734  91.3993160
  92.5936514  43.0254840  84.6555240  91.7967677  43.1373534  85.1738736
  92.3662106  43.3641492  83.7896131  98.4242182  49.5499543  92.6037755
  98.4886614  50.0119950  93.4395927  97.7153106  48.9196908  92.7320065
  88.9259472  42.9140751  90.1286755  89.1767510  43.7987761  90.3944331
  89.4619020  42.7345353  89.3561846 112.7491571  46.3454248  86.7962016
 111.9955280  45.7761646  86.6406021 112.8839112  46.3116913  87.7432651
  98.1390199  51.2167651  82.4716735  98.0035874  52.0619186  82.9001583
  98.6800012  51.4186928  81.7082669  94.6257539  37.2959230  99.1331091
  94.2324484  36.7425429  99.8078735  95.4423679  37.6069809  99.5237608
  91.5919597  48.7343089  83.0444661  92.1044117  49.5286339  83.1950225
  92.2442310  48.0369379  82.9778262  93.4014481  51.8508845  85.1267414
  93.5781110  52.7726810  84.9388398  94.1971315  51.5367264  85.5561793
  97.5425500  38.7117110  96.7251347  98.2835213  39.3124263  96.6455810
  97.7743423  37.9694747  96.1669390  92.6866838  43.8973477  95.0029577
  92.5720353  42.9958734  95.3036676  91.8311356  44.1437174  94.6514393
  99.7658676  51.8391217  96.6017078  99.3222530  51.0527596  96.2837982
 100.4275889  52.0270368  95.9360968  94.5245797  53.3687019  91.1277756
  95.0753222  53.2404082  90.3554750  93.6857273  53.6681908  90.7772649
 101.8639914  52.1194017  94.6298479 101.8458389  52.9402898  94.1378748
 102.7859834  51.9948092  94.8548620  98.3212968  49.6338147  95.4721987
  98.8541305  48.8726435  95.2421295  97.7927049  49.3411798  96.2146142
 101.4882663  34.7398213  91.0015629 101.1446932  35.6299854  90.9254739
 101.8561625  34.5499870  90.1385214  89.5568513  47.0631743  83.8204231
  90.3943735  47.4728751  83.6037939  89.7346781  46.1231185  83.7904425
 101.4532946  44.7306824  79.5088064 100.9379569  45.5011428  79.7476451
 101.1810254  44.0571960  80.1321125  99.0380057  39.5756524  84.5673302
  98.1821653  39.1863375  84.3878941  99.4507008  39.6548485  83.7073088
 100.5679203  37.1102868  88.9664862 100.0643999  37.0733003  88.1532667
 100.8609810  38.0195610  89.0261519  96.8122089  37.1941597  87.9731044
  97.6775086  36.9984406  87.6136933  96.8799598  36.9651949  88.9000401
 106.4267220  47.4839178  81.4441237 105.6496662  47.1450338  80.9996400
 107.1058701  47.4891801  80.7696203 101.2419249  42.6033916  81.3347845
 100.9369384  42.9180065  82.1857988 102.1949691  42.6815336  81.3775178
  99.6865681  48.7624139  82.9840799  99.1587042  48.0276899  82.6714037
  99.1853183  49.5398815  82.7380767 104.6658527  46.9573160  88.1007845
 104.0082201  47.6472421  88.1887974 105.4698926  47.3469591  88.4441832
  94.4184408  39.4243805  85.3447411  94.9928160  39.2018987  84.6120604
  95.0055391  39.4932500  86.0976012 103.4763985  45.3117532  86.1511787
 103.9895867  45.9447524  86.6533497 104.1265209  44.7118728  85.7855147
  94.7453995  41.4548266  79.3643296  93.9091308  41.7922953  79.6852571
  94.6058765  41.3197246  78.4270433  96.7207076  36.2985054  84.0722480
  96.0671488  35.9834071  83.4479095  96.6787550  35.6760795  84.7982303
 100.7386360  55.2901856  78.9072458 100.0648058  55.5933553  79.5157416
 101.1252182  56.0930937  78.5577915  99.9544816  42.7866988  88.3970128
  99.0367378  43.0081935  88.2391816 100.3704960  42.8613298  87.5381835
 100.7379864  44.1858403  83.5272808 101.4851683  44.6979801  83.2179930
 101.0071454  43.8642456  84.3877202  99.0106514  46.6816944  80.5099762
  98.1017733  46.3975977  80.6072232  99.0401598  47.1016023  79.6503069
 104.2425782  50.2923534  84.2790930 103.7888109  49.4514444  84.3356120
 103.6119748  50.9284932  84.6165710 103.1858701  41.2215520  85.5091597
 102.4481458  40.7092906  85.8401840 103.4385475  40.7815901  84.6974874
 102.6858721  52.1300030  85.2140748 102.9781695  52.6905087  84.4953114
 103.1957341  52.4228591  85.9693907 103.2870329  33.9991772  86.1033367
 103.5929205  33.1389135  85.8159282 104.0122933  34.5909392  85.9032360
  89.5794685  44.4022458  84.4914964  89.3819084  43.8091819  83.7666031
  89.0241349  44.0974668  85.2090903  97.5591408  44.2945565  86.6109558
  97.6140018  43.3419401  86.5352034  96.7482610  44.4505004  87.0950856
  98.7082602  48.2225688  77.8487841  98.2702032  47.5061547  77.3893478
  99.4493043  48.4501803  77.2872932  95.4983768  42.9122625  84.3699937
  94.6851634  43.2116795  84.7765129  95.9942762  42.5178313  85.0874419
  97.6492346  52.9080381  86.3034201  97.6068525  53.1341228  85.3742733
  98.5655045  52.6743756  86.4520002 101.0957980  43.3764449  93.2014830
 101.4507368  43.6035922  94.0609296 101.7430111  43.7082826  92.5792086
 106.8255717  46.4982885  83.9064159 106.6873615  46.6884481  82.9785349
 106.4691936  47.2602268  84.3632211  94.9897843  40.4840980  89.9861171
  95.6297222  40.3429739  89.2884135  94.1575373  40.1975493  89.6099773
 106.8525096  48.5659412  88.9175431 107.2861603  48.4734701  89.7658485
 107.5656677  48.5416912  88.2795447  95.7658147  49.7843410  86.0996164
  96.5598745  49.2893731  85.8978739  95.0549839  49.2561274  85.7363869
 100.5852991  52.1661506  90.4508532 100.6390014  52.7352442  91.2186247
  99.7167773  52.3363391  90.0862569  92.0740910  43.9286492  82.1755917
  91.1438498  43.8670948  82.3925879  92.1698382  43.4062445  81.3792558
  91.9926459  40.4541305  84.7634158  92.2533277  41.3686638  84.6543319
  92.8143632  39.9865748  84.9130771  93.4651385  41.8679062  91.9332983
  94.1374438  41.6596424  91.2845632  92.6381171  41.6701148  91.4938215
 107.7140646  48.6083113  91.4508316 107.9076536  49.5128923  91.6967591
 107.6141264  48.1490532  92.2846901  99.3676957  38.4941003  93.9498644
  98.7204872  39.1930953  93.8563120 100.1377972  38.9277147  94.3174892
 102.7755755  48.7589855  97.0249197 102.6241261  48.5300407  96.1079281
 102.7660434  49.7160457  97.0380542  99.5441091  46.3321768  92.0095463
 100.4733151  46.4832928  91.8364431  99.1232121  46.4205789  91.1544110
  98.3429423  50.3572432  89.7794001  98.2040509  49.9891217  90.6519939
  97.5544019  50.8720072  89.6077959  98.9377575  55.4581529  81.1219538
  99.1129330  54.9869572  81.9365160  98.2510363  56.0847295  81.3500798
  99.8934638  49.7354035  87.1682839  99.5584471  49.6954805  88.0640489
  99.3938584  49.0698751  86.6953249  93.8678882  45.1421665  92.6935420
  93.7298680  44.4101904  93.2946959  94.7783805  45.0530565  92.4119608
 102.8293830  47.0810069  77.4419898 102.2123000  46.3556898  77.3452951
 102.3610318  47.8419430  77.0986973  96.4961183  44.8541624  92.1819100
  97.2060801  44.2134817  92.1405718  96.4530491  45.1054519  93.1045280
 104.4847961  51.7908978  95.1025679 104.4260507  51.1068198  94.4356262
 104.8867480  52.5327968  94.6506305  95.2090117  41.8406842  94.0014739
  94.6727474  41.3897581  94.6536335  94.6206825  41.9752751  93.2585203
  93.5038660  58.6070892  87.8959398  93.7435258  59.2389416  88.5738416
  92.6607857  58.2558932  88.1824757 104.4865369  49.7548562  93.3339658
 103.5992147  49.4174484  93.4566057 105.0563920  49.0231593  93.5708424
  86.1394516  46.0872654  86.6582710  86.8265556  45.7734384  86.0703725
  85.9842644  46.9914018  86.3849961  90.9429238  40.9762850  91.0867734
  90.8587427  40.3688520  90.3518144  90.1211944  41.4671868  91.0877230
  98.0166522  54.4150014  90.3000902  97.9436693  55.2204986  90.8120206
  97.5743915  54.6141980  89.4748923  97.8056302  53.6521784  83.8103723
  97.0223823  54.1943464  83.9041948  98.5049047  54.1695764  84.2097964
 101.1152952  39.4616414  86.4537929 101.6121651  38.7086376  86.1338999
 100.3439933  39.4980730  85.8881138 108.9682709  45.1656779  88.0956220
 108.9572585  46.0481495  87.7250153 108.1000089  44.8128330  87.9010757
 100.4765205  54.3136848  92.4559060 101.1893178  54.9484313  92.3834962
  99.9855234  54.4100714  91.6399062 102.1982732  48.2188101  84.0276352
 101.2639011  48.3389563  83.8581056 102.3759401  47.3160568  83.7636362
  97.6987920  41.6033797  86.1809613  97.3285708  41.0504837  86.8690519
  98.1947013  40.9991930  85.6284613 105.5855284  44.0605420  84.5626386
 106.0515736  44.8933412  84.4886689 106.0362784  43.5950402  85.2671645
  95.5277119  52.0631292  93.2764631  96.2286578  52.6967775  93.4294025
  95.0572234  52.4046023  92.5160270 103.6531515  50.4049241  81.5612538
 103.9291359  50.2905836  82.4706412 102.7836014  50.0066726  81.5224711
 103.5571946  36.4286007  88.6017287 102.6435026  36.6590234  88.7699494
 103.9865048  36.5124451  89.4531320 103.3278405  44.6175899  91.1017182
 102.6749855  44.8651807  90.4469634 103.7058785  43.8040037  90.7679659
 100.2885579  54.6535592  85.2045352 100.4707973  53.8357248  85.6673104
 101.1118565  54.8703284  84.7670242 100.6227744  53.5803777  82.4660400
 101.1515511  53.0696232  81.8530562 100.8855964  53.2646308  83.3305933
  99.3765978  45.3595710  97.5883219  98.7006615  45.2589839  98.2585594
 100.1993612  45.2034924  98.0519216  91.1244837  51.5967647  90.2095734
  91.7098274  50.8511335  90.3423638  90.9269676  51.9071603  91.0932398
  93.9783492  54.6318894  85.2258176  93.3093868  55.1165022  84.7422216
  93.8396362  54.8788115  86.1401555  85.7162492  44.1673247  88.9300177
  85.7546591  43.6336838  89.7237295  85.2102785  43.6408452  88.3111154
  98.1188761  56.6662638  91.8240835  98.6707069  56.8294259  92.5889920
  98.4594954  57.2567075  91.1520859  93.0953254  39.0137787  92.4262719
  93.1594581  39.8752618  92.0140117  93.0320374  38.4011789  91.6935078
  92.5705527  41.0860920  96.0735754  93.1977565  40.7037997  96.6873278
  91.7133445  40.8675122  96.4391446 102.9699635  51.4923895  97.6789489
 103.5139539  52.1053853  97.1844444 102.3886480  52.0503473  98.1956502
  89.3471069  42.8937349  82.0054108  89.6424510  41.9848027  81.9521162
  88.4459105  42.8725088  81.6835111 101.2557148  54.6144613  88.8104517
 101.1308288  53.8134353  88.3015462 101.9136239  55.1090806  88.3218487
  92.8765316  40.9693346  87.9881657  92.1551902  41.5829313  87.8489130
  93.6658572  41.5051110  87.9098303 103.3192057  52.4153633  90.4384067
 102.3722392  52.2958984  90.3662394 103.6674830  51.5276131  90.5210328
  95.6791630  38.3047772  94.2622309  96.2026032  38.5510069  95.0248618
  95.4603963  39.1367807  93.8425446  91.0758911  40.5751447  82.1293434
  90.7471617  39.6948826  81.9468539  91.4298282  40.5199115  83.0169823
 100.3238490  52.2106349  86.6388419 100.1763452  51.2823057  86.8195989
 101.1491983  52.2326440  86.1545494  94.1900734  40.8624416  82.4968911
  94.5296807  41.3910338  81.7747520  94.6372855  41.2004823  83.2727478
 103.9272612  53.0334908  87.7253292 104.8519159  52.8277769  87.5877743
 103.7587915  52.7851309  88.6342633  96.8844175  39.2461467  91.9471979
  96.5440995  38.4469280  92.3492659  96.1783181  39.5463178  91.3748812
  97.5360647  36.3310780  90.3999302  98.3586716  35.8571258  90.2778193
  97.7798710  37.1101263  90.8997989  96.1768881  39.3599038  80.6962204
  96.8977244  39.7380291  80.1925921  95.5534185  40.0787915  80.7997182
 100.3200004  40.0644187  81.6320536 100.5363619  40.9468825  81.3309364
  99.8394071  39.6730400  80.9026178  95.0599226  43.0229900  88.2091281
  94.9143806  43.3370203  89.1015562  94.5824429  43.6414801  87.6562180
  96.9195608  40.0132448  88.2572170  96.9057177  39.1173542  87.9204468
  97.6368037  40.0203112  88.8910457  98.7721739  40.4469788  90.3025298
  98.5139517  41.3686859  90.3009628  98.2406779  40.0500223  90.9925762
 103.7167928  53.5520576  83.0815383 103.8904805  52.9866998  82.3289236
 104.2096819  54.3521470  82.8994873  89.5344888  45.5635245  91.1478942
  88.9898356  46.3395053  91.2799216  90.4124238  45.9106049  90.9898064
  96.3232504  38.8946829  83.5259741  96.4448416  37.9663475  83.7250628
  96.0334547  38.9085515  82.6138056  99.1923695  36.5801739  86.6626460
  99.2145392  36.6441072  85.7078440  99.6091754  35.7406248  86.8566967
 109.5707319  46.3156999  84.7005683 110.0138465  45.5664324  84.3024806
 108.6933829  46.3067135  84.3179415 104.7043100  52.8687340  80.1812282
 105.3994005  53.4894033  80.3999596 105.0466251  52.0182691  80.4564659
  90.3210910  44.6905141  94.0409099  89.5792646  44.8387776  94.6273729
  90.0003654  44.9513407  93.1775848 106.6034523  50.3187046  81.7099612
 107.1285848  50.6574318  80.9848932 106.5156876  49.3834061  81.5262747
  98.2654572  54.2321119  93.8389489  98.5741699  53.9870266  94.7112189
  99.0630054  54.4367758  93.3508359  98.2875184  56.3859029  86.0694866
  97.8480175  55.8935407  86.7627722  99.0383301  55.8431996  85.8286941
  90.7667523  52.5770570  86.0719494  91.5925543  52.2774342  85.6918137
  90.4161575  51.8078192  86.5209282  95.7349056  51.9297038  88.1417167
  95.1129066  51.2667743  87.8419395  96.4053923  51.9558170  87.4590815
  88.9676128  50.4956896  87.0308427  88.1308037  50.0679070  86.8492428
  88.9399774  50.6889339  87.9679218  95.8073584  40.4078826  97.7349673
  95.8561739  41.2840949  97.3527443  96.3496098  39.8656219  97.1621316
 106.2928430  50.9519949  97.0150810 105.5023973  50.9344088  96.4755310
 106.0561784  51.4908243  97.7699847 106.4126305  47.8012416  94.3283539
 106.4624310  47.6362423  95.2699062 106.3040228  46.9339675  93.9381420
  95.2962563  50.4800961  81.6175628  95.4450684  51.1636426  80.9642300
  96.1029007  50.4606051  82.1325083 103.7030067  43.7843344  95.6442846
 104.6039930  43.6449808  95.3526843 103.7778042  43.9497798  96.5841023
  98.0372872  41.1610198  94.4896032  97.1676182  41.4543764  94.2178620
  98.2732353  41.7450643  95.2103295 107.9144501  50.2209357  94.5725560
 107.6229310  50.5839338  95.4089021 107.3016633  49.5076365  94.3938892
 109.1140184  47.7862237  87.0928131 109.9487075  48.2252041  87.2565691
 109.2499313  47.3100890  86.2736376 106.1631690  45.3441972  93.0405618
 106.6385811  45.5369618  92.2324470 105.2397255  45.4001158  92.7949002
  93.0515196  46.5066139  82.6236697  92.8061238  45.6028469  82.8216907
  93.2211111  46.5083289  81.6816175 100.7411906  37.3789815  92.0061452
 101.2593850  38.1150842  91.6807941 100.3867039  37.6853809  92.8408211
  92.3210844  42.2394496  80.1222858  91.6280089  42.3138851  79.4662894
  92.0762596  41.4754840  80.6444375 100.9924500  33.7990098  87.5262349
 101.2726254  33.1313287  88.1522775 101.7775107  33.9919193  87.0137013
  98.7957969  52.9749092  79.0887375  98.2231936  53.5939279  78.6357847
  99.3690762  53.5248453  79.6227297 104.8633359  42.2207732  91.2733924
 105.8150782  42.3205829  91.2946148 104.6936809  41.4286000  91.7832008
 102.8847738  39.3063315  91.4593325 102.2897670  39.5868328  90.7639813
 102.5997435  39.7957216  92.2310066 102.0155229  53.2586242  80.2195957
 102.9485902  53.1931803  80.4228833 101.9278441  54.0942509  79.7610490
 104.6443245  52.5752112  77.1799905 104.5656877  52.2411976  78.0735663
 105.4652912  53.0673880  77.1791377 107.3421436  45.4413851  90.3876224
 107.3097757  44.5029852  90.5735907 107.9522060  45.5197888  89.6542048
  99.1804767  44.3109904  76.4303428 100.1263872  44.1816113  76.4991846
  98.8019012  43.5724566  76.9072856 107.4915925  42.2324895  90.4334507
 106.9754974  41.4483352  90.2464436 108.3755873  41.9043612  90.5981026
 105.1526652  35.9765910  86.3930319 104.9551473  35.6680999  87.2773651
 105.7626357  36.7027549  86.5228249 113.1597986  46.5029858  89.5282260
 113.8901375  46.2415146  90.0889964 112.5504932  45.7658580  89.5684328
 111.2413283  44.6437721  90.1256712 110.5146447  44.5093686  89.5173203
 110.8260570  44.9514549  90.9313430  99.0643460  48.3627651  97.8904085
  99.9846469  48.5406250  98.0844131  99.0293043  47.4183696  97.7383784
  88.2825625  43.5566244  86.8157359  87.9628409  42.7031552  86.5231733
  87.7359053  43.7714822  87.5715327  92.0605532  46.2728685  90.5326866
  92.2791542  47.2045793  90.5514900  92.4731306  45.9136660  91.3181670
  98.9809750  36.7796771  82.5202554  98.1710479  36.4343856  82.8957800
  99.6694167  36.4704314  83.1090166 100.9100298  35.8574817  84.1426851
 101.4631337  36.2770271  84.8016874 101.1470385  34.9310565  84.1849807
  96.9333398  41.8461891  99.9229615  96.8330125  42.7956248  99.8541706
  96.7154940  41.5180130  99.0505685  88.1513885  47.1769156  88.7850481
  87.4577356  46.7623109  88.2720435  88.8986876  47.2189692  88.1883900
 104.2879106  37.9675342  83.6505515 103.7077775  38.6260147  83.2683567
 104.0215038  37.1452687  83.2392933 102.7382672  37.3680400  85.8526835
 103.2382450  37.4796935  85.0441154 103.3818280  37.0641453  86.4927644
  96.7964668  45.2759030  98.7394676  96.3131749  46.0759390  98.9458565
  96.8825607  45.2866975  97.7862120  90.0650627  47.1087409  86.6616496
  90.0421315  47.2075097  85.7098379  90.3751264  47.9552560  86.9833662
  92.7238005  49.1663565  90.7763110  93.6781259  49.1347507  90.7093042
  92.5250529  48.7054188  91.5913336  93.3137387  47.7364681  93.3433908
  94.1330276  48.2308759  93.3668745  93.5874195  46.8196649  93.3151475
 103.0703984  40.1275433  82.7061863 102.1829839  40.4125083  82.4882058
 103.4857973  39.9669196  81.8589140 106.4218520  40.1521954  86.4216203
 107.1978910  40.6418406  86.6940819 105.6966654  40.5780008  86.8788072
 108.8591078  40.8649573  87.4790143 109.4535569  40.6245309  86.7683451
 108.9317662  40.1456704  88.1063679  91.0788234  54.7083184  87.7933308
  90.9442702  53.9483585  87.2271306  90.6620296  55.4324084  87.3262097
 102.2147197  49.8920108  76.8009883 102.9183047  50.0970110  77.4167539
 101.4909846  50.4596869  77.0658967 103.0445007  45.6429969  82.9212153
 102.9880209  46.0998520  82.0819786 103.5973350  44.8820653  82.7434996
 106.8549813  41.4319701  83.7462273 106.5986747  41.0316336  84.5770481
 106.2302681  42.1463495  83.6212412 111.1662151  44.1715774  86.2533564
 110.6061709  44.2408963  87.0265126 110.5605654  43.9956759  85.5333061
  94.2357360  55.6052501  88.0051751  94.1189744  56.5497934  87.9030441
  93.4149806  55.3026063  88.3937550 104.1233894  50.3302637  78.8508343
 104.9579498  49.8983835  78.6685818 103.9618237  50.1584650  79.7785238
 103.7779787  46.8334750  80.2164683 103.7228590  46.6679021  79.2753127
 103.1525842  47.5410783  80.3726872  88.5672302  42.0702814  94.0426105
  89.2131165  41.5601768  94.5313330  88.3589453  42.8071496  94.6169530
 101.0925694  49.1383662  99.5418245 101.9616853  49.3124314  99.1804880
 100.6132445  49.9578079  99.4193975  97.0875912  36.3342859  79.7950001
  97.0754582  37.2784699  79.9518272  97.9799334  36.1513004  79.5009462
  95.2611874  56.2580763  91.2207679  96.1639121  56.2904373  91.5374174
  95.0349244  55.3281214  91.2354015  97.0165476  55.0111749  87.8817758
  96.0661107  55.0113611  87.7682130  97.3197962  54.2644484  87.3653792
 100.9028032  32.9285636  84.0495938 100.1360427  32.3744122  84.1952620
 101.3138737  33.0007504  84.9110089  92.9069793  39.2170432  98.1401119
  93.7701254  38.8607236  98.3504444  92.3335203  38.8784326  98.8276523
 112.7518170  60.8472288  88.9463520 113.3896580  60.7279035  88.2426860
 112.6339012  61.7953132  89.0051472 109.5607876  60.7999716  88.8825045
 109.2226387  60.6840781  87.9945580 110.4297644  60.3990881  88.8626051
 105.4194692  62.6535192  84.8721936 104.8559557  62.5625129  84.1038224
 105.3047087  61.8335097  85.3524428 110.0427659  61.9534568  94.8411250
 110.0316300  61.5587366  93.9691754 110.2048298  61.2200640  95.4345022
 102.9659123  64.1486384  87.7106156 103.7580415  63.8077209  87.2952456
 103.2055774  64.2581359  88.6308310 110.9994250  66.3206160  80.1836401
 110.3482230  66.9060240  79.7970414 111.7938613  66.8512355  80.2431438
 104.9249877  63.4095297  80.5823535 105.6980753  62.8624284  80.4436411
 105.2775276  64.2739547  80.7937996 106.7634920  64.7371679  93.7890434
 106.4724786  65.6417310  93.6737101 107.3991904  64.7788207  94.5034504
 107.6891127  62.1148528  90.3791794 108.2854699  61.8904550  89.6648757
 107.7466098  61.3733273  90.9817242 107.2616155  59.5687963  78.2141985
 107.5141676  59.0469485  77.4525448 106.3240714  59.4054109  78.3168669
 112.3059438  58.5723742  86.0216728 113.0922527  58.1543165  85.6707145
 112.5698142  59.4769834  86.1898377 112.4769515  64.0096592  80.7205385
 111.8415348  64.0831219  81.4326290 112.1466922  64.5990191  80.0424464
 117.7067865  58.5098975  86.9249707 118.4393037  57.9398192  87.1587536
 116.9507221  58.1220575  87.3656212 106.9812444  61.4716069  80.4166360
 106.8648702  60.7960973  81.0847444 107.0914704  60.9848443  79.5998513
 109.3243985  60.9326216  84.1213049 108.9602192  60.4056837  84.8325971
 110.1811101  60.5424685  83.9479535 115.2293286  52.2220549  91.3844315
 114.8976610  53.0915960  91.1605530 114.6338899  51.9056833  92.0638346
 108.9649472  55.9616116  79.1174398 109.1323874  56.8296353  79.4844869
 108.7746641  56.1243398  78.1935687 111.7224805  64.4233095  90.7840228
 111.4225528  65.3258134  90.6756035 111.3775865  64.1565278  91.6361381
 105.1737287  60.8746892  86.8176932 104.2487783  60.7423106  87.0254624
 105.4221700  61.6541111  87.3146875 115.1221949  56.9415635  88.4637665
 114.2138826  56.8731044  88.1696426 115.0709545  57.4187580  89.2919491
 108.9438693  58.4173774  80.1021064 108.8238318  58.8630824  80.9406545
 108.2491281  58.7659091  79.5434603 102.5346098  60.5180165  87.6520722
 102.6638479  60.7714644  88.5660133 101.8543549  61.1107873  87.3325377
 106.7045585  71.1877415  83.7511196 106.6269615  72.1385240  83.8299676
 106.1007228  70.8423288  84.4086122 109.1962815  58.3605281  96.4072563
 108.4196149  58.9199201  96.3975427 109.8353378  58.8462064  96.9287433
 116.9883595  55.1432074  90.2415539 116.3457975  55.4364607  89.5955334
 116.4838524  55.0284994  91.0468736 114.6423759  58.8895247  80.9301399
 115.5541615  59.1222634  80.7549096 114.1333406  59.4732291  80.3676477
 107.4509187  61.1690734  95.9690530 108.1923871  61.7075778  95.6925353
 106.7446172  61.7957023  96.1262081 112.9264527  63.3119875  94.5662691
 113.3347883  62.8702285  93.8217323 112.2041788  62.7372502  94.8196884
 109.2795597  58.2492481  91.9396248 110.1256792  58.6731895  92.0830897
 109.2194234  57.5926106  92.6334811 113.2493341  63.8721065  88.3214980
 112.6202204  64.0366779  87.6191048 112.8619003  64.2862675  89.0925944
 117.1282573  64.8075503  85.6759344 116.4433611  65.1874404  85.1256377
 117.2126422  65.4170830  86.4091291 112.4295042  55.9096850  93.5977422
 112.1855974  56.6638910  93.0611697 112.7054972  56.2882197  94.4324669
 114.3833505  62.4535462  92.2754687 114.5950400  63.0967222  91.5989068
 114.3363253  61.6197779  91.8076617 111.9859734  55.0653283  89.1791259
 111.1244213  55.3634536  89.4707997 112.0122168  55.2823682  88.2472292
 108.8021303  63.6095473  85.5865065 109.2659649  63.8883176  84.7969688
 108.5378101  62.7078918  85.4038156 105.6945384  63.1566955  88.5244828
 106.2646741  63.5854223  87.8862313 106.2853496  62.8749540  89.2229014
 107.7390189  59.7318626  82.3954630 108.4414232  60.1839669  82.8628557
 107.4070818  59.0902445  83.0234523 106.1870551  58.3230382  96.7705840
 105.5569211  59.0046663  97.0041236 106.0806639  58.2113464  95.8258978
 101.4815523  57.9902178  87.6971764 100.6914577  58.2459707  87.2211874
 101.9726770  58.8050516  87.8023804 115.4979333  65.3307418  90.4477045
 116.3196776  64.9287605  90.1659726 115.4941736  65.2275652  91.3993160
 103.4330268  58.3546758  84.6555240 102.6361432  58.4665452  85.1738736
 103.2055861  58.6933410  83.7896131 109.2635936  64.8791461  92.6037755
 109.3280369  65.3411868  93.4395927 108.5546860  64.2488826  92.7320065
  99.7653226  58.2432669  90.1286755 100.0161265  59.1279679  90.3944331
 100.3012774  58.0637270  89.3561846 108.9783954  66.5459568  82.4716735
 108.8429629  67.3911104  82.9001583 109.5193766  66.7478846  81.7082669
 105.4651293  52.6251148  99.1331091 105.0718239  52.0717347  99.8078735
 106.2817434  52.9361727  99.5237608 102.4313351  64.0635006  83.0444661
 102.9437872  64.8578257  83.1950225 103.0836064  63.3661297  82.9778262
 104.2408236  67.1800763  85.1267414 104.4174864  68.1018727  84.9388398
 105.0365069  66.8659182  85.5561793 108.3819254  54.0409027  96.7251347
 109.1228968  54.6416180  96.6455810 108.6137177  53.2986665  96.1669390
 103.5260592  59.2265395  95.0029577 103.4114108  58.3250652  95.3036676
 102.6705110  59.4729091  94.6514393 110.6052430  67.1683135  96.6017078
 110.1616284  66.3819513  96.2837982 111.2669644  67.3562285  95.9360968
 105.3639551  68.6978936  91.1277756 105.9146976  68.5696000  90.3554750
 104.5251027  68.9973825  90.7772649 112.7033668  67.4485935  94.6298479
 112.6852144  68.2694816  94.1378748 113.6253588  67.3240010  94.8548620
 109.1606722  64.9630064  95.4721987 109.6935059  64.2018352  95.2421295
 108.6320803  64.6703716  96.2146142 112.3276417  50.0690130  91.0015629
 111.9840687  50.9591772  90.9254739 112.6955380  49.8791788  90.1385214
 100.3962268  62.3923661  83.8204231 101.2337490  62.8020669  83.6037939
 100.5740536  61.4523103  83.7904425 112.2926700  60.0598741  79.5088064
 111.7773323  60.8303346  79.7476451 112.0204009  59.3863877  80.1321125
 109.8773811  54.9048442  84.5673302 109.0215407  54.5155292  84.3878941
 110.2900763  54.9840403  83.7073088 111.4072958  52.4394785  88.9664862
 110.9037753  52.4024921  88.1532667 111.7003565  53.3487528  89.0261519
 107.6515844  52.5233515  87.9731044 108.5168840  52.3276324  87.6136933
 107.7193353  52.2943867  88.9000401 117.2660974  62.8131096  81.4441237
 116.4890417  62.4742255  80.9996400 117.9452455  62.8183719  80.7696203
 112.0813003  57.9325833  81.3347845 111.7763139  58.2471983  82.1857988
 113.0343445  58.0107253  81.3775178 110.5259435  64.0916057  82.9840799
 109.9980797  63.3568816  82.6714037 110.0246938  64.8690733  82.7380767
 115.5052281  62.2865077  88.1007845 114.8475956  62.9764339  88.1887974
 116.3092680  62.6761509  88.4441832 105.2578163  54.7535723  85.3447411
 105.8321915  54.5310904  84.6120604 105.8449145  54.8224418  86.0976012
 114.3157740  60.6409450  86.1511787 114.8289622  61.2739442  86.6533497
 114.9658964  60.0410645  85.7855147 105.5847750  56.7840184  79.3643296
 104.7485062  57.1214871  79.6852571 105.4452519  56.6489164  78.4270433
 107.5600830  51.6276972  84.0722480 106.9065243  51.3125989  83.4479095
 107.5181305  51.0052712  84.7982303 108.6712035  61.9096267  75.9875772
 107.7639097  61.6785520  76.1866921 109.1683067  61.1133886  76.1749754
 111.5780114  70.6193774  78.9072458 110.9041813  70.9225471  79.5157416
 111.9645936  71.4222855  78.5577915 110.7938571  58.1158905  88.3970128
 109.8761132  58.3373852  88.2391816 111.2098714  58.1905216  87.5381835
 111.5773619  59.5150321  83.5272808 112.3245437  60.0271718  83.2179930
 111.8465208  59.1934374  84.3877202 109.8500269  62.0108862  80.5099762
 108.9411488  61.7267895  80.6072232 109.8795353  62.4307940  79.6503069
 115.0819536  65.6215451  84.2790930 114.6281863  64.7806361  84.3356120
 114.4513503  66.2576850  84.6165710 114.0252456  56.5507437  85.5091597
 113.2875212  56.0384824  85.8401840 114.2779229  56.1107819  84.6974874
 113.5252475  67.4591948  85.2140748 113.8175450  68.0197005  84.4953114
 114.0351096  67.7520509  85.9693907 114.1264083  49.3283689  86.1033367
 114.4322960  48.4681053  85.8159282 114.8516688  49.9201310  85.9032360
 100.4188439  59.7314376  84.4914964 100.2212839  59.1383737  83.7666031
  99.8635103  59.4266586  85.2090903 108.3985163  59.6237482  86.6109558
 108.4533773  58.6711319  86.5352034 107.5876365  59.7796922  87.0950856
 109.5476357  63.5517606  77.8487841 109.1095786  62.8353464  77.3893478
 110.2886797  63.7793720  77.2872932 106.3377523  58.2414542  84.3699937
 105.5245388  58.5408713  84.7765129 106.8336517  57.8470231  85.0874419
 108.4886101  68.2372299  86.3034201 108.4462279  68.4633145  85.3742733
 109.4048799  68.0035674  86.4520002 111.9351734  58.7056367  93.2014830
 112.2901122  58.9327840  94.0609296 112.5823866  59.0374743  92.5792086
 117.6649471  61.8274803  83.9064159 117.5267370  62.0176399  82.9785349
 117.3085690  62.5894185  84.3632211 105.8291597  55.8132898  89.9861171
 106.4690977  55.6721657  89.2884135 104.9969128  55.5267411  89.6099773
 117.6918851  63.8951330  88.9175431 118.1255358  63.8026619  89.7658485
 118.4050432  63.8708830  88.2795447 106.6051901  65.1135328  86.0996164
 107.3992500  64.6185648  85.8978739 105.8943594  64.5853191  85.7363869
 111.4246746  67.4953424  90.4508532 111.4783768  68.0644360  91.2186247
 110.5561527  67.6655309  90.0862569 102.9134665  59.2578410  82.1755917
 101.9832253  59.1962865  82.3925879 103.0092137  58.7354363  81.3792558
 102.8320214  55.7833223  84.7634158 103.0927031  56.6978556  84.6543319
 103.6537386  55.3157665  84.9130771 104.3045139  57.1970980  91.9332983
 104.9768193  56.9888342  91.2845632 103.4774926  56.9993066  91.4938215
 118.5534400  63.9375030  91.4508316 118.7470291  64.8420841  91.6967591
 118.4535019  63.4782449  92.2846901 110.2070711  53.8232921  93.9498644
 109.5598626  54.5222870  93.8563120 110.9771727  54.2569065  94.3174892
 113.6149509  64.0881773  97.0249197 113.4635016  63.8592325  96.1079281
 113.6054189  65.0452374  97.0380542 110.3834846  61.6613686  92.0095463
 111.3126906  61.8124845  91.8364431 109.9625876  61.7497706  91.1544110
 109.1823177  65.6864350  89.7794001 109.0434263  65.3183135  90.6519939
 108.3937774  66.2011990  89.6077959 109.7771329  70.7873447  81.1219538
 109.9523085  70.3161490  81.9365160 109.0904117  71.4139213  81.3500798
 110.7328392  65.0645953  87.1682839 110.3978225  65.0246723  88.0640489
 110.2332338  64.3990669  86.6953249 104.7072636  60.4713583  92.6935420
 104.5692434  59.7393822  93.2946959 105.6177560  60.3822483  92.4119608
 113.6687584  62.4101987  77.4419898 113.0516755  61.6848815  77.3452951
 113.2004073  63.1711347  77.0986973 107.3354937  60.1833542  92.1819100
 108.0454556  59.5426734  92.1405718 107.2924245  60.4346437  93.1045280
 115.3241716  67.1200896  95.1025679 115.2654262  66.4360116  94.4356262
 115.7261234  67.8619886  94.6506305 106.0483871  57.1698760  94.0014739
 105.5121228  56.7189499  94.6536335 105.4600580  57.3044669  93.2585203
 104.3432415  73.9362809  87.8959398 104.5829013  74.5681334  88.5738416
 103.5001611  73.5850849  88.1824757 105.4586130  56.6287411  76.5641203
 104.5815596  56.5076212  76.2003449 105.9343883  55.8373490  76.3120091
 115.3259123  65.0840479  93.3339658 114.4385902  64.7466401  93.4566057
 115.8957674  64.3523511  93.5708424  96.9788270  61.4164571  86.6582710
  97.6659310  61.1026301  86.0703725  96.8236399  62.3205936  86.3849961
 101.7822992  56.3054768  91.0867734 101.6981181  55.6980437  90.3518144
 100.9605699  56.7963786  91.0877230 108.8560276  69.7441932  90.3000902
 108.7830448  70.5496903  90.8120206 108.4137670  69.9433898  89.4748923
 108.6450056  68.9813702  83.8103723 107.8617578  69.5235382  83.9041948
 109.3442801  69.4987681  84.2097964 111.9546706  54.7908331  86.4537929
 112.4515406  54.0378294  86.1338999 111.1833688  54.8272648  85.8881138
 119.8076464  60.4948697  88.0956220 119.7966340  61.3773412  87.7250153
 118.9393843  60.1420248  87.9010757 111.3158960  69.6428766  92.4559060
 112.0286932  70.2776231  92.3834962 110.8248989  69.7392632  91.6399062
 113.0376487  63.5480019  84.0276352 112.1032766  63.6681481  83.8581056
 113.2153155  62.6452485  83.7636362 108.5381675  56.9325714  86.1809613
 108.1679462  56.3796755  86.8690519 109.0340767  56.3283848  85.6284613
 116.4249038  59.3897338  84.5626386 116.8909490  60.2225329  84.4886689
 116.8756539  58.9242319  85.2671645 106.3670873  67.3923209  93.2764631
 107.0680333  68.0259692  93.4294025 105.8965988  67.7337941  92.5160270
 114.4925269  65.7341159  81.5612538 114.7685113  65.6197754  82.4706412
 113.6229768  65.3358644  81.5224711 114.3965701  51.7577925  88.6017287
 113.4828781  51.9882152  88.7699494 114.8258802  51.8416369  89.4531320
 114.1672159  59.9467817  91.1017182 113.5143610  60.1943724  90.4469634
 114.5452539  59.1331955  90.7679659 111.1279333  69.9827510  85.2045352
 111.3101728  69.1649166  85.6673104 111.9512319  70.1995202  84.7670242
 111.4621499  68.9095695  82.4660400 111.9909265  68.3988150  81.8530562
 111.7249718  68.5938225  83.3305933 110.2159732  60.6887628  97.5883219
 109.5400369  60.5881757  98.2585594 111.0387366  60.5326842  98.0519216
 101.9638592  66.9259564  90.2095734 102.5492028  66.1803252  90.3423638
 101.7663430  67.2363521  91.0932398 104.8177247  69.9610812  85.2258176
 104.1487622  70.4456939  84.7422216 104.6790116  70.2080032  86.1401555
  96.5556246  59.4965165  88.9300177  96.5940346  58.9628755  89.7237295
  96.0496539  58.9700370  88.3111154 108.9582515  71.9954555  91.8240835
 109.5100823  72.1586177  92.5889920 109.2988709  72.5858993  91.1520859
 103.9347009  54.3429705  92.4262719 103.9988335  55.2044536  92.0140117
 103.8714129  53.7303707  91.6935078 103.4099281  56.4152838  96.0735754
 104.0371320  56.0329915  96.6873278 102.5527200  56.1967040  96.4391446
 113.8093390  66.8215813  97.6789489 114.3533294  67.4345771  97.1844444
 113.2280235  67.3795391  98.1956502 100.1864824  58.2229267  82.0054108
 100.4818265  57.3139945  81.9521162  99.2852860  58.2017006  81.6835111
 112.0950903  69.9436531  88.8104517 111.9702042  69.1426271  88.3015462
 112.7529994  70.4382724  88.3218487 103.7159071  56.2985263  87.9881657
 102.9945657  56.9121231  87.8489130 104.5052327  56.8343028  87.9098303
 114.1585811  67.7445551  90.4384067 113.2116147  67.6250902  90.3662394
 114.5068584  66.8568049  90.5210328 106.5185384  53.6339690  94.2622309
 107.0419786  53.8801986  95.0248618 106.2997718  54.4659725  93.8425446
 101.9152665  55.9043364  82.1293434 101.5865372  55.0240743  81.9468539
 102.2692036  55.8491033  83.0169823 111.1632244  67.5398267  86.6388419
 111.0157207  66.6114974  86.8195989 111.9885738  67.5618358  86.1545494
 105.0294489  56.1916334  82.4968911 105.3690561  56.7202255  81.7747520
 105.4766609  56.5296740  83.2727478 114.7666366  68.3626826  87.7253292
 115.6912914  68.1569687  87.5877743 114.5981670  68.1143227  88.6342633
 107.7237929  54.5753385  91.9471979 107.3834750  53.7761198  92.3492659
 107.0176936  54.8755096  91.3748812 108.3754401  51.6602697  90.3999302
 109.1980471  51.1863176  90.2778193 108.6192465  52.4393181  90.8997989
 107.0162636  54.6890956  80.6962204 107.7370998  55.0672209  80.1925921
 106.3927940  55.4079833  80.7997182 111.1593759  55.3936105  81.6320536
 111.3757373  56.2760743  81.3309364 110.6787826  55.0022318  80.9026178
 105.8992980  58.3521818  88.2091281 105.7537561  58.6662121  89.1015562
 105.4218184  58.9706718  87.6562180 107.7589363  55.3424366  88.2572170
 107.7450932  54.4465459  87.9204468 108.4761791  55.3495030  88.8910457
 109.6115494  55.7761706  90.3025298 109.3533271  56.6978777  90.3009628
 109.0800534  55.3792141  90.9925762 114.5561682  68.8812493  83.0815383
 114.7298560  68.3158916  82.3289236 115.0490574  69.6813388  82.8994873
 100.3738642  60.8927162  91.1478942  99.8292110  61.6686970  91.2799216
 101.2517992  61.2397967  90.9898064 107.1626259  54.2238746  83.5259741
 107.2842170  53.2955392  83.7250628 106.8728301  54.2377432  82.6138056
 110.0317449  51.9093657  86.6626460 110.0539146  51.9732990  85.7078440
 110.4485508  51.0698165  86.8566967 120.4101074  61.6448916  84.7005683
 120.8532220  60.8956241  84.3024806 119.5327584  61.6359053  84.3179415
 115.5436855  68.1979258  80.1812282 116.2387759  68.8185950  80.3999596
 115.8860005  67.3474609  80.4564659 101.1604664  60.0197059  94.0409099
 100.4186400  60.1679694  94.6273729 100.8397408  60.2805324  93.1775848
 117.4428278  65.6478963  81.7099612 117.9679602  65.9866236  80.9848932
 117.3550631  64.7125979  81.5262747 109.1048327  69.5613037  93.8389489
 109.4135453  69.3162184  94.7112189 109.9023809  69.7659675  93.3508359
 109.1268939  71.7150946  86.0694866 108.6873929  71.2227325  86.7627722
 109.8777056  71.1723914  85.8286941 101.6061278  67.9062487  86.0719494
 102.4319298  67.6066259  85.6918137 101.2555330  67.1370110  86.5209282
 106.5742811  67.2588956  88.1417167 105.9522820  66.5959661  87.8419395
 107.2447678  67.2850087  87.4590815  99.8069883  65.8248814  87.0308427
  98.9701791  65.3970988  86.8492428  99.7793528  66.0181257  87.9679218
 106.6467338  55.7370744  97.7349673 106.6955494  56.6132866  97.3527443
 107.1889853  55.1948137  97.1621316 117.1322184  66.2811867  97.0150810
 116.3417728  66.2636006  96.4755310 116.8955539  66.8200161  97.7699847
 117.2520059  63.1304333  94.3283539 117.3018064  62.9654341  95.2699062
 117.1433982  62.2631592  93.9381420 106.1356318  65.8092879  81.6175628
 106.2844438  66.4928343  80.9642300 106.9422761  65.7897969  82.1325083
 114.5423821  59.1135261  95.6442846 115.4433684  58.9741726  95.3526843
 114.6171796  59.2789716  96.5841023 108.8766627  56.4902116  94.4896032
 108.0069936  56.7835682  94.2178620 109.1126107  57.0742561  95.2103295
 118.7538256  65.5501275  94.5725560 118.4623064  65.9131255  95.4089021
 118.1410387  64.8368283  94.3938892 119.9533938  63.1154155  87.0928131
 120.7880830  63.5543959  87.2565691 120.0893067  62.6392808  86.2736376
 117.0025444  60.6733889  93.0405618 117.4779566  60.8661536  92.2324470
 116.0791010  60.7293075  92.7949002 103.8908951  61.8358057  82.6236697
 103.6454993  60.9320387  82.8216907 104.0604865  61.8375207  81.6816175
 111.5805661  52.7081733  92.0061452 112.0987605  53.4442760  91.6807941
 111.2260793  53.0145726  92.8408211 103.1604598  57.5686414  80.1222858
 102.4673843  57.6430769  79.4662894 102.9156350  56.8046758  80.6444375
 111.8318255  49.1282015  87.5262349 112.1120009  48.4605205  88.1522775
 112.6168862  49.3211111  87.0137013 109.6351723  68.3041009  79.0887375
 109.0625690  68.9231196  78.6357847 110.2084517  68.8540371  79.6227297
 115.7027113  57.5499649  91.2733924 116.6544536  57.6497747  91.2946148
 115.5330564  56.7577918  91.7832008 113.7241493  54.6355233  91.4593325
 113.1291425  54.9160245  90.7639813 113.4391189  55.1249134  92.2310066
 112.8548983  68.5878159  80.2195957 113.7879656  68.5223721  80.4228833
 112.7672196  69.4234426  79.7610490 115.4837000  67.9044030  77.1799905
 115.4050631  67.5703893  78.0735663 116.3046667  68.3965798  77.1791377
 118.1815191  60.7705769  90.3876224 118.1491511  59.8321770  90.5735907
 118.7915815  60.8489806  89.6542048 110.0198522  59.6401822  76.4303428
 110.9657627  59.5108030  76.4991846 109.6412767  58.9016484  76.9072856
 118.3309679  57.5616813  90.4334507 117.8148728  56.7775269  90.2464436
 119.2149628  57.2335529  90.5981026 115.9920406  51.3057828  86.3930319
 115.7945227  50.9972916  87.2773651 116.6020112  52.0319467  86.5228249
 109.9037214  63.6919568  97.8904085 110.8240224  63.8698167  98.0844131
 109.8686797  62.7475614  97.7383784 108.2041439  57.5651798  76.3658313
 107.2972894  57.2684911  76.4421026 108.4817420  57.2681617  75.4992599
  99.1219379  58.8858162  86.8157359  98.8022164  58.0323470  86.5231733
  98.5752808  59.1006740  87.5715327 102.8999287  61.6020603  90.5326866
 103.1185297  62.5337711  90.5514900 103.3125061  61.2428577  91.3181670
 109.8203505  52.1088688  82.5202554 109.0104233  51.7635773  82.8957800
 110.5087922  51.7996232  83.1090166 111.7494053  51.1866735  84.1426851
 112.3025092  51.6062188  84.8016874 111.9864139  50.2602483  84.1849807
 107.7727152  57.1753809  99.9229615 107.6723879  58.1248166  99.8541706
 107.5548694  56.8472048  99.0505685 106.9740224  54.4238734  76.5070292
 107.8359388  54.7493632  76.7666109 107.1590568  53.6370230  75.9943358
  98.9907639  62.5061073  88.7850481  98.2971111  62.0915026  88.2720435
  99.7380630  62.5481610  88.1883900 115.1272860  53.2967260  83.6505515
 114.5471529  53.9552064  83.2683567 114.8608793  52.4744605  83.2392933
 113.5776426  52.6972318  85.8526835 114.0776205  52.8088852  85.0441154
 114.2212034  52.3933371  86.4927644 107.6358422  60.6050947  98.7394676
 107.1525504  61.4051308  98.9458565 107.7219361  60.6158892  97.7862120
 100.9044382  62.4379327  86.6616496 100.8815070  62.5367014  85.7098379
 101.2145018  63.2844478  86.9833662 103.5631760  64.4955482  90.7763110
 104.5175013  64.4639425  90.7093042 103.3644283  64.0346106  91.5913336
 104.1531142  63.0656598  93.3433908 104.9724031  63.5600677  93.3668745
 104.4267950  62.1488566  93.3151475 113.9097738  55.4567351  82.7061863
 113.0223593  55.7417001  82.4882058 114.3251727  55.2961114  81.8589140
 117.2612274  55.4813872  86.4216203 118.0372664  55.9710324  86.6940819
 116.5360408  55.9071926  86.8788072 119.6984833  56.1941491  87.4790143
 120.2929324  55.9537227  86.7683451 119.7711417  55.4748621  88.1063679
 101.9181989  70.0375102  87.7933308 101.7836456  69.2775503  87.2271306
 101.5014051  70.7616002  87.3262097 113.0540952  65.2212025  76.8009883
 113.7576802  65.4262028  77.4167539 112.3303600  65.7888787  77.0658967
 113.8838762  60.9721886  82.9212153 113.8273963  61.4290438  82.0819786
 114.4367104  60.2112571  82.7434996 117.6943568  56.7611618  83.7462273
 117.4380502  56.3608254  84.5770481 117.0696436  57.4755412  83.6212412
 105.0751114  70.9344419  88.0051751 104.9583499  71.8789851  87.9030441
 104.2543561  70.6317980  88.3937550 114.9627649  65.6594554  78.8508343
 115.7973253  65.2275753  78.6685818 114.8011992  65.4876568  79.7785238
 114.6173541  62.1626668  80.2164683 114.5622345  61.9970939  79.2753127
 113.9919596  62.8702701  80.3726872  99.4066056  57.3994732  94.0426105
 100.0524920  56.8893686  94.5313330  99.1983207  58.1363414  94.6169530
 111.9319448  64.4675580  99.5418245 112.8010608  64.6416232  99.1804880
 111.4526200  65.2869996  99.4193975 107.9269667  51.6634777  79.7950001
 107.9148336  52.6076617  79.9518272 108.8193088  51.4804922  79.5009462
 106.1005629  71.5872681  91.2207679 107.0032875  71.6196291  91.5374174
 105.8742999  70.6573132  91.2354015 107.8559231  70.3403667  87.8817758
 106.9054862  70.3405529  87.7682130 108.1591717  69.5936402  87.3653792
 111.7421786  48.2577553  84.0495938 110.9754182  47.7036040  84.1952620
 112.1532491  48.3299422  84.9110089 103.7463547  54.5462349  98.1401119
 104.6095009  54.1899154  98.3504444 103.1728958  54.2076244  98.8276523
 120.4001630  76.1291634  88.8825045 120.0620142  76.0132698  87.9945580
 121.2691399  75.7282799  88.8626051 116.2588446  77.9827110  84.8721936
 115.6953311  77.8917047  84.1038224 116.1440841  77.1627015  85.3524428
 120.8821413  77.2826485  94.8411250 120.8710054  76.8879284  93.9691754
 121.0442053  76.5492558  95.4345022 113.8052878  79.4778302  87.7106156
 114.5974170  79.1369126  87.2952456 114.0449528  79.5873277  88.6308310
 115.7643632  78.7387215  80.5823535 116.5374508  78.1916202  80.4436411
 116.1169031  79.6031464  80.7937996 117.6028674  80.0663597  93.7890434
 117.3118540  80.9709228  93.6737101 118.2385659  80.1080125  94.5034504
 118.5284881  77.4440446  90.3791794 119.1248454  77.2196468  89.6648757
 118.5859853  76.7025191  90.9817242 118.1009910  74.8979881  78.2141985
 118.3535430  74.3761402  77.4525448 117.1634469  74.7346026  78.3168669
 117.8206198  76.8007987  80.4166360 117.7042457  76.1252890  81.0847444
 117.9308458  76.3140361  79.5998513 120.1637739  76.2618134  84.1213049
 119.7995947  75.7348755  84.8325971 121.0204855  75.8716603  83.9479535
 119.8043226  71.2908034  79.1174398 119.9717629  72.1588270  79.4844869
 119.6140395  71.4535315  78.1935687 116.0131041  76.2038810  86.8176932
 115.0881538  76.0715024  87.0254624 116.2615454  76.9833029  87.3146875
 119.7832447  73.7465691  80.1021064 119.6632072  74.1922742  80.9406545
 119.0885036  74.0951009  79.5434603 113.3739852  75.8472083  87.6520722
 113.5032233  76.1006562  88.5660133 112.6937303  76.4399791  87.3325377
 117.5439339  86.5169333  83.7511196 117.4663369  87.4677158  83.8299676
 116.9400983  86.1715206  84.4086122 120.0356569  73.6897198  96.4072563
 119.2589903  74.2491119  96.3975427 120.6747132  74.1753981  96.9287433
 118.2902941  76.4982652  95.9690530 119.0317626  77.0367696  95.6925353
 117.5839927  77.1248941  96.1262081 120.1189351  73.5784399  91.9396248
 120.9650546  74.0023813  92.0830897 120.0587989  72.9218023  92.6334811
 119.6415058  78.9387391  85.5865065 120.1053403  79.2175094  84.7969688
 119.3771856  78.0370836  85.4038156 116.5339139  78.4858873  88.5244828
 117.1040496  78.9146141  87.8862313 117.1247250  78.2041457  89.2229014
 118.5783944  75.0610543  82.3954630 119.2807987  75.5131587  82.8628557
 118.2464572  74.4194362  83.0234523 117.0264305  73.6522300  96.7705840
 116.3962966  74.3338581  97.0041236 116.9200393  73.5405382  95.8258978
 112.3209278  73.3194096  87.6971764 111.5308332  73.5751625  87.2211874
 112.8120525  74.1342434  87.8023804 114.2724023  73.6838675  84.6555240
 113.4755186  73.7957370  85.1738736 114.0449615  74.0225327  83.7896131
 120.1029691  80.2083378  92.6037755 120.1674123  80.6703786  93.4395927
 119.3940614  79.5780743  92.7320065 110.6046981  73.5724586  90.1286755
 110.8555019  74.4571596  90.3944331 111.1406529  73.3929188  89.3561846
 119.8177708  81.8751486  82.4716735 119.6823383  82.7203022  82.9001583
 120.3587521  82.0770764  81.7082669 116.3045048  67.9543066  99.1331091
 115.9111993  67.4009264  99.8078735 117.1211188  68.2653644  99.5237608
 113.2707106  79.3926924  83.0444661 113.7831626  80.1870174  83.1950225
 113.9229818  78.6953214  82.9778262 115.0801990  82.5092680  85.1267414
 115.2568619  83.4310645  84.9388398 115.8758824  82.1951100  85.5561793
 119.2213009  69.3700945  96.7251347 119.9622722  69.9708098  96.6455810
 119.4530932  68.6278583  96.1669390 114.3654347  74.5557312  95.0029577
 114.2507862  73.6542569  95.3036676 113.5098865  74.8021009  94.6514393
 116.2033306  84.0270854  91.1277756 116.7540731  83.8987917  90.3554750
 115.3644782  84.3265743  90.7772649 120.0000477  80.2921982  95.4721987
 120.5328814  79.5310270  95.2421295 119.4714558  79.9995634  96.2146142
 111.2356022  77.7215578  83.8204231 112.0731244  78.1312587  83.6037939
 111.4134290  76.7815020  83.7904425 120.7167566  70.2340360  84.5673302
 119.8609162  69.8447210  84.3878941 121.1294517  70.3132321  83.7073088
 118.4909598  67.8525433  87.9731044 119.3562595  67.6568241  87.6136933
 118.5587107  67.6235785  88.9000401 121.3653190  79.4207974  82.9840799
 120.8374551  78.6860734  82.6714037 120.8640692  80.1982651  82.7380767
 116.0971917  70.0827641  85.3447411 116.6715669  69.8602822  84.6120604
 116.6842900  70.1516335  86.0976012 116.4241504  72.1132102  79.3643296
 115.5878817  72.4506788  79.6852571 116.2846274  71.9781081  78.4270433
 118.3994585  66.9568890  84.0722480 117.7458997  66.6417907  83.4479095
 118.3575059  66.3344630  84.7982303 119.5105790  77.2388185  75.9875772
 118.6032851  77.0077438  76.1866921 120.0076822  76.4425804  76.1749754
 120.6894023  77.3400780  80.5099762 119.7805242  77.0559812  80.6072232
 120.7189107  77.7599858  79.6503069 111.2582194  75.0606294  84.4914964
 111.0606593  74.4675654  83.7666031 110.7028858  74.7558504  85.2090903
 119.2378917  74.9529400  86.6109558 119.2927527  74.0003237  86.5352034
 118.4270119  75.1088839  87.0950856 120.3870111  78.8809523  77.8487841
 119.9489541  78.1645382  77.3893478 121.1280552  79.1085638  77.2872932
 117.1771277  73.5706460  84.3699937 116.3639143  73.8700630  84.7765129
 117.6730271  73.1762149  85.0874419 119.3279855  83.5664217  86.3034201
 119.2856034  83.7925063  85.3742733 120.2442554  83.3327591  86.4520002
 116.6685352  71.1424815  89.9861171 117.3084731  71.0013574  89.2884135
 115.8362882  70.8559329  89.6099773 117.4445656  80.4427246  86.0996164
 118.2386254  79.9477566  85.8978739 116.7337348  79.9145109  85.7363869
 113.7528419  74.5870328  82.1755917 112.8226007  74.5254783  82.3925879
 113.8485891  74.0646280  81.3792558 113.6713968  71.1125140  84.7634158
 113.9320786  72.0270474  84.6543319 114.4931141  70.6449583  84.9130771
 115.1438894  72.5262898  91.9332983 115.8161947  72.3180260  91.2845632
 114.3168680  72.3284984  91.4938215 120.0216932  81.0156268  89.7794001
 119.8828018  80.6475052  90.6519939 119.2331528  81.5303907  89.6077959
 120.6165084  86.1165364  81.1219538 120.7916839  85.6453407  81.9365160
 119.9297872  86.7431130  81.3500798 121.5722147  80.3937870  87.1682839
 121.2371980  80.3538640  88.0640489 121.0726093  79.7282586  86.6953249
 115.5466391  75.8005501  92.6935420 115.4086189  75.0685739  93.2946959
 116.4571314  75.7114401  92.4119608 118.1748692  75.5125460  92.1819100
 118.8848310  74.8718652  92.1405718 118.1318000  75.7638355  93.1045280
 116.8877626  72.4990678  94.0014739 116.3514983  72.0481416  94.6536335
 116.2994334  72.6336587  93.2585203 115.1826169  89.2654727  87.8959398
 115.4222767  89.8973251  88.5738416 114.3395366  88.9142767  88.1824757
 116.2979885  71.9579329  76.5641203 115.4209351  71.8368130  76.2003449
 116.7737638  71.1665407  76.3120091 107.8182025  76.7456489  86.6582710
 108.5053064  76.4318219  86.0703725 107.6630153  77.6497854  86.3849961
 112.6216747  71.6346685  91.0867734 112.5374936  71.0272355  90.3518144
 111.7999453  72.1255704  91.0877230 119.6954031  85.0733849  90.3000902
 119.6224202  85.8788821  90.8120206 119.2531424  85.2725815  89.4748923
 119.4843811  84.3105620  83.8103723 118.7011332  84.8527300  83.9041948
 120.1836556  84.8279599  84.2097964 119.3775429  72.2617632  86.1809613
 119.0073217  71.7088672  86.8690519 119.8734522  71.6575765  85.6284613
 117.2064628  82.7215127  93.2764631 117.9074087  83.3551610  93.4294025
 116.7359743  83.0629859  92.5160270 112.8032346  82.2551482  90.2095734
 113.3885783  81.5095170  90.3423638 112.6057184  82.5655439  91.0932398
 115.6571001  85.2902729  85.2258176 114.9881377  85.7748857  84.7422216
 115.5183871  85.5371950  86.1401555 107.3950001  74.8257082  88.9300177
 107.4334100  74.2920673  89.7237295 106.8890294  74.2992288  88.3111154
 119.7976270  87.3246473  91.8240835 120.3494578  87.4878094  92.5889920
 120.1382463  87.9150911  91.1520859 114.7740763  69.6721623  92.4262719
 114.8382090  70.5336454  92.0140117 114.7107883  69.0595624  91.6935078
 114.2493036  71.7444755  96.0735754 114.8765074  71.3621833  96.6873278
 113.3920954  71.5258957  96.4391446 111.0258578  73.5521184  82.0054108
 111.3212019  72.6431863  81.9521162 110.1246614  73.5308924  81.6835111
 114.5552825  71.6277181  87.9881657 113.8339411  72.2413149  87.8489130
 115.3446081  72.1634946  87.9098303 117.3579139  68.9631607  94.2622309
 117.8813541  69.2093904  95.0248618 117.1391472  69.7951642  93.8425446
 112.7546420  71.2335282  82.1293434 112.4259126  70.3532661  81.9468539
 113.1085791  71.1782951  83.0169823 115.8688243  71.5208252  82.4968911
 116.2084316  72.0494173  81.7747520 116.3160364  71.8588658  83.2727478
 118.5631684  69.9045303  91.9471979 118.2228504  69.1053116  92.3492659
 117.8570690  70.2047013  91.3748812 119.2148156  66.9894615  90.3999302
 120.0374225  66.5155093  90.2778193 119.4586219  67.7685099  90.8997989
 117.8556390  70.0182873  80.6962204 118.5764753  70.3964126  80.1925921
 117.2321694  70.7371750  80.7997182 116.7386735  73.6813736  88.2091281
 116.5931315  73.9954039  89.1015562 116.2611938  74.2998636  87.6562180
 118.5983117  70.6716284  88.2572170 118.5844686  69.7757377  87.9204468
 119.3155545  70.6786947  88.8910457 120.4509248  71.1053624  90.3025298
 120.1927026  72.0270694  90.3009628 119.9194288  70.7084058  90.9925762
 111.2132397  76.2219080  91.1478942 110.6685865  76.9978888  91.2799216
 112.0911747  76.5689884  90.9898064 118.0020013  69.5530664  83.5259741
 118.1235925  68.6247310  83.7250628 117.7122056  69.5669350  82.6138056
 120.8711204  67.2385574  86.6626460 120.8932901  67.3024907  85.7078440
 121.2879263  66.3990083  86.8566967 111.9998419  75.3488976  94.0409099
 111.2580155  75.4971612  94.6273729 111.6791163  75.6097242  93.1775848
 119.9442081  84.8904955  93.8389489 120.2529208  84.6454101  94.7112189
 120.7417563  85.0951593  93.3508359 119.9662693  87.0442864  86.0694866
 119.5267684  86.5519243  86.7627722 120.7170810  86.5015832  85.8286941
 112.4455032  83.2354405  86.0719494 113.2713052  82.9358177  85.6918137
 112.0949084  82.4662027  86.5209282 117.4136565  82.5880873  88.1417167
 116.7916575  81.9251578  87.8419395 118.0841432  82.6142005  87.4590815
 110.6463637  81.1540731  87.0308427 109.8095546  80.7262906  86.8492428
 110.6187283  81.3473175  87.9679218 117.4861093  71.0662661  97.7349673
 117.5349248  71.9424784  97.3527443 118.0283607  70.5240054  97.1621316
 116.9750072  81.1384797  81.6175628 117.1238193  81.8220261  80.9642300
 117.7816516  81.1189887  82.1325083 119.7160381  71.8194034  94.4896032
 118.8463691  72.1127600  94.2178620 119.9519862  72.4034479  95.2103295
 114.7302705  77.1649974  82.6236697 114.4848747  76.2612304  82.8216907
 114.8998620  77.1667125  81.6816175 113.9998353  72.8978332  80.1222858
 113.3067598  72.9722687  79.4662894 113.7550105  72.1338675  80.6444375
 120.4745478  83.6332927  79.0887375 119.9019445  84.2523114  78.6357847
 121.0478271  84.1832289  79.6227297 119.0435193  72.8943716  76.3658313
 118.1366649  72.5976829  76.4421026 119.3211174  72.5973534  75.4992599
 109.9613134  74.2150080  86.8157359 109.6415918  73.3615388  86.5231733
 109.4146562  74.4298658  87.5715327 113.7393041  76.9312521  90.5326866
 113.9579051  77.8629628  90.5514900 114.1518815  76.5720495  91.3181670
 120.6597259  67.4380606  82.5202554 119.8497988  67.0927691  82.8957800
 121.3481676  67.1288150  83.1090166 118.6120907  72.5045726  99.9229615
 118.5117634  73.4540083  99.8541706 118.3942449  72.1763965  99.0505685
 117.8133978  69.7530651  76.5070292 118.6753142  70.0785550  76.7666109
 117.9984322  68.9662147  75.9943358 109.8301394  77.8352991  88.7850481
 109.1364865  77.4206944  88.2720435 110.5774385  77.8773528  88.1883900
 118.4752177  75.9342865  98.7394676 117.9919258  76.7343225  98.9458565
 118.5613116  75.9450810  97.7862120 111.7438136  77.7671245  86.6616496
 111.7208824  77.8658932  85.7098379 112.0538773  78.6136396  86.9833662
 114.4025514  79.8247400  90.7763110 115.3568768  79.7931342  90.7093042
 114.2038038  79.3638024  91.5913336 114.9924896  78.3948516  93.3433908
 115.8117785  78.8892595  93.3668745 115.2661704  77.4780484  93.3151475
 112.7575743  85.3667019  87.7933308 112.6230211  84.6067420  87.2271306
 112.3407805  86.0907919  87.3262097 115.9144869  86.2636336  88.0051751
 115.7977253  87.2081769  87.9030441 115.0937315  85.9609898  88.3937550
 110.2459811  72.7286650  94.0426105 110.8918674  72.2185604  94.5313330
 110.0376962  73.4655331  94.6169530 118.7663421  66.9926694  79.7950001
 118.7542091  67.9368534  79.9518272 119.6586843  66.8096840  79.5009462
 116.9399383  86.9164598  91.2207679 117.8426630  86.9488209  91.5374174
 116.7136753  85.9865049  91.2354015 118.6952985  85.6695585  87.8817758
 117.7448616  85.6697446  87.7682130 118.9985471  84.9228319  87.3653792
 114.5857302  69.8754267  98.1401119 115.4488763  69.5191072  98.3504444
 114.0122712  69.5368162  98.8276523 118.6575779  92.0748407  86.6582710
 119.3446819  91.7610137  86.0703725 118.5023908  92.9789771  86.3849961
 118.2343755  90.1549000  88.9300177 118.2727855  89.6212591  89.7237295
 117.7284048  89.6284205  88.3111154 121.4857392  96.4832649  87.0308427
 120.6489300  96.0554824  86.8492428 121.4581037  96.6765092  87.9679218
 120.8006888  89.5441997  86.8157359 120.4809673  88.6907305  86.5231733
 120.2540317  89.7590575  87.5715327 120.6695148  93.1644909  88.7850481
 119.9758620  92.7498862  88.2720435 121.4168139  93.2065445  88.1883900
  74.1864323   2.2063785  70.4756502  74.1088352   3.1571610  70.5544983
  73.5825966   1.8609657  71.1331429  71.8251152   4.9549179  74.6204704
  72.0647751   5.5867703  75.2983723  70.9820349   4.6037219  74.9070064
  72.2995985   0.9797181  71.9503483  71.6306360   1.4643309  71.4667523
  72.1608854   1.2266402  72.8646861  76.4401253   3.0140925  78.5486141
  76.9919561   3.1772546  79.3135226  76.7807447   3.6045363  77.8766166
  69.4000726   1.0561471  74.5178615  69.2655194   0.2961872  73.9516613
  68.9832789   1.7802371  74.0507404  72.5569852   1.9530788  74.7297057
  72.4402236   2.8976221  74.6275748  71.7362298   1.6504350  75.1182857
  73.5824366   2.6059050  77.9452986  74.4851613   2.6382660  78.2619481
  73.3561736   1.6759501  77.9599322  87.8820368   7.1478003  75.6070351
  87.5438880   7.0319068  74.7190886  88.7510136   6.7469168  75.5871358
  83.7407184   9.0013480  71.5967242  83.1772049   8.9103417  70.8283530
  83.6259579   8.1813384  72.0769735  88.3640151   8.3012855  81.5656557
  88.3528792   7.9065653  80.6937061  88.5260791   7.5678928  82.1590328
  81.2871616  10.4964671  74.4351463  82.0792908  10.1555496  74.0197762
  81.5268266  10.6059646  75.3553616  89.3206743  12.6684447  66.9081707
  88.6694722  13.2538528  66.5215721  90.1151105  13.1990642  66.9676745
  83.2462370   9.7573584  67.3068842  84.0193246   9.2102572  67.1681717
  83.5987769  10.6217834  67.5183303  85.0847412  11.0849967  80.5135741
  84.7937278  11.9895598  80.3982407  85.7204397  11.1266494  81.2279811
  86.0103619   8.4626815  77.1037101  86.6067191   8.2382838  76.3894064
  86.0678591   7.7211561  77.7062548  90.7982008  10.3574879  67.4450692
  90.1627841  10.4309506  68.1571596  90.4679414  10.9468478  66.7669771
  85.3024936   7.8194357  67.1411667  85.1861194   7.1439260  67.8092751
  85.4127196   7.3326730  66.3243820  87.6456477   7.2804504  70.8458356
  87.2814684   6.7535125  71.5571277  88.5023593   6.8902973  70.6724841
  90.0437297  10.7711382  77.5085535  89.7438020  11.6736421  77.4001342
  89.6988357  10.5043565  78.3606688  83.4949779   7.2225179  73.5422239
  82.5700275   7.0901393  73.7499931  83.7434192   8.0019398  74.0392181
  80.8558590   6.8658453  74.3766028  80.9850971   7.1192932  75.2905440
  80.1756041   7.4586161  74.0570683  85.0258077  17.5355703  70.4756502
  84.9482107  18.4863528  70.5544983  84.4219721  17.1901575  71.1331429
  85.7721679   7.5169021  82.6935836  86.5136364   8.0554065  82.4170660
  85.0658665   8.1435310  82.8507388  91.2477019   9.6598162  81.2907998
  91.6560375   9.2180572  80.5462630  90.5254280   9.0850789  81.5442191
  91.5705834  10.2199352  75.0460287  90.9414696  10.3845067  74.3436354
  91.1831496  10.6340962  75.8171251  95.4495065  11.1553790  72.4004650
  94.7646104  11.5352692  71.8501684  95.5338915  11.7649117  73.1336598
  92.7045997   8.8013749  78.9999994  92.9162892   9.4445509  78.3234375
  92.6575745   7.9676066  78.5321924  87.1233795   9.9573761  72.3110372
  87.5872141  10.2361464  71.5214994  86.8590593   9.0557205  72.1283462
  84.0157876   9.5045242  75.2490135  84.5859234   9.9332510  74.6107619
  84.6065988   9.2227827  75.9474321  79.8028015   4.3380466  74.4217070
  79.0127069   4.5937994  73.9457181  80.2939263   5.1528803  74.5269111
  93.8191825  11.6785705  77.1722351  94.6409269  11.2765892  76.8905033
  93.8154228  11.5753939  78.1238467  81.7542761   4.7025045  71.3800547
  80.9573924   4.8143739  71.8984043  81.5268353   5.0411697  70.5141438
  87.5848428  11.2269748  79.3283062  87.6492861  11.6890155  80.1641234
  86.8759352  10.5967113  79.4565372  78.0865718   4.5910956  76.8532061
  78.3373757   5.4757966  77.1189637  78.6225267   4.4115558  76.0807153
  87.2996446  12.8937856  69.1962042  87.1642121  13.7389391  69.6246890
  87.8406259  13.0957133  68.4327976  80.7525843  10.4113294  69.7689967
  81.2650364  11.2056544  69.9195532  81.4048556   9.7139584  69.7023569
  82.5620728  13.5279050  71.8512720  82.7387356  14.4497015  71.6633704
  83.3577562  13.2137469  72.2807100  81.8473085   5.5743682  81.7274884
  81.7326600   4.6728939  82.0281982  80.9917602   5.8207379  81.3759700
  88.9264922  13.5161422  83.3262384  88.4828777  12.7297801  83.0083289
  89.5882136  13.7040573  82.6606275  83.6852044  15.0457224  77.8523063
  84.2359469  14.9174287  77.0800057  82.8463520  15.3452113  77.5017955
  91.0246160  13.7964222  81.3543785  91.0064636  14.6173103  80.8624055
  91.9466081  13.6718297  81.5793927  87.4819215  11.3108351  82.1967294
  88.0147551  10.5496640  81.9666602  86.9533296  11.0182003  82.9391448
  78.7174760   8.7401948  70.5449538  79.5549982   9.1498956  70.3283245
  78.8953028   7.8001390  70.5149732  88.8471927  10.4394344  69.7086106
  88.3193289   9.7047104  69.3959343  88.3459430  11.2169020  69.4626074
  93.8264773   8.6343364  74.8253152  93.1688448   9.3242626  74.9133281
  94.6305173   9.0239796  75.1687138  86.9924528   8.2574554  62.7121079
  86.0851589   8.0263808  62.9112228  87.4895560   7.4612173  62.8995060
  89.8992606  16.9672061  65.6317765  89.2254305  17.2703758  66.2402723
  90.2858428  17.7701142  65.2823222  88.1712761   8.3587149  67.2345069
  87.2623980   8.0746182  67.3317539  88.2007845   8.7786228  66.3748376
  93.4032028  11.9693739  71.0036236  92.9494355  11.1284648  71.0601427
  92.7725995  12.6055137  71.3411017  91.8464968  13.8070235  71.9386055
  92.1387942  14.3675292  71.2198420  92.3563588  14.0998796  72.6939214
  78.7400931   6.0792663  71.2160271  78.5425331   5.4862024  70.4911338
  78.1847595   5.7744873  71.9336210  87.8688849   9.8995893  64.5733148
  87.4308279   9.1831752  64.1138785  88.6099290  10.1272008  64.0118239
  86.8098593  14.5850586  73.0279508  86.7674772  14.8111433  72.0988040
  87.7261292  14.3513961  73.1765309  96.0131343  10.2429617  75.6420738
  96.4467850  10.1504906  76.4903792  96.7262924  10.2187117  75.0040754
  84.9264394  11.4613615  72.8241471  85.7204992  10.9663936  72.6224046
  84.2156086  10.9331479  72.4609176  89.7459238  13.8431711  77.1753838
  89.7996260  14.4122647  77.9431554  88.8774019  14.0133596  76.8107875
  81.2347157   5.6056697  68.9001223  80.3044745   5.5441153  69.1171185
  81.3304629   5.0832650  68.1037864  96.8746893  10.2853317  78.1753623
  97.0682783  11.1899128  78.4212898  96.7747511   9.8260737  79.0092208
  91.9362001  10.4360060  83.7494504  91.7847508  10.2070612  82.8324587
  91.9266681  11.3930662  83.7625849  88.7047338   8.0091973  78.7340770
  89.6339398   8.1603133  78.5609737  88.2838368   8.0975994  77.8789417
  87.5035670  12.0342637  76.5039308  87.3646755  11.6661422  77.3765246
  86.7150266  12.5490277  76.3323265  88.0983822  17.1351734  67.8464844
  88.2735577  16.6639777  68.6610467  87.4116610  17.7617500  68.0746105
  89.0540885  11.4124240  73.8928145  88.7190717  11.3725010  74.7885795
  88.5544830  10.7468956  73.4198556  83.0285129   6.8191870  79.4180727
  82.8904927   6.0872109  80.0192266  83.9390052   6.7300770  79.1364914
  91.9900076   8.7580274  64.1665205  91.3729247   8.0327103  64.0698258
  91.5216565   9.5189635  63.8232279  85.6567429   6.5311829  78.9064406
  86.3667048   5.8905022  78.8651025  85.6136738   6.7824724  79.8290587
  93.6454208  13.4679183  81.8270985  93.5866754  12.7838403  81.1601568
  94.0473726  14.2098173  81.3751611  82.6644907  20.2841097  74.6204704
  82.9041505  20.9159621  75.2983723  81.8214103  19.9329137  74.9070064
  93.6471615  11.4318767  80.0584965  92.7598394  11.0944688  80.1811364
  94.2170166  10.7001798  80.2953731  75.3000762   7.7642858  73.3828017
  75.9871802   7.4504588  72.7949032  75.1448891   8.6684223  73.1095268
  87.1772769  16.0920219  77.0246208  87.1042940  16.8975191  77.5365513
  86.7350162  16.2912185  76.1994230  86.9662548  15.3291989  70.5349030
  86.1830070  15.8713669  70.6287254  87.6655294  15.8465969  70.9343271
  89.6371452  15.9907053  79.1804367  90.3499424  16.6254518  79.1080268
  89.1461481  16.0870919  78.3644369  91.3588979   9.8958306  70.7521659
  90.4245258  10.0159768  70.5826363  91.5365648   8.9930773  70.4881668
  84.6883366  13.7401497  80.0009938  85.3892825  14.3737980  80.1539332
  84.2178481  14.0816228  79.2405577  92.8137762  12.0819446  68.2857845
  93.0897605  11.9676041  69.1951719  91.9442260  11.6836931  68.2470018
  89.4491826  16.3305797  71.9290658  89.6314220  15.5127453  72.3918411
  90.2724812  16.5473489  71.4915548  89.7833991  15.2573982  69.1905707
  90.3121758  14.7466437  68.5775869  90.0462211  14.9416513  70.0551240
  88.5372225   7.0365915  84.3128525  87.8612862   6.9360044  84.9830900
  89.3599859   6.8805129  84.7764522  80.2851084  13.2737852  76.9341040
  80.8704521  12.5281539  77.0668945  80.0875922  13.5841808  77.8177704
  83.1389739  16.3089099  71.9503483  82.4700114  16.7935227  71.4667523
  83.0002609  16.5558319  72.8646861  74.8768739   5.8443452  75.6545484
  74.9152838   5.3107042  76.4482602  74.3709031   5.3178657  75.0356461
  87.2795008  18.3432842  78.5486141  87.8313316  18.5064464  79.3135226
  87.6201201  18.9337280  77.8766166  92.1305882  13.1694100  84.4034796
  92.6745786  13.7824058  83.9089750  91.5492727  13.7273678  84.9201809
  78.5077316   4.5707554  68.7299415  78.8030757   3.6618232  68.6766469
  77.6065352   4.5495293  68.4080417  90.4163395  16.2914818  75.5349823
  90.2914534  15.4904558  75.0260769  91.0742486  16.7861011  75.0463793
  92.4798303  14.0923838  77.1629373  91.5328639  13.9729189  77.0907700
  92.8281076  13.2046336  77.2455635  89.4844737  13.8876554  73.3633726
  89.3369699  12.9593262  73.5441296  90.3098230  13.9096645  72.8790801
  93.0878858  14.7105113  74.4498598  94.0125406  14.5047974  74.3123050
  92.9194162  14.4621514  75.3587940  92.8774175  15.2290780  69.8060690
  93.0511052  14.6637203  69.0534542  93.3703066  16.0291675  69.6240180
  78.6951134   7.2405450  77.8724249  78.1504603   8.0165258  78.0044523
  79.5730484   7.5876254  77.7143370  93.8649347  14.5457545  66.9057588
  94.5600252  15.1664238  67.1244903  94.2072497  13.6952896  67.1809966
  79.4817156   6.3675346  80.7654406  78.7398892   6.5157981  81.3519036
  79.1609901   6.6283611  79.9021155  95.7640770  11.9957250  68.4344919
  96.2892094  12.3344523  67.7094239  95.6763123  11.0604266  68.2508054
  87.4260819  15.9091324  80.5634796  87.7347945  15.6640471  81.4357495
  88.2236301  16.1137963  80.0753666  79.9273770  14.2540775  72.7964800
  80.7531790  13.9544546  72.4163444  79.5767822  13.4848397  73.2454589
  84.8955303  13.6067243  74.8662474  84.2735312  12.9437948  74.5664702
  85.5660170  13.6328375  74.1836122  78.1282375  12.1727101  73.7553734
  77.2914283  11.7449275  73.5737735  78.1006020  12.3659544  74.6924525
  95.4534676  12.6290154  83.7396117  94.6630220  12.6114293  83.2000616
  95.2168031  13.1678448  84.4945154  84.4568810  12.1571166  68.3420934
  84.6056930  12.8406631  67.6887607  85.2635254  12.1376256  68.8570390
  97.0750748  11.8979562  81.2970867  96.7835557  12.2609543  82.1334328
  96.4622879  11.1846570  81.1184199  82.2121443   8.1836344  69.3482003
  81.9667485   7.2798674  69.5462213  82.3817358   8.1853494  68.4061481
  87.9564216  14.6519297  65.8132682  87.3838183  15.2709484  65.3603154
  88.5297009  15.2018658  66.3472604  91.1761475  14.9356447  66.9441264
  92.1092149  14.8702008  67.1474140  91.0884688  15.7712714  66.4855797
  93.8049492  14.2522317  63.9045212  93.7263124  13.9182181  64.7980970
  94.6259159  14.7444085  63.9036684  88.2249707  10.0397855  84.6149391
  89.1452716  10.2176454  84.8089438  88.1899290   9.0953901  84.4629091
  77.4431872   5.2336449  73.5402666  77.1234656   4.3801757  73.2477040
  76.8965300   5.4485027  74.2960633  81.2211779   7.9498890  77.2572172
  81.4397789   8.8815998  77.2760206  81.6337553   7.5906865  78.0426976
  77.3120132   8.8539361  75.5095787  76.6183603   8.4393313  74.9965742
  78.0593123   8.8959897  74.9129206  85.9570915   6.9529235  85.4639983
  85.4737996   7.7529595  85.6703872  86.0431854   6.9637180  84.5107427
  79.2256874   8.7857614  73.3861802  79.2027562   8.8845302  72.4343685
  79.5357511   9.6322765  73.7078968  81.8844252  10.8433769  77.5008417
  82.8387506  10.8117712  77.4338348  81.6856776  10.3824393  78.3158643
  82.4743634   9.4134885  80.0679214  83.2936523   9.9078964  80.0914052
  82.7480442   8.4966854  80.0396782  80.2394481  16.3853389  74.5178615
  80.1048949  15.6253790  73.9516613  79.8226543  17.1094289  74.0507404
  91.3753444  11.5690312  63.5255190  92.0789294  11.7740315  64.1412846
  90.6516093  12.1367074  63.7904273  83.3963607  17.2822706  74.7297057
  83.2795991  18.2268138  74.6275748  82.5756053  16.9796268  75.1182857
  93.2840141  12.0072842  65.5753650  94.1185745  11.5754040  65.3931125
  93.1224484  11.8354855  66.5030544  92.9386033   8.5104955  66.9409989
  92.8834837   8.3449226  65.9998433  92.3132089   9.2180988  67.0972179
  77.7278548   3.7473019  80.7671412  78.3737412   3.2371973  81.2558637
  77.5195700   4.4841701  81.3414837  90.2531941  10.8153867  86.2663552
  91.1223100  10.9894519  85.9050187  89.7738692  11.6348284  86.1439281
  84.4218121  17.9350968  77.9452986  85.3245368  17.9674578  78.2619481
  84.1955491  17.0051419  77.9599322  86.1771723  16.6881954  74.6063064
  85.2267354  16.6883816  74.4927437  86.4804209  15.9414689  74.0899099
 101.9124416  22.5242493  75.6708827 102.5502826  22.4049240  74.9672167
 101.7945259  23.4723337  75.7296779  98.7214123  22.4769921  75.6070351
  98.3832634  22.3610986  74.7190886  99.5903891  22.0761086  75.5871358
  94.5800938  24.3305397  71.5967242  94.0165803  24.2395334  70.8283530
  94.4653333  23.5105302  72.0769735  99.2033906  23.6304773  81.5656557
  99.1922546  23.2357571  80.6937061  99.3654545  22.8970845  82.1590328
  92.1265370  25.8256589  74.4351463  92.9186662  25.4847414  74.0197762
  92.3662020  25.9351564  75.3553616 100.1600497  27.9976365  66.9081707
  99.5088477  28.5830445  66.5215721 100.9544860  28.5282560  66.9676745
  94.0856124  25.0865502  67.3068842  94.8587000  24.5394489  67.1681717
  94.4381523  25.9509751  67.5183303  95.9241167  26.4141884  80.5135741
  95.6331033  27.3187515  80.3982407  96.5598151  26.4558412  81.2279811
  96.8497374  23.7918733  77.1037101  97.4460946  23.5674755  76.3894064
  96.9072345  23.0503478  77.7062548  96.4222402  21.2458168  64.9387292
  96.6747923  20.7239690  64.1770755  95.4846961  21.0824314  65.0413975
 101.4665685  20.2493947  72.7462035 102.2528774  19.8313370  72.3952452
 101.7304389  21.1540039  72.9143683 106.8674112  20.1869180  73.6495013
 107.5999284  19.6168397  73.8832843 106.1113468  19.7990780  74.0901519
  96.1418691  23.1486274  67.1411667  96.0254949  22.4731178  67.8092751
  96.2520951  22.6618648  66.3243820  98.4850232  22.6096421  70.8458356
  98.1208439  22.0827042  71.5571277  99.3417348  22.2194890  70.6724841
 104.3899532  13.8990754  78.1089622 104.0582857  14.7686165  77.8850837
 103.7945146  13.5827038  78.7883652  98.1255719  17.6386321  65.8419704
  98.2930121  18.5066557  66.2090175  97.9352888  17.8013603  64.9180994
 100.8831052  26.1003300  77.5085535 100.5831775  27.0028339  77.4001342
 100.5382111  25.8335483  78.3606688  94.3343533  22.5517097  73.5422239
  93.4094030  22.4193311  73.7499931  94.5827947  23.3311316  74.0392181
 104.2828196  18.6185840  75.1882972 103.3745073  18.5501249  74.8941733
 104.2315791  19.0957785  76.0164797  98.1044940  20.0943979  66.8266371
  97.9844565  20.5401029  67.6651851  97.4097528  20.4429296  66.2679909
  95.8651832  32.8647620  70.4756502  95.7875861  33.8155445  70.5544983
  95.2613475  32.5193493  71.1331429  98.3569061  20.0375486  83.1317869
  97.5802395  20.5969406  83.1220734  98.9959624  20.5232269  83.6532739
 106.1489842  16.8202279  76.9660846 105.5064222  17.1134812  76.3200640
 105.6444771  16.7055199  77.7714043  96.6115434  22.8460939  82.6935836
  97.3530118  23.3845983  82.4170660  95.9052419  23.4727228  82.8507388
 102.0870773  24.9890080  81.2907998 102.4954129  24.5472490  80.5462630
 101.3648035  24.4142707  81.5442191  98.4401843  19.9262686  78.6641555
  99.2863039  20.3502100  78.8076204  98.3800481  19.2696311  79.3580118
 102.4099588  25.5491270  75.0460287 101.7808450  25.7136984  74.3436354
 102.0225250  25.9632880  75.8171251 106.2888820  26.4845708  72.4004650
 105.6039858  26.8644609  71.8501684 106.3732669  27.0941035  73.1336598
 101.5901289  17.5867055  80.3222728 101.3462221  18.3409115  79.7857004
 101.8661219  17.9652402  81.1569975 103.5439751  24.1305667  78.9999994
 103.7556647  24.7737427  78.3234375 103.4969500  23.2967984  78.5321924
 101.1465980  16.7423488  75.9036566 100.2850459  17.0404741  76.1953304
 101.1728415  16.9593887  74.9717599  97.9627550  25.2865678  72.3110372
  98.4265895  25.5653381  71.5214994  97.6984348  24.3849123  72.1283462
  94.8551631  24.8337160  75.2490135  95.4252988  25.2624428  74.6107619
  95.4459743  24.5519744  75.9474321  96.8996436  21.4088831  69.1199937
  97.6020479  21.8609874  69.5873863  96.5677064  20.7672649  69.7479830
  95.3476797  20.0000587  83.4951146  94.7175458  20.6816868  83.7286543
  95.2412885  19.8883669  82.5504284  90.6421770  19.6672383  74.4217070
  89.8520824  19.9229912  73.9457181  91.1333017  20.4820721  74.5269111
 104.6585579  27.0077622  77.1722351 105.4803023  26.6057810  76.8905033
 104.6547982  26.9045857  78.1238467  92.5936515  20.0316963  71.3800547
  91.7967679  20.1435657  71.8984043  92.3662107  20.3703615  70.5141438
  98.4242183  26.5561666  79.3283062  98.4886615  27.0182073  80.1641234
  97.7153107  25.9259031  79.4565372  88.9259473  19.9202874  76.8532061
  89.1767511  20.8049884  77.1189637  89.4619021  19.7407475  76.0807153
 112.7491572  23.3516371  73.5207323 111.9955281  22.7823769  73.3651327
 112.8839114  23.3179035  74.4677957  98.1390201  28.2229773  69.1962042
  98.0035875  29.0681309  69.6246890  98.6800013  28.4249051  68.4327976
  94.6257540  14.3021353  85.8576397  94.2324486  13.7487552  86.5324042
  95.4423680  14.6131932  86.2482915  91.5919598  25.7405211  69.7689967
  92.1044118  26.5348462  69.9195532  92.2442311  25.0431502  69.7023569
  93.4014483  28.8570968  71.8512720  93.5781111  29.7788932  71.6633704
  94.1971316  28.5429387  72.2807100  97.5425501  15.7179232  83.4496654
  98.2835215  16.3186385  83.3701116  97.7743424  14.9756870  82.8914696
  92.6866839  20.9035599  81.7274884  92.5720354  20.0020857  82.0281982
  91.8311357  21.1499296  81.3759700  99.7658677  28.8453340  83.3262384
  99.3222531  28.0589718  83.0083289 100.4275890  29.0332490  82.6606275
  94.5245798  30.3749141  77.8523063  95.0753223  30.2466205  77.0800057
  93.6857274  30.6744030  77.5017955 101.8639915  29.1256140  81.3543785
 101.8458390  29.9465021  80.8624055 102.7859835  29.0010215  81.5793927
  98.3212969  26.6400269  82.1967294  98.8541306  25.8788557  81.9666602
  97.7927050  26.3473921  82.9391448 101.4882664  11.7460335  77.7260936
 101.1446934  12.6361977  77.6500046 101.8561627  11.5561993  76.8630521
  89.5568515  24.0693866  70.5449538  90.3943737  24.4790874  70.3283245
  89.7346782  23.1293308  70.5149732 101.4532947  21.7368946  66.2333371
 100.9379570  22.5073551  66.4721758 101.1810255  21.0634082  66.8566432
  99.0380058  16.5818647  71.2918609  98.1821654  16.1925497  71.1124248
  99.4507010  16.6610608  70.4318395 100.5679204  14.1164990  75.6910169
 100.0644000  14.0795125  74.8777974 100.8609811  15.0257733  75.7506825
  96.8122090  14.2003720  74.6976351  97.6775087  14.0046529  74.3382240
  96.8799599  13.9714072  75.6245707 101.2419250  19.6096038  68.0593152
 100.9369386  19.9242187  68.9103295 102.1949692  19.6877458  68.1020485
 104.6658528  23.9635282  74.8253152 104.0082202  24.6534544  74.9133281
 105.4698927  24.3531714  75.1687138  94.4184409  16.4305928  72.0692717
  94.9928161  16.2081109  71.3365910  95.0055392  16.4994622  72.8221319
 103.4763987  22.3179655  72.8757094 103.9895868  22.9509647  73.3778804
 104.1265211  21.7180850  72.5100454  94.7453997  18.4610389  66.0888603
  93.9091309  18.7985075  66.4097877  94.6058766  18.3259369  65.1515740
  96.7207077  13.3047177  70.7967787  96.0671490  12.9896194  70.1724402
  96.6787551  12.6822917  71.5227610  97.8318282  23.5866472  62.7121079
  96.9245344  23.3555725  62.9112228  98.3289314  22.7904091  62.8995060
 100.7386361  32.2963979  65.6317765 100.0648060  32.5995676  66.2402723
 101.1252183  33.0993059  65.2823222  99.9544818  19.7929110  75.1215434
  99.0367379  20.0144057  74.9637122 100.3704961  19.8675421  74.2627142
  99.0106515  23.6879067  67.2345069  98.1017735  23.4038100  67.3317539
  99.0401599  24.1078145  66.3748376 103.1858702  18.2277642  72.2336904
 102.4481459  17.7155029  72.5647147 103.4385476  17.7878024  71.4220181
 102.6858722  29.1362153  71.9386055 102.9781696  29.6967210  71.2198420
 103.1957343  29.4290714  72.6939214  97.5591410  21.3007687  73.3354864
  97.6140019  20.3481524  73.2597341  96.7482612  21.4567126  73.8196163
  98.7082603  25.2287810  64.5733148  98.2702033  24.5123669  64.1138785
  99.4493044  25.4563925  64.0118239  97.6492347  29.9142504  73.0279508
  97.6068526  30.1403350  72.0988040  98.5655046  29.6805879  73.1765309
 101.0957981  20.3826572  79.9260137 101.4507369  20.6098045  80.7854603
 101.7430112  20.7144948  79.3037392 106.8255718  23.5045007  70.6309466
 106.6873617  23.6946603  69.7030655 106.4691937  24.2664390  71.0877517
  94.9897844  17.4903103  76.7106478  95.6297224  17.3491862  76.0129441
  94.1575375  17.2037616  76.3345080 106.8525098  25.5721534  75.6420738
 107.2861604  25.4796824  76.4903792 107.5656678  25.5479035  75.0040754
 100.5852993  29.1723629  77.1753838 100.6390015  29.7414565  77.9431554
  99.7167774  29.3425514  76.8107875  91.9926461  17.4603428  71.4879465
  92.2533278  18.3748761  71.3788625  92.8143633  16.9927870  71.6376078
  93.4651386  18.8741185  78.6578289  94.1374439  18.6658547  78.0090938
  92.6381172  18.6763271  78.2183522 107.7140647  25.6145235  78.1753623
 107.9076537  26.5191046  78.4212898 107.6141265  25.1552654  79.0092208
  99.3676958  15.5003126  80.6743950  98.7204873  16.1993075  80.5808427
 100.1377973  15.9339270  81.0420199 102.7755756  25.7651978  83.7494504
 102.6241262  25.5362530  82.8324587 102.7660435  26.7222579  83.7625849
  99.5441092  23.3383891  78.7340770 100.4733152  23.4895050  78.5609737
  99.1232122  23.4267911  77.8789417  98.3429424  27.3634555  76.5039308
  98.2040510  26.9953339  77.3765246  97.5544020  27.8782194  76.3323265
  98.9377576  32.4643652  67.8464844  99.1129332  31.9931695  68.6610467
  98.2510364  33.0909418  68.0746105  99.8934639  26.7416158  73.8928145
  99.5584472  26.7016928  74.7885795  99.3938585  26.0760874  73.4198556
  93.8678883  22.1483788  79.4180727  93.7298681  21.4164027  80.0192266
  94.7783807  22.0592688  79.1364914 102.8293831  24.0872192  64.1665205
 102.2123002  23.3619020  64.0698258 102.3610319  24.8481552  63.8232279
  96.4961184  21.8603747  78.9064406  97.2060802  21.2196939  78.8651025
  96.4530492  22.1116642  79.8290587 104.4847963  28.7971100  81.8270985
 104.4260509  28.1130321  81.1601568 104.8867481  29.5390090  81.3751611
  95.2090118  18.8468965  80.7260046  94.6727475  18.3959703  81.3781642
  94.6206826  18.9814874  79.9830510  93.5038661  35.6133014  74.6204704
  93.7435260  36.2451538  75.2983723  92.6607858  35.2621054  74.9070064
  94.6192377  18.3057616  63.2886509  93.7421843  18.1846417  62.9248756
  95.0950130  17.5143695  63.0365398 104.4865370  26.7610684  80.0584965
 103.5992149  26.4236606  80.1811364 105.0563921  26.0293716  80.2953731
  86.1394517  23.0934776  73.3828017  86.8265557  22.7796506  72.7949032
  85.9842646  23.9976141  73.1095268  90.9429239  17.9824973  77.8113040
  90.8587428  17.3750642  77.0763450  90.1211945  18.4733991  77.8122537
  98.0166523  31.4212137  77.0246208  97.9436695  32.2267108  77.5365513
  97.5743916  31.6204103  76.1994230  97.8056303  30.6583907  70.5349030
  97.0223825  31.2005587  70.6287254  98.5049048  31.1757886  70.9343271
 101.1152953  16.4678536  73.1783235 101.6121652  15.7148499  72.8584306
 100.3439934  16.5042853  72.6126445 108.9682710  22.1718902  74.8201527
 108.9572587  23.0543617  74.4495460 108.1000090  21.8190453  74.6256064
 100.4765207  31.3198971  79.1804367 101.1893179  31.9546436  79.1080268
  99.9855235  31.4162837  78.3644369  97.6987922  18.6095919  72.9054920
  97.3285709  18.0566960  73.5935825  98.1947014  18.0054053  72.3529920
 105.5855285  21.0667543  71.2871693 106.0515737  21.8995534  71.2131995
 106.0362785  20.6012524  71.9916951  95.5277120  29.0693414  80.0009938
  96.2286580  29.7029897  80.1539332  95.0572235  29.4108146  79.2405577
 103.6531516  27.4111364  68.2857845 103.9291360  27.2967959  69.1951719
 102.7836015  27.0128849  68.2470018 103.5571948  13.4348130  75.3262594
 102.6435028  13.6652357  75.4944801 103.9865049  13.5186574  76.1776627
 103.3278406  21.6238022  77.8262488 102.6749856  21.8713929  77.1714941
 103.7058786  20.8102160  77.4924965 100.2885580  31.6597715  71.9290658
 100.4707975  30.8419371  72.3918411 101.1118566  31.8765407  71.4915548
 100.6227746  30.5865900  69.1905707 101.1515512  30.0758355  68.5775869
 100.8855965  30.2708430  70.0551240  99.3765979  22.3657833  84.3128525
  98.7006616  22.2651962  84.9830900 100.1993613  22.2097046  84.7764522
  91.1244838  28.6029769  76.9341040  91.7098275  27.8573457  77.0668945
  90.9269677  28.9133726  77.8177704  93.9783494  31.6381017  71.9503483
  93.3093869  32.1227144  71.4667523  93.8396363  31.8850237  72.8646861
  85.7162493  21.1735369  75.6545484  85.7546593  20.6398960  76.4482602
  85.2102786  20.6470575  75.0356461  98.1188762  33.6724760  78.5486141
  98.6707070  33.8356382  79.3135226  98.4594956  34.2629198  77.8766166
  93.0953255  16.0199910  79.1508026  93.1594582  16.8814741  78.7385424
  93.0320376  15.4073912  78.4180384  92.5705528  18.0923043  82.7981060
  93.1977567  17.7100120  83.4118585  91.7133447  17.8737244  83.1636753
 102.9699636  28.4986018  84.4034796 103.5139540  29.1115976  83.9089750
 102.3886481  29.0565596  84.9201809  89.3471071  19.8999472  68.7299415
  89.6424512  18.9910150  68.6766469  88.4459106  19.8787211  68.4080417
  92.8765318  17.9755468  74.7126964  92.1551903  18.5891436  74.5734437
  93.6658573  18.5113233  74.6343610 103.3192058  29.4215756  77.1629373
 102.3722393  29.3021107  77.0907700 103.6674831  28.5338254  77.2455635
  95.6791631  15.3109895  80.9867615  96.2026033  15.5572191  81.7493925
  95.4603964  16.1429930  80.5670753  91.0758912  17.5813569  68.8538740
  90.7471618  16.7010948  68.6713846  91.4298283  17.5261238  69.7415129
 100.3238491  29.2168472  73.3633726 100.1763454  28.2885179  73.5441296
 101.1491985  29.2388563  72.8790801  94.1900735  17.8686539  69.2214218
  94.5296808  18.3972460  68.4992826  94.6372856  18.2066945  69.9972784
 103.9272613  30.0397031  74.4498598 104.8519160  29.8339892  74.3123050
 103.7587916  29.7913432  75.3587940  96.8844176  16.2523590  78.6717286
  96.5440997  15.4531403  79.0737966  96.1783182  16.5525301  78.0994119
  97.5360648  13.3372902  77.1244609  98.3586717  12.8633380  77.0023499
  97.7798712  14.1163386  77.6243295  96.1768883  16.3661161  67.4207511
  96.8977245  16.7442413  66.9171227  95.5534187  17.0850037  67.5242489
 100.3200005  17.0706310  68.3565843 100.5363620  17.9530948  68.0554671
  99.8394073  16.6792523  67.6271485  95.0599227  20.0292023  74.9336588
  94.9143808  20.3432326  75.8260869  94.5824430  20.6476923  74.3807486
  96.9195610  17.0194571  74.9817477  96.9057178  16.1235664  74.6449775
  97.6368038  17.0265235  75.6155763  98.7721740  17.4531911  77.0270605
  98.5139518  18.3748982  77.0254935  98.2406781  17.0562346  77.7171069
 103.7167929  30.5582698  69.8060690 103.8904807  29.9929121  69.0534542
 104.2096820  31.3583593  69.6240180  89.5344889  22.5697367  77.8724249
  88.9898357  23.3457175  78.0044523  90.4124239  22.9168172  77.7143370
  96.3232506  15.9008951  70.2505047  96.4448417  14.9725597  70.4495935
  96.0334548  15.9147637  69.3383363  99.1923696  13.5863862  73.3871767
  99.2145393  13.6503195  72.4323747  99.6091755  12.7468370  73.5812273
 109.5707320  23.3219121  71.4250990 110.0138466  22.5726446  71.0270113
 108.6933831  23.3129257  71.0424722 104.7043102  29.8749463  66.9057588
 105.3994006  30.4956155  67.1244903 105.0466252  29.0244814  67.1809966
  90.3210911  21.6967264  80.7654406  89.5792647  21.8449899  81.3519036
  90.0003655  21.9575529  79.9021155 106.6034525  27.3249168  68.4344919
 107.1285849  27.6636441  67.7094239 106.5156877  26.3896183  68.2508054
  98.2654573  31.2383242  80.5634796  98.5741700  30.9932389  81.4357495
  99.0630055  31.4429880  80.0753666  88.9676130  27.5019019  73.7553734
  88.1308038  27.0741193  73.5737735  88.9399775  27.6951462  74.6924525
  95.8073585  17.4140949  84.4594980  95.8561741  18.2903071  84.0772749
  96.3496099  16.8718342  83.8866623 106.2928431  27.9582072  83.7396117
 105.5023975  27.9406211  83.2000616 106.0561785  28.4970365  84.4945154
 106.4126306  24.8074538  81.0528845 106.4624311  24.6424546  81.9944368
 106.3040229  23.9401797  80.6626726  95.2962565  27.4863084  68.3420934
  95.4450685  28.1698548  67.6887607  96.1029008  27.4668174  68.8570390
 103.7030068  20.7905466  82.3688152 104.6039931  20.6511931  82.0772150
 103.7778043  20.9559921  83.3086330  98.0372874  18.1672321  81.2141338
  97.1676183  18.4605887  80.9423927  98.2732354  18.7512766  81.9348602
 107.9144503  27.2271480  81.2970867 107.6229311  27.5901460  82.1334328
 107.3016634  26.5138488  81.1184199 109.1140185  24.7924359  73.8173437
 109.9487076  25.2314163  73.9810998 109.2499314  24.3163013  72.9981683
 106.1631691  22.3504094  79.7650925 106.6385813  22.5431741  78.9569776
 105.2397256  22.4063280  79.5194309  93.0515198  23.5128261  69.3482003
  92.8061239  22.6090591  69.5462213  93.2211112  23.5145412  68.4061481
 100.7411907  14.3851938  78.7306759 101.2593851  15.1212965  78.4053247
 100.3867040  14.6915931  79.5653518  92.3210845  19.2456619  66.8468165
  91.6280090  19.3200974  66.1908201  92.0762597  18.4816963  67.3689682
  98.7957970  29.9811214  65.8132682  98.2231937  30.6001401  65.3603154
  99.3690764  30.5310576  66.3472604 104.8633360  19.2269854  77.9979231
 105.8150783  19.3267952  78.0191455 104.6936810  18.4348123  78.5077315
 102.8847739  16.3125438  78.1838632 102.2897672  16.5930450  77.4885120
 102.5997436  16.8019339  78.9555373 102.0155230  30.2648364  66.9441264
 102.9485903  30.1993926  67.1474140 101.9278443  31.1004631  66.4855797
 104.6443247  29.5814235  63.9045212 104.5656878  29.2474098  64.7980970
 105.4652913  30.0736003  63.9036684 107.3421438  22.4475974  77.1121530
 107.3097758  21.5091975  77.2981214 107.9522061  22.5260011  76.3787355
  99.1804769  21.3172027  63.1548734 100.1263873  21.1878235  63.2237152
  98.8019014  20.5786689  63.6318162 107.4915926  19.2387017  77.1579813
 106.9754975  18.4545474  76.9709742 108.3755875  18.9105734  77.3226333
 105.1526653  12.9828033  73.1175626 104.9551474  12.6743121  74.0018958
 105.7626359  13.7089672  73.2473556 113.1597988  23.5091981  76.2527567
 113.8901376  23.2477269  76.8135270 112.5504933  22.7720703  76.2929635
 111.2413285  21.6499843  76.8502018 110.5146448  21.5155808  76.2418510
 110.8260572  21.9576672  77.6558736  99.0643461  25.3689773  84.6149391
  99.9846471  25.5468372  84.8089438  99.0293044  24.4245819  84.4629091
  97.3647686  19.2422003  63.0903620  96.4579141  18.9455116  63.1666333
  97.6423667  18.9451821  62.2237906  88.2825626  20.5628367  73.5402666
  87.9628410  19.7093675  73.2477040  87.7359054  20.7776945  74.2960633
  92.0605534  23.2790808  77.2572172  92.2791543  24.2107916  77.2760206
  92.4731307  22.9198782  78.0426976  98.9809751  13.7858893  69.2447861
  98.1710480  13.4405978  69.6203107  99.6694168  13.4766437  69.8335472
 100.9100300  12.8636940  70.8672157 101.4631338  13.2832393  71.5262181
 101.1470386  11.9372688  70.9095113  96.9333399  18.8524014  86.6474921
  96.8330126  19.8018371  86.5787012  96.7154941  18.5242252  85.7750991
  96.1346470  16.1008939  63.2315599  96.9965634  16.4263837  63.4911416
  96.3196815  15.3140435  62.7188664  88.1513886  24.1831278  75.5095787
  87.4577358  23.7685231  74.9965742  88.8986877  24.2251815  74.9129206
 104.2879107  14.9737465  70.3750822 103.7077776  15.6322269  69.9928874
 104.0215040  14.1514810  69.9638239 102.7382673  14.3742523  72.5772142
 103.2382452  14.4859057  71.7686461 103.3818281  14.0703576  73.2172950
  96.7964669  22.2821152  85.4639983  96.3131751  23.0821513  85.6703872
  96.8825608  22.2929097  84.5107427  92.7238007  26.1725687  77.5008417
  93.6781260  26.1409629  77.4338348  92.5250530  25.7116311  78.3158643
  93.3137389  24.7426803  80.0679214  94.1330278  25.2370882  80.0914052
  93.5874196  23.8258771  80.0396782 103.0703985  17.1337555  69.4307170
 102.1829840  17.4187206  69.2127365 103.4857974  16.9731319  68.5834447
 106.4218521  17.1584076  73.1461509 107.1978911  17.6480529  73.4186126
 105.6966655  17.5842131  73.6033379 108.8591080  17.8711696  74.2035450
 109.4535570  17.6307432  73.4928758 108.9317663  17.1518826  74.8308986
  91.0788235  31.7145307  74.5178615  90.9442703  30.9545707  73.9516613
  90.6620298  32.4386206  74.0507404 102.2147198  26.8982230  63.5255190
 102.9183048  27.1032233  64.1412846 101.4909847  27.4658992  63.7904273
 103.0445009  22.6492091  69.6457460 102.9880210  23.1060643  68.8065093
 103.5973351  21.8882776  69.4680303 106.8549815  18.4381823  70.4707580
 106.5986749  18.0378459  71.3015787 106.2302683  19.1525617  70.3457719
 111.1662152  21.1777897  72.9778871 110.6061710  21.2471086  73.7510433
 110.5605656  21.0018881  72.2578367 104.1233896  27.3364759  65.5753650
 104.9579500  26.9045958  65.3931125 103.9618239  27.1646773  66.5030544
  88.5672303  19.0764937  80.7671412  89.2131166  18.5663891  81.2558637
  88.3589454  19.8133619  81.3414837 101.0925695  26.1445785  86.2663552
 101.9616855  26.3186437  85.9050187 100.6132447  26.9640201  86.1439281
  97.0875913  13.3404982  66.5195308  97.0754583  14.2846822  66.6763579
  97.9799335  13.1575127  66.2254769  95.2611875  33.2642886  77.9452986
  96.1639122  33.2966496  78.2619481  95.0349245  32.3343336  77.9599322
  97.0165477  32.0173872  74.6063064  96.0661108  32.0175734  74.4927437
  97.3197963  31.2706607  74.0899099  92.9069794  16.2232554  84.8646426
  93.7701255  15.8669359  85.0749750  92.3335205  15.8846449  85.5521830
 112.7518171  37.8534410  75.6708827 113.3896581  37.7341158  74.9672167
 112.6339014  38.8015254  75.7296779 109.5607877  37.8061839  75.6070351
 109.2226389  37.6902903  74.7190886 110.4297645  37.4053004  75.5871358
 110.0427660  38.9596690  81.5656557 110.0316301  38.5649489  80.6937061
 110.2048300  38.2262763  82.1590328 102.9659125  41.1548507  74.4351463
 103.7580417  40.8139331  74.0197762 103.2055775  41.2643482  75.3553616
 110.9994252  43.3268283  66.9081707 110.3482231  43.9122363  66.5215721
 111.7938614  43.8574478  66.9676745 104.9249879  40.4157420  67.3068842
 105.6980755  39.8686407  67.1681717 105.2775278  41.2801669  67.5183303
 106.7634921  41.7433802  80.5135741 106.4724787  42.6479433  80.3982407
 107.3991906  41.7850330  81.2279811 107.6891128  39.1210651  77.1037101
 108.2854700  38.8966673  76.3894064 107.7466100  38.3795396  77.7062548
 107.2616156  36.5750086  64.9387292 107.5141677  36.0531607  64.1770755
 106.3240716  36.4116231  65.0413975 112.3059439  35.5785864  72.7462035
 113.0922529  35.1605287  72.3952452 112.5698144  36.4831956  72.9143683
 112.4769517  41.0158715  67.4450692 111.8415350  41.0893341  68.1571596
 112.1466923  41.6052313  66.7669771 117.7067866  35.5161098  73.6495013
 118.4393038  34.9460314  73.8832843 116.9507222  35.1282698  74.0901519
 106.9812445  38.4778192  67.1411667 106.8648703  37.8023095  67.8092751
 107.0914705  37.9910566  66.3243820 109.3243986  37.9388339  70.8458356
 108.9602193  37.4118960  71.5571277 110.1811102  37.5486808  70.6724841
 115.2293287  29.2282672  78.1089622 114.8976612  30.0978083  77.8850837
 114.6338900  28.9118956  78.7883652 108.9649473  32.9678239  65.8419704
 109.1323875  33.8358475  66.2090175 108.7746642  33.1305520  64.9180994
 111.7224806  41.4295218  77.5085535 111.4225529  42.3320256  77.4001342
 111.3775866  41.1627401  78.3606688 105.1737288  37.8809014  73.5422239
 104.2487784  37.7485229  73.7499931 105.4221701  38.6603234  74.0392181
 115.1221950  33.9477758  75.1882972 114.2138827  33.8793166  74.8941733
 115.0709546  34.4249703  76.0164797 108.9438694  35.4235896  66.8266371
 108.8238319  35.8692947  67.6651851 108.2491282  35.7721214  66.2679909
 102.5346099  37.5242288  74.3766028 102.6638480  37.7776767  75.2905440
 101.8543550  38.1169996  74.0570683 106.7045586  48.1939538  70.4756502
 106.6269616  49.1447363  70.5544983 106.1007230  47.8485410  71.1331429
 109.1962816  35.3667403  83.1317869 108.4196150  35.9261324  83.1220734
 109.8353379  35.8524186  83.6532739 116.9883597  32.1494196  76.9660846
 116.3457977  32.4426729  76.3200640 116.4838525  32.0347117  77.7714043
 114.6423760  35.8957369  67.6546705 115.5541616  36.1284756  67.4794403
 114.1333407  36.4794414  67.0921784 107.4509188  38.1752857  82.6935836
 108.1923873  38.7137901  82.4170660 106.7446174  38.8019145  82.8507388
 112.9264528  40.3181997  81.2907998 113.3347884  39.8764408  80.5462630
 112.2041789  39.7434625  81.5442191 109.2795598  35.2554604  78.6641555
 110.1256793  35.6794018  78.8076204 109.2194236  34.5988228  79.3580118
 113.2493342  40.8783188  75.0460287 112.6202205  41.0428902  74.3436354
 112.8619005  41.2924797  75.8171251 117.1282574  41.8137626  72.4004650
 116.4433613  42.1936527  71.8501684 117.2126424  42.4232952  73.1336598
 112.4295043  32.9158972  80.3222728 112.1855975  33.6701033  79.7857004
 112.7054974  33.2944320  81.1569975 114.3833506  39.4597585  78.9999994
 114.5950401  40.1029345  78.3234375 114.3363254  38.6259901  78.5321924
 111.9859735  32.0715405  75.9036566 111.1244214  32.3696659  76.1953304
 112.0122170  32.2885804  74.9717599 108.8021304  40.6157596  72.3110372
 109.2659650  40.8945299  71.5214994 108.5378102  39.7141040  72.1283462
 105.6945385  40.1629077  75.2490135 106.2646742  40.5916346  74.6107619
 106.2853497  39.8811662  75.9474321 107.7390190  36.7380748  69.1199937
 108.4414234  37.1901792  69.5873863 107.4070819  36.0964567  69.7479830
 106.1870552  35.3292505  83.4951146 105.5569213  36.0108786  83.7286543
 106.0806640  35.2175587  82.5504284 101.4815524  34.9964301  74.4217070
 100.6914578  35.2521829  73.9457181 101.9726772  35.8112639  74.5269111
 115.4979334  42.3369540  77.1722351 116.3196778  41.9349727  76.8905033
 115.4941737  42.2337774  78.1238467 103.4330270  35.3608880  71.3800547
 102.6361433  35.4727574  71.8984043 103.2055862  35.6995532  70.5141438
 109.2635937  41.8853583  79.3283062 109.3280370  42.3473991  80.1641234
 108.5546861  41.2550948  79.4565372  99.7653227  35.2494791  76.8532061
 100.0161266  36.1341801  77.1189637 100.3012776  35.0699393  76.0807153
 108.9783955  43.5521691  69.1962042 108.8429630  44.3973227  69.6246890
 109.5193768  43.7540969  68.4327976 105.4651295  29.6313271  85.8576397
 105.0718240  29.0779469  86.5324042 106.2817435  29.9423849  86.2482915
 102.4313352  41.0697129  69.7689967 102.9437873  41.8640379  69.9195532
 103.0836065  40.3723419  69.7023569 104.2408237  44.1862885  71.8512720
 104.4174865  45.1080850  71.6633704 105.0365071  43.8721304  72.2807100
 108.3819256  31.0471150  83.4496654 109.1228969  31.6478303  83.3701116
 108.6137178  30.3048788  82.8914696 103.5260594  36.2327517  81.7274884
 103.4114109  35.3312774  82.0281982 102.6705111  36.4791214  81.3759700
 110.6052431  44.1745257  83.3262384 110.1616286  43.3881636  83.0083289
 111.2669645  44.3624408  82.6606275 105.3639553  45.7041059  77.8523063
 105.9146978  45.5758122  77.0800057 104.5251028  46.0035948  77.5017955
 112.7033669  44.4548057  81.3543785 112.6852145  45.2756938  80.8624055
 113.6253590  44.3302133  81.5793927 109.1606724  41.9692187  82.1967294
 109.6935060  41.2080475  81.9666602 108.6320805  41.6765839  82.9391448
 112.3276419  27.0752253  77.7260936 111.9840688  27.9653894  77.6500046
 112.6955381  26.8853910  76.8630521 100.3962269  39.3985783  70.5449538
 101.2337491  39.8082792  70.3283245 100.5740537  38.4585225  70.5149732
 109.8773812  31.9110565  71.2918609 109.0215409  31.5217415  71.1124248
 110.2900764  31.9902525  70.4318395 111.4072959  29.4456908  75.6910169
 110.9037755  29.4087043  74.8777974 111.7003566  30.3549651  75.7506825
 107.6515845  29.5295638  74.6976351 108.5168842  29.3338446  74.3382240
 107.7193354  29.3005989  75.6245707 117.2660975  39.8193219  68.1686544
 116.4890418  39.4804378  67.7241706 117.9452456  39.8245842  67.4941509
 112.0813004  34.9387956  68.0593152 111.7763140  35.2534105  68.9103295
 113.0343447  35.0169376  68.1020485 115.5052282  39.2927200  74.8253152
 114.8475957  39.9826461  74.9133281 116.3092682  39.6823632  75.1687138
 114.3157741  37.6471572  72.8757094 114.8289623  38.2801564  73.3778804
 114.9658965  37.0472768  72.5100454 105.5847751  33.7902307  66.0888603
 104.7485063  34.1276993  66.4097877 105.4452521  33.6551286  65.1515740
 107.5600832  28.6339094  70.7967787 106.9065244  28.3188112  70.1724402
 107.5181306  28.0114835  71.5227610 108.6712037  38.9158390  62.7121079
 107.7639098  38.6847643  62.9112228 109.1683068  38.1196009  62.8995060
 110.7938572  35.1221028  75.1215434 109.8761133  35.3435975  74.9637122
 111.2098716  35.1967339  74.2627142 115.0819537  42.6277574  71.0036236
 114.6281864  41.7868484  71.0601427 114.4513504  43.2638972  71.3411017
 114.0252457  33.5569560  72.2336904 113.2875214  33.0446946  72.5647147
 114.2779230  33.1169942  71.4220181 113.5252477  44.4654071  71.9386055
 113.8175451  45.0259128  71.2198420 114.0351097  44.7582632  72.6939214
 114.1264084  26.3345812  72.8278673 114.4322961  25.4743175  72.5404588
 114.8516689  26.9263432  72.6277667 100.4188440  36.7376499  71.2160271
 100.2212840  36.1445859  70.4911338  99.8635104  36.4328709  71.9336210
 108.3985164  36.6299605  73.3354864 108.4533774  35.6773441  73.2597341
 107.5876366  36.7859044  73.8196163 109.5476358  40.5579728  64.5733148
 109.1095788  39.8415587  64.1138785 110.2886799  40.7855843  64.0118239
 111.9351736  35.7118489  79.9260137 112.2901123  35.9389962  80.7854603
 112.5823867  36.0436866  79.3037392 117.6649473  38.8336925  70.6309466
 117.5267371  39.0238521  69.7030655 117.3085691  39.5956308  71.0877517
 105.8291599  32.8195020  76.7106478 106.4690978  32.6783779  76.0129441
 104.9969129  32.5329534  76.3345080 117.6918852  40.9013452  75.6420738
 118.1255359  40.8088741  76.4903792 118.4050433  40.8770953  75.0040754
 106.6051903  42.1197451  72.8241471 107.3992501  41.6247771  72.6224046
 105.8943595  41.5915314  72.4609176 111.4246747  44.5015546  77.1753838
 111.4783769  45.0706483  77.9431554 110.5561528  44.6717431  76.8107875
 102.9134666  36.2640532  68.9001223 101.9832254  36.2024988  69.1171185
 103.0092138  35.7416485  68.1037864 102.8320215  32.7895345  71.4879465
 103.0927032  33.7040679  71.3788625 103.6537387  32.3219788  71.6376078
 104.3045140  34.2033102  78.6578289 104.9768194  33.9950465  78.0090938
 103.4774927  34.0055188  78.2183522 118.5534402  40.9437153  78.1753623
 118.7470292  41.8482963  78.4212898 118.4535020  40.4844572  79.0092208
 110.2070712  30.8295043  80.6743950 109.5598627  31.5284993  80.5808427
 110.9771728  31.2631187  81.0420199 113.6149510  41.0943896  83.7494504
 113.4635017  40.8654447  82.8324587 113.6054190  42.0514497  83.7625849
 110.3834847  38.6675808  78.7340770 111.3126907  38.8186968  78.5609737
 109.9625877  38.7559829  77.8789417 109.1823179  42.6926473  76.5039308
 109.0434264  42.3245257  77.3765246 108.3937775  43.2074112  76.3323265
 109.7771331  47.7935569  67.8464844 109.9523086  47.3223612  68.6610467
 109.0904119  48.4201335  68.0746105 110.7328394  42.0708075  73.8928145
 110.3978226  42.0308845  74.7885795 110.2332339  41.4052791  73.4198556
 104.7072638  37.4775705  79.4180727 104.5692436  36.7455944  80.0192266
 105.6177561  37.3884606  79.1364914 113.6687585  39.4164110  64.1665205
 113.0516756  38.6910938  64.0698258 113.2004074  40.1773470  63.8232279
 107.3354938  37.1895665  78.9064406 108.0454557  36.5488857  78.8651025
 107.2924247  37.4408560  79.8290587 115.3241717  44.1263018  81.8270985
 115.2654263  43.4422238  81.1601568 115.7261235  44.8682008  81.3751611
 106.0483872  34.1760883  80.7260046 105.5121229  33.7251621  81.3781642
 105.4600581  34.3106791  79.9830510 104.3432416  50.9424932  74.6204704
 104.5829014  51.5743456  75.2983723 103.5001612  50.5912972  74.9070064
 105.4586131  33.6349534  63.2886509 104.5815598  33.5138335  62.9248756
 105.9343884  32.8435612  63.0365398 115.3259124  42.0902602  80.0584965
 114.4385903  41.7528524  80.1811364 115.8957675  41.3585633  80.2953731
  96.9788271  38.4226694  73.3828017  97.6659311  38.1088424  72.7949032
  96.8236400  39.3268058  73.1095268 101.7822994  33.3116890  77.8113040
 101.6981182  32.7042560  77.0763450 100.9605700  33.8025909  77.8122537
 108.8560278  46.7504054  77.0246208 108.7830449  47.5559026  77.5365513
 108.4137671  46.9496020  76.1994230 108.6450057  45.9875824  70.5349030
 107.8617579  46.5297505  70.6287254 109.3442802  46.5049804  70.9343271
 111.9546707  31.7970454  73.1783235 112.4515407  31.0440416  72.8584306
 111.1833689  31.8334771  72.6126445 119.8076465  37.5010819  74.8201527
 119.7966341  38.3835535  74.4495460 118.9393844  37.1482370  74.6256064
 111.3158961  46.6490888  79.1804367 112.0286933  47.2838353  79.1080268
 110.8248990  46.7454754  78.3644369 113.0376488  40.5542141  70.7521659
 112.1032767  40.6743604  70.5826363 113.2153157  39.6514608  70.4881668
 108.5381676  33.9387837  72.9054920 108.1679464  33.3858877  73.5935825
 109.0340769  33.3345970  72.3529920 116.4249039  36.3959460  71.2871693
 116.8909492  37.2287452  71.2131995 116.8756540  35.9304442  71.9916951
 106.3670875  44.3985332  80.0009938 107.0680334  45.0321815  80.1539332
 105.8965990  44.7400063  79.2405577 114.4925271  42.7403282  68.2857845
 114.7685114  42.6259876  69.1951719 113.6229769  42.3420767  68.2470018
 114.3965702  28.7640047  75.3262594 113.4828782  28.9944274  75.4944801
 114.8258804  28.8478491  76.1776627 114.1672161  36.9529939  77.8262488
 113.5143611  37.2005847  77.1714941 114.5452541  36.1394078  77.4924965
 111.1279335  46.9889633  71.9290658 111.3101729  46.1711288  72.3918411
 111.9512321  47.2057325  71.4915548 111.4621500  45.9157818  69.1905707
 111.9909267  45.4050272  68.5775869 111.7249720  45.6000348  70.0551240
 110.2159734  37.6949750  84.3128525 109.5400371  37.5943880  84.9830900
 111.0387368  37.5388964  84.7764522 101.9638593  43.9321687  76.9341040
 102.5492030  43.1865375  77.0668945 101.7663431  44.2425644  77.8177704
 104.8177248  46.9672934  71.9503483 104.1487623  47.4519062  71.4667523
 104.6790118  47.2142155  72.8646861 108.9582517  49.0016678  78.5486141
 109.5100825  49.1648299  79.3135226 109.2988710  49.5921116  77.8766166
 103.9347010  31.3491828  79.1508026 103.9988336  32.2106659  78.7385424
 103.8714130  30.7365829  78.4180384 103.4099282  33.4214960  82.7981060
 104.0371321  33.0392038  83.4118585 102.5527201  33.2029162  83.1636753
 113.8093391  43.8277935  84.4034796 114.3533295  44.4407894  83.9089750
 113.2280236  44.3857514  84.9201809 100.1864825  35.2291389  68.7299415
 100.4818266  34.3202068  68.6766469  99.2852861  35.2079129  68.4080417
 112.0950904  46.9498653  75.5349823 111.9702043  46.1488393  75.0260769
 112.7529995  47.4444847  75.0463793 114.1585812  44.7507673  77.1629373
 113.2116148  44.6313025  77.0907700 114.5068585  43.8630172  77.2455635
 106.5185386  30.6401812  80.9867615 107.0419787  30.8864109  81.7493925
 106.2997719  31.4721847  80.5670753 101.9152667  32.9105487  68.8538740
 101.5865373  32.0302866  68.6713846 102.2692037  32.8553156  69.7415129
 111.1632246  44.5460390  73.3633726 111.0157208  43.6177097  73.5441296
 111.9885739  44.5680480  72.8790801 105.0294490  33.1978457  69.2214218
 105.3690562  33.7264378  68.4992826 105.4766610  33.5358863  69.9972784
 114.7666367  45.3688948  74.4498598 115.6912915  45.1631810  74.3123050
 114.5981671  45.1205350  75.3587940 107.7237931  31.5815507  78.6717286
 107.3834751  30.7823321  79.0737966 107.0176937  31.8817218  78.0994119
 108.3754403  28.6664820  77.1244609 109.1980472  28.1925298  77.0023499
 108.6192466  29.4455304  77.6243295 107.0162637  31.6953078  67.4207511
 107.7371000  32.0734331  66.9171227 106.3927941  32.4141955  67.5242489
 111.1593760  32.3998227  68.3565843 111.3757374  33.2822865  68.0554671
 110.6787827  32.0084441  67.6271485 105.8992981  35.3583941  74.9336588
 105.7537562  35.6724244  75.8260869 105.4218185  35.9768841  74.3807486
 107.7589364  32.3486489  74.9817477 107.7450933  31.4527582  74.6449775
 108.4761792  32.3557152  75.6155763 109.6115495  32.7823829  77.0270605
 109.3533273  33.7040899  77.0254935 109.0800535  32.3854263  77.7171069
 114.5561684  45.8874616  69.8060690 114.7298561  45.3221038  69.0534542
 115.0490575  46.6875511  69.6240180 100.3738643  37.8989285  77.8724249
  99.8292112  38.6749093  78.0044523 101.2517993  38.2460089  77.7143370
 107.1626260  31.2300869  70.2505047 107.2842171  30.3017515  70.4495935
 106.8728302  31.2439555  69.3383363 110.0317450  28.9155779  73.3871767
 110.0539147  28.9795112  72.4323747 110.4485509  28.0760288  73.5812273
 120.4101075  38.6511039  71.4250990 120.8532221  37.9018364  71.0270113
 119.5327585  38.6421175  71.0424722 115.5436856  45.2041380  66.9057588
 116.2387761  45.8248073  67.1244903 115.8860006  44.3536731  67.1809966
 101.1604665  37.0259181  80.7654406 100.4186401  37.1741817  81.3519036
 100.8397410  37.2867447  79.9021155 117.4428279  42.6541086  68.4344919
 117.9679603  42.9928359  67.7094239 117.3550632  41.7188101  68.2508054
 109.1048328  46.5675159  80.5634796 109.4135454  46.3224306  81.4357495
 109.9023810  46.7721798  80.0753666 109.1268940  48.7213069  72.7940172
 108.6873930  48.2289448  73.4873029 109.8777057  48.1786037  72.5532247
  99.8069884  42.8310936  73.7553734  98.9701792  42.4033111  73.5737735
  99.7793529  43.0243380  74.6924525 106.6467340  32.7432866  84.4594980
 106.6955495  33.6194989  84.0772749 107.1889854  32.2010259  83.8866623
 117.1322185  43.2873989  83.7396117 116.3417729  43.2698128  83.2000616
 116.8955540  43.8262283  84.4945154 117.2520060  40.1366456  81.0528845
 117.3018065  39.9716463  81.9944368 117.1433984  39.2693715  80.6626726
 114.5423823  36.1197384  82.3688152 115.4433686  35.9803849  82.0772150
 114.6171797  36.2851839  83.3086330 108.8766628  33.4964239  81.2141338
 108.0069937  33.7897805  80.9423927 109.1126108  34.0804684  81.9348602
 118.7538257  42.5563397  81.2970867 118.4623065  42.9193378  82.1334328
 118.1410388  41.8430406  81.1184199 119.9533939  40.1216277  73.8173437
 120.7880831  40.5606081  73.9810998 120.0893068  39.6454930  72.9981683
 117.0025445  37.6796012  79.7650925 117.4779567  37.8723658  78.9569776
 116.0791011  37.7355198  79.5194309 103.8908952  38.8420179  69.3482003
 103.6454994  37.9382509  69.5462213 104.0604867  38.8437330  68.4061481
 111.5805662  29.7143856  78.7306759 112.0987606  30.4504882  78.4053247
 111.2260795  30.0207849  79.5653518 103.1604600  34.5748537  66.8468165
 102.4673845  34.6492892  66.1908201 102.9156351  33.8108880  67.3689682
 111.8318256  26.1344138  74.2507655 112.1120010  25.4667327  74.8768082
 112.6168863  26.3273234  73.7382319 115.7027114  34.5561772  77.9979231
 116.6544537  34.6559870  78.0191455 115.5330565  33.7640041  78.5077315
 113.7241494  31.6417355  78.1838632 113.1291426  31.9222368  77.4885120
 113.4391191  32.1311256  78.9555373 112.8548984  45.5940282  66.9441264
 113.7879658  45.5285844  67.1474140 112.7672197  46.4296549  66.4855797
 115.4837001  44.9106152  63.9045212 115.4050633  44.5766016  64.7980970
 116.3046668  45.4027920  63.9036684 118.1815192  37.7767892  77.1121530
 118.1491512  36.8383892  77.2981214 118.7915816  37.8551928  76.3787355
 110.0198523  36.6463945  63.1548734 110.9657628  36.5170153  63.2237152
 109.6412768  35.9078607  63.6318162 118.3309681  34.5678935  77.1579813
 117.8148729  33.7837392  76.9709742 119.2149629  34.2397652  77.3226333
 115.9920408  28.3119951  73.1175626 115.7945229  28.0035039  74.0018958
 116.6020113  29.0381590  73.2473556 109.9037216  40.6981691  84.6149391
 110.8240225  40.8760290  84.8089438 109.8686799  39.7537736  84.4629091
 108.2041440  34.5713921  63.0903620 107.2972896  34.2747034  63.1666333
 108.4817421  34.2743739  62.2237906 102.8999288  38.6082725  77.2572172
 103.1185298  39.5399833  77.2760206 103.3125062  38.2490700  78.0426976
 109.8203506  29.1150811  69.2447861 109.0104234  28.7697896  69.6203107
 110.5087923  28.8058355  69.8335472 111.7494054  28.1928858  70.8672157
 112.3025093  28.6124311  71.5262181 111.9864141  27.2664606  70.9095113
 107.7727153  34.1815931  86.6474921 107.6723880  35.1310288  86.5787012
 107.5548696  33.8534170  85.7750991 106.9740225  31.4300856  63.2315599
 107.8359389  31.7555755  63.4911416 107.1590569  30.6432352  62.7188664
  98.9907641  39.5123196  75.5095787  98.2971112  39.0977149  74.9965742
  99.7380632  39.5543733  74.9129206 115.1272861  30.3029383  70.3750822
 114.5471530  30.9614187  69.9928874 114.8608794  29.4806727  69.9638239
 113.5776428  29.7034440  72.5772142 114.0776206  29.8150975  71.7686461
 114.2212036  29.3995493  73.2172950 107.6358424  37.6113070  85.4639983
 107.1525505  38.4113430  85.6703872 107.7219363  37.6221015  84.5107427
 103.5631761  41.5017605  77.5008417 104.5175015  41.4701547  77.4338348
 103.3644285  41.0408229  78.3158643 104.1531143  40.0718721  80.0679214
 104.9724032  40.5662800  80.0914052 104.4267951  39.1550689  80.0396782
 113.9097739  32.4629473  69.4307170 113.0223594  32.7479124  69.2127365
 114.3251728  32.3023237  68.5834447 117.2612275  32.4875994  73.1461509
 118.0372666  32.9772447  73.4186126 116.5360410  32.9134048  73.6033379
 119.6984834  33.2003613  74.2035450 120.2929325  32.9599349  73.4928758
 119.7711418  32.4810744  74.8308986 101.9181990  47.0437224  74.5178615
 101.7836458  46.2837625  73.9516613 101.5014052  47.7678124  74.0507404
 113.0540953  42.2274148  63.5255190 113.7576803  42.4324150  64.1412846
 112.3303602  42.7950910  63.7904273 113.8838763  37.9784009  69.6457460
 113.8273964  38.4352561  68.8065093 114.4367106  37.2174694  69.4680303
 117.6943569  33.7673741  70.4707580 117.4380503  33.3670377  71.3015787
 117.0696437  34.4817535  70.3457719 105.0751116  47.9406541  74.7297057
 104.9583500  48.8851974  74.6275748 104.2543562  47.6380103  75.1182857
 114.9627650  42.6656677  65.5753650 115.7973254  42.2337876  65.3931125
 114.8011993  42.4938691  66.5030544 114.6173542  39.1688790  66.9409989
 114.5622346  39.0033062  65.9998433 113.9919598  39.8764823  67.0972179
  99.4066057  34.4056855  80.7671412 100.0524921  33.8955809  81.2558637
  99.1983208  35.1425536  81.3414837 111.9319450  41.4737702  86.2663552
 112.8010609  41.6478354  85.9050187 111.4526201  42.2932119  86.1439281
 107.9269668  28.6696899  66.5195308 107.9148338  29.6138739  66.6763579
 108.8193090  28.4867045  66.2254769 106.1005630  48.5934803  77.9452986
 107.0032877  48.6258413  78.2619481 105.8743000  47.6635254  77.9599322
 107.8559232  47.3465790  74.6063064 106.9054863  47.3467651  74.4927437
 108.1591718  46.5998524  74.0899099 111.7421787  25.2639676  70.7741245
 110.9754183  24.7098163  70.9197927 112.1532492  25.3361545  71.6355396
 103.7463548  31.5524472  84.8646426 104.6095010  31.1961277  85.0749750
 103.1728959  31.2138367  85.5521830 120.4001632  53.1353756  75.6070351
 120.0620143  53.0194821  74.7190886 121.2691400  52.7344921  75.5871358
 116.2588447  54.9889233  71.5967242 115.6953312  54.8979170  70.8283530
 116.1440842  54.1689137  72.0769735 120.8821415  54.2888608  81.5656557
 120.8710055  53.8941406  80.6937061 121.0442054  53.5554681  82.1590328
 113.8052879  56.4840424  74.4351463 114.5974171  56.1431249  74.0197762
 114.0449529  56.5935399  75.3553616 115.7643633  55.7449338  67.3068842
 116.5374509  55.1978325  67.1681717 116.1169032  56.6093587  67.5183303
 117.6028676  57.0725720  80.5135741 117.3118542  57.9771351  80.3982407
 118.2385660  57.1142247  81.2279811 118.5284883  54.4502568  77.1037101
 119.1248455  54.2258591  76.3894064 118.5859854  53.7087314  77.7062548
 118.1009911  51.9042004  64.9387292 118.3535432  51.3823525  64.1770755
 117.1634470  51.7408149  65.0413975 117.8206200  53.8070110  67.1411667
 117.7042458  53.1315013  67.8092751 117.9308460  53.3202484  66.3243820
 120.1637741  53.2680257  70.8458356 119.7995948  52.7410878  71.5571277
 121.0204857  52.8778726  70.6724841 119.8043228  48.2970156  65.8419704
 119.9717630  49.1650393  66.2090175 119.6140397  48.4597438  64.9180994
 116.0131042  53.2100932  73.5422239 115.0881539  53.0777146  73.7499931
 116.2615455  53.9895151  74.0392181 119.7832449  50.7527814  66.8266371
 119.6632074  51.1984865  67.6651851 119.0885037  51.1013132  66.2679909
 113.3739853  52.8534206  74.3766028 113.5032234  53.1068685  75.2905440
 112.6937305  53.4461914  74.0570683 117.5439341  63.5231456  70.4756502
 117.4663370  64.4739281  70.5544983 116.9400984  63.1777328  71.1331429
 120.0356570  50.6959321  83.1317869 119.2589904  51.2553241  83.1220734
 120.6747133  51.1816104  83.6532739 118.2902943  53.5044774  82.6935836
 119.0317627  54.0429818  82.4170660 117.5839928  54.1311063  82.8507388
 120.1189352  50.5846522  78.6641555 120.9650548  51.0085935  78.8076204
 120.0587990  49.9280146  79.3580118 119.6415059  55.9449514  72.3110372
 120.1053404  56.2237217  71.5214994 119.3771857  55.0432958  72.1283462
 116.5339140  55.4920995  75.2490135 117.1040497  55.9208264  74.6107619
 117.1247252  55.2103580  75.9474321 118.5783945  52.0672666  69.1199937
 119.2807988  52.5193710  69.5873863 118.2464573  51.4256485  69.7479830
 117.0264306  50.6584423  83.4951146 116.3962967  51.3400703  83.7286543
 116.9200394  50.5467504  82.5504284 112.3209279  50.3256219  74.4217070
 111.5308333  50.5813747  73.9457181 112.8120526  51.1404556  74.5269111
 114.2724024  50.6900798  71.3800547 113.4755188  50.8019492  71.8984043
 114.0449616  51.0287450  70.5141438 120.1029692  57.2145501  79.3283062
 120.1674124  57.6765908  80.1641234 119.3940616  56.5842866  79.4565372
 110.6046982  50.5786709  76.8532061 110.8555020  51.4633719  77.1189637
 111.1406530  50.3991311  76.0807153 119.8177710  58.8813609  69.1962042
 119.6823384  59.7265144  69.6246890 120.3587522  59.0832886  68.4327976
 116.3045049  44.9605188  85.8576397 115.9111995  44.4071387  86.5324042
 117.1211189  45.2715767  86.2482915 113.2707107  56.3989047  69.7689967
 113.7831627  57.1932297  69.9195532 113.9229820  55.7015337  69.7023569
 115.0801992  59.5154803  71.8512720 115.2568620  60.4372768  71.6633704
 115.8758825  59.2013222  72.2807100 119.2213010  46.3763068  83.4496654
 119.9622724  46.9770221  83.3701116 119.4530933  45.6340705  82.8914696
 114.3654348  51.5619435  81.7274884 114.2507863  50.6604692  82.0281982
 113.5098866  51.8083132  81.3759700 116.2033307  61.0332977  77.8523063
 116.7540732  60.9050040  77.0800057 115.3644783  61.3327866  77.5017955
 120.0000478  57.2984105  82.1967294 120.5328815  56.5372393  81.9666602
 119.4714559  57.0057756  82.9391448 111.2356024  54.7277701  70.5449538
 112.0731246  55.1374709  70.3283245 111.4134291  53.7877143  70.5149732
 120.7167567  47.2402482  71.2918609 119.8609163  46.8509333  71.1124248
 121.1294519  47.3194443  70.4318395 118.4909599  44.8587555  74.6976351
 119.3562596  44.6630364  74.3382240 118.5587108  44.6297907  75.6245707
 121.3653191  56.4270097  69.7086106 120.8374552  55.6922857  69.3959343
 120.8640694  57.2044773  69.4626074 116.0971918  47.0889763  72.0692717
 116.6715670  46.8664945  71.3365910 116.6842901  47.1578458  72.8221319
 116.4241506  49.1194224  66.0888603 115.5878818  49.4568911  66.4097877
 116.2846275  48.9843204  65.1515740 118.3994586  43.9631012  70.7967787
 117.7458998  43.6480029  70.1724402 118.3575060  43.3406753  71.5227610
 119.5105791  54.2450307  62.7121079 118.6032853  54.0139561  62.9112228
 120.0076823  53.4487927  62.8995060 120.6894024  54.3462902  67.2345069
 119.7805244  54.0621935  67.3317539 120.7189108  54.7661981  66.3748376
 111.2582195  52.0668416  71.2160271 111.0606595  51.4737777  70.4911338
 110.7028859  51.7620626  71.9336210 119.2378918  51.9591523  73.3354864
 119.2927528  51.0065359  73.2597341 118.4270121  52.1150962  73.8196163
 120.3870112  55.8871646  64.5733148 119.9489542  55.1707505  64.1138785
 121.1280553  56.1147761  64.0118239 117.1771278  50.5768582  71.0945243
 116.3639144  50.8762753  71.5010435 117.6730273  50.1824271  71.8119725
 119.3279856  60.5726339  73.0279508 119.2856035  60.7987186  72.0988040
 120.2442555  60.3389714  73.1765309 116.6685353  48.1486938  76.7106478
 117.3084732  48.0075697  76.0129441 115.8362884  47.8621451  76.3345080
 117.4445657  57.4489368  72.8241471 118.2386256  56.9539689  72.6224046
 116.7337349  56.9207232  72.4609176 113.7528421  51.5932450  68.9001223
 112.8226009  51.5316906  69.1171185 113.8485893  51.0708403  68.1037864
 113.6713970  48.1187263  71.4879465 113.9320787  49.0332596  71.3788625
 114.4931142  47.6511706  71.6376078 115.1438895  49.5325020  78.6578289
 115.8161948  49.3242382  78.0090938 114.3168681  49.3347106  78.2183522
 120.0216933  58.0218390  76.5039308 119.8828019  57.6537175  77.3765246
 119.2331529  58.5366030  76.3323265 120.6165085  63.1227487  67.8464844
 120.7916841  62.6515530  68.6610467 119.9297873  63.7493253  68.0746105
 121.5722148  57.3999993  73.8928145 121.2371981  57.3600763  74.7885795
 121.0726094  56.7344709  73.4198556 115.5466392  52.8067623  79.4180727
 115.4086190  52.0747862  80.0192266 116.4571316  52.7176523  79.1364914
 118.1748693  52.5187582  78.9064406 118.8848311  51.8780775  78.8651025
 118.1318001  52.7700477  79.8290587 116.8877627  49.5052800  80.7260046
 116.3514984  49.0543539  81.3781642 116.2994335  49.6398709  79.9830510
 115.1826170  66.2716850  74.6204704 115.4222769  66.9035374  75.2983723
 114.3395367  65.9204890  74.9070064 116.2979886  48.9641452  63.2886509
 115.4209352  48.8430253  62.9248756 116.7737639  48.1727530  63.0365398
 107.8182026  53.7518611  73.3828017 108.5053066  53.4380341  72.7949032
 107.6630155  54.6559976  73.1095268 112.6216748  48.6408808  77.8113040
 112.5374937  48.0334478  77.0763450 111.7999454  49.1317826  77.8122537
 119.6954032  62.0795972  77.0246208 119.6224204  62.8850944  77.5365513
 119.2531425  62.2787938  76.1994230 119.4843812  61.3167742  70.5349030
 118.7011334  61.8589422  70.6287254 120.1836557  61.8341722  70.9343271
 119.3775431  49.2679755  72.9054920 119.0073218  48.7150795  73.5935825
 119.8734523  48.6637888  72.3529920 117.2064629  59.7277250  80.0009938
 117.9074089  60.3613733  80.1539332 116.7359744  60.0691981  79.2405577
 112.8032347  59.2613605  76.9341040 113.3885784  58.5157293  77.0668945
 112.6057186  59.5717561  77.8177704 115.6571003  62.2964852  71.9503483
 114.9881378  62.7810980  71.4667523 115.5183872  62.5434072  72.8646861
 107.3950002  51.8319205  75.6545484 107.4334102  51.2982796  76.4482602
 106.8890295  51.3054410  75.0356461 119.7976271  64.3308596  78.5486141
 120.3494579  64.4940217  79.3135226 120.1382465  64.9213033  77.8766166
 114.7740764  46.6783745  79.1508026 114.8382091  47.5398576  78.7385424
 114.7107885  46.0657747  78.4180384 114.2493037  48.7506878  82.7981060
 114.8765076  48.3683955  83.4118585 113.3920956  48.5321080  83.1636753
 111.0258580  50.5583307  68.7299415 111.3212021  49.6493985  68.6766469
 110.1246615  50.5371046  68.4080417 114.5552827  48.6339304  74.7126964
 113.8339412  49.2475271  74.5734437 115.3446082  49.1697068  74.6343610
 117.3579140  45.9693730  80.9867615 117.8813542  46.2156027  81.7493925
 117.1391473  46.8013765  80.5670753 112.7546421  48.2397405  68.8538740
 112.4259127  47.3594784  68.6713846 113.1085792  48.1845073  69.7415129
 115.8688244  48.5270374  69.2214218 116.2084317  49.0556296  68.4992826
 116.3160365  48.8650781  69.9972784 118.5631685  46.9107425  78.6717286
 118.2228506  46.1115238  79.0737966 117.8570691  47.2109136  78.0994119
 119.2148157  43.9956738  77.1244609 120.0374226  43.5217216  77.0023499
 119.4586221  44.7747221  77.6243295 117.8556391  47.0244996  67.4207511
 118.5764754  47.4026249  66.9171227 117.2321696  47.7433873  67.5242489
 116.7386736  50.6875858  74.9336588 116.5931316  51.0016161  75.8260869
 116.2611939  51.3060759  74.3807486 118.5983119  47.6778406  74.9817477
 118.5844687  46.7819500  74.6449775 119.3155547  47.6849070  75.6155763
 120.4509249  48.1115746  77.0270605 120.1927027  49.0332817  77.0254935
 119.9194290  47.7146181  77.7171069 111.2132398  53.2281203  77.8724249
 110.6685866  54.0041011  78.0044523 112.0911748  53.5752007  77.7143370
 118.0020015  46.5592786  70.2505047 118.1235926  45.6309433  70.4495935
 117.7122057  46.5731472  69.3383363 120.8711205  44.2447697  73.3871767
 120.8932902  44.3087030  72.4323747 121.2879264  43.4052206  73.5812273
 111.9998420  52.3551099  80.7654406 111.2580156  52.5033734  81.3519036
 111.6791164  52.6159364  79.9021155 119.9442082  61.8967077  80.5634796
 120.2529209  61.6516224  81.4357495 120.7417564  62.1013716  80.0753666
 119.9662694  64.0504987  72.7940172 119.5267685  63.5581365  73.4873029
 120.7170811  63.5077954  72.5532247 112.4455033  60.2416528  72.7964800
 113.2713053  59.9420299  72.4163444 112.0949085  59.4724150  73.2454589
 117.4136567  59.5942996  74.8662474 116.7916576  58.9313701  74.5664702
 118.0841434  59.6204128  74.1836122 110.6463639  58.1602854  73.7553734
 109.8095547  57.7325028  73.5737735 110.6187284  58.3535297  74.6924525
 117.4861094  48.0724784  84.4594980 117.5349250  48.9486907  84.0772749
 118.0283608  47.5302177  83.8866623 116.9750074  58.1446919  68.3420934
 117.1238194  58.8282384  67.6887607 117.7816517  58.1252009  68.8570390
 119.7160383  48.8256156  81.2141338 118.8463692  49.1189722  80.9423927
 119.9519863  49.4096601  81.9348602 114.7302707  54.1712097  69.3482003
 114.4848748  53.2674427  69.5462213 114.8998621  54.1729247  68.4061481
 113.9998354  49.9040454  66.8468165 113.3067599  49.9784809  66.1908201
 113.7550106  49.1400798  67.3689682 120.4745479  60.6395050  65.8132682
 119.9019446  61.2585237  65.3603154 121.0478273  61.1894411  66.3472604
 119.0435195  49.9005839  63.0903620 118.1366650  49.6038951  63.1666333
 119.3211176  49.6035657  62.2237906 109.9613135  51.2212202  73.5402666
 109.6415919  50.3677510  73.2477040 109.4146563  51.4360780  74.2960633
 113.7393043  53.9374643  77.2572172 113.9579052  54.8691751  77.2760206
 114.1518816  53.5782618  78.0426976 120.6597260  44.4442728  69.2447861
 119.8497989  44.0989813  69.6203107 121.3481677  44.1350272  69.8335472
 118.6120908  49.5107849  86.6474921 118.5117635  50.4602206  86.5787012
 118.3942450  49.1826088  85.7750991 117.8133979  46.7592774  63.2315599
 118.6753143  47.0847672  63.4911416 117.9984323  45.9724270  62.7188664
 109.8301395  54.8415114  75.5095787 109.1364867  54.4269066  74.9965742
 110.5774386  54.8835650  74.9129206 118.4752178  52.9404988  85.4639983
 117.9919260  53.7405348  85.6703872 118.5613117  52.9512933  84.5107427
 111.7438138  54.7733367  73.3861802 111.7208826  54.8721055  72.4343685
 112.0538774  55.6198518  73.7078968 114.4025516  56.8309522  77.5008417
 115.3568769  56.7993465  77.4338348 114.2038039  56.3700146  78.3158643
 114.9924898  55.4010639  80.0679214 115.8117787  55.8954717  80.0914052
 115.2661705  54.4842607  80.0396782 112.7575744  62.3729142  74.5178615
 112.6230212  61.6129543  73.9516613 112.3407807  63.0970042  74.0507404
 115.9144870  63.2698459  74.7297057 115.7977254  64.2143891  74.6275748
 115.0937316  62.9672021  75.1182857 110.2459812  49.7348772  80.7671412
 110.8918675  49.2247726  81.2558637 110.0376963  50.4717454  81.3414837
 118.7663422  43.9988817  66.5195308 118.7542092  44.9430657  66.6763579
 119.6586844  43.8158962  66.2254769 116.9399384  63.9226721  77.9452986
 117.8426631  63.9550331  78.2619481 116.7136754  62.9927172  77.9599322
 118.6952986  62.6757707  74.6063064 117.7448617  62.6759569  74.4927437
 118.9985472  61.9290442  74.0899099 114.5857303  46.8816389  84.8646426
 115.4488764  46.5253194  85.0749750 114.0122714  46.5430284  85.5521830
 118.6575780  69.0810529  73.3828017 119.3446820  68.7672259  72.7949032
 118.5023909  69.9851894  73.1095268 118.2343757  67.1611123  75.6545484
 118.2727856  66.6274713  76.4482602 117.7284049  66.6346328  75.0356461
 121.4857393  73.4894772  73.7553734 120.6489301  73.0616946  73.5737735
 121.4581038  73.6827215  74.6924525 120.8006890  66.5504120  73.5402666
 120.4809674  65.6969428  73.2477040 120.2540318  66.7652698  74.2960633
 120.6695150  70.1707031  75.5095787 119.9758621  69.7560984  74.9965742
 121.4168141  70.2127568  74.9129206  95.8651833   9.8709743  57.2001809
  95.7875863  10.8217568  57.2790290  95.2613476   9.5255615  57.8576735
  93.5038663  12.6195137  61.3450011  93.7435261  13.2513661  62.0229030
  92.6607859  12.2683177  61.6315370  93.9783495   8.6443139  58.6748790
  93.3093870   9.1289267  58.1912830  93.8396364   8.8912360  59.5892168
  98.1188763  10.6786883  65.2731448  98.6707071  10.8418504  66.0380533
  98.4594957  11.2691321  64.6011473  91.0788237   8.7207429  61.2423921
  90.9442705   7.9607830  60.6761919  90.6620299   9.4448329  60.7752710
  94.2357362   9.6176746  61.4542364  94.1189747  10.5622179  61.3521054
  93.4149809   9.3150308  61.8428163  95.2611877  10.2705008  64.6698292
  96.1639123  10.3028618  64.9864787  95.0349247   9.3405459  64.6844628
 109.5607878  14.8123961  62.3315658 109.2226390  14.6965026  61.4436193
 110.4297647  14.4115126  62.3116664 105.4194694  16.6659438  58.3212549
 104.8559559  16.5749375  57.5528837 105.3047089  15.8459342  58.8015042
 110.0427661  15.9658813  68.2901864 110.0316302  15.5711611  67.4182367
 110.2048301  15.2324885  68.8835635 102.9659126  18.1610629  61.1596769
 103.7580418  17.8201454  60.7443069 103.2055776  18.2705604  62.0798923
 110.9994253  20.3330405  53.6327014 110.3482233  20.9184486  53.2461028
 111.7938616  20.8636600  53.6922051 104.9249880  17.4219542  54.0314148
 105.6980756  16.8748530  53.8927024 105.2775279  18.2863792  54.2428610
 106.7634922  18.7495925  67.2381048 106.4724788  19.6541556  67.1227714
 107.3991907  18.7912452  67.9525117 107.6891129  16.1272773  63.8282407
 108.2854702  15.9028796  63.1139370 107.7466101  15.3857519  64.4307855
 112.4769518  18.0220837  54.1695998 111.8415351  18.0955464  54.8816903
 112.1466924  18.6114436  53.4915077 106.9812446  15.4840314  53.8656973
 106.8648705  14.8085218  54.5338057 107.0914706  14.9972688  53.0489126
 109.3243987  14.9450462  57.5703662 108.9602195  14.4181083  58.2816584
 110.1811103  14.5548931  57.3970148 111.7224808  18.4357340  64.2330841
 111.4225531  19.3382379  64.1246649 111.3775867  18.1689523  65.0851994
 105.1737289  14.8871137  60.2667546 104.2487786  14.7547351  60.4745237
 105.4221702  15.6665356  60.7637488 102.5346100  14.5304411  61.1011335
 102.6638481  14.7838890  62.0150746 101.8543551  15.1232119  60.7815990
 106.7045587  25.2001661  57.2001809 106.6269617  26.1509486  57.2790290
 106.1007231  24.8547533  57.8576735 107.4509189  15.1814979  69.4181143
 108.1923874  15.7200023  69.1415966 106.7446175  15.8081268  69.5752695
 112.9264529  17.3244120  68.0153304 113.3347885  16.8826530  67.2707937
 112.2041791  16.7496747  68.2687497 113.2493344  17.8845310  61.7705593
 112.6202206  18.0491025  61.0681661 112.8619006  18.2986920  62.5416557
 117.1282576  18.8199748  59.1249957 116.4433614  19.1998650  58.5746990
 117.2126425  19.4295075  59.8581905 114.3833507  16.4659707  65.7245301
 114.5950402  17.1091467  65.0479682 114.3363255  15.6322024  65.2567231
 108.8021306  17.6219719  59.0355678 109.2659651  17.9007422  58.2460301
 108.5378104  16.7203163  58.8528769 105.6945387  17.1691200  61.9735442
 106.2646744  17.5978468  61.3352926 106.2853499  16.8873785  62.6719627
 101.4815526  12.0026424  61.1462377 100.6914580  12.2583952  60.6702488
 101.9726773  12.8174761  61.2514418 115.4979335  19.3431663  63.8967658
 116.3196779  18.9411850  63.6150340 115.4941738  19.2399897  64.8483774
 103.4330271  12.3671003  58.1045854 102.6361434  12.4789697  58.6229349
 103.2055863  12.7057655  57.2386744 109.2635939  18.8915706  66.0528368
 109.3280371  19.3536113  66.8886540 108.5546863  18.2613071  66.1810678
  99.7653229  12.2556914  63.5777368 100.0161267  13.1403924  63.8434944
 100.3012777  12.0761516  62.8052460 108.9783956  20.5583814  55.9207349
 108.8429631  21.4035349  56.3492197 109.5193769  20.7603091  55.1573282
 102.4313354  18.0759252  56.4935274 102.9437874  18.8702502  56.6440838
 103.0836067  17.3785542  56.4268875 104.2408238  21.1925008  58.5758027
 104.4174867  22.1142973  58.3879011 105.0365072  20.8783427  59.0052407
 103.5260595  13.2389640  68.4520190 103.4114110  12.3374897  68.7527289
 102.6705113  13.4853336  68.1005007 110.6052433  21.1807380  70.0507691
 110.1616287  20.3943759  69.7328595 111.2669646  21.3686531  69.3851582
 105.3639554  22.7103182  64.5768369 105.9146979  22.5820245  63.8045363
 104.5251030  23.0098071  64.2263262 112.7033671  21.4610180  68.0789092
 112.6852146  22.2819061  67.5869361 113.6253591  21.3364255  68.3039233
 109.1606725  18.9754309  68.9212600 109.6935062  18.2142598  68.6911908
 108.6320806  18.6827961  69.6636755 100.3962270  16.4047906  57.2694844
 101.2337492  16.8144914  57.0528552 100.5740538  15.4647348  57.2395038
 110.5259438  18.1040302  56.4331412 109.9980799  17.3693061  56.1204650
 110.0246940  18.8814978  56.1871381 115.5052284  16.2989322  61.5498459
 114.8475958  16.9888584  61.6378587 116.3092683  16.6885754  61.8932445
 108.6712038  15.9220512  49.4366385 107.7639100  15.6909766  49.6357534
 109.1683070  15.1258131  49.6240367 111.5780117  24.6318019  52.3563072
 110.9041815  24.9349716  52.9648029 111.9645939  25.4347100  52.0068529
 109.8500271  16.0233107  53.9590376 108.9411490  15.7392140  54.0562845
 109.8795355  16.4432186  53.0993682 115.0819539  19.6339697  57.7281543
 114.6281866  18.7930606  57.7846734 114.4513505  20.2701095  58.0656323
 113.5252478  21.4716193  58.6631361 113.8175452  22.0321250  57.9443727
 114.0351098  21.7644754  59.4184520 100.4188442  13.7438621  57.9405578
 100.2212841  13.1507982  57.2156644  99.8635106  13.4390831  58.6581517
 109.5476359  17.5641851  51.2978454 109.1095789  16.8477710  50.8384091
 110.2886800  17.7917966  50.7363546 108.4886103  22.2496544  59.7524814
 108.4462282  22.4757391  58.8233346 109.4048802  22.0159919  59.9010616
 117.6918853  17.9075575  62.3666044 118.1255360  17.8150864  63.2149098
 118.4050434  17.8833075  61.7286060 106.6051904  19.1259573  59.5486777
 107.3992502  18.6309893  59.3469352 105.8943596  18.5977436  59.1854483
 111.4246748  21.5077669  63.8999145 111.4783771  22.0768605  64.6676861
 110.5561530  21.6779554  63.5353182 102.9134667  13.2702655  55.6246530
 101.9832255  13.2087111  55.8416492 103.0092139  12.7478608  54.8283171
 118.5534403  17.9499275  64.8998930 118.7470293  18.8545086  65.1458205
 118.4535021  17.4906694  65.7337515 113.6149512  18.1006018  70.4739810
 113.4635018  17.8716570  69.5569894 113.6054191  19.0576620  70.4871155
 110.3834848  15.6737931  65.4586077 111.3126908  15.8249091  65.2855044
 109.9625878  15.7621952  64.6034723 109.1823180  19.6988595  63.2284614
 109.0434266  19.3307380  64.1010552 108.3937776  20.2136235  63.0568572
 109.7771332  24.7997692  54.5710151 109.9523087  24.3285735  55.3855773
 109.0904120  25.4263458  54.7991412 110.7328395  19.0770198  60.6173452
 110.3978228  19.0370968  61.5131102 110.2332341  18.4114914  60.1443862
 104.7072639  14.4837828  66.1426033 104.5692437  13.7518067  66.7437572
 105.6177562  14.3946728  65.8610221 113.6687587  16.4226232  50.8910512
 113.0516757  15.6973061  50.7943564 113.2004075  17.1835593  50.5477586
 107.3354940  14.1957787  65.6309713 108.0454558  13.5550980  65.5896331
 107.2924248  14.4470682  66.5535894 115.3241718  21.1325141  68.5516292
 115.2654264  20.4484361  67.8846875 115.7261237  21.8744131  68.0996918
 104.3432417  27.9487055  61.3450011 104.5829015  28.5805579  62.0229030
 103.5001614  27.5975095  61.6315370 115.3259126  19.0964725  66.7830272
 114.4385904  18.7590646  66.9056671 115.8957677  18.3647756  67.0199037
  96.9788273  15.4288816  60.1073323  97.6659313  15.1150546  59.5194338
  96.8236401  16.3330181  59.8340575 108.6450059  22.9937947  57.2594337
 107.8617580  23.5359627  57.3532561 109.3442804  23.5111927  57.6588578
 111.3158962  23.6553011  65.9049674 112.0286935  24.2900476  65.8325575
 110.8248991  23.7516877  65.0889675 113.0376489  17.5604264  57.4766965
 112.1032768  17.6805726  57.3071670 113.2153158  16.6576730  57.2126975
 106.3670876  21.4047454  66.7255244 107.0680335  22.0383937  66.8784639
 105.8965991  21.7462186  65.9650884 114.4925272  19.7465404  55.0103151
 114.7685116  19.6321999  55.9197026 113.6229771  19.3482889  54.9715325
 111.1279336  23.9951755  58.6535965 111.3101730  23.1773411  59.1163717
 111.9512322  24.2119447  58.2160855 111.4621501  22.9219940  55.9151014
 111.9909268  22.4112395  55.3021176 111.7249721  22.6062470  56.7796547
 110.2159735  14.7011873  71.0373832 109.5400372  14.6006002  71.7076207
 111.0387369  14.5451087  71.5009829 101.9638594  20.9383810  63.6586347
 102.5492031  20.1927497  63.7914251 101.7663433  21.2487766  64.5423011
 104.8177249  23.9735057  58.6748790 104.1487625  24.4581185  58.1912830
 104.6790119  24.2204277  59.5892168  96.5556249  13.5089410  62.3790790
  96.5940348  12.9753000  63.1727908  96.0496542  12.9824615  61.7601767
 108.9582518  26.0078800  65.2731448 109.5100826  26.1710422  66.0380533
 109.2988711  26.5983238  64.6011473 113.8093392  20.8340058  71.1280102
 114.3533296  21.4470016  70.6335057 113.2280237  21.3919636  71.6447115
 100.1864826  12.2353512  55.4544722 100.4818267  11.3264190  55.4011775
  99.2852862  12.2141251  55.1325724 112.0950905  23.9560776  62.2595130
 111.9702045  23.1550516  61.7506076 112.7529996  24.4506969  61.7709100
 114.1585814  21.7569796  63.8874680 113.2116149  21.6375147  63.8153007
 114.5068587  20.8692294  63.9700942 111.1632247  21.5522512  60.0879032
 111.0157209  20.6239220  60.2686602 111.9885740  21.5742603  59.6036108
 114.7666369  22.3751071  61.1743905 115.6912916  22.1693932  61.0368356
 114.5981672  22.1267472  62.0833247 114.5561685  22.8936738  56.5305997
 114.7298562  22.3283161  55.7779849 115.0490576  23.6937633  56.3485487
 100.3738645  14.9051408  64.5969555  99.8292113  15.6811215  64.7289830
 101.2517995  15.2522212  64.4388677 115.5436857  22.2103503  53.6302895
 116.2387762  22.8310196  53.8490209 115.8860008  21.3598854  53.9055273
 101.1604667  14.0321304  67.4899712 100.4186403  14.1803939  68.0764343
 100.8397411  14.2929569  66.6266462 117.4428281  19.6603208  55.1590226
 117.9679605  19.9990481  54.4339546 117.3550633  18.7250224  54.9753360
 109.1048329  23.5737282  67.2880102 109.4135456  23.3286429  68.1602802
 109.9023811  23.7783920  66.7998972 109.1268941  25.7275192  59.5185479
 108.6873932  25.2351570  60.2118336 109.8777058  25.1848159  59.2777554
 101.6061280  21.9186733  59.5210107 102.4319300  21.6190504  59.1408750
 101.2555332  21.1494355  59.9699896 106.5742813  21.2713201  61.5907780
 105.9522823  20.6083906  61.2910008 107.2447680  21.2974333  60.9081428
  99.8069885  19.8373059  60.4799040  98.9701794  19.4095233  60.2983042
  99.7793531  20.0305502  61.4169832 117.1322187  20.2936112  70.4641424
 116.3417730  20.2760251  69.9245923 116.8955541  20.8324406  71.2190460
 106.1356320  19.8217124  55.0666241 106.2844441  20.5052588  54.4132914
 106.9422764  19.8022214  55.5815697 118.7538258  19.5625520  68.0216174
 118.4623067  19.9255500  68.8579635 118.1410390  18.8492528  67.8429506
 103.8908953  15.8482302  56.0727310 103.6454995  14.9444632  56.2707520
 104.0604868  15.8499452  55.1306788 109.6351726  22.3165255  52.5377988
 109.0625693  22.9355442  52.0848460 110.2084520  22.8664616  53.0717910
 112.8548986  22.6002405  53.6686571 113.7879659  22.5347966  53.8719446
 112.7672198  23.4358672  53.2101103 115.4837002  21.9168275  50.6290518
 115.4050634  21.5828139  51.5226276 116.3046669  22.4090043  50.6281991
 109.9037217  17.7043813  71.3394698 110.8240226  17.8822412  71.5334744
 109.8686800  16.7599859  71.1874397  99.1219382  12.8982407  60.2647973
  98.8022166  12.0447715  59.9722347  98.5752810  13.1130985  61.0205940
 102.8999289  15.6144848  63.9817479 103.1185299  16.5461956  64.0005513
 103.3125063  15.2552822  64.7672283  98.9907642  16.5185319  62.2341094
  98.2971113  16.1039271  61.7211049  99.7380633  16.5605855  61.6374513
 107.6358425  14.6175193  72.1885290 107.1525506  15.4175553  72.3949179
 107.7219364  14.6283138  71.2352734 100.9044384  16.4503572  60.1107109
 100.8815073  16.5491260  59.1588992 101.2145021  17.2968723  60.4324275
 103.5631762  18.5079727  64.2253723 104.5175016  18.4763670  64.1583655
 103.3644286  18.0470351  65.0403949 104.1531144  17.0780843  66.7924521
 104.9724033  17.5724922  66.8159358 104.4267952  16.1612812  66.7642089
 101.9181991  24.0499347  61.2423921 101.7836459  23.2899748  60.6761919
 101.5014053  24.7740247  60.7752710 113.0540954  19.2336270  50.2500497
 113.7576804  19.4386273  50.8658152 112.3303603  19.8013032  50.5149580
 105.0751117  24.9468664  61.4542364 104.9583501  25.8914096  61.3521054
 104.2543563  24.6442225  61.8428163 114.9627651  19.6718800  52.2998957
 115.7973255  19.2399998  52.1176431 114.8011994  19.5000813  53.2275851
 114.6173544  16.1750913  53.6655296 114.5622347  16.0095184  52.7243740
 113.9919599  16.8826946  53.8217486  99.4066059  11.4118977  67.4916718
 100.0524922  10.9017931  67.9803943  99.1983210  12.1487659  68.0660143
 111.9319451  18.4799825  72.9908859 112.8010610  18.6540477  72.6295494
 111.4526202  19.2994242  72.8684588 106.1005631  25.5996926  64.6698292
 107.0032878  25.6320536  64.9864787 105.8743001  24.6697377  64.6844628
 120.4001633  30.1415879  62.3315658 120.0620144  30.0256944  61.4436193
 121.2691401  29.7407044  62.3116664 116.2588449  31.9951355  58.3212549
 115.6953314  31.9041292  57.5528837 116.1440844  31.1751260  58.8015042
 120.8821416  31.2950731  68.2901864 120.8710057  30.9003529  67.4182367
 121.0442055  30.5616803  68.8835635 115.7643634  32.7511460  54.0314148
 116.5374510  32.2040447  53.8927024 116.1169033  33.6155709  54.2428610
 117.6028677  34.0787842  67.2381048 117.3118543  34.9833473  67.1227714
 118.2385661  34.1204370  67.9525117 118.5284884  31.4564691  63.8282407
 119.1248456  31.2320713  63.1139370 118.5859855  30.7149436  64.4307855
 118.1009912  28.9104126  51.6632598 118.3535433  28.3885647  50.9016061
 117.1634471  28.7470272  51.7659282 117.8206201  30.8132232  53.8656973
 117.7042459  30.1377136  54.5338057 117.9308461  30.3264606  53.0489126
 120.1637742  30.2742379  57.5703662 119.7995949  29.7473000  58.2816584
 121.0204858  29.8840848  57.3970148 119.8043229  25.3032279  52.5665011
 119.9717631  26.1712515  52.9335482 119.6140398  25.4659561  51.6426300
 116.0131044  30.2163055  60.2667546 115.0881540  30.0839269  60.4745237
 116.2615457  30.9957274  60.7637488 119.7832450  27.7589936  53.5511678
 119.6632075  28.2046987  54.3897158 119.0885038  28.1075254  52.9925216
 113.3739855  29.8596328  61.1011335 113.5032236  30.1130807  62.0150746
 112.6937306  30.4524036  60.7815990 117.5439342  40.5293578  57.2001809
 117.4663372  41.4801403  57.2790290 116.9400985  40.1839451  57.8576735
 120.0356572  27.7021444  69.8563176 119.2589906  28.2615364  69.8466041
 120.6747135  28.1878227  70.3778046 118.2902944  30.5106897  69.4181143
 119.0317628  31.0491941  69.1415966 117.5839929  31.1373186  69.5752695
 120.1189354  27.5908644  65.3886861 120.9650549  28.0148058  65.5321510
 120.0587991  26.9342269  66.0825424 119.6415060  32.9511636  59.0355678
 120.1053406  33.2299339  58.2460301 119.3771858  32.0495081  58.8528769
 116.5339141  32.4983118  61.9735442 117.1040498  32.9270386  61.3352926
 117.1247253  32.2165702  62.6719627 118.5783946  29.0734789  55.8445243
 119.2807989  29.5255832  56.3119170 118.2464575  28.4318607  56.4725137
 117.0264308  27.6646545  70.2196453 116.3962968  28.3462826  70.4531850
 116.9200396  27.5529627  69.2749591 112.3209280  27.3318341  61.1462377
 111.5308334  27.5875870  60.6702488 112.8120527  28.1466679  61.2514418
 114.2724025  27.6962920  58.1045854 113.4755189  27.8081615  58.6229349
 114.0449618  28.0349573  57.2386744 120.1029693  34.2207624  66.0528368
 120.1674126  34.6828031  66.8886540 119.3940617  33.5904989  66.1810678
 110.6046983  27.5848832  63.5777368 110.8555022  28.4695842  63.8434944
 111.1406531  27.4053433  62.8052460 119.8177711  35.8875731  55.9207349
 119.6823386  36.7327267  56.3492197 120.3587523  36.0895009  55.1573282
 116.3045050  21.9667311  72.5821704 115.9111996  21.4133510  73.2569348
 117.1211191  22.2777890  72.9728221 113.2707108  33.4051169  56.4935274
 113.7831629  34.1994419  56.6440838 113.9229821  32.7077460  56.4268875
 115.0801993  36.5216926  58.5758027 115.2568621  37.4434890  58.3879011
 115.8758826  36.2075345  59.0052407 119.2213011  23.3825190  70.1741960
 119.9622725  23.9832343  70.0946423 119.4530934  22.6402828  69.6160003
 114.3654349  28.5681557  68.4520190 114.2507865  27.6666815  68.7527289
 113.5098867  28.8145254  68.1005007 116.2033308  38.0395099  64.5768369
 116.7540733  37.9112163  63.8045363 115.3644784  38.3389988  64.2263262
 120.0000479  34.3046227  68.9212600 120.5328816  33.5434515  68.6911908
 119.4714560  34.0119879  69.6636755 111.2356025  31.7339824  57.2694844
 112.0731247  32.1436832  57.0528552 111.4134293  30.7939266  57.2395038
 120.7167568  24.2464605  58.0163916 119.8609164  23.8571455  57.8369554
 121.1294520  24.3256566  57.1563701 118.4909601  21.8649678  61.4221657
 119.3562597  21.6692487  61.0627547 118.5587110  21.6360030  62.3491014
 121.3653192  33.4332220  56.4331412 120.8374554  32.6984979  56.1204650
 120.8640695  34.2106896  56.1871381 116.0971920  24.0951886  58.7938024
 116.6715672  23.8727067  58.0611217 116.6842902  24.1640580  59.5466625
 116.4241507  26.1256347  52.8133909 115.5878819  26.4631033  53.1343184
 116.2846276  25.9905327  51.8761046 118.3994587  20.9693135  57.5213093
 117.7459000  20.6542152  56.8969708 118.3575062  20.3468875  58.2472916
 119.5105792  31.2512430  49.4366385 118.6032854  31.0201683  49.6357534
 120.0076824  30.4550049  49.6240367 120.6894026  31.3525025  53.9590376
 119.7805245  31.0684058  54.0562845 120.7189110  31.7724103  53.0993682
 119.2378920  28.9653645  60.0600171 119.2927530  28.0127482  59.9842647
 118.4270122  29.1213084  60.5441469 120.3870114  32.8933768  51.2978454
 119.9489543  32.1769627  50.8384091 121.1280554  33.1209883  50.7363546
 117.1771280  27.5830705  57.8190550 116.3639145  27.8824876  58.2255742
 117.6730274  27.1886394  58.5365032 119.3279858  37.5788462  59.7524814
 119.2856036  37.8049308  58.8233346 120.2442556  37.3451837  59.9010616
 116.6685354  25.1549061  63.4351785 117.3084734  25.0137820  62.7374748
 115.8362885  24.8683574  63.0590387 117.4445658  34.4551491  59.5486777
 118.2386257  33.9601811  59.3469352 116.7337351  33.9269354  59.1854483
 113.6713971  25.1249386  58.2124772 113.9320788  26.0394719  58.1033932
 114.4931143  24.6573828  58.3621384 115.1438896  26.5387143  65.3823596
 115.8161950  26.3304505  64.7336245 114.3168683  26.3409229  64.9428828
 120.0216934  35.0280513  63.2284614 119.8828020  34.6599297  64.1010552
 119.2331531  35.5428152  63.0568572 120.6165086  40.1289609  54.5710151
 120.7916842  39.6577653  55.3855773 119.9297874  40.7555376  54.7991412
 121.5722149  34.4062116  60.6173452 121.2371982  34.3662886  61.5131102
 121.0726095  33.7406832  60.1443862 115.5466393  29.8129746  66.1426033
 115.4086191  29.0809985  66.7437572 116.4571317  29.7238646  65.8610221
 118.1748694  29.5249705  65.6309713 118.8848313  28.8842897  65.5896331
 118.1318002  29.7762600  66.5535894 116.8877628  26.5114923  67.4505352
 116.3514985  26.0605661  68.1026949 116.2994337  26.6460832  66.7075817
 115.1826172  43.2778972  61.3450011 115.4222770  43.9097496  62.0229030
 114.3395368  42.9267012  61.6315370 116.2979887  25.9703574  50.0131816
 115.4209353  25.8492375  49.6494063 116.7737640  25.1789653  49.7610705
 107.8182027  30.7580734  60.1073323 108.5053067  30.4442464  59.5194338
 107.6630156  31.6622099  59.8340575 112.6216749  25.6470931  64.5358347
 112.5374938  25.0396600  63.8008757 111.7999456  26.1379949  64.5367843
 119.6954033  39.0858095  63.7491515 119.6224205  39.8913066  64.2610820
 119.2531427  39.2850060  62.9239536 119.4843813  38.3229865  57.2594337
 118.7011335  38.8651545  57.3532561 120.1836558  38.8403844  57.6588578
 119.3775432  26.2741877  59.6300226 119.0073219  25.7212918  60.3181132
 119.8734524  25.6700011  59.0775227 117.2064630  36.7339372  66.7255244
 117.9074090  37.3675855  66.8784639 116.7359745  37.0754104  65.9650884
 115.6571004  39.3026975  58.6748790 114.9881379  39.7873102  58.1912830
 115.5183873  39.5496195  59.5892168 107.3950003  28.8381327  62.3790790
 107.4334103  28.3044918  63.1727908 106.8890296  28.3116533  61.7601767
 119.7976272  41.3370718  65.2731448 120.3494580  41.5002340  66.0380533
 120.1382466  41.9275156  64.6011473 114.7740766  23.6845868  65.8753333
 114.8382092  24.5460699  65.4630730 114.7107886  23.0719870  65.1425691
 114.2493038  25.7569000  69.5226367 114.8765077  25.3746078  70.1363891
 113.3920957  25.5383202  69.8882059 111.0258581  27.5645430  55.4544722
 111.3212022  26.6556108  55.4011775 110.1246617  27.5433169  55.1325724
 114.5552828  25.6401426  61.4372270 113.8339414  26.2537394  61.2979744
 115.3446084  26.1759191  61.3588916 117.3579141  22.9755853  67.7112922
 117.8813543  23.2218149  68.4739231 117.1391475  23.8075887  67.2916059
 112.7546422  25.2459527  55.5784047 112.4259129  24.3656906  55.3959153
 113.1085793  25.1907196  56.4660436 115.8688246  25.5332497  55.9459525
 116.2084318  26.0618418  55.2238133 116.3160366  25.8712903  56.7218091
 118.5631686  23.9169548  65.3962593 118.2228507  23.1177361  65.7983272
 117.8570693  24.2171259  64.8239426 119.2148158  21.0018860  63.8489916
 120.0374228  20.5279338  63.7268806 119.4586222  21.7809344  64.3488602
 117.8556393  24.0307119  54.1452817 118.5764755  24.4088371  53.6416534
 117.2321697  24.7495995  54.2487795 116.7386737  27.6937981  61.6581894
 116.5931318  28.0078284  62.5506176 116.2611941  28.3122881  61.1052793
 118.5983120  24.6840529  61.7062784 118.5844689  23.7881622  61.3695082
 119.3155548  24.6911193  62.3401070 120.4509251  25.1177869  63.7515911
 120.1927028  26.0394940  63.7500242 119.9194291  24.7208304  64.4416375
 111.2132399  30.2343325  64.5969555 110.6685867  31.0103133  64.7289830
 112.0911749  30.5814130  64.4388677 118.0020016  23.5654909  56.9750354
 118.1235927  22.6371555  57.1741241 117.7122058  23.5793595  56.0628669
 120.8711206  21.2509820  60.1117074 120.8932903  21.3149153  59.1569053
 121.2879265  20.4114328  60.3057580 111.9998421  29.3613221  67.4899712
 111.2580157  29.5095857  68.0764343 111.6791165  29.6221487  66.6266462
 119.9442084  38.9029200  67.2880102 120.2529210  38.6578346  68.1602802
 120.7417566  39.1075838  66.7998972 119.9662696  41.0567109  59.5185479
 119.5267686  40.5643488  60.2118336 120.7170813  40.5140077  59.2777554
 112.4455035  37.2478650  59.5210107 113.2713055  36.9482422  59.1408750
 112.0949087  36.4786273  59.9699896 117.4136568  36.6005118  61.5907780
 116.7916577  35.9375823  61.2910008 118.0841435  36.6266250  60.9081428
 110.6463640  35.1664977  60.4799040 109.8095548  34.7387151  60.2983042
 110.6187285  35.3597420  61.4169832 117.4861095  25.0786906  71.1840286
 117.5349251  25.9549029  70.8018056 118.0283610  24.5364300  70.6111930
 116.9750075  35.1509042  55.0666241 117.1238195  35.8344506  54.4132914
 117.7816518  35.1314132  55.5815697 119.7160384  25.8318279  67.9386645
 118.8463693  26.1251845  67.6669234 119.9519864  26.4158724  68.6593909
 114.7302708  31.1774219  56.0727310 114.4848750  30.2736549  56.2707520
 114.8998622  31.1791370  55.1306788 113.9998355  26.9102577  53.5713471
 113.3067600  26.9846932  52.9153507 113.7550107  26.1462921  54.0934988
 120.4745480  37.6457172  52.5377988 119.9019447  38.2647359  52.0848460
 121.0478274  38.1956534  53.0717910 119.0435196  26.9067961  49.8148926
 118.1366651  26.6101074  49.8911640 119.3211177  26.6097779  48.9483212
 109.9613136  28.2274325  60.2647973 109.6415921  27.3739633  59.9722347
 109.4146565  28.4422903  61.0205940 113.7393044  30.9436766  63.9817479
 113.9579054  31.8753874  64.0005513 114.1518818  30.5844740  64.7672283
 120.6597262  21.4504851  55.9693167 119.8497990  21.1051936  56.3448414
 121.3481679  21.1412395  56.5580779 118.6120909  26.5169972  73.3720228
 118.5117636  27.4664328  73.3032319 118.3942451  26.1888210  72.4996298
 117.8133981  23.7654897  49.9560905 118.6753145  24.0909795  50.2156723
 117.9984325  22.9786392  49.4433971 109.8301396  31.8477236  62.2341094
 109.1364868  31.4331189  61.7211049 110.5774387  31.8897773  61.6374513
 118.4752179  29.9467110  72.1885290 117.9919261  30.7467470  72.3949179
 118.5613118  29.9575055  71.2352734 114.4025517  33.8371645  64.2253723
 115.3568770  33.8055587  64.1583655 114.2038040  33.3762269  65.0403949
 114.9924899  32.4072761  66.7924521 115.8117788  32.9016840  66.8159358
 115.2661707  31.4904729  66.7642089 112.7575746  39.3791265  61.2423921
 112.6230213  38.6191665  60.6761919 112.3407808  40.1032164  60.7752710
 115.9144871  40.2760582  61.4542364 115.7977256  41.2206014  61.3521054
 115.0937318  39.9734143  61.8428163 110.2459813  26.7410895  67.4916718
 110.8918677  26.2309849  67.9803943 110.0376964  27.4779577  68.0660143
 118.7663424  21.0050940  53.2440614 118.7542093  21.9492780  53.4008885
 119.6586845  20.8221085  52.9500076 116.9399386  40.9288843  64.6698292
 117.8426632  40.9612454  64.9864787 116.7136756  39.9989294  64.6844628
 118.6952988  39.6819830  61.3308371 117.7448619  39.6821692  61.2172743
 118.9985474  38.9352565  60.8144406 114.5857304  23.8878512  71.5891732
 115.4488766  23.5315317  71.7995057 114.0122715  23.5492407  72.2767137
 118.6575782  46.0872652  60.1073323 119.3446821  45.7734382  59.5194338
 118.5023910  46.9914016  59.8340575 118.2343758  44.1673245  62.3790790
 118.2727857  43.6336836  63.1727908 117.7284051  43.6408451  61.7601767
 121.4857394  50.4956894  60.4799040 120.6489303  50.0679069  60.2983042
 121.4581040  50.6889338  61.4169832 120.8006891  43.5566242  60.2647973
 120.4809675  42.7031551  59.9722347 120.2540319  43.7714821  61.0205940
 120.6695151  47.1769154  62.2341094 119.9758622  46.7623107  61.7211049
 121.4168142  47.2189690  61.6374513 117.5439343  17.5355701  43.9247116
 117.4663373  18.4863526  44.0035596 116.9400987  17.1901573  44.5822042
 115.1826173  20.2841095  48.0695318 115.4222771  20.9159619  48.7474336
 114.3395369  19.9329135  48.3560677 115.6571005  16.3089097  45.3994096
 114.9881380  16.7935225  44.9158136 115.5183875  16.5558318  46.3137475
 119.7976274  18.3432841  51.9976755 120.3494582  18.5064462  52.7625840
 120.1382467  18.9337279  51.3256779 112.7575747  16.3853387  47.9669228
 112.6230215  15.6253788  47.4007226 112.3407809  17.1094287  47.4998017
 115.9144873  17.2822704  48.1787671 115.7977257  18.2268137  48.0766361
 115.0937319  16.9796266  48.5673470 116.9399387  17.9350966  51.3943599
 117.8426634  17.9674576  51.7110094 116.7136757  17.0051417  51.4089935
 118.6575783  23.0934774  46.8318630 119.3446823  22.7796504  46.2439645
 118.5023912  23.9976139  46.5585881 118.2343759  21.1735368  49.1036097
 118.2727859  20.6398958  49.8973215 117.7284052  20.6470573  48.4847074
 121.4857396  27.5019017  47.2044347 120.6489304  27.0741191  47.0228348
 121.4581041  27.6951460  48.1415138 120.8006892  20.5628365  46.9893279
 120.4809676  19.7093673  46.6967653 120.2540320  20.7776943  47.7451247
 120.6695152  24.1831277  48.9586401 119.9758624  23.7685229  48.4456355
 121.4168143  24.2251813  48.3619820  24.8630074  62.9547818 118.7336535
  24.1891773  63.2579515 119.3421493  25.2495896  63.7576898 118.3841992
  28.8286815  60.5333301 120.0076359  29.5237720  61.1539994 120.2263673
  29.1709965  59.6828653 120.2828736  22.9201684  60.6395053 118.9151452
  22.3475651  61.2585240 118.4621924  23.4934477  61.1894415 119.4491374
  26.1398943  60.9232203 120.0460034  27.0729617  60.8577765 120.2492910
  26.0522156  61.7588470 119.5874567  28.7686960  60.2398074 117.0063982
  28.6900592  59.9057937 117.8999740  29.5896627  60.7319842 117.0055454
  26.3390912  57.5566069 116.6273960  27.0426762  57.7616072 117.2431616
  25.6153561  58.1242831 116.8923044  28.2477609  57.9948598 118.6772420
  29.0823213  57.5629797 118.4949895  28.0861952  57.8230612 119.6049315
  36.8761884  68.5118249 128.7727597  37.5140294  68.3924997 128.0690937
  36.7582727  69.4599093 128.8315549  29.5438406  70.3181154 124.6986013
  28.9803271  70.2271091 123.9302301  29.4290801  69.4981058 125.1788505
  35.1237965  73.9852122 120.0100478  34.4725945  74.5706202 119.6234491
  35.9182328  74.5158316 120.0695515  29.0493592  71.0741259 120.4087612
  29.8224468  70.5270246 120.2700488  29.4018991  71.9385508 120.6202073
  31.3859870  67.2333925 118.0406062  31.6385391  66.7115446 117.2789525
  30.4484429  67.0700070 118.1432746  36.4303153  66.2369703 125.8480805
  37.2166242  65.8189126 125.4971222  36.6941857  67.1415795 126.0162454
  36.6013230  71.6742554 120.5469462  35.9659063  71.7477180 121.2590367
  36.2710637  72.2636152 119.8688541  41.8311580  66.1744936 126.7513784
  42.5636752  65.6044153 126.9851613  41.0750936  65.7866537 127.1920289
  31.1056159  69.1362031 120.2430437  30.9892417  68.4606934 120.9111521
  31.2158419  68.6494405 119.4262590  33.4487700  68.5972178 123.9477126
  33.0845907  68.0702799 124.6590048  34.3054816  68.2070647 123.7743612
  33.0893187  63.6262078 118.9438475  33.2567589  64.4942314 119.3108946
  32.8990356  63.7889359 118.0199764  33.0682408  66.0819735 119.9285141
  32.9482033  66.5276786 120.7670622  32.3734996  66.4305053 119.3698680
  30.8289300  78.8523377 123.5775273  30.7513329  79.8031202 123.6563753
  30.2250943  78.5069249 124.2350199  38.7667474  66.5541208 120.7565476
  39.6785330  66.7868595 120.5813173  38.2577121  67.1378252 120.1940554
  37.3737056  71.5367027 128.1479057  36.7445918  71.7012741 127.4455125
  36.9862718  71.9508636 128.9190021  41.2526288  72.4721465 125.5023421
  40.5677326  72.8520366 124.9520454  41.3370137  73.0816791 126.2355368
  32.9265018  71.2741435 125.4129142  33.3903363  71.5529138 124.6233765
  32.6621816  70.3724879 125.2302233  31.8633904  67.3964587 122.2218707
  32.5657947  67.8485631 122.6892634  31.5314532  66.7548406 122.8498600
  39.6223047  72.9953379 130.2741122  40.4440491  72.5933566 129.9923803
  39.6185450  72.8921613 131.2257237  47.7129041  69.3392128 126.6226093
  46.9592749  68.7699526 126.4670098  47.8476582  69.3054792 127.5696728
  33.1027669  74.2105530 122.2980812  32.9673343  75.0557066 122.7265660
  33.6437481  74.4124807 121.5346746  26.5557066  71.7280968 122.8708738
  27.0681587  72.5224218 123.0214302  27.2079779  71.0307258 122.8042339
  28.3651951  74.8446724 124.9531491  28.5418579  75.7664689 124.7652475
  29.1608784  74.5305143 125.3825870  24.5205983  70.0569622 123.6468308
  25.3581205  70.4666631 123.4302016  24.6984250  69.1169064 123.6168502
  36.4170415  67.7244703 119.3352141  35.9017038  68.4949307 119.5740528
  36.1447723  67.0509839 119.9585202  34.0017526  62.5694404 124.3937379
  33.1459122  62.1801254 124.2143018  34.4144478  62.6486364 123.5337165
  41.3904689  70.4777057 121.2705314  40.6134132  70.1388217 120.8260477
  42.0696170  70.4829681 120.5960280  36.2056718  65.5971795 121.1611922
  35.9006854  65.9117944 122.0122065  37.1587160  65.6753215 121.2039255
  34.6503150  71.7562018 122.8104876  34.1224511  71.0214778 122.4978114
  34.1490653  72.5336695 122.5644845  39.6295996  69.9511039 127.9271922
  38.9719670  70.6410300 128.0152051  40.4336395  70.3407471 128.2705909
  38.4401455  68.3055411 125.9775864  38.9533336  68.9385403 126.4797574
  39.0902679  67.7056607 125.6119224  29.7091465  64.4486146 119.1907373
  28.8728777  64.7860832 119.5116648  29.5696234  64.3135125 118.2534510
  32.7955750  69.5742228 115.8139849  31.8882812  69.3431482 116.0130998
  33.2926782  68.7779848 116.0013831  35.7023829  78.2839736 118.7336535
  35.0285528  78.5871432 119.3421493  36.0889651  79.0868816 118.3841992
  35.7017333  67.1796283 123.3536885  36.4489152  67.6917680 123.0444007
  35.9708923  66.8580335 124.2141279  33.9743983  69.6754823 120.3363839
  33.0655203  69.3913856 120.4336309  34.0039067  70.0953902 119.4767146
  39.2063251  73.2861413 124.1055007  38.7525578  72.4452323 124.1620197
  38.5757218  73.9222811 124.4429787  38.1496170  64.2153399 125.3355674
  37.4118927  63.7030785 125.6665917  38.4022944  63.7753780 124.5238951
  37.6496190  75.1237910 125.0404825  37.9419165  75.6842967 124.3217191
  38.1594811  75.4166471 125.7957984  32.5228878  67.2883444 126.4373635
  32.5777487  66.3357280 126.3616111  31.7120080  67.4442883 126.9214933
  33.6720071  71.2163567 117.6751918  33.2339501  70.4999426 117.2157555
  34.4130512  71.4439682 117.1137009  30.4621237  65.9060504 124.1964014
  29.6489103  66.2054674 124.6029206  30.9580232  65.5116192 124.9138496
  32.6129815  75.9018261 126.1298278  32.5705994  76.1279107 125.2006810
  33.5292514  75.6681635 126.2784079  41.7893186  69.4920764 123.7328236
  41.6511085  69.6822360 122.8049426  41.4329405  70.2540147 124.1896288
  41.8162566  71.5597291 128.7439508  42.2499072  71.4672580 129.5922562
  42.5294146  71.5354792 128.1059524  30.7295616  72.7781290 125.9260241
  31.5236215  72.2831610 125.7242816  30.0187309  72.2499153 125.5627946
  27.0378380  66.9224371 122.0019994  26.1075968  66.8608827 122.2189956
  27.1335852  66.4000324 121.2056635  42.6778115  71.6020992 131.2772393
  42.8714005  72.5066802 131.5231668  42.5778733  71.1428411 132.1110978
  33.9015044  78.4519408 120.9483615  34.0766800  77.9807451 121.7629237
  33.2147832  79.0785174 121.1764875  34.8572107  72.7291914 126.9946916
  34.5221940  72.6892684 127.8904566  34.3576053  72.0636630 126.5217326
  37.7931299  70.0747949 117.2683975  37.1760470  69.3494777 117.1717028
  37.3247787  70.8357309 116.9251050  29.5829845  64.2933373 116.3905280
  28.7059311  64.1722174 116.0267526  30.0587598  63.5019451 116.1384168
  32.7693771  76.6459663 123.6367800  31.9861293  77.1881344 123.7306025
  33.4686516  77.1633643 124.0362041  43.9320178  68.1594658 127.9220297
  43.9210055  69.0419374 127.5514230  43.0637558  67.8066209 127.7274834
  37.1620202  71.2125980 123.8540429  36.2276480  71.3327442 123.6845133
  37.3396870  70.3098447 123.5900439  40.5492753  67.0543299 124.3890463
  41.0153205  67.8871291 124.3150766  41.0000254  66.5888281 125.0935722
  38.6168984  73.3987121 121.3876615  38.8928828  73.2843715 122.2970489
  37.7473483  73.0004605 121.3488788  35.2523048  77.6473471 125.0309429
  35.4345443  76.8295127 125.4937181  36.0756034  77.8641164 124.5934319
  35.5865214  76.5741657 122.2924477  36.1152980  76.0634111 121.6794639
  35.8493433  76.2584187 123.1570010  24.3108539  65.8875228 121.8318185
  24.6061980  64.9785907 121.7785239  23.4096574  65.8662968 121.5099188
  36.2194617  77.6082492 128.6368594  36.0945757  76.8072232 128.1279539
  36.8773709  78.1028686 128.1482564  38.2829526  75.4091512 130.2648144
  37.3359861  75.2896864 130.1926471  38.6312299  74.5214010 130.3474405
  35.2875959  75.2044229 126.4652496  35.1400922  74.2760936 126.6460066
  36.1129453  75.2264319 125.9809571  29.1538203  63.8562296 122.3232988
  29.4934276  64.3848217 121.6011597  29.6010324  64.1942702 123.0991555
  38.8910081  76.0272787 127.5517369  39.8156628  75.8215649 127.4141820
  38.7225384  75.7789188 128.4606710  31.1406351  62.3536917 120.5226281
  31.8614713  62.7318170 120.0189998  30.5171655  63.0725794 120.6261259
  35.2837473  63.0582066 121.4584613  35.5001088  63.9406704 121.1573441
  34.8031541  62.6668280 120.7290255  38.6805397  76.5458455 122.9079460
  38.8542275  75.9804877 122.1553313  39.1734288  77.3459350 122.7258950
  44.5344788  69.3094878 124.5269760  44.9775934  68.5602203 124.1288883
  43.6571299  69.3005014 124.1443492  39.6680570  75.8625219 120.0076359
  40.3631474  76.4831912 120.2263673  40.0103720  75.0120570 120.2828736
  41.5671993  73.3124925 121.5363689  42.0923317  73.6512197 120.8113009
  41.4794345  72.3771940 121.3526824  30.2600033  73.4738840 121.4439705
  30.4088153  74.1574305 120.7906377  31.0666476  73.4543930 121.9589160
  44.0777653  70.7800116 126.9192208  44.9124544  71.2189920 127.0829768
  44.2136782  70.3038769 126.1000453  28.0152666  69.5004018 122.4500774
  27.7698708  68.5966348 122.6480984  28.1848580  69.5021168 121.5080252
  27.2848313  65.2332376 119.9486935  26.5917558  65.3076731 119.2926971
  27.0400065  64.4692719 120.4708452  33.7595438  75.9686971 118.9151452
  33.1869405  76.5877158 118.4621924  34.3328232  76.5186333 119.4491374
  36.9792698  76.2524121 120.0460034  37.9123371  76.1869683 120.2492910
  36.8915911  77.0880388 119.5874567  39.6080715  75.5689991 117.0063982
  39.5294346  75.2349855 117.8999740  40.4290381  76.0611759 117.0055454
  42.3058906  68.4351731 130.2140301  42.2735226  67.4967731 130.3999984
  42.9159529  68.5135767 129.4806125  34.1442237  67.3047784 116.2567505
  35.0901341  67.1753992 116.3255923  33.7656482  66.5662446 116.7336933
  48.1235456  69.4967737 129.3546337  48.8538844  69.2353026 129.9154041
  47.5142401  68.7596459 129.3948405  46.2050753  67.6375600 129.9520789
  45.4783916  67.5031565 129.3437280  45.7898040  67.9452429 130.7577507
  32.3285154  65.2297760 116.1922390  31.4216609  64.9330873 116.2685103
  32.6061135  64.9327578 115.3256676  33.9447219  59.7734650 122.3466631
  33.1347948  59.4281735 122.7221877  34.6331636  59.4642193 122.9354243
  31.0983938  62.0884695 116.3334369  31.9603102  62.4139594 116.5930186
  31.2834283  61.3016191 115.8207435  39.2516575  60.9613222 123.4769592
  38.6715244  61.6198026 123.0947644  38.9852508  60.1390566 123.0657010
  38.0341453  63.1213312 122.5325940  37.1467308  63.4062963 122.3146135
  38.4495442  62.9607075 121.6853217  41.3855989  63.1459833 126.2480280
  42.1616379  63.6356285 126.5204896  40.6604123  63.5717887 126.7052149
  43.8228548  63.8587452 127.3054220  44.4173038  63.6183188 126.5947528
  43.8955131  63.1394583 127.9327756  37.1784666  72.8857987 116.6273960
  37.8820516  73.0907989 117.2431616  36.4547315  73.4534749 116.8923044
  38.0082477  68.6367848 122.7476230  37.9517678  69.0936399 121.9083863
  38.5610819  67.8758533 122.5699073  41.8187283  64.4257580 123.5726350
  41.5624217  64.0254216 124.4034558  41.1940151  65.1401374 123.4476489
  46.1299620  67.1653653 126.0797641  45.5699178  67.2346842 126.8529203
  45.5243124  66.9894638 125.3597138  39.0871364  73.3240516 118.6772420
  39.9216968  72.8921714 118.4949895  38.9255707  73.1522530 119.6049315
  38.7417256  69.8272629 120.0428760  38.6866060  69.6616901 119.1017204
  38.1163311  70.5348662 120.1990949  32.0513381  59.3280738 119.6214078
  32.0392051  60.2722578 119.7782349  32.9436803  59.1450884 119.3273539
  40.3832161  85.6473072 124.6986013  39.8197026  85.5563009 123.9302301
  40.2684556  84.8272976 125.1788505  45.9631720  89.3144039 120.0100478
  45.3119699  89.8998120 119.6234491  46.7576082  89.8450234 120.0695515
  39.8887347  86.4033176 120.4087612  40.6618223  85.8562163 120.2700488
  40.2412746  87.2677426 120.6202073  42.2253625  82.5625843 118.0406062
  42.4779145  82.0407364 117.2789525  41.2878184  82.3991988 118.1432746
  47.2696907  81.5661621 125.8480805  48.0559997  81.1481044 125.4971222
  47.5335612  82.4707713 126.0162454  47.4406985  87.0034471 120.5469462
  46.8052818  87.0769098 121.2590367  47.1104391  87.5928070 119.8688541
  41.9449913  84.4653948 120.2430437  41.8286171  83.7898852 120.9111521
  42.0552173  83.9786322 119.4262590  44.2881454  83.9264096 123.9477126
  43.9239661  83.3994717 124.6590048  45.1448570  83.5362565 123.7743612
  43.9286941  78.9553995 118.9438475  44.0961344  79.8234232 119.3108946
  43.7384110  79.1181277 118.0199764  40.1374756  83.8684771 126.6441009
  39.2125252  83.7360985 126.8518701  40.3859169  84.6478990 127.1410952
  43.9076162  81.4111653 119.9285141  43.7875787  81.8568704 120.7670622
  43.2128750  81.7596970 119.3698680  49.6061228  81.8833126 120.7565476
  50.5179084  82.1160513 120.5813173  49.0970875  82.4670170 120.1940554
  46.9497203  78.0591162 129.0055336  46.0881682  78.3572416 129.2972074
  46.9759638  78.2761561 128.0736369  43.7658772  86.6033353 125.4129142
  44.2297118  86.8821055 124.6233765  43.5015570  85.7016797 125.2302233
  42.7027658  82.7256505 122.2218707  43.4051702  83.1777549 122.6892634
  42.3708287  82.0840324 122.8498600  36.4452992  80.9840058 127.5235841
  35.6552046  81.2397586 127.0475951  36.9364240  81.7988395 127.6287881
  38.3967738  81.3484637 124.4819317  37.5998901  81.4603331 125.0002813
  38.1693330  81.6871289 123.6160208  43.9421423  89.5397447 122.2980812
  43.8067098  90.3848983 122.7265660  44.4831236  89.7416725 121.5346746
  37.3950820  87.0572886 122.8708738  37.9075341  87.8516136 123.0214302
  38.0473533  86.3599176 122.8042339  39.2045705  90.1738642 124.9531491
  39.3812333  91.0956607 124.7652475  40.0002539  89.8597061 125.3825870
  47.2913887  73.0628009 130.8279706  46.9478156  73.9529651 130.7518816
  47.6592849  72.8729667 129.9649291  35.3599737  85.3861540 123.6468308
  36.1974959  85.7958548 123.4302016  35.5378005  84.4460982 123.6168502
  47.2564169  83.0536620 119.3352141  46.7410793  83.8241225 119.5740528
  46.9841478  82.3801757 119.9585202  44.8411280  77.8986321 124.3937379
  43.9852877  77.5093172 124.2143018  45.2538232  77.9778282 123.5337165
  46.3710427  75.4332665 128.7928939  45.8675223  75.3962800 127.9796744
  46.6641034  76.3425407 128.8525596  42.6153313  75.5171394 127.7995121
  43.4806310  75.3214203 127.4401010  42.6830822  75.2881746 128.7264478
  52.2298443  85.8068975 121.2705314  51.4527886  85.4680135 120.8260477
  52.9089924  85.8121598 120.5960280  47.0450473  80.9263713 121.1611922
  46.7400608  81.2409862 122.0122065  47.9980915  81.0045132 121.2039255
  45.4896904  87.0853936 122.8104876  44.9618266  86.3506695 122.4978114
  44.9884407  87.8628612 122.5644845  40.2215632  77.7473602 125.1711488
  40.7959384  77.5248784 124.4384681  40.8086614  77.8162297 125.9240089
  40.5485219  79.7778063 119.1907373  39.7122531  80.1152750 119.5116648
  40.4089989  79.6427043 118.2534510  42.5238300  74.6214851 123.8986557
  41.8702712  74.3063868 123.2743172  42.4818774  73.9990592 124.6246380
  43.6349505  84.9034146 115.8139849  42.7276566  84.6723400 116.0130998
  44.1320537  84.1071765 116.0013831  46.5417583  93.6131653 118.7336535
  45.8679282  93.9163350 119.3421493  46.9283405  94.4160734 118.3841992
  45.7576040  81.1096785 128.2234205  44.8398601  81.3311732 128.0655893
  46.1736184  81.1843095 127.3645912  46.5411088  82.5088200 123.3536885
  47.2882907  83.0209598 123.0444007  46.8102677  82.1872253 124.2141279
  44.8137738  85.0046741 120.3363839  43.9048957  84.7205774 120.4336309
  44.8432822  85.4245820 119.4767146  48.9889925  79.5445317 125.3355674
  48.2512682  79.0322703 125.6665917  49.2416698  79.1045698 124.5238951
  49.0901552  72.3221569 125.9297444  49.3960429  71.4618932 125.6423359
  49.8154157  72.9139189 125.7296437  35.3825908  82.7252255 124.3179042
  35.1850308  82.1321616 123.5930108  34.8272572  82.4204465 125.0354980
  43.3622632  82.6175362 126.4373635  43.4171242  81.6649198 126.3616111
  42.5513834  82.7734801 126.9214933  44.5113826  86.5455485 117.6751918
  44.0733256  85.8291344 117.2157555  45.2524267  86.7731600 117.1137009
  41.3014992  81.2352421 124.1964014  40.4882857  81.5346592 124.6029206
  41.7973986  80.8408110 124.9138496  52.6286941  84.8212682 123.7328236
  52.4904839  85.0114278 122.8049426  52.2723159  85.5832065 124.1896288
  40.7929067  78.8070777 129.8125248  41.4328446  78.6659536 129.1148212
  39.9606597  78.5205290 129.4363850  41.5689371  88.1073207 125.9260241
  42.3629969  87.6123527 125.7242816  40.8581063  87.5791070 125.5627946
  37.8772134  82.2516289 122.0019994  36.9469722  82.1900745 122.2189956
  37.9729606  81.7292242 121.2056635  37.7957683  78.7771102 124.5898235
  38.0564500  79.6916435 124.4807396  38.6174855  78.3095544 124.7394848
  44.7408799  93.7811326 120.9483615  44.9160554  93.3099369 121.7629237
  44.0541587  94.4077092 121.1764875  48.6325053  85.4039866 117.2683975
  48.0154224  84.6786695 117.1717028  48.1641542  86.1649227 116.9251050
  40.4223599  79.6225291 116.3905280  39.5453066  79.5014091 116.0267526
  40.8981352  78.8311369 116.1384168  46.9184175  77.7846210 126.2802006
  47.4152875  77.0316173 125.9603076  46.1471157  77.8210527 125.7145215
  48.0013956  86.5417898 123.8540429  47.0670235  86.6619360 123.6845133
  48.1790625  85.6390364 123.5900439  43.5019144  79.9263593 126.0073690
  43.1316932  79.3734634 126.6954596  43.9978237  79.3221727 125.4548690
  51.3886507  82.3835217 124.3890463  51.8546960  83.2163209 124.3150766
  51.8394008  81.9180199 125.0935722  49.4562739  88.7279038 121.3876615
  49.7322583  88.6135633 122.2970489  48.5867237  88.3296523 121.3488788
  49.3603170  74.7515804 128.4281364  48.4466250  74.9820031 128.5963571
  49.7896272  74.8354248 129.2795397  46.4258968  91.9033574 122.2924477
  46.9546735  91.3926029 121.6794639  46.6887188  91.5876104 123.1570010
  38.8984478  77.3367584 132.2526796  38.9625804  78.1982415 131.8404194
  38.8351598  76.7241586 131.5199155  35.1502293  81.2167146 121.8318185
  35.4455734  80.3077824 121.7785239  34.2490329  81.1954885 121.5099188
  38.6796540  79.2923142 127.8145734  37.9583126  79.9059110 127.6753207
  39.4689796  79.8280907 127.7362380  36.8790135  78.8981244 121.9557511
  36.5502841  78.0178622 121.7732616  37.2329505  78.8428912 122.8433900
  39.9931958  79.1854213 122.3232988  40.3328030  79.7140135 121.6011597
  40.4404078  79.5234619 123.0991555  42.6875399  77.5691264 131.7736056
  42.3472219  76.7699077 132.1756736  41.9814405  77.8692975 131.2012889
  43.3391871  74.6540576 130.2263379  44.1617940  74.1801055 130.1042270
  43.5829934  75.4331060 130.7262066  41.9800105  77.6828835 120.5226281
  42.7008468  78.0610088 120.0189998  41.3565409  78.4017712 120.6261259
  46.1231228  78.3873984 121.4584613  46.3394842  79.2698622 121.1573441
  45.6425295  77.9960197 120.7290255  40.8630449  81.3459697 128.0355358
  40.7175030  81.6600000 128.9279639  40.3855653  81.9644597 127.4826257
  42.7226832  78.3362245 128.0836247  42.7088401  77.4403338 127.7468545
  43.4399260  78.3432909 128.7174534  44.5752963  78.7699585 130.1289375
  44.3170741  79.6916656 130.1273705  44.0438003  78.3730020 130.8189839
  42.1263728  77.2176625 123.3523818  42.2479639  76.2893272 123.5514705
  41.8365770  77.2315311 122.4402133  44.9954919  74.9031536 126.4890537
  45.0176615  74.9670869 125.5342517  45.4122978  74.0636044 126.6831044
  50.5074324  91.1917137 120.0076359  51.2025229  91.8123830 120.2263673
  50.8497474  90.3412488 120.2828736  52.4065747  88.6416842 121.5363689
  52.9317071  88.9804115 120.8113009  52.3188100  87.7063858 121.3526824
  41.0993787  88.8030758 121.4439705  41.2481907  89.4866222 120.7906377
  41.9060231  88.7835848 121.9589160  38.8546420  84.8295936 122.4500774
  38.6092462  83.9258266 122.6480984  39.0242335  84.8313086 121.5080252
  38.1242068  80.5624293 119.9486935  37.4311313  80.6368648 119.2926971
  37.8793819  79.7984637 120.4708452  46.7955724  72.1219895 127.3526426
  47.0757478  71.4543084 127.9786852  47.5806331  72.3148990 126.8401090
  44.5989193  91.2978889 118.9151452  44.0263160  91.9169076 118.4621924
  45.1721986  91.8478250 119.4491374  47.8186452  91.5816039 120.0460034
  48.7517126  91.5161600 120.2492910  47.7309665  92.4172306 119.5874567
  50.4474469  90.8981909 117.0063982  50.3688101  90.5641773 117.8999740
  51.2684136  91.3903677 117.0055454  44.9835991  82.6339701 116.2567505
  45.9295096  82.5045909 116.3255923  44.6050236  81.8954363 116.7336933
  50.9557876  74.2995707 126.2194396  50.7582697  73.9910796 127.1037728
  51.5657581  75.0257346 126.3492326  43.1678908  80.5589678 116.1922390
  42.2610364  80.2622790 116.2685103  43.4454889  80.2619496 115.3256676
  44.7840974  75.1026567 122.3466631  43.9741702  74.7573652 122.7221877
  45.4725391  74.7934111 122.9354243  46.7131522  74.1804614 123.9690928
  47.2662561  74.6000068 124.6280951  46.9501609  73.2540362 124.0113884
  41.9377693  77.4176613 116.3334369  42.7996857  77.7431511 116.5930186
  42.1228037  76.6308109 115.8207435  50.0910329  76.2905139 123.4769592
  49.5108998  76.9489943 123.0947644  49.8246262  75.4682484 123.0657010
  48.5413896  75.6910197 125.6790912  49.0413674  75.8026732 124.8705231
  49.1849504  75.3871250 126.3191721  48.8735207  78.4505230 122.5325940
  47.9861062  78.7354880 122.3146135  49.2889196  78.2898993 121.6853217
  52.2249744  78.4751751 126.2480280  53.0010134  78.9648203 126.5204896
  51.4997878  78.9009805 126.7052149  48.0178421  88.2149904 116.6273960
  48.7214271  88.4199907 117.2431616  47.2941070  88.7826666 116.8923044
  48.8476231  83.9659766 122.7476230  48.7911433  84.4228317 121.9083863
  49.4004574  83.2050450 122.5699073  52.6581037  79.7549498 123.5726350
  52.4017971  79.3546133 124.4034558  52.0333905  80.4693291 123.4476489
  49.9265118  88.6532434 118.6772420  50.7610722  88.2213632 118.4949895
  49.7649461  88.4814447 119.6049315  49.5811010  85.1564547 120.0428760
  49.5259814  84.9908818 119.1017204  48.9557066  85.8640580 120.1990949
  42.8907136  74.6572656 119.6214078  42.8785806  75.6014496 119.7782349
  43.7830558  74.4742801 119.3273539  46.7059255  71.2515433 123.8760015
  45.9391651  70.6973919 124.0216697  47.1169960  71.3237301 124.7374166
  51.3878974  95.1069981 119.1907373  50.5516286  95.4444667 119.5116648
  51.2483743  94.9718961 118.2534510  51.2617354  94.9517208 116.3905280
  50.3846820  94.8306009 116.0267526  51.7375107  94.1603287 116.1384168
  48.9635822  95.8916211 119.9486935  48.2705067  95.9660566 119.2926971
  48.7187574  95.1276555 120.4708452  54.0072663  95.8881595 116.1922390
  53.1004118  95.5914708 116.2685103  54.2848644  95.5911413 115.3256676
  52.7771447  92.7468531 116.3334369  53.6390611  93.0723429 116.5930186
  52.9621792  91.9600026 115.8207435  53.7300890  89.9864574 119.6214078
  53.7179560  90.9306414 119.7782349  54.6224312  89.8034719 119.3273539
  24.8630076  39.9609941 105.4581842  24.1891774  40.2641637 106.0666800
  25.2495898  40.7639021 105.1087299  28.8286816  37.5395424 106.7321665
  29.5237721  38.1602117 106.9508980  29.1709967  36.6890775 107.0074043
  22.9201685  37.6457176 105.6396759  22.3475652  38.2647363 105.1867231
  23.4934479  38.1956537 106.1736681  26.1398945  37.9294326 106.7705341
  27.0729618  37.8639888 106.9738217  26.0522157  38.7650593 106.3119874
  28.7686961  37.2460196 103.7309289  28.6900593  36.9120060 104.6245047
  29.5896628  37.7381964 103.7300761  26.3390913  34.5628192 103.3519267
  27.0426763  34.7678194 103.9676923  25.6153562  35.1304954 103.6168350
  28.2477611  35.0010721 105.4017727  29.0823214  34.5691919 105.2195202
  28.0861953  34.8292735 106.3294621  36.8761886  45.5180372 115.4972904
  37.5140296  45.3987119 114.7936244  36.7582729  46.4661216 115.5560856
  29.5438408  47.3243276 111.4231319  28.9803273  47.2333213 110.6547607
  29.4290803  46.5043181 111.9033812  35.1237966  50.9914244 106.7345784
  34.4725946  51.5768325 106.3479798  35.9182329  51.5220439 106.7940822
  29.0493593  48.0803381 107.1332919  29.8224469  47.5332368 106.9945794
  29.4018992  48.9447631 107.3447380  31.3859871  44.2396047 104.7651369
  31.6385392  43.7177569 104.0034832  30.4484430  44.0762193 104.8678052
  36.4303154  43.2431826 112.5726112  37.2166243  42.8251249 112.2216529
  36.6941858  44.1477918 112.7407760  36.6013231  48.6804676 107.2714769
  35.9659064  48.7539303 107.9835673  36.2710638  49.2698275 106.5933848
  41.8311581  43.1807059 113.4759090  42.5636753  42.6106276 113.7096920
  41.0750937  42.7928659 113.9165596  31.1056160  46.1424153 106.9675744
  30.9892418  45.4669057 107.6356828  31.2158420  45.6556527 106.1507897
  33.4487701  45.6034301 110.6722433  33.0845908  45.0764921 111.3835354
  34.3054817  45.2132770 110.4988918  33.0893188  40.6324200 105.6683781
  33.2567590  41.5004437 106.0354252  32.8990357  40.7951482 104.7445071
  33.0682409  43.0881858 106.6530448  32.9482034  43.5338908 107.4915928
  32.3734997  43.4367175 106.0943986  30.8289301  55.8585499 110.3020579
  30.7513331  56.8093325 110.3809060  30.2250945  55.5131372 110.9595506
  38.7667475  43.5603331 107.4810782  39.6785331  43.7930718 107.3058480
  38.2577122  44.1440375 106.9185861  37.3737057  48.5429149 114.8724364
  36.7445920  48.7074863 114.1700431  36.9862719  48.9570759 115.6435328
  41.2526289  49.4783587 112.2268727  40.5677327  49.8582489 111.6765761
  41.3370138  50.0878914 112.9600675  32.9265019  48.2803557 112.1374449
  33.3903365  48.5591260 111.3479071  32.6621817  47.3787002 111.9547539
  31.8633905  44.4026710 108.9464014  32.5657949  44.8547753 109.4137940
  31.5314534  43.7610529 109.5743907  39.6223049  50.0015502 116.9986428
  40.4440492  49.5995689 116.7169110  39.6185452  49.8983736 117.9502544
  47.7129042  46.3454250 113.3471400  46.9592750  45.7761648 113.1915404
  47.8476583  46.3116915 114.2942034  33.1027670  51.2167652 109.0226119
  32.9673345  52.0619188 109.4510967  33.6437482  51.4186930 108.2592053
  26.5557067  48.7343090 109.5954044  27.0681588  49.5286341 109.7459609
  27.2079780  48.0369381 109.5287646  28.3651952  51.8508847 111.6776797
  28.5418580  52.7726811 111.4897781  29.1608785  51.5367266 112.1071177
  29.4883267  53.3687021 117.6787140  30.0390693  53.2404084 116.9064134
  28.6494743  53.6681910 117.3282032  24.5205984  47.0631745 110.3713615
  25.3581206  47.4728753 110.1547322  24.6984252  46.1231187 110.3413809
  36.4170416  44.7306825 106.0597448  35.9017040  45.5011430 106.2985835
  36.1447725  44.0571962 106.6830509  34.0017527  39.5756526 111.1182686
  33.1459123  39.1863377 110.9388325  34.4144479  39.6548487 110.2582472
  41.3904690  47.4839180 107.9950621  40.6134133  47.1450340 107.5505783
  42.0696171  47.4891803 107.3205586  36.2056719  42.6033918 107.8857229
  35.9006855  42.9180067 108.7367372  37.1587161  42.6815337 107.9284562
  34.6503151  48.7624141 109.5350183  34.1224513  48.0276900 109.2223420
  34.1490654  49.5398817 109.2890151  39.6295997  46.9573161 114.6517229
  38.9719672  47.6472423 114.7397358  40.4336396  47.3469593 114.9951215
  38.4401456  45.3117534 112.7021171  38.9533338  45.9447526 113.2042881
  39.0902680  44.7118730 112.3364531  29.7091466  41.4548268 105.9152680
  28.8728778  41.7922955 106.2361954  29.5696236  41.3197248 104.9779817
  32.7955751  46.5804351 102.5385156  31.8882813  46.3493605 102.7376305
  33.2926783  45.7841970 102.7259137  35.7023830  55.2901858 105.4581842
  35.0285529  55.5933555 106.0666800  36.0889652  56.0930939 105.1087299
  35.7017335  44.1858405 110.0782192  36.4489154  44.6979802 109.7689314
  35.9708924  43.8642458 110.9386585  33.9743985  46.6816946 107.0609146
  33.0655204  46.3975979 107.1581616  34.0039069  47.1016025 106.2012453
  39.2063252  50.2923535 110.8300314  38.7525579  49.4514445 110.8865504
  38.5757219  50.9284934 111.1675094  38.1496172  41.2215521 112.0600981
  37.4118929  40.7092908 112.3911224  38.4022945  40.7815903 111.2484258
  37.6496191  52.1300032 111.7650132  37.9419166  52.6905089 111.0462497
  38.1594812  52.4228593 112.5203291  32.5228879  44.2945567 113.1618941
  32.5777489  43.3419403 113.0861418  31.7120081  44.4505006 113.6460240
  33.6720073  48.2225690 104.3997225  33.2339502  47.5061549 103.9402862
  34.4130513  48.4501804 103.8382316  30.4621239  42.9122626 110.9209320
  29.6489104  43.2116797 111.3274512  30.9580233  42.5178315 111.6383802
  32.6129817  52.9080383 112.8543585  32.5705995  53.1341230 111.9252117
  33.5292515  52.6743758 113.0029386  41.7893187  46.4982887 110.4573543
  41.6511086  46.6884483 109.5294732  41.4329406  47.2602269 110.9141594
  41.8162567  48.5659414 115.4684815  42.2499074  48.4734703 116.3167869
  42.5294148  48.5416914 114.8304831  30.7295617  49.7843412 112.6505548
  31.5236216  49.2893732 112.4488123  30.0187310  49.2561275 112.2873253
  35.5490462  52.1661508 117.0017915  35.6027484  52.7352444 117.7695631
  34.6805243  52.3363393 116.6371952  27.0378381  43.9286494 108.7265300
  26.1075969  43.8670949 108.9435262  27.1335853  43.4062447 107.9301942
  42.6778117  48.6083114 118.0017700  42.8714007  49.5128925 118.2476975
  42.5778735  48.1490533 118.8356285  33.3066893  50.3572434 116.3303385
  33.1677979  49.9891219 117.2029323  32.5181490  50.8720074 116.1587342
  33.9015045  55.4581531 107.6728921  34.0766801  54.9869574 108.4874544
  33.2147833  56.0847297 107.9010182  34.8572109  49.7354037 113.7192222
  34.5221941  49.6954807 114.6149872  34.3576054  49.0698753 113.2462633
  37.7931300  47.0810071 103.9929282  37.1760471  46.3556899 103.8962335
  37.3247789  47.8419432 103.6496356  28.4676131  58.6070893 114.4468781
  28.7072729  59.2389418 115.1247800  27.6245327  58.2558933 114.7334141
  29.5829846  41.2995496 103.1150586  28.7059312  41.1784296 102.7512833
  30.0587599  40.5081574 102.8629475  32.9803993  54.4150016 116.8510285
  32.9074164  55.2204987 117.3629590  32.5381386  54.6141982 116.0258307
  32.7693772  53.6521786 110.3613107  31.9861294  54.1943466 110.4551331
  33.4686517  54.1695766 110.7607348  43.9320180  45.1656781 114.6465604
  43.9210056  46.0481496 114.2759537  43.0637559  44.8128332 114.4520141
  35.4402676  54.3136850 119.0068444  36.1530648  54.9484315 118.9344345
  34.9492705  54.4100716 118.1908446  37.1620203  48.2188103 110.5785736
  36.2276482  48.3389565 110.4090440  37.3396871  47.3160569 110.3145746
  40.5492754  44.0605422 111.1135770  41.0153206  44.8933413 111.0396072
  41.0000255  43.5950403 111.8181028  38.6168985  50.4049243 108.1121922
  38.8928829  50.2905838 109.0215796  37.7473484  50.0066728 108.0734095
  35.2523049  54.6535594 111.7554735  35.4345444  53.8357250 112.2182488
  36.0756035  54.8703286 111.3179625  35.5865215  53.5803779 109.0169784
  36.1152981  53.0696234 108.4039946  35.8493434  53.2646309 109.8815317
  28.9420963  54.6318896 111.7767560  28.2731338  55.1165023 111.2931600
  28.8033833  54.8788116 112.6910938  33.0826231  56.6662639 118.3750218
  33.6344539  56.8294261 119.1399303  33.4232425  57.2567077 117.7030243
  24.3108540  42.8937351 108.5563492  24.6061981  41.9848029 108.5030546
  23.4096576  42.8725090 108.2344494  36.2194619  54.6144615 115.3613900
  36.0945758  53.8134355 114.8524846  36.8773710  55.1090808 114.8727870
  38.2829527  52.4153635 116.9893450  37.3359863  52.2958986 116.9171777
  38.6312300  51.5276133 117.0719712  35.2875960  52.2106351 113.1897803
  35.1400923  51.2823059 113.3705373  36.1129454  52.2326442 112.7054878
  29.1538205  40.8624418 109.0478295  29.4934277  41.3910340 108.3256903
  29.6010325  41.2004824 109.8236861  38.8910082  53.0334910 114.2762675
  39.8156630  52.8277771 114.1387127  38.7225386  52.7851311 115.1852017
  31.1406352  39.3599040 107.2471588  31.8614714  39.7380293 106.7435304
  30.5171656  40.0787917 107.3506566  35.2837475  40.0644189 108.1829920
  35.5001089  40.9468827 107.8818748  34.8031542  39.6730402 107.4535562
  38.6805398  53.5520577 109.6324767  38.8542276  52.9867000 108.8798619
  39.1734290  54.3521472 109.4504257  44.5344790  46.3157000 111.2515067
  44.9775936  45.5664326 110.8534190  43.6571300  46.3067137 110.8688799
  39.6680571  52.8687342 106.7321665  40.3631476  53.4894034 106.9508980
  40.0103721  52.0182693 107.0074043  41.5671994  50.3187047 108.2608996
  42.0923318  50.6574320 107.5358316  41.4794347  49.3834063 108.0772131
  33.2512655  56.3859031 112.6204249  32.8117645  55.8935409 113.3137106
  34.0020772  55.8431998 112.3796324  25.7304994  52.5770571 112.6228877
  26.5563014  52.2774343 112.2427521  25.3799046  51.8078194 113.0718666
  30.6986527  51.9297040 114.6926551  30.0766536  51.2667745 114.3928779
  31.3691394  51.9558172 114.0100199  30.2600034  50.4800963 108.1685011
  30.4088154  51.1636427 107.5151684  31.0666477  50.4606053 108.6834467
  44.0777654  47.7862239 113.6437514  44.9124546  48.2252043 113.8075075
  44.2136783  47.3100892 112.8245760  28.0152667  46.5066141 109.1746080
  27.7698709  45.6028471 109.3726290  28.1848581  46.5083291 108.2325558
  27.2848314  42.2394498 106.6732242  26.5917559  42.3138853 106.0172278
  27.0400066  41.4754842 107.1953759  33.7595439  52.9749093 105.6396759
  33.1869406  53.5939281 105.1867231  34.3328233  53.5248455 106.1736681
  36.9792699  53.2586244 106.7705341  37.9123372  53.1931805 106.9738217
  36.8915912  54.0942510 106.3119874  42.3058907  45.4413853 116.9385607
  42.2735227  44.5029854 117.1245291  42.9159531  45.5197890 116.2051432
  34.1442238  44.3109906 102.9812811  35.0901343  44.1816114 103.0501229
  33.7656483  43.5724568 103.4582239  48.1235457  46.5029860 116.0791644
  48.8538845  46.2415148 116.6399347  47.5142402  45.7658582 116.1193712
  46.2050754  44.6437723 116.6766095  45.4783918  44.5093688 116.0682587
  45.7898041  44.9514551 117.4822813  32.3285155  42.2359883 102.9167697
  31.4216610  41.9392995 102.9930410  32.6061136  41.9389701 102.0501983
  33.9447221  36.7796772 109.0711938  33.1347949  36.4343857 109.4467184
  34.6331638  36.4704316 109.6599549  31.0983940  39.0946818 103.0579676
  31.9603104  39.4201716 103.3175493  31.2834284  38.3078314 102.5452742
  39.2516576  37.9675344 110.2014899  38.6715245  38.6260148 109.8192951
  38.9852509  37.1452689 109.7902316  38.0341454  40.1275435 109.2571247
  37.1467309  40.4125085 109.0391442  38.4495443  39.9669198 108.4098524
  41.3855990  40.1521956 112.9725586  42.1616380  40.6418408 113.2450203
  40.6604124  40.5780010 113.4297456  43.8228549  40.8649575 114.0299527
  44.4173040  40.6245311 113.3192835  43.8955133  40.1456705 114.6573063
  26.0425705  54.7083186 114.3442692  25.9080173  53.9483587 113.7780690
  25.6257767  55.4324086 113.8771481  37.1784668  49.8920109 103.3519267
  37.8820518  50.0970112 103.9676923  36.4547316  50.4596871 103.6168350
  38.0082478  45.6429971 109.4721537  37.9517679  46.0998522 108.6329170
  38.5610820  44.8820655 109.2944380  41.8187284  41.4319702 110.2971657
  41.5624218  41.0316338 111.1279864  41.1940152  42.1463496 110.1721796
  46.1299622  44.1715776 112.8042948  45.5699180  44.2408965 113.5774510
  45.5243125  43.9956760 112.0842444  29.1994830  55.6052503 114.5561134
  29.0827215  56.5497935 114.4539825  28.3787277  55.3026064 114.9446934
  39.0871365  50.3302639 105.4017727  39.9216969  49.8983837 105.2195202
  38.9255708  50.1584652 106.3294621  38.7417257  46.8334752 106.7674066
  38.6866061  46.6679023 105.8262510  38.1163312  47.5410785 106.9236256
  32.0513383  36.3342861 106.3459385  32.0392052  37.2784701 106.5027656
  32.9436805  36.1513006 106.0518846  30.2249345  56.2580765 117.7717063
  31.1276591  56.2904375 118.0883558  29.9986715  55.3281216 117.7863399
  31.9802947  55.0111751 114.4327141  31.0298578  55.0113613 114.3191514
  32.2835433  54.2644486 113.9163176  47.7155640  60.8472290 115.4972904
  48.3534050  60.7279037 114.7936244  47.5976483  61.7953134 115.5560856
  44.5245346  60.7999718 115.4334428  44.1863858  60.6840782 114.5454963
  45.3935115  60.3990883 115.4135435  45.0065129  61.9534569 121.3920634
  44.9953770  61.5587368 120.5201138  45.1685769  61.2200642 121.9854405
  37.9296594  64.1486386 114.2615540  38.7217886  63.8077210 113.8461839
  38.1693244  64.2581361 115.1817693  41.7272391  64.7371681 120.3399818
  41.4362256  65.6417312 120.2246484  42.3629375  64.7788209 121.0543888
  42.6528597  62.1148530 116.9301178  43.2492170  61.8904552 116.2158141
  42.7103569  61.3733275 117.5326625  47.2696909  58.5723743 112.5726112
  48.0559998  58.1543167 112.2216529  47.5335613  59.4769836 112.7407760
  52.6705336  58.5098977 113.4759090  53.4030508  57.9398193 113.7096920
  51.9144691  58.1220577 113.9165596  44.2881455  60.9326218 110.6722433
  43.9239663  60.4056839 111.3835354  45.1448571  60.5424687 110.4988918
  50.1930756  52.2220551 117.9353699  49.8614081  53.0915962 117.7114914
  49.5976369  51.9056835 118.6147729  46.6862276  64.4233097 117.3349612
  46.3862999  65.3258136 117.2265419  46.3413335  64.1565280 118.1870765
  40.1374757  60.8746894 113.3686316  39.2125254  60.7423108 113.5764008
  40.3859170  61.6541113 113.8656258  50.0859419  56.9415637 115.0147049
  49.1776297  56.8731045 114.7205810  50.0347015  57.4187582 115.8428874
  37.4983568  60.5180167 114.2030105  37.6275949  60.7714646 115.1169517
  36.8181019  61.1107875 113.8834760  44.1600285  58.3605283 122.9581946
  43.3833619  58.9199203 122.9484811  44.7990848  58.8462066 123.4796816
  51.9521066  55.1432075 116.7924923  51.3095446  55.4364609 116.1464717
  51.4475994  55.0284996 117.5978120  49.6061229  58.8895249 107.4810782
  50.5179086  59.1222635 107.3058480  49.0970877  59.4732293 106.9185861
  42.4146657  61.1690736 122.5199913  43.1561342  61.7075780 122.2434737
  41.7083643  61.7957025 122.6771465  47.8901997  63.3119876 121.1172075
  48.2985353  62.8702287 120.3726707  47.1679259  62.7372504 121.3706268
  44.2433067  58.2492483 118.4905632  45.0894262  58.6731897 118.6340281
  44.1831705  57.5926107 119.1844195  52.0920044  64.8075505 112.2268727
  51.4071082  65.1874406 111.6765761  52.1763893  65.4170832 112.9600675
  47.3932513  55.9096852 120.1486805  47.1493444  56.6638912 119.6121081
  47.6692443  56.2882199 120.9834052  49.3470975  62.4535464 118.8264071
  49.5587871  63.0967224 118.1498452  49.3000724  61.6197780 118.3586001
  46.9497204  55.0653285 115.7300643  46.0881683  55.3634538 116.0217381
  46.9759639  55.2823683 114.7981676  40.6582855  63.1566957 115.0754212
  41.2284212  63.5854225 114.4371696  41.2490967  62.8749541 115.7738398
  42.7027660  59.7318627 108.9464014  43.4051703  60.1839671 109.4137940
  42.3708288  59.0902446 109.5743907  41.1508021  58.3230384 123.3215223
  40.5206682  59.0046665 123.5550620  41.0444109  58.2113466 122.3768361
  36.4452994  57.9902180 114.2481147  35.6552048  58.2459709 113.7721258
  36.9364241  58.8050518 114.3533188  50.4616803  65.3307419 116.9986428
  51.2834247  64.9287607 116.7169110  50.4579206  65.2275653 117.9502544
  38.3967739  58.3546759 111.2064624  37.5998902  58.4665454 111.7248120
  38.1693331  58.6933412 110.3405515  44.2273407  64.8791463 119.1547139
  44.2917839  65.3411870 119.9905311  43.5184331  64.2488828 119.2829449
  34.7290697  58.2432671 116.6796138  34.9798735  59.1279680 116.9453714
  35.2650245  58.0637272 115.9071230  58.5522796  61.6746168 113.3471400
  57.7986505  61.1053566 113.1915404  58.6870337  61.6408832 114.2942034
  37.3950822  64.0635008 109.5954044  37.9075342  64.8578258 109.7459609
  38.0473535  63.3661299 109.5287646  43.3456725  54.0409029 123.2760731
  44.0866438  54.6416182 123.1965193  43.5774648  53.2986667 122.7178773
  38.4898063  59.2265396 121.5538961  38.3751578  58.3250654 121.8546059
  37.6342581  59.4729093 121.2023777  45.5689901  67.1683137 123.1526461
  45.1253755  66.3819515 122.8347366  46.2307114  67.3562287 122.4870352
  40.3277022  68.6978938 117.6787140  40.8784447  68.5696002 116.9064134
  39.4888498  68.9973827 117.3282032  47.6671139  67.4485937 121.1807862
  47.6489614  68.2694818 120.6888132  48.5891059  67.3240012 121.4058004
  44.1244193  64.9630066 122.0231371  44.6572530  64.2018354 121.7930679
  43.5958274  64.6703718 122.7655525  47.2913888  50.0690132 117.5525013
  46.9478157  50.9591774 117.4764123  47.6592850  49.8791790 116.6894598
  35.3599738  62.3923662 110.3713615  36.1974960  62.8020671 110.1547322
  35.5378006  61.4523105 110.3413809  44.8411282  54.9048444 111.1182686
  43.9852878  54.5155294 110.9388325  45.2538233  54.9840405 110.2582472
  46.3710428  52.4394787 115.5174246  45.8675224  52.4024922 114.7042051
  46.6641035  53.3487530 115.5770902  42.6153314  52.5233517 114.5240428
  43.4806311  52.3276326 114.1646317  42.6830823  52.2943869 115.4509784
  52.2298445  62.8131098 107.9950621  51.4527888  62.4742257 107.5505783
  52.9089926  62.8183721 107.3205586  47.0450474  57.9325835 107.8857229
  46.7400609  58.2471984 108.7367372  47.9980916  58.0107255 107.9284562
  50.4689752  62.2865079 114.6517229  49.8113426  62.9764340 114.7397358
  51.2730151  62.6761511 114.9951215  40.2215633  54.7535725 111.8956794
  40.7959385  54.5310906 111.1629987  40.8086616  54.8224419 112.6485396
  49.2795210  60.6409452 112.7021171  49.7927092  61.2739444 113.2042881
  49.9296434  60.0410647 112.3364531  42.5238301  51.6276974 110.6231864
  41.8702713  51.3125991 109.9988479  42.4818775  51.0052714 111.3491687
  45.7576041  58.1158907 114.9479511  44.8398603  58.3373854 114.7901199
  46.1736185  58.1905218 114.0891219  46.5411089  59.5150323 110.0782192
  47.2882908  60.0271720 109.7689314  46.8102679  59.1934376 110.9386585
  48.9889926  56.5507439 112.0600981  48.2512683  56.0384825 112.3911224
  49.2416700  56.1107821 111.2484258  49.0901554  49.3283691 112.6542750
  49.3960430  48.4681055 112.3668665  49.8154158  49.9201311 112.4541744
  35.3825910  59.7314378 111.0424348  35.1850309  59.1383738 110.3175415
  34.8272574  59.4266588 111.7600287  43.3622633  59.6237484 113.1618941
  43.4171243  58.6711321 113.0861418  42.5513835  59.7796923 113.6460240
  41.3014993  58.2414544 110.9209320  40.4882859  58.5408715 111.3274512
  41.7973987  57.8470233 111.6383802  46.8989205  58.7056368 119.7524214
  47.2538593  58.9327842 120.6118680  47.5461336  59.0374745 119.1301469
  52.6286942  61.8274804 110.4573543  52.4904840  62.0176400 109.5294732
  52.2723161  62.5894187 110.9141594  40.7929068  55.8132899 116.5370555
  41.4328447  55.6721659 115.8393518  39.9606599  55.5267413 116.1609157
  52.6556321  63.8951331 115.4684815  53.0892828  63.8026620 116.3167869
  53.3687902  63.8708832 114.8304831  46.3884216  67.4953425 117.0017915
  46.4421239  68.0644362 117.7695631  45.5198998  67.6655310 116.6371952
  37.8772135  59.2578412 108.7265300  36.9469723  59.1962867 108.9435262
  37.9729607  58.7354364 107.9301942  37.7957684  55.7833224 111.3143542
  38.0564502  56.6978558 111.2052702  38.6174857  55.3157667 111.4640155
  39.2682610  57.1970982 118.4842366  39.9405663  56.9888344 117.8355015
  38.4412396  56.9993068 118.0447599  53.5171871  63.9375032 118.0017700
  53.7107761  64.8420842 118.2476975  53.4172489  63.4782451 118.8356285
  45.1708182  53.8232923 120.5008027  44.5236097  54.5222872 120.4072504
  45.9409197  54.2569066 120.8684276  48.5786980  64.0881775 123.5758581
  48.4272486  63.8592326 122.6588664  48.5691659  65.0452376 123.5889926
  45.3472316  61.6613687 118.5604847  46.2764376  61.8124847 118.3873814
  44.9263346  61.7497708 117.7053494  39.6710107  60.4713585 119.2444804
  39.5329905  59.7393823 119.8456343  40.5815030  60.3822485 118.9628991
  42.2992408  60.1833544 118.7328483  43.0092026  59.5426736 118.6915102
  42.2561716  60.4346439 119.6554664  50.2879186  67.1200897 121.6535062
  50.2291732  66.4360117 120.9865645  50.6898705  67.8619887 121.2015688
  41.0121342  57.1698762 120.5524123  40.4758699  56.7189500 121.2045719
  40.4238050  57.3044671 119.8094587  39.3069885  73.9362811 114.4468781
  39.5466483  74.5681335 115.1247800  38.4639082  73.5850851 114.7334141
  50.2896594  65.0840481 119.8849042  49.4023372  64.7466403 120.0075441
  50.8595145  64.3523512 120.1217808  31.9425741  61.4164573 113.2092094
  32.6296781  61.1026303 112.6213109  31.7873869  62.3205938 112.9359345
  36.7460463  56.3054770 117.6377117  36.6618652  55.6980439 116.9027527
  35.9243169  56.7963788 117.6386614  43.8197747  69.7441934 116.8510285
  43.7467918  70.5496905 117.3629590  43.3775140  69.9433899 116.0258307
  46.9184177  54.7908333 113.0047312  47.4152876  54.0378295 112.6848383
  46.1471158  54.8272650 112.4390522  54.7713934  60.4948699 114.6465604
  54.7603810  61.3773414 114.2759537  53.9031314  60.1420249 114.4520141
  46.2796431  69.6428768 119.0068444  46.9924403  70.2776232 118.9344345
  45.7886459  69.7392634 118.1908446  43.5019145  56.9325716 112.7318997
  43.1316933  56.3796756 113.4199902  43.9978238  56.3283850 112.1793997
  51.3886509  59.3897340 111.1135770  51.8546961  60.2225331 111.0396072
  51.8394009  58.9242321 111.8181028  41.3308344  67.3923211 119.8274015
  42.0317804  68.0259694 119.9803409  40.8603459  67.7337943 119.0669654
  49.3603172  51.7577927 115.1526671  48.4466251  51.9882153 115.3208878
  49.7896273  51.8416371 116.0040704  49.1309630  59.9467819 117.6526565
  48.4781080  60.1943726 116.9979018  49.5090010  59.1331957 117.3189042
  45.1797203  60.6887630 124.1392602  44.5037840  60.5881759 124.8094977
  46.0024837  60.5326843 124.6028599  36.9276062  66.9259566 116.7605117
  37.5129499  66.1803254 116.8933022  36.7300901  67.2363523 117.6441781
  31.5193717  59.4965166 115.4809561  31.5577816  58.9628757 116.2746679
  31.0134010  58.9700372 114.8620538  43.9219986  71.9954557 118.3750218
  44.4738294  72.1586179 119.1399303  44.2626179  72.5858995 117.7030243
  38.8984479  54.3429707 118.9772103  38.9625806  55.2044538 118.5649501
  38.8351599  53.7303708 118.2444461  48.7730860  66.8215815 124.2298873
  49.3170764  67.4345773 123.7353827  48.1917705  67.3795393 124.7465886
  35.1502294  58.2229268 108.5563492  35.4455735  57.3139947 108.5030546
  34.2490330  58.2017008 108.2344494  47.0588373  69.9436533 115.3613900
  46.9339513  69.1426272 114.8524846  47.7167464  70.4382726 114.8727870
  38.6796541  56.2985265 114.5391041  37.9583127  56.9121233 114.3998514
  39.4689797  56.8343030 114.4607687  49.1223282  67.7445553 116.9893450
  48.1753617  67.6250904 116.9171777  49.4706055  66.8568051 117.0719712
  41.4822855  53.6339692 120.8131692  42.0057257  53.8801988 121.5758002
  41.2635188  54.4659726 120.3934830  36.8790136  55.9043366 108.6802817
  36.5502842  55.0240745 108.4977923  37.2329507  55.8491035 109.5679206
  39.9931959  56.1916336 109.0478295  40.3328032  56.7202257 108.3256903
  40.4404080  56.5296742 109.8236861  49.7303837  68.3626828 114.2762675
  50.6550384  68.1569689 114.1387127  49.5619140  68.1143229 115.1852017
  42.6875400  54.5753387 118.4981363  42.3472220  53.7761200 118.9002043
  41.9814406  54.8755098 117.9258196  43.3391872  51.6602699 116.9508686
  44.1617941  51.1863177 116.8287576  43.5829935  52.4393183 117.4507372
  41.9800106  54.6890958 107.2471588  42.7008469  55.0672210 106.7435304
  41.3565410  55.4079834 107.3506566  46.1231229  55.3936107 108.1829920
  46.3394844  56.2760744 107.8818748  45.6425296  55.0022320 107.4535562
  40.8630451  58.3521820 114.7600665  40.7175031  58.6662123 115.6524946
  40.3855654  58.9706720 114.2071563  42.7226833  55.3424368 114.8081554
  42.7088402  54.4465461 114.4713852  43.4399262  55.3495031 115.4419840
  44.5752964  55.7761708 116.8534682  44.3170742  56.6978779 116.8519012
  44.0438005  55.3792142 117.5435146  35.3376113  60.8927164 117.6988326
  34.7929581  61.6686972 117.8308600  36.2155463  61.2397969 117.5407447
  42.1263729  54.2238748 110.0769124  42.2479641  53.2955394 110.2760012
  41.8365772  54.2377434 109.1647440  44.9954920  51.9093658 113.2135844
  45.0176617  51.9732992 112.2587824  45.4122979  51.0698167 113.4076350
  55.3738544  61.6448918 111.2515067  55.8169690  60.8956243 110.8534190
  54.4965054  61.6359054 110.8688799  36.1242135  60.0197060 120.5918483
  35.3823871  60.1679696 121.1783113  35.8034879  60.2805326 119.7285232
  52.4065749  65.6478965 108.2608996  52.9317073  65.9866238 107.5358316
  52.3188101  64.7125980 108.0772131  44.0685797  69.5613039 120.3898873
  44.3772924  69.3162185 121.2621572  44.8661279  69.7659677 119.9017743
  34.7707353  65.8248816 113.5817811  33.9339262  65.3970990 113.4001812
  34.7430999  66.0181259 114.5188602  52.0959655  66.2811869 123.5660194
  51.3055198  66.2636007 123.0264693  51.8593009  66.8200162 124.3209231
  52.2157530  63.1304335 120.8792922  52.2655535  62.9654342 121.8208445
  52.1071453  62.2631594 120.4890803  49.5061292  59.1135263 122.1952229
  50.4071155  58.9741728 121.9036227  49.5809267  59.2789718 123.1350407
  43.8404097  56.4902118 121.0405415  42.9707407  56.7835684 120.7688004
  44.0763578  57.0742563 121.7612679  53.7175726  65.5501277 121.1234944
  53.4260535  65.9131257 121.9598405  53.1047858  64.8368285 120.9448276
  54.9171409  63.1154156 113.6437514  55.7518300  63.5543960 113.8075075
  55.0530538  62.6392809 112.8245760  51.9662915  60.6733891 119.5915002
  52.4417036  60.8661537 118.7833853  51.0428480  60.7293077 119.3458386
  46.5443131  52.7081735 118.5570836  47.0625075  53.4442762 118.2317324
  46.1898264  53.0145728 119.3917595  38.1242069  57.5686416 106.6732242
  37.4311314  57.6430771 106.0172278  37.8793821  56.8046760 107.1953759
  46.7955725  49.1282017 114.0771732  47.0757479  48.4605206 114.7032159
  47.5806332  49.3211113 113.5646396  50.6664584  57.5499651 117.8243308
  51.6182007  57.6497749 117.8455532  50.4968034  56.7577920 118.3341392
  48.6878963  54.6355234 118.0102709  48.0928895  54.9160247 117.3149197
  48.4028660  55.1249135 118.7819450  50.4474470  67.9044032 103.7309289
  50.3688102  67.5703895 104.6245047  51.2684137  68.3965800 103.7300761
  53.1452662  60.7705771 116.9385607  53.1128982  59.8321772 117.1245291
  53.7553285  60.8489808 116.2051432  53.2947150  57.5616814 116.9843890
  52.7786199  56.7775271 116.7973819  54.1787099  57.2335531 117.1490410
  50.9557877  51.3057830 112.9439703  50.7582698  50.9972918 113.8283035
  51.5657582  52.0319469 113.0737633  58.9629211  61.8321778 116.0791644
  59.6932600  61.5707066 116.6399347  58.3536157  61.0950500 116.1193712
  57.0444508  59.9729640 116.6766095  56.3177672  59.8385605 116.0682587
  56.6291795  60.2806469 117.4822813  44.8674685  63.6919570 124.4413468
  45.7877694  63.8698169 124.6353515  44.8324268  62.7475615 124.2893168
  34.0856850  58.8858164 113.3666743  33.7659634  58.0323472 113.0741117
  33.5390278  59.1006742 114.1224710  37.8636757  61.6020605 117.0836249
  38.0822767  62.5337712 117.1024283  38.2762531  61.2428579 117.8691053
  44.7840975  52.1088690 109.0711938  43.9741704  51.7635775 109.4467184
  45.4725392  51.7996234 109.6599549  46.7131524  51.1866737 110.6936234
  47.2662562  51.6062190 111.3526258  46.9501610  50.2602485 110.7359190
  33.9545110  62.5061075 115.3359865  33.2608581  62.0915028 114.8229819
  34.7018101  62.5481612 114.7393283  50.0910331  53.2967262 110.2014899
  49.5109000  53.9552066 109.8192951  49.8246263  52.4744607 109.7902316
  48.5413897  52.6972320 112.4036219  49.0413675  52.8088854 111.5950538
  49.1849505  52.3933373 113.0437027  42.5995893  60.6050949 125.2904060
  42.1162975  61.4051309 125.4967949  42.6856832  60.6158894 124.3371504
  35.8681852  62.4379329 113.2125879  35.8452541  62.5367016 112.2607762
  36.1782489  63.2844480 113.5343046  38.5269230  64.4955484 117.3272494
  39.4812484  64.4639426 117.2602425  38.3281754  64.0346108 118.1422720
  39.1168612  63.0656600 119.8943291  39.9361501  63.5600679 119.9178129
  39.3905420  62.1488568 119.8660859  48.8735209  55.4567352 109.2571247
  47.9861064  55.7417003 109.0391442  49.2889198  55.2961116 108.4098524
  52.2249745  55.4813873 112.9725586  53.0010135  55.9710326 113.2450203
  51.4997879  55.9071928 113.4297456  54.6622303  56.1941493 114.0299527
  55.2566794  55.9537228 113.3192835  54.7348887  55.4748623 114.6573063
  36.8819459  70.0375103 114.3442692  36.7473927  69.2775504 113.7780690
  36.4651521  70.7616003 113.8771481  48.8476232  60.9721888 109.4721537
  48.7911434  61.4290440 108.6329170  49.4004575  60.2112573 109.2944380
  52.6581038  56.7611620 110.2971657  52.4017973  56.3608256 111.1279864
  52.0333906  57.4755414 110.1721796  56.9693376  59.5007693 112.8042948
  56.4092934  59.5700883 113.5774510  56.3636880  59.3248678 112.0842444
  49.9265120  65.6594556 105.4017727  50.7610723  65.2275755 105.2195202
  49.7649462  65.4876570 106.3294621  34.3703527  57.3994734 120.5935489
  35.0162390  56.8893688 121.0822714  34.1620678  58.1363416 121.1678914
  46.8956919  64.4675581 126.0927629  47.7648078  64.6416234 125.7314264
  46.4163670  65.2869998 125.9703358  42.8907137  51.6634779 106.3459385
  42.8785807  52.6076618 106.5027656  43.7830559  51.4804924 106.0518846
  41.0643099  71.5872682 117.7717063  41.9670346  71.6196293 118.0883558
  40.8380469  70.6573133 117.7863399  46.7059257  48.2577555 110.6005322
  45.9391652  47.7036042 110.7462004  47.1169962  48.3299424 111.4619473
  58.5549395  76.1764207 115.4972904  59.1927805  76.0570955 114.7936244
  58.4370237  77.1245051 115.5560856  55.3639101  76.1291635 115.4334428
  55.0257612  76.0132700 114.5454963  56.2328869  75.7282801 115.4135435
  51.2225917  77.9827112 111.4231319  50.6590782  77.8917049 110.6547607
  51.1078312  77.1627016 111.9033812  55.8458884  77.2826487 121.3920634
  55.8347525  76.8879285 120.5201138  56.0079523  76.5492560 121.9854405
  48.7690349  79.4778303 114.2615540  49.5611640  79.1369128 113.8461839
  49.0086999  79.5873278 115.1817693  56.8025475  81.6498080 106.7345784
  56.1513455  82.2352160 106.3479798  57.5969838  82.1804274 106.7940822
  50.7281102  78.7387217 107.1332919  51.5011978  78.1916204 106.9945794
  51.0806501  79.6031466 107.3447380  52.5666145  80.0663599 120.3399818
  52.2756011  80.9709230 120.2246484  53.2023129  80.1080127 121.0543888
  53.4922352  77.4440447 116.9301178  54.0885924  77.2196470 116.2158141
  53.5497323  76.7025193 117.5326625  53.0647380  74.8979883 104.7651369
  53.3172901  74.3761404 104.0034832  52.1271939  74.7346028 104.8678052
  58.1090663  73.9015661 112.5726112  58.8953752  73.4835084 112.2216529
  58.3729367  74.8061753 112.7407760  58.2800740  79.3388511 107.2714769
  57.6446573  79.4123138 107.9835673  57.9498147  79.9282110 106.5933848
  63.5099090  73.8390894 113.4759090  64.2424262  73.2690111 113.7096920
  62.7538446  73.4512495 113.9165596  52.7843669  76.8007989 106.9675744
  52.6679927  76.1252892 107.6356828  52.8945929  76.3140363 106.1507897
  55.1275210  76.2618136 110.6722433  54.7633417  75.7348757 111.3835354
  55.9842326  75.8716605 110.4988918  61.0324511  67.5512468 117.9353699
  60.7007835  68.4207879 117.7114914  60.4370124  67.2348752 118.6147729
  54.7680697  71.2908036 105.6683781  54.9355099  72.1588272 106.0354252
  54.5777866  71.4535317 104.7445071  57.5256030  79.7525014 117.3349612
  57.2256753  80.6550053 117.2265419  57.1807090  79.4857198 118.1870765
  50.9768512  76.2038811 113.3686316  50.0519008  76.0715025 113.5764008
  51.2252925  76.9833031 113.8656258  60.9253174  72.2707555 115.0147049
  60.0170051  72.2022963 114.7205810  60.8740770  72.7479500 115.8428874
  54.7469918  73.7465693 106.6530448  54.6269543  74.1922744 107.4915928
  54.0522506  74.0951011 106.0943986  48.3377323  75.8472085 114.2030105
  48.4669704  76.1006564 115.1169517  47.6574774  76.4399793 113.8834760
  52.5076810  86.5169335 110.3020579  52.4300840  87.4677160 110.3809060
  51.9038453  86.1715207 110.9595506  54.9994040  73.6897200 122.9581946
  54.2227374  74.2491120 122.9484811  55.6384603  74.1753983 123.4796816
  62.7914820  70.4723993 116.7924923  62.1489201  70.7656526 116.1464717
  62.2869749  70.3576913 117.5978120  60.4454984  74.2187166 107.4810782
  61.3572840  74.4514553 107.3058480  59.9364631  74.8024210 106.9185861
  53.2540412  76.4982654 122.5199913  53.9955096  77.0367698 122.2434737
  52.5477397  77.1248942 122.6771465  58.7295752  78.6411794 121.1172075
  59.1379108  78.1994205 120.3726707  58.0073013  78.0664422 121.3706268
  55.0826822  73.5784401 118.4905632  55.9288017  74.0023814 118.6340281
  55.0225459  72.9218025 119.1844195  59.0524566  79.2012985 114.8724364
  58.4233429  79.3658699 114.1700431  58.6650228  79.6154594 115.6435328
  62.9313798  80.1367423 112.2268727  62.2464836  80.5166324 111.6765761
  63.0157647  80.7462749 112.9600675  58.2326267  71.2388769 120.1486805
  57.9887199  71.9930830 119.6121081  58.5086197  71.6174117 120.9834052
  60.1864730  77.7827382 118.8264071  60.3981625  78.4259141 118.1498452
  60.1394478  76.9489698 118.3586001  57.7890959  70.3945202 115.7300643
  56.9275438  70.6926456 116.0217381  57.8153393  70.6115601 114.7981676
  54.6052528  78.9387393 112.1374449  55.0690874  79.2175096 111.3479071
  54.3409326  78.0370837 111.9547539  51.4976609  78.4858874 115.0754212
  52.0677966  78.9146143 114.4371696  52.0884721  78.2041459 115.7738398
  53.5421414  75.0610545 108.9464014  54.2445458  75.5131589 109.4137940
  53.2102043  74.4194364 109.5743907  51.9901776  73.6522302 123.3215223
  51.3600436  74.3338583 123.5550620  51.8837864  73.5405383 122.3768361
  61.3010558  80.6599337 116.9986428  62.1228001  80.2579524 116.7169110
  61.2972961  80.5567571 117.9502544  55.0667161  80.2083380 119.1547139
  55.1311594  80.6703788 119.9905311  54.3578085  79.5780745 119.2829449
  45.5684451  73.5724588 116.6796138  45.8192490  74.4571598 116.9453714
  46.1044000  73.3929190 115.9071230  69.3916551  77.0038085 113.3471400
  68.6380259  76.4345484 113.1915404  69.5264092  76.9700750 114.2942034
  54.7815179  81.8751488 109.0226119  54.6460854  82.7203023 109.4510967
  55.3224991  82.0770765 108.2592053  51.2682518  67.9543068 125.6840474
  50.8749464  67.4009266 126.3588119  52.0848659  68.2653646 126.0746992
  48.2344576  79.3926926 109.5954044  48.7469097  80.1870176 109.7459609
  48.8867289  78.6953216 109.5287646  50.0439461  82.5092682 111.6776797
  50.2206089  83.4310647 111.4897781  50.8396294  82.1951101 112.1071177
  54.1850479  69.3700947 123.2760731  54.9260193  69.9708100 123.1965193
  54.4168402  68.6278585 122.7178773  49.3291817  74.5557314 121.5538961
  49.2145333  73.6542571 121.8546059  48.4736335  74.8021011 121.2023777
  56.4083655  82.4975054 123.1526461  55.9647509  81.7111433 122.8347366
  57.0700869  82.6854205 122.4870352  51.1670776  84.0270856 117.6787140
  51.7178201  83.8987919 116.9064134  50.3282252  84.3265745 117.3282032
  58.5064893  82.7777854 121.1807862  58.4883369  83.5986735 120.6888132
  59.4284813  82.6531929 121.4058004  54.9637947  80.2921984 122.0231371
  55.4966284  79.5310272 121.7930679  54.4352029  79.9995636 122.7655525
  58.1307642  65.3982050 117.5525013  57.7871912  66.2883691 117.4764123
  58.4986605  65.2083707 116.6894598  58.0957925  75.3890661 106.0597448
  57.5804549  76.1595265 106.2985835  57.8235234  74.7155797 106.6830509
  55.6805036  70.2340362 111.1182686  54.8246632  69.8447212 110.9388325
  56.0931988  70.3132322 110.2582472  57.2104183  67.7686705 115.5174246
  56.7068978  67.7316840 114.7042051  57.5034790  68.6779448 115.5770902
  53.4547069  67.8525435 114.5240428  54.3200065  67.6568243 114.1646317
  53.5224578  67.6235786 115.4509784  63.0692199  78.1423015 107.9950621
  62.2921642  77.8034175 107.5505783  63.7483680  78.1475639 107.3205586
  57.8844228  73.2617753 107.8857229  57.5794364  73.5763902 108.7367372
  58.8374670  73.3399173 107.9284562  56.3290660  79.4207976 109.5350183
  55.8012022  78.6860736 109.2223420  55.8278163  80.1982653 109.2890151
  61.3083506  77.6156997 114.6517229  60.6507181  78.3056258 114.7397358
  62.1123905  78.0053429 114.9951215  51.0609388  70.0827642 111.8956794
  51.6353140  69.8602824 111.1629987  51.6480370  70.1516337 112.6485396
  60.1188965  75.9701369 112.7021171  60.6320847  76.6031361 113.2042881
  60.7690189  75.3702565 112.3364531  51.3878975  72.1132103 105.9152680
  50.5516287  72.4506790 106.2361954  51.2483744  71.9781083 104.9779817
  53.3632055  66.9568891 110.6231864  52.7096468  66.6417909 109.9988479
  53.3212530  66.3344632 111.3491687  54.4743260  77.2388186 102.5385156
  53.5670322  77.0077440 102.7376305  54.9714292  76.4425806 102.7259137
  57.3811339  85.9485694 105.4581842  56.7073038  86.2517390 106.0666800
  57.7677161  86.7514774 105.1087299  56.5969796  73.4450825 114.9479511
  55.6792357  73.6665772 114.7901199  57.0129939  73.5197135 114.0891219
  57.3804844  74.8442241 110.0782192  58.1276663  75.3563638 109.7689314
  57.6496433  74.5226293 110.9386585  55.6531494  77.3400781 107.0609146
  54.7442713  77.0559814 107.1581616  55.6826578  77.7599860 106.2012453
  60.8850761  80.9507371 110.8300314  60.4313088  80.1098281 110.8865504
  60.2544728  81.5868769 111.1675094  59.8283681  71.8799357 112.0600981
  59.0906438  71.3676743 112.3911224  60.0810454  71.4399738 111.2484258
  59.3283700  82.7883867 111.7650132  59.6206675  83.3488925 111.0462497
  59.8382321  83.0812428 112.5203291  59.9295308  64.6575609 112.6542750
  60.2354185  63.7972972 112.3668665  60.6547913  65.2493229 112.4541744
  54.2016388  74.9529402 113.1618941  54.2564998  74.0003238 113.0861418
  53.3907590  75.1088841 113.6460240  55.3507582  78.8809525 104.3997225
  54.9127011  78.1645384 103.9402862  56.0918022  79.1085640 103.8382316
  52.1408748  73.5706462 110.9209320  51.3276613  73.8700632 111.3274512
  52.6367742  73.1762150 111.6383802  54.2917326  83.5664219 112.8543585
  54.2493504  83.7925065 111.9252117  55.2080024  83.3327593 113.0029386
  57.7382959  74.0348286 119.7524214  58.0932347  74.2619759 120.6118680
  58.3855091  74.3666663 119.1301469  63.4680696  77.1566722 110.4573543
  63.3298595  77.3468318 109.5294732  63.1116915  77.9186105 110.9141594
  51.6322822  71.1424817 116.5370555  52.2722202  71.0013576 115.8393518
  50.8000353  70.8559331 116.1609157  63.4950076  79.2243249 115.4684815
  63.9286583  79.1318538 116.3167869  64.2081657  79.2000749 114.8304831
  52.4083126  80.4427248 112.6505548  53.2023725  79.9477568 112.4488123
  51.6974819  79.9145111 112.2873253  57.2277971  82.8245343 117.0017915
  57.2814993  83.3936279 117.7695631  56.3592752  82.9947228 116.6371952
  50.1076364  72.5262899 118.4842366  50.7799418  72.3180261 117.8355015
  49.2806151  72.3284985 118.0447599  64.3565625  79.2666950 118.0017700
  64.5501516  80.1712760 118.2476975  64.2566244  78.8074369 118.8356285
  56.0101936  69.1524840 120.5008027  55.3629851  69.8514790 120.4072504
  56.7802952  69.5860984 120.8684276  59.4180734  79.4173692 123.5758581
  59.2666241  79.1884244 122.6588664  59.4085414  80.3744294 123.5889926
  56.1866071  76.9905605 118.5604847  57.1158131  77.1416765 118.3873814
  55.7657101  77.0789626 117.7053494  54.9854402  81.0156270 116.3303385
  54.8465488  80.6475054 117.2029323  54.1968999  81.5303909 116.1587342
  55.5802554  86.1165366 107.6728921  55.7554310  85.6453409 108.4874544
  54.8935342  86.7431132 107.9010182  56.5359618  80.3937872 113.7192222
  56.2009450  80.3538642 114.6149872  56.0363563  79.7282588 113.2462633
  50.5103861  75.8005502 119.2444804  50.3723659  75.0685741 119.8456343
  51.4208785  75.7114402 118.9628991  59.4718809  77.7393907 103.9929282
  58.8547980  77.0140735 103.8962335  59.0035298  78.5003267 103.6496356
  53.1386162  75.5125462 118.7328483  53.8485781  74.8718654 118.6915102
  53.0955470  75.7638356 119.6554664  61.1272941  82.4492815 121.6535062
  61.0685487  81.7652035 120.9865645  61.5292459  83.1911805 121.2015688
  51.8515096  72.4990680 120.5524123  51.3152453  72.0481418 121.2045719
  51.2631805  72.6336588 119.8094587  50.1463640  89.2654729 114.4468781
  50.3860238  89.8973253 115.1247800  49.3032836  88.9142769 114.7334141
  51.2617355  71.9579331 103.1150586  50.3846821  71.8368132 102.7512833
  51.7375108  71.1665409 102.8629475  61.1290348  80.4132399 119.8849042
  60.2417127  80.0758321 120.0075441  61.6988899  79.6815430 120.1217808
  42.7819495  76.7456491 113.2092094  43.4690535  76.4318221 112.6213109
  42.6267624  77.6497855 112.9359345  47.5854217  71.6346687 117.6377117
  47.5012406  71.0272357 116.9027527  46.7636924  72.1255706 117.6386614
  54.6591501  85.0733851 116.8510285  54.5861673  85.8788823 117.3629590
  54.2168895  85.2725817 116.0258307  54.4481281  84.3105621 110.3613107
  53.6648803  84.8527301 110.4551331  55.1474026  84.8279601 110.7607348
  57.7577931  70.1200251 113.0047312  58.2546631  69.3670213 112.6848383
  56.9864913  70.1564567 112.4390522  65.6107689  75.8240616 114.6465604
  65.5997565  76.7065332 114.2759537  64.7425068  75.4712167 114.4520141
  57.1190185  84.9720685 119.0068444  57.8318157  85.6068150 118.9344345
  56.6280214  85.0684551 118.1908446  58.8407712  78.8771938 110.5785736
  57.9063991  78.9973400 110.4090440  59.0184380  77.9744405 110.3145746
  54.3412900  72.2617634 112.7318997  53.9710687  71.7088674 113.4199902
  54.8371992  71.6575767 112.1793997  62.2280263  74.7189257 111.1135770
  62.6940715  75.5517249 111.0396072  62.6787764  74.2534239 111.8181028
  52.1702099  82.7215129 119.8274015  52.8711558  83.3551612 119.9803409
  51.6997214  83.0629860 119.0669654  60.2956494  81.0633079 108.1121922
  60.5716338  80.9489673 109.0215796  59.4260993  80.6650563 108.0734095
  60.1996926  67.0869844 115.1526671  59.2860006  67.3174071 115.3208878
  60.6290027  67.1708288 116.0040704  59.9703384  75.2759736 117.6526565
  59.3174835  75.5235644 116.9979018  60.3483764  74.4623874 117.3189042
  56.9310558  85.3119429 111.7554735  57.1132953  84.4941085 112.2182488
  57.7543544  85.5287122 111.3179625  57.2652724  84.2387615 109.0169784
  57.7940490  83.7280069 108.4039946  57.5280943  83.9230145 109.8815317
  56.0190958  76.0179547 124.1392602  55.3431595  75.9173677 124.8094977
  56.8418591  75.8618761 124.6028599  47.7669817  82.2551484 116.7605117
  48.3523253  81.5095172 116.8933022  47.5694655  82.5655441 117.6441781
  50.6208472  85.2902731 111.7767560  49.9518847  85.7748859 111.2931600
  50.4821342  85.5371952 112.6910938  42.3587471  74.8257084 115.4809561
  42.3971571  74.2920675 116.2746679  41.8527764  74.2992290 114.8620538
  54.7613740  87.3246475 118.3750218  55.3132048  87.4878096 119.1399303
  55.1019934  87.9150913 117.7030243  49.7378234  69.6721625 118.9772103
  49.8019560  70.5336455 118.5649501  49.6745354  69.0595626 118.2444461
  49.2130506  71.7444757 122.6245137  49.8402545  71.3621834 123.2382662
  48.3558425  71.5258959 122.9900830  57.8982128  85.2728450 115.3613900
  57.7733267  84.4718190 114.8524846  58.5561219  85.7674644 114.8727870
  49.5190296  71.6277183 114.5391041  48.7976882  72.2413150 114.3998514
  50.3083552  72.1634948 114.4607687  59.9617036  83.0737470 116.9893450
  59.0147372  82.9542822 116.9171777  60.3099809  82.1859968 117.0719712
  52.3216609  68.9631609 120.8131692  52.8451011  69.2093906 121.5758002
  52.1028943  69.7951644 120.3934830  56.9663469  82.8690187 113.1897803
  56.8188432  81.9406894 113.3705373  57.7916963  82.8910277 112.7054878
  60.5697591  83.6918745 114.2762675  61.4944139  83.4861607 114.1387127
  60.4012895  83.4435146 115.1852017  53.5269154  69.9045304 118.4981363
  53.1865975  69.1053117 118.9002043  52.8208161  70.2047015 117.9258196
  54.1785626  66.9894617 116.9508686  55.0011696  66.5155095 116.8287576
  54.4223690  67.7685101 117.4507372  52.8193861  70.0182875 107.2471588
  53.5402223  70.3964128 106.7435304  52.1959165  70.7371752 107.3506566
  56.9624984  70.7228024 108.1829920  57.1788598  71.6052662 107.8818748
  56.4819051  70.3314238 107.4535562  51.7024205  73.6813737 114.7600665
  51.5568786  73.9954040 115.6524946  51.2249409  74.2998638 114.2071563
  53.5620588  70.6716285 114.8081554  53.5482157  69.7757379 114.4713852
  54.2793016  70.6786949 115.4419840  55.4146719  71.1053626 116.8534682
  55.1564496  72.0270696 116.8519012  54.8831759  70.7084060 117.5435146
  60.3592907  84.2104413 109.6324767  60.5329785  83.6450835 108.8798619
  60.8521799  85.0105308 109.4504257  46.1769867  76.2219082 117.6988326
  45.6323335  76.9978890 117.8308600  47.0549217  76.5689886 117.5407447
  52.9657484  69.5530666 110.0769124  53.0873395  68.6247312 110.2760012
  52.6759526  69.5669352 109.1647440  55.8348674  67.2385576 113.2135844
  55.8570371  67.3024909 112.2587824  56.2516733  66.3990085 113.4076350
  66.2132299  76.9740836 111.2515067  66.6563445  76.2248161 110.8534190
  65.3358809  76.9650972 110.8688799  61.3468080  83.5271177 106.7321665
  62.0418985  84.1477870 106.9508980  61.6891230  82.6766528 107.0074043
  46.9635889  75.3488978 120.5918483  46.2217625  75.4971613 121.1783113
  46.6428633  75.6097244 119.7285232  63.2459503  80.9770883 108.2608996
  63.7710827  81.3158155 107.5358316  63.1581856  80.0417898 108.0772131
  54.9079552  84.8904956 120.3898873  55.2166678  84.6454103 121.2621572
  55.7055034  85.0951595 119.9017743  54.9300164  87.0442866 112.6204249
  54.4905154  86.5519245 113.3137106  55.6808281  86.5015834 112.3796324
  47.4092503  83.2354407 112.6228877  48.2350523  82.9358179 112.2427521
  47.0586555  82.4662029 113.0718666  52.3774036  82.5880875 114.6926551
  51.7554045  81.9251580 114.3928779  53.0478903  82.6142007 114.0100199
  45.6101108  81.1540733 113.5817811  44.7733016  80.7262908 113.4001812
  45.5824753  81.3473177 114.5188602  52.4498563  71.0662663 124.2859057
  52.4986719  71.9424786 123.9036826  52.9921078  70.5240056 123.7130700
  63.0551284  78.4596253 120.8792922  63.1049289  78.2946260 121.8208445
  62.9465207  77.5923512 120.4890803  51.9387543  81.1384798 108.1685011
  52.0875663  81.8220263 107.5151684  52.7453986  81.1189888 108.6834467
  60.3455047  74.4427181 122.1952229  61.2464909  74.3033646 121.9036227
  60.4203021  74.6081636 123.1350407  54.6797852  71.8194035 121.0405415
  53.8101161  72.1127602 120.7688004  54.9157332  72.4034480 121.7612679
  64.5569481  80.8793194 121.1234944  64.2654289  81.2423175 121.9598405
  63.9441612  80.1660202 120.9448276  65.7565163  78.4446074 113.6437514
  66.5912055  78.8835878 113.8075075  65.8924292  77.9684727 112.8245760
  62.8056669  76.0025809 119.5915002  63.2810791  76.1953455 118.7833853
  61.8822235  76.0584995 119.3458386  49.6940176  77.1649976 109.1746080
  49.4486218  76.2612306 109.3726290  49.8636090  77.1667126 108.2325558
  57.3836886  68.0373652 118.5570836  57.9018830  68.7734679 118.2317324
  57.0292018  68.3437646 119.3917595  57.6349480  64.4573935 114.0771732
  57.9151234  63.7897124 114.7032159  58.4200087  64.6503031 113.5646396
  55.4382948  83.6332929 105.6396759  54.8656915  84.2523116 105.1867231
  56.0115742  84.1832290 106.1736681  61.5058338  72.8791569 117.8243308
  62.4575761  72.9789667 117.8455532  61.3361789  72.0869837 118.3341392
  59.5272718  69.9647152 118.0102709  58.9322650  70.2452165 117.3149197
  59.2422414  70.4541053 118.7819450  58.6580208  83.9170079 106.7705341
  59.5910881  83.8515641 106.9738217  58.5703421  84.7526346 106.3119874
  61.2868225  83.2335949 103.7309289  61.2081856  82.8995813 104.6245047
  62.1077892  83.7257717 103.7300761  63.9846416  76.0997689 116.9385607
  63.9522736  75.1613689 117.1245291  64.5947040  76.1781725 116.2051432
  55.8229747  74.9693742 102.9812811  56.7688852  74.8399950 103.0501229
  55.4443992  74.2308403 103.4582239  64.1340904  72.8908732 116.9843890
  63.6179953  72.1067189 116.7973819  65.0180853  72.5627449 117.1490410
  61.7951631  66.6349748 112.9439703  61.5976453  66.3264836 113.8283035
  62.4051337  67.3611386 113.0737633  69.8022966  77.1613695 116.0791644
  70.5326354  76.8998984 116.6399347  69.1929911  76.4242417 116.1193712
  67.8838263  75.3021558 116.6766095  67.1571427  75.1677523 116.0682587
  67.4685550  75.6098387 117.4822813  55.7068439  79.0211488 124.4413468
  56.6271449  79.1990087 124.6353515  55.6718022  78.0767533 124.2893168
  54.0072664  72.8943718 102.9167697  53.1004119  72.5976831 102.9930410
  54.2848645  72.5973536 102.0501983  48.7030512  76.9312522 117.0836249
  48.9216522  77.8629630 117.1024283  49.1156286  76.5720497 117.8691053
  55.6234730  67.4380608 109.0711938  54.8135458  67.0927693 109.4467184
  56.3119147  67.1288151 109.6599549  57.5525278  66.5158654 110.6936234
  58.1056317  66.9354108 111.3526258  57.7895364  65.5894403 110.7359190
  53.5758377  72.5045728 126.4738998  53.4755104  73.4540085 126.4051089
  53.3579919  72.1763967 125.6015068  52.7771449  69.7530653 103.0579676
  53.6390613  70.0785551 103.3175493  52.9621793  68.9662149 102.5452742
  44.7938864  77.8352993 115.3359865  44.1002336  77.4206946 114.8229819
  45.5411855  77.8773529 114.7393283  60.9304085  68.6259180 110.2014899
  60.3502754  69.2843984 109.8192951  60.6640018  67.8036524 109.7902316
  59.3807651  68.0264237 112.4036219  59.8807430  68.1380772 111.5950538
  60.0243259  67.7225290 113.0437027  53.4389647  75.9342867 125.2904060
  52.9556729  76.7343227 125.4967949  53.5250586  75.9450812 124.3371504
  46.7075607  77.7671247 113.2125879  46.6846295  77.8658934 112.2607762
  47.0176243  78.6136397 113.5343046  49.3662985  79.8247402 117.3272494
  50.3206238  79.7931344 117.2602425  49.1675508  79.3638025 118.1422720
  49.9562367  78.3948518 119.8943291  50.7755256  78.8892596 119.9178129
  50.2299175  77.4780486 119.8660859  59.7128963  70.7859270 109.2571247
  58.8254818  71.0708921 109.0391442  60.1282952  70.6253033 108.4098524
  63.0643499  70.8105791 112.9725586  63.8403889  71.3002243 113.2450203
  62.3391633  71.2363845 113.4297456  65.5016058  71.5233410 114.0299527
  66.0960549  71.2829146 113.3192835  65.5742642  70.8040541 114.6573063
  47.7213214  85.3667021 114.3442692  47.5867682  84.6067422 113.7780690
  47.3045276  86.0907921 113.8771481  58.8572177  80.5503945 103.3519267
  59.5608027  80.7553947 103.9676923  58.1334825  81.1180707 103.6168350
  59.6869987  76.3013806 109.4721537  59.6305188  76.7582357 108.6329170
  60.2398329  75.5404491 109.2944380  63.4974793  72.0903538 110.2971657
  63.2411727  71.6900173 111.1279864  62.8727661  72.8047332 110.1721796
  67.8087131  74.8299611 112.8042948  67.2486689  74.8992800 113.5774510
  67.2030634  74.6540596 112.0842444  50.8782339  86.2636338 114.5561134
  50.7614724  87.2081771 114.4539825  50.0574786  85.9609900 114.9446934
  60.7658874  80.9886474 105.4017727  61.6004478  80.5567672 105.2195202
  60.6043217  80.8168488 106.3294621  60.4204766  77.4918587 106.7674066
  60.3653570  77.3262859 105.8262510  59.7950821  78.1994620 106.9236256
  45.2097281  72.7286652 120.5935489  45.8556145  72.2185606 121.0822714
  45.0014432  73.4655333 121.1678914  53.7300892  66.9926696 106.3459385
  53.7179561  67.9368536 106.5027656  54.6224314  66.8096842 106.0518846
  51.9036854  86.9164600 117.7717063  52.8064100  86.9488210 118.0883558
  51.6774224  85.9865051 117.7863399  53.6590456  85.6695587 114.4327141
  52.7086087  85.6697448 114.3191514  53.9622942  84.9228321 113.9163176
  57.5453011  63.5869473 110.6005322  56.7785407  63.0327960 110.7462004
  57.9563716  63.6591342 111.4619473  49.5494772  69.8754269 124.6910503
  50.4126234  69.5191073 124.9013827  48.9760183  69.5368163 125.3785907
  62.0619671  93.3119030 111.4231319  61.4984536  93.2208966 110.6547607
  61.9472066  92.4918934 111.9033812  59.6084103  94.8070221 114.2615540
  60.4005395  94.4661046 113.8461839  59.8480753  94.9165196 115.1817693
  67.6419230  96.9789997 106.7345784  66.9907210  97.5644078 106.3479798
  68.4363593  97.5096192 106.7940822  61.5674857  94.0679134 107.1332919
  62.3405733  93.5208121 106.9945794  61.9200256  94.9323384 107.3447380
  63.9041135  90.2271800 104.7651369  64.1566655  89.7053322 104.0034832
  62.9665694  90.0637946 104.8678052  68.9484418  89.2307579 112.5726112
  69.7347507  88.8127002 112.2216529  69.2123122  90.1353671 112.7407760
  69.1194495  94.6680429 107.2714769  68.4840328  94.7415056 107.9835673
  68.7891901  95.2574028 106.5933848  63.6237423  92.1299906 106.9675744
  63.5073682  91.4544810 107.6356828  63.7339683  91.6432280 106.1507897
  65.9668964  91.5910054 110.6722433  65.6027172  91.0640675 111.3835354
  66.8236080  91.2008523 110.4988918  65.6074451  86.6199953 105.6683781
  65.7748854  87.4880190 106.0354252  65.4171620  86.7827235 104.7445071
  61.8162266  91.5330729 113.3686316  60.8912763  91.4006943 113.5764008
  62.0646679  92.3124948 113.8656258  65.5863672  89.0757611 106.6530448
  65.4663297  89.5214662 107.4915928  64.8916261  89.4242928 106.0943986
  59.1771077  91.1764003 114.2030105  59.3063458  91.4298481 115.1169517
  58.4968528  91.7691711 113.8834760  71.2848738  89.5479084 107.4810782
  72.1966595  89.7806471 107.3058480  70.7758386  90.1316128 106.9185861
  68.6284713  85.7237120 115.7300643  67.7669192  86.0218373 116.0217381
  68.6547148  85.9407519 114.7981676  65.4446283  94.2679310 112.1374449
  65.9084628  94.5467013 111.3479071  65.1803081  93.3662755 111.9547539
  64.3815169  90.3902463 108.9464014  65.0839212  90.8423506 109.4137940
  64.0495797  89.7486282 109.5743907  58.1240503  88.6486015 114.2481147
  57.3339557  88.9043544 113.7721258  58.6151750  89.4634353 114.3533188
  60.0755248  89.0130595 111.2064624  59.2786411  89.1249289 111.7248120
  59.8480840  89.3517247 110.3405515  56.4078206  88.9016506 116.6796138
  56.6586244  89.7863516 116.9453714  56.9437754  88.7221107 115.9071230
  65.6208933  97.2043405 109.0226119  65.4854608  98.0494941 109.4510967
  66.1618746  97.4062683 108.2592053  59.0738331  94.7218843 109.5954044
  59.5862851  95.5162094 109.7459609  59.7261044  94.0245134 109.5287646
  60.8833215  97.8384600 111.6776797  61.0599844  98.7602564 111.4897781
  61.6790049  97.5243019 112.1071177  68.9701397  80.7273967 117.5525013
  68.6265666  81.6175609 117.4764123  69.3380359  80.5375625 116.6894598
  57.0387247  93.0507498 110.3713615  57.8762469  93.4604506 110.1547322
  57.2165515  92.1106940 110.3413809  68.9351680  90.7182578 106.0597448
  68.4198303  91.4887183 106.2985835  68.6628988  90.0447715 106.6830509
  66.5198791  85.5632279 111.1182686  65.6640387  85.1739130 110.9388325
  66.9325742  85.6424240 110.2582472  68.0497937  83.0978622 115.5174246
  67.5462733  83.0608758 114.7042051  68.3428544  84.0071365 115.5770902
  64.2940823  83.1817352 114.5240428  65.1593820  82.9860161 114.1646317
  64.3618332  82.9527704 115.4509784  73.9085954  93.4714933 107.9950621
  73.1315396  93.1326093 107.5505783  74.5877435  93.4767556 107.3205586
  68.7237983  88.5909671 107.8857229  68.4188118  88.9055820 108.7367372
  69.6768425  88.6691090 107.9284562  67.1684415  94.7499894 109.5350183
  66.6405776  94.0152653 109.2223420  66.6671917  95.5274570 109.2890151
  61.9003142  85.4119560 111.8956794  62.4746894  85.1894742 111.1629987
  62.4874125  85.4808255 112.6485396  62.2272729  87.4424021 105.9152680
  61.3910042  87.7798708 106.2361954  62.0877499  87.3073001 104.9779817
  64.2025810  82.2860809 110.6231864  63.5490222  81.9709826 109.9988479
  64.1606284  81.6636549 111.3491687  65.3137015  92.5680104 102.5385156
  64.4064077  92.3369358 102.7376305  65.8108047  91.7717723 102.7259137
  68.2205094 101.2777611 105.4581842  67.5466792 101.5809308 106.0666800
  68.6070916 102.0806692 105.1087299  67.4363550  88.7742743 114.9479511
  66.5186112  88.9957690 114.7901199  67.8523694  88.8489053 114.0891219
  68.2198598  90.1734158 110.0782192  68.9670417  90.6855555 109.7689314
  68.4890188  89.8518211 110.9386585  66.4925248  92.6692699 107.0609146
  65.5836467  92.3851732 107.1581616  66.5220332  93.0891778 106.2012453
  70.6677435  87.2091275 112.0600981  69.9300192  86.6968661 112.3911224
  70.9204209  86.7691656 111.2484258  70.7689063  79.9867527 112.6542750
  71.0747939  79.1264890 112.3668665  71.4941667  80.5785147 112.4541744
  57.0613419  90.3898213 111.0424348  56.8637818  89.7967574 110.3175415
  56.5060083  90.0850423 111.7600287  65.0410142  90.2821320 113.1618941
  65.0958752  89.3295156 113.0861418  64.2301344  90.4380759 113.6460240
  66.1901336  94.2101443 104.3997225  65.7520766  93.4937302 103.9402862
  66.9311777  94.4377557 103.8382316  62.9802502  88.8998379 110.9209320
  62.1670368  89.1992550 111.3274512  63.4761496  88.5054068 111.6383802
  74.3074451  92.4858640 110.4573543  74.1692349  92.6760236 109.5294732
  73.9510670  93.2478023 110.9141594  62.4716577  86.4716735 116.5370555
  63.1115956  86.3305494 115.8393518  61.6394107  86.1851248 116.1609157
  63.2476881  95.7719165 112.6505548  64.0417479  95.2769485 112.4488123
  62.5368573  95.2437028 112.2873253  59.5559644  89.9162247 108.7265300
  58.6257232  89.8546702 108.9435262  59.6517116  89.3938200 107.9301942
  59.4745193  86.4417060 111.3143542  59.7352011  87.3562393 111.2052702
  60.2962366  85.9741502 111.4640155  60.9470119  87.8554817 118.4842366
  61.6193172  87.6472179 117.8355015  60.1199905  87.6576903 118.0447599
  66.4196309 101.4457284 107.6728921  66.5948065 100.9745327 108.4874544
  65.7329097 102.0723050 107.9010182  70.3112564  93.0685824 103.9929282
  69.6941734  92.3432652 103.8962335  69.8429052  93.8295185 103.6496356
  62.1011110  87.2871249 103.1150586  61.2240576  87.1660049 102.7512833
  62.5768863  86.4957327 102.8629475  53.6213250  92.0748408 113.2092094
  54.3084290  91.7610138 112.6213109  53.4661378  92.9789773 112.9359345
  58.4247972  86.9638605 117.6377117  58.3406161  86.3564274 116.9027527
  57.6030678  87.4547623 117.6386614  68.5971686  85.4492168 113.0047312
  69.0940385  84.6962131 112.6848383  67.8258667  85.4856485 112.4390522
  69.6801466  94.2063856 110.5785736  68.7457745  94.3265318 110.4090440
  69.8578135  93.3036322 110.3145746  65.1806654  87.5909551 112.7318997
  64.8104442  87.0380592 113.4199902  65.6765747  86.9867685 112.1793997
  73.0674018  90.0481175 111.1135770  73.5334470  90.8809167 111.0396072
  73.5181518  89.5826156 111.8181028  71.1350249  96.3924996 108.1121922
  71.4110093  96.2781591 109.0215796  70.2654748  95.9942481 108.0734095
  71.0390680  82.4161762 115.1526671  70.1253760  82.6465989 115.3208878
  71.4683782  82.5000206 116.0040704  68.1046478  99.5679532 109.0169784
  68.6334245  99.0571987 108.4039946  68.3674698  99.2522062 109.8815317
  53.1981226  90.1549002 115.4809561  53.2365325  89.6212592 116.2746679
  52.6921519  89.6284207 114.8620538  60.5771988  85.0013542 118.9772103
  60.6413315  85.8628373 118.5649501  60.5139108  84.3887544 118.2444461
  56.8289803  88.8813104 108.5563492  57.1243244  87.9723782 108.5030546
  55.9277839  88.8600843 108.2344494  60.3584050  86.9569100 114.5391041
  59.6370636  87.5705068 114.3998514  61.1477306  87.4926865 114.4607687
  58.5577645  86.5627201 108.6802817  58.2290351  85.6824580 108.4977923
  58.9117016  86.5074870 109.5679206  61.6719468  86.8500171 109.0478295
  62.0115541  87.3786093 108.3256903  62.1191589  87.1880577 109.8236861
  64.3662909  85.2337222 118.4981363  64.0259729  84.4345035 118.9002043
  63.6601915  85.5338933 117.9258196  65.0179381  82.3186534 116.9508686
  65.8405450  81.8447013 116.8287576  65.2617444  83.0977018 117.4507372
  63.6587615  85.3474793 107.2471588  64.3795978  85.7256046 106.7435304
  63.0352919  86.0663670 107.3506566  67.8018738  86.0519942 108.1829920
  68.0182353  86.9344580 107.8818748  67.3212805  85.6606155 107.4535562
  62.5417960  89.0105655 114.7600665  62.3962540  89.3245958 115.6524946
  62.0643163  89.6290555 114.2071563  64.4014342  86.0008203 114.8081554
  64.3875911  85.1049296 114.4713852  65.1186771  86.0078867 115.4419840
  66.2540473  86.4345543 116.8534682  65.9958251  87.3562614 116.8519012
  65.7225514  86.0375978 117.5435146  57.0163622  91.5510999 117.6988326
  56.4717090  92.3270807 117.8308600  57.8942972  91.8981804 117.5407447
  63.8051238  84.8822583 110.0769124  63.9267150  83.9539230 110.2760012
  63.5153281  84.8961269 109.1647440  66.6742429  82.5677494 113.2135844
  66.6964126  82.6316827 112.2587824  67.0910488  81.7282002 113.4076350
  72.1861834  98.8563095 106.7321665  72.8812739  99.4769787 106.9508980
  72.5284985  98.0058446 107.0074043  74.0853258  96.3062800 108.2608996
  74.6104582  96.6450073 107.5358316  73.9975610  95.3709816 108.0772131
  58.2486257  98.5646324 112.6228877  59.0744277  98.2650096 112.2427521
  57.8980309  97.7953947 113.0718666  56.4494862  96.4832651 113.5817811
  55.6126771  96.0554825 113.4001812  56.4218508  96.6765094 114.5188602
  62.7781297  96.4676716 108.1685011  62.9269418  97.1512180 107.5151684
  63.5847741  96.4481806 108.6834467  60.5333930  92.4941894 109.1746080
  60.2879972  91.5904224 109.3726290  60.7029845  92.4959044 108.2325558
  59.8029578  88.2270251 106.6732242  59.1098823  88.3014606 106.0172278
  59.5581330  87.4630595 107.1953759  68.4743234  79.7865853 114.0771732
  68.7544988  79.1189042 114.7032159  69.2593841  79.9794948 113.5646396
  66.2776703  98.9624846 105.6396759  65.7050670  99.5815034 105.1867231
  66.8509497  99.5124208 106.1736681  69.4973963  99.2461997 106.7705341
  70.4304636  99.1807558 106.9738217  69.4097175 100.0818263 106.3119874
  72.1261979  98.5627867 103.7309289  72.0475611  98.2287731 104.6245047
  72.9471646  99.0549635 103.7300761  66.6623501  90.2985659 102.9812811
  67.6082606  90.1691867 103.0501229  66.2837746  89.5600321 103.4582239
  72.6345386  81.9641665 112.9439703  72.4370207  81.6556753 113.8283035
  73.2445091  82.6903304 113.0737633  64.8466418  88.2235636 102.9167697
  63.9397874  87.9268748 102.9930410  65.1242400  87.9265454 102.0501983
  55.7644359  89.5441999 113.3666743  55.4447143  88.6907307 113.0741117
  55.2177787  89.7590577 114.1224710  66.4628484  82.7672525 109.0711938
  65.6529213  82.4219610 109.4467184  67.1512901  82.4580069 109.6599549
  68.3919033  81.8450572 110.6936234  68.9450071  82.2646026 111.3526258
  68.6289119  80.9186320 110.7359190  63.6165203  85.0822571 103.0579676
  64.4784367  85.4077469 103.3175493  63.8015547  84.2954067 102.5452742
  55.6332619  93.1644911 115.3359865  54.9396090  92.7498863 114.8229819
  56.3805610  93.2065447 114.7393283  71.7697840  83.9551097 110.2014899
  71.1896509  84.6135901 109.8192951  71.5033772  83.1328442 109.7902316
  70.2201406  83.3556155 112.4036219  70.7201184  83.4672690 111.5950538
  70.8637014  83.0517208 113.0437027  57.5469361  93.0963164 113.2125879
  57.5240050  93.1950852 112.2607762  57.8569998  93.9428315 113.5343046
  70.5522718  86.1151188 109.2571247  69.6648573  86.4000838 109.0391442
  70.9676707  85.9544951 108.4098524  73.9037254  86.1397709 112.9725586
  74.6797644  86.6294161 113.2450203  73.1785388  86.5655763 113.4297456
  69.6965931  95.8795862 103.3519267  70.4001781  96.0845865 103.9676923
  68.9728580  96.4472624 103.6168350  70.5263741  91.6305724 109.4721537
  70.4698943  92.0874275 108.6329170  71.0792084  90.8696408 109.2944380
  74.3368547  87.4195455 110.2971657  74.0805482  87.0192091 111.1279864
  73.7121415  88.1339249 110.1721796  71.6052628  96.3178392 105.4017727
  72.4398232  95.8859590 105.2195202  71.4436971  96.1460405 106.3294621
  71.2598521  92.8210505 106.7674066  71.2047324  92.6554776 105.8262510
  70.6344576  93.5286538 106.9236256  56.0491036  88.0578569 120.5935489
  56.6949899  87.5477523 121.0822714  55.8408187  88.7947251 121.1678914
  64.5694646  82.3218614 106.3459385  64.5573316  83.2660454 106.5027656
  65.4618068  82.1388759 106.0518846  68.3846766  78.9161391 110.6005322
  67.6179161  78.3619877 110.7462004  68.7957471  78.9883259 111.4619473
  73.0666484 102.7715939 105.9152680  72.2303796 103.1090625 106.2361954
  72.9271253 102.6364919 104.9779817  72.9404864 102.6163166 103.1150586
  72.0634330 102.4951967 102.7512833  73.4162617 101.8249245 102.8629475
  70.6423332 103.5562169 106.6732242  69.9492577 103.6306524 106.0172278
  70.3975084 102.7922513 107.1953759  75.6860173 103.5527553 102.9167697
  74.7791628 103.2560666 102.9930410  75.9636154 103.2557371 102.0501983
  74.4558958 100.4114489 103.0579676  75.3178122 100.7369387 103.3175493
  74.6409302  99.6245984 102.5452742  75.4088401  97.6510532 106.3459385
  75.3967070  98.5952371 106.5027656  76.3011822  97.4680677 106.0518846
  24.8630077  16.9672063  92.1827149  24.1891776  17.2703760  92.7912106
  25.2495899  17.7701144  91.8332606  28.8286818  14.5457547  93.4566972
  29.5237722  15.1664239  93.6754286  29.1709968  13.6952898  93.7319350
  22.9201686  14.6519298  92.3642065  22.3475653  15.2709486  91.9112537
  23.4934480  15.2018660  92.8981987  26.1398946  14.9356449  93.4950648
  27.0729619  14.8702010  93.6983523  26.0522159  15.7712715  93.0365180
  28.7686963  14.2522319  90.4554595  28.6900594  13.9182182  91.3490353
  29.5896629  14.7444087  90.4546068  26.3390914  11.5690314  90.0764574
  27.0426765  11.7740317  90.6922229  25.6153563  12.1367076  90.3413657
  28.2477612  12.0072843  92.1263034  29.0823216  11.5754042  91.9440508
  28.0861955  11.8354857  93.0539928  36.8761887  22.5242495 102.2218210
  37.5140297  22.4049242 101.5181550  36.7582730  23.4723339 102.2806163
  29.5438409  24.3305399  98.1476626  28.9803274  24.2395336  97.3792914
  29.4290804  23.5105304  98.6279119  35.1237968  27.9976367  93.4591091
  34.4725947  28.5830447  93.0725105  35.9182330  28.5282562  93.5186128
  29.0493595  25.0865504  93.8578225  29.8224471  24.5394491  93.7191101
  29.4018994  25.9509753  94.0692687  31.3859873  21.2458170  91.4896675
  31.6385393  20.7239691  90.7280138  30.4484432  21.0824315  91.5923359
  36.4303155  20.2493948  99.2971418  37.2166245  19.8313372  98.9461835
  36.6941860  21.1540041  99.4653067  36.6013233  25.6866799  93.9960075
  35.9659066  25.7601425  94.7080980  36.2710639  26.2760398  93.3179154
  41.8311582  20.1869182 100.2004397  42.5636754  19.6168398 100.4342226
  41.0750938  19.7990782 100.6410903  31.1056161  23.1486276  93.6921050
  30.9892419  22.4731179  94.3602134  31.2158421  22.6618650  92.8753203
  33.4487702  22.6096423  97.3967739  33.0845909  22.0827044  98.1080661
  34.3054818  22.2194892  97.2234225  33.0893189  17.6386323  92.3929088
  33.2567592  18.5066559  92.7599559  32.8990358  17.8013605  91.4690377
  33.0682410  20.0943980  93.3775755  32.9482035  20.5401031  94.2161235
  32.3734998  20.4429298  92.8189293  30.8289302  32.8647622  97.0265886
  30.7513332  33.8155447  97.1054367  30.2250946  32.5193495  97.6840812
  38.7667476  20.5665453  94.2056089  39.6785332  20.7992840  94.0303786
  38.2577123  21.1502498  93.6431167  37.3737059  25.5491272 101.5969670
  36.7445921  25.7136986 100.8945738  36.9862721  25.9632881 102.3680634
  41.2526290  26.4845710  98.9514034  40.5677329  26.8644611  98.4011067
  41.3370140  27.0941036  99.6845982  32.9265020  25.2865680  98.8619755
  33.3903366  25.5653383  98.0724378  32.6621819  24.3849125  98.6792846
  31.8633906  21.4088832  95.6709320  32.5657950  21.8609876  96.1383247
  31.5314535  20.7672651  96.2989214  39.6223050  27.0077624 103.7231735
  40.4440494  26.6057812 103.4414417  39.6185453  26.9045858 104.6747851
  47.7129043  23.3516373 100.0716706  46.9592751  22.7823771  99.9160711
  47.8476584  23.3179037 101.0187341  33.1027671  28.2229775  95.7471426
  32.9673346  29.0681311  96.1756274  33.6437484  28.4249053  94.9837360
  26.5557068  25.7405213  96.3199351  27.0681589  26.5348463  96.4704915
  27.2079781  25.0431503  96.2532952  28.3651953  28.8570969  98.4022104
  28.5418582  29.7788934  98.2143088  29.1608787  28.5429389  98.8316484
  29.4883269  30.3749143 104.4032446  30.0390694  30.2466206 103.6309440
  28.6494745  30.6744032 104.0527339  24.5205985  24.0693867  97.0958921
  25.3581207  24.4790876  96.8792629  24.6984253  23.1293310  97.0659115
  36.4170417  21.7368948  92.7842754  35.9017041  22.5073553  93.0231142
  36.1447726  21.0634084  93.4075816  34.0017528  16.5818649  97.8427993
  33.1459125  16.1925499  97.6633631  34.4144480  16.6610610  96.9827778
  41.3904692  24.4901303  94.7195928  40.6134134  24.1512462  94.2751090
  42.0696172  24.4953926  94.0450893  36.2056721  19.6096040  94.6102535
  35.9006856  19.9242189  95.4612679  37.1587163  19.6877460  94.6529868
  34.6503152  25.7686263  96.2595489  34.1224514  25.0339023  95.9468727
  34.1490655  26.5460940  96.0135458  39.6295998  23.9635284 101.3762536
  38.9719673  24.6534545 101.4642664  40.4336398  24.3531716 101.7196522
  38.4401457  22.3179657  99.4266477  38.9533339  22.9509648  99.9288187
  39.0902681  21.7180852  99.0609838  29.7091467  18.4610391  92.6397986
  28.8728779  18.7985077  92.9607261  29.5696237  18.3259371  91.7025123
  32.7955753  23.5866474  89.2630462  31.8882814  23.3555727  89.4621611
  33.2926785  22.7904093  89.4504444  35.7023831  32.2963981  92.1827149
  35.0285530  32.5995678  92.7912106  36.0889653  33.0993061  91.8332606
  35.7017336  21.1920528  96.8027498  36.4489155  21.7041925  96.4934620
  35.9708925  20.8704581  97.6631892  33.9743986  23.6879069  93.7854453
  33.0655205  23.4038101  93.8826922  34.0039070  24.1078147  92.9257759
  39.2063253  27.2985658  97.5545620  38.7525581  26.4576568  97.6110811
  38.5757220  27.9347056  97.8920400  38.1496173  18.2277644  98.7846288
  37.4118930  17.7155030  99.1156530  38.4022947  17.7878026  97.9729564
  37.6496193  29.1362155  98.4895438  37.9419167  29.6967212  97.7707804
  38.1594813  29.4290716  99.2448597  32.5228880  21.3007689  99.8864248
  32.5777490  20.3481526  99.8106725  31.7120082  21.4567128 100.3705546
  33.6720074  25.2287812  91.1242531  33.2339504  24.5123671  90.6648168
  34.4130515  25.4563927  90.5627623  30.4621240  19.9184749  97.6454627
  29.6489106  20.2178919  98.0519819  30.9580234  19.5240438  98.3629109
  32.6129818  29.9142506  99.5788891  32.5705997  30.1403352  98.6497423
  33.5292517  29.6805880  99.7274693  41.7893189  23.5045009  97.1818850
  41.6511087  23.6946605  96.2540039  41.4329407  24.2664392  97.6386901
  41.8162568  25.5721536 102.1930121  42.2499075  25.4796825 103.0413175
  42.5294149  25.5479037 101.5550137  30.7295619  26.7905535  99.3750854
  31.5236217  26.2955855  99.1733429  30.0187311  26.2623398  99.0118560
  35.5490463  29.1723630 103.7263222  35.6027485  29.7414567 104.4940938
  34.6805244  29.3425515 103.3617259  27.0378382  20.9348617  95.4510607
  26.1075970  20.8733072  95.6680569  27.1335854  20.4124569  94.6547248
  42.6778118  25.6145237 104.7263007  42.8714008  26.5191047 104.9722282
  42.5778736  25.1552656 105.5601592  33.3066895  27.3634557 103.0548691
  33.1677980  26.9953341 103.9274629  32.5181491  27.8782196 102.8832649
  33.9015047  32.4643653  94.3974228  34.0766802  31.9931696  95.2119850
  33.2147835  33.0909419  94.6255489  34.8572110  26.7416160 100.4437529
  34.5221942  26.7016929 101.3395179  34.3576055  26.0760875  99.9707939
  37.7931301  24.0872194  90.7174589  37.1760472  23.3619022  90.6207641
  37.3247790  24.8481554  90.3741663  28.4676132  35.6133016 101.1714088
  28.7072730  36.2451540 101.8493107  27.6245328  35.2621056 101.4579447
  29.5829847  18.3057618  89.8395893  28.7059314  18.1846419  89.4758140
  30.0587600  17.5143696  89.5874782  32.9803994  31.4212138 103.5755592
  32.9074165  32.2267110 104.0874897  32.5381387  31.6204104 102.7503613
  32.7693773  30.6583909  97.0858414  31.9861295  31.2005589  97.1796638
  33.4686519  31.1757888  97.4852655  43.9320181  22.1718904 101.3710910
  43.9210057  23.0543619 101.0004844  43.0637560  21.8190454 101.1765447
  35.4402677  31.3198973 105.7313751  36.1530649  31.9546437 105.6589652
  34.9492706  31.4162839 104.9153752  37.1620204  25.2250225  97.3031042
  36.2276483  25.3451688  97.1335747  37.3396873  24.3222692  97.0391052
  40.5492756  21.0667544  97.8381076  41.0153208  21.8995536  97.7641379
  41.0000256  20.6012526  98.5426335  38.6168987  27.4111366  94.8367228
  38.8928831  27.2967960  95.7461103  37.7473485  27.0128851  94.7979402
  35.2523051  31.6597717  98.4800042  35.4345445  30.8419373  98.9427794
  36.0756037  31.8765409  98.0424932  35.5865216  30.5865902  95.7415091
  36.1152983  30.0758356  95.1285253  35.8493436  30.2708432  96.6060624
  28.9420964  31.6381018  98.5012867  28.2731339  32.1227146  98.0176907
  28.8033834  31.8850239  99.4156245  33.0826233  33.6724762 105.0995525
  33.6344541  33.8356383 105.8644610  33.4232426  34.2629200 104.4275550
  24.3108541  19.8999473  95.2808799  24.6061982  18.9910152  95.2275852
  23.4096577  19.8787213  94.9589801  36.2194620  31.6206737 102.0859207
  36.0945759  30.8196477 101.5770153  36.8773711  32.1152931 101.5973177
  38.2829528  29.4215758 103.7138757  37.3359864  29.3021109 103.6417084
  38.6312301  28.5338256 103.7965019  35.2875962  29.2168474  99.9143109
  35.1400924  28.2885181 100.0950679  36.1129455  29.2388564  99.4300185
  29.1538206  17.8686541  95.7723602  29.4934278  18.3972462  95.0502210
  29.6010326  18.2066947  96.5482168  38.8910083  30.0397032 101.0007982
  39.8156631  29.8339894 100.8632433  38.7225387  29.7913434 101.9097324
  31.1406353  16.3661162  93.9716894  31.8614716  16.7442415  93.4680611
  30.5171657  17.0850039  94.0751872  35.2837476  17.0706311  94.9075227
  35.5001090  17.9530949  94.6064055  34.8031543  16.6792525  94.1780869
  38.6805400  30.5582700  96.3570074  38.8542277  29.9929122  95.6043926
  39.1734291  31.3583595  96.1749564  44.5344791  23.3219123  97.9760373
  44.9775937  22.5726448  97.5779497  43.6571301  23.3129259  97.5934105
  39.6680572  29.8749464  93.4566972  40.3631477  30.4956157  93.6754286
  40.0103722  29.0244816  93.7319350  41.5671995  27.3249170  94.9854303
  42.0923319  27.6636443  94.2603623  41.4794348  26.3896185  94.8017437
  33.2512656  33.3921153  99.3449556  32.8117646  32.8997532 100.0382413
  34.0020773  32.8494121  99.1041631  25.7304995  29.5832694  99.3474184
  26.5563015  29.2836466  98.9672827  25.3799047  28.8140316  99.7963973
  30.6986528  28.9359162 101.4171857  30.0766537  28.2729867 101.1174085
  31.3691395  28.9620294 100.7345505  30.2600035  27.4863086  94.8930318
  30.4088155  28.1698550  94.2396991  31.0666479  27.4668176  95.4079774
  44.0777656  24.7924361 100.3682821  44.9124547  25.2314165 100.5320381
  44.2136784  24.3163014  99.5491067  28.0152668  23.5128263  95.8991387
  27.7698710  22.6090593  96.0971597  28.1848583  23.5145414  94.9570865
  27.2848316  19.2456621  93.3977548  26.5917561  19.3200976  92.7417584
  27.0400068  18.4816964  93.9199065  33.7595441  29.9811216  92.3642065
  33.1869408  30.6001403  91.9112537  34.3328234  30.5310578  92.8981987
  36.9792700  30.2648366  93.4950648  37.9123374  30.1993928  93.6983523
  36.8915913  31.1004633  93.0365180  39.6080717  29.5814237  90.4554595
  39.5294349  29.2474100  91.3490353  40.4290384  30.0736004  90.4546068
  42.3058908  22.4475976 103.6630914  42.2735228  21.5091977 103.8490598
  42.9159532  22.5260013 102.9296739  34.1442239  21.3172029  89.7058118
  35.0901344  21.1878237  89.7746536  33.7656484  20.5786691  90.1827546
  48.1235458  23.5091983 102.8036951  48.8538847  23.2477271 103.3644654
  47.5142404  22.7720705 102.8439019  46.2050755  21.6499845 103.4011402
  45.4783919  21.5155810 102.7927893  45.7898042  21.9576674 104.2068120
  32.3285156  19.2422005  89.6413003  31.4216612  18.9455118  89.7175717
  32.6061137  18.9451823  88.7747289  33.9447222  13.7858895  95.7957244
  33.1347950  13.4405980  96.1712491  34.6331639  13.4766439  96.3844856
  31.0983941  16.1008940  89.7824982  31.9603105  16.4263839  90.0420800
  31.2834285  15.3140436  89.2698048  39.2516577  14.9737467  96.9260205
  38.6715246  15.6322271  96.5438258  38.9852510  14.1514811  96.5147623
  38.0341455  17.1337557  95.9816554  37.1467310  17.4187208  95.7636748
  38.4495444  16.9731321  95.1343831  41.3855992  17.1584078  99.6970893
  42.1616382  17.6480531  99.9695510  40.6604126  17.5842132 100.1542762
  43.8228550  17.8711697 100.7544833  44.4173041  17.6307433 100.0438142
  43.8955134  17.1518828 101.3818370  26.0425706  31.7145308 101.0687998
  25.9080174  30.9545709 100.5025996  25.6257768  32.4386208 100.6016787
  37.1784669  26.8982232  90.0764574  37.8820519  27.1032234  90.6922229
  36.4547318  27.4658994  90.3413657  38.0082479  22.6492093  96.1966844
  37.9517681  23.1060645  95.3574476  38.5610822  21.8882778  96.0189687
  41.8187285  18.4381825  97.0216963  41.5624219  18.0378461  97.8525171
  41.1940153  19.1525619  96.8967102  46.1299623  21.1777898  99.5288255
  45.5699181  21.2471088 100.3019817  45.5243126  21.0018883  98.8087751
  29.1994832  32.6114625 101.2806441  29.0827216  33.5560058 101.1785131
  28.3787278  32.3088187 101.6692240  39.0871366  27.3364761  92.1263034
  39.9216970  26.9045960  91.9440508  38.9255709  27.1646775  93.0539928
  38.7417258  23.8396874  93.4919373  38.6866062  23.6741146  92.5507817
  38.1163314  24.5472907  93.6481563  32.0513384  13.3404983  93.0704691
  32.0392054  14.2846823  93.2272962  32.9436806  13.1575129  92.7764153
  30.2249346  33.2642887 104.4962369  31.1276593  33.2966498 104.8128864
  29.9986716  32.3343338 104.5108705  31.9802948  32.0173874 101.1572448
  31.0298579  32.0175735 101.0436820  32.2835434  31.2706608 100.6408483
  47.7155641  37.8534412 102.2218210  48.3534051  37.7341160 101.5181550
  47.5976484  38.8015256 102.2806163  44.5245348  37.8061840 102.1579735
  44.1863859  37.6902905 101.2700270  45.3935116  37.4053005 102.1380741
  40.3832163  39.6597317  98.1476626  39.8197028  39.5687254  97.3792914
  40.2684558  38.8397221  98.6279119  45.0065131  38.9596692 108.1165941
  44.9953771  38.5649490 107.2446444  45.1685770  38.2262765 108.7099712
  37.9296595  41.1548508 100.9860846  38.7217887  40.8139333 100.5707146
  38.1693245  41.2643483 101.9063000  45.9631722  43.3268284  93.4591091
  45.3119702  43.9122365  93.0725105  46.7576085  43.8574479  93.5186128
  39.8887349  40.4157422  93.8578225  40.6618225  39.8686409  93.7191101
  40.2412748  41.2801671  94.0692687  41.7272392  41.7433804 107.0645125
  41.4362258  42.6479435 106.9491791  42.3629376  41.7850331 107.7789194
  42.6528599  39.1210652 103.6546484  43.2492171  38.8966675 102.9403447
  42.7103570  38.3795398 104.2571932  42.2253627  36.5750088  91.4896675
  42.4779148  36.0531609  90.7280138  41.2878186  36.4116233  91.5923359
  47.2696910  35.5785866  99.2971418  48.0559999  35.1605289  98.9461835
  47.5335614  36.4831958  99.4653067  47.4406987  41.0158716  93.9960075
  46.8052820  41.0893343  94.7080980  47.1104394  41.6052315  93.3179154
  52.6705337  35.5161099 100.2004397  53.4030509  34.9460316 100.4342226
  51.9144693  35.1282700 100.6410903  41.9449916  38.4778194  93.6921050
  41.8286174  37.8023097  94.3602134  42.0552176  37.9910568  92.8753203
  44.2881457  37.9388341  97.3967739  43.9239664  37.4118962  98.1080661
  45.1448573  37.5486810  97.2234225  50.1930757  29.2282673 104.6599006
  49.8614082  30.0978084 104.4360221  49.5976371  28.9118957 105.3393036
  43.9286944  32.9678240  92.3929088  44.0961346  33.8358477  92.7599559
  43.7384113  33.1305522  91.4690377  46.6862277  41.4295219 104.0594918
  46.3863000  42.3320258 103.9510726  46.3413336  41.1627403 104.9116071
  40.1374758  37.8809016 100.0931623  39.2125255  37.7485230 100.3009314
  40.3859172  38.6603235 100.5901565  50.0859421  33.9477760 101.7392356
  49.1776298  33.8793168 101.4451117  50.0347016  34.4249704 102.5674181
  43.9076165  35.4235898  93.3775755  43.7875790  35.8692949  94.2161235
  43.2128753  35.7721216  92.8189293  37.4983569  37.5242290 100.9275412
  37.6275951  37.7776769 101.8414823  36.8181021  38.1169998 100.6080067
  44.1600286  35.3667405 109.6827253  43.3833620  35.9261325 109.6730118
  44.7990849  35.8524188 110.2042123  51.9521067  32.1494198 103.5170230
  51.3095447  32.4426731 102.8710024  51.4475996  32.0347118 104.3223426
  49.6061231  35.8957371  94.2056089  50.5179087  36.1284758  94.0303786
  49.0970878  36.4794415  93.6431167  42.4146659  38.1752859 109.2445220
  43.1561343  38.7137902 108.9680043  41.7083644  38.8019147 109.4016772
  47.8901998  40.3181999 107.8417381  48.2985354  39.8764410 107.0972014
  47.1679260  39.7434626 108.0951574  44.2433068  35.2554606 105.2150938
  45.0894264  35.6794019 105.3585587  44.1831706  34.5988230 105.9089501
  48.2130813  40.8783190 101.5969670  47.5839675  41.0428904 100.8945738
  47.8256475  41.2924799 102.3680634  52.0920045  41.8137627  98.9514034
  51.4071083  42.1936529  98.4011067  52.1763894  42.4232954  99.6845982
  47.3932514  32.9158974 106.8732112  47.1493446  33.6701035 106.3366388
  47.6692444  33.2944322 107.7079359  49.3470977  39.4597586 105.5509378
  49.5587872  40.1029346 104.8743759  49.3000725  38.6259903 105.0831308
  46.9497205  32.0715407 102.4545950  46.0881685  32.3696661 102.7462687
  46.9759640  32.2885806 101.5226982  43.7658775  40.6157598  98.8619755
  44.2297120  40.8945301  98.0724378  43.5015573  39.7141042  98.6792846
  40.6582856  40.1629079 101.7999519  41.2284213  40.5916348 101.1617003
  41.2490968  39.8811664 102.4983704  42.7027661  36.7380750  95.6709320
  43.4051704  37.1901794  96.1383247  42.3708289  36.0964569  96.2989214
  41.1508022  35.3292507 110.0460530  40.5206683  36.0108788 110.2795927
  41.0444110  35.2175588 109.1013668  36.4452995  34.9964303 100.9726454
  35.6552049  35.2521831 100.4966565  36.9364242  35.8112641 101.0778495
  50.4616804  42.3369542 103.7231735  51.2834248  41.9349729 103.4414417
  50.4579207  42.2337776 104.6747851  38.3967740  35.3608882  97.9309931
  37.5998904  35.4727576  98.4493426  38.1693332  35.6995534  97.0650821
  44.2273408  41.8853585 105.8792445  44.2917840  42.3473992 106.7150617
  43.5184332  41.2550950 106.0074755  34.7290698  35.2494793 103.4041445
  34.9798736  36.1341803 103.6699021  35.2650246  35.0699395 102.6316537
  58.5522798  38.6808290 100.0716706  57.7986506  38.1115688  99.9160711
  58.6870339  38.6470955 101.0187341  43.9421426  43.5521693  95.7471426
  43.8067100  44.3973228  96.1756274  44.4831238  43.7540970  94.9837360
  37.3950823  41.0697131  96.3199351  37.9075344  41.8640381  96.4704915
  38.0473536  40.3723421  96.2532952  39.2045708  44.1862887  98.4022104
  39.3812336  45.1080852  98.2143088  40.0002541  43.8721306  98.8316484
  43.3456726  31.0471152 110.0006037  44.0866440  31.6478305 109.9210500
  43.5774649  30.3048789 109.4424080  38.4898064  36.2327519 108.2784267
  38.3751579  35.3312776 108.5791366  37.6342582  36.4791216 107.9269084
  45.5689902  44.1745259 109.8771768  45.1253756  43.3881638 109.5592672
  46.2307116  44.3624410 109.2115659  40.3277023  45.7041061 104.4032446
  40.8784448  45.5758124 103.6309440  39.4888499  46.0035950 104.0527339
  47.6671140  44.4548059 107.9053169  47.6489615  45.2756940 107.4133438
  48.5891060  44.3302134 108.1303310  44.1244194  41.9692189 108.7476677
  44.6572531  41.2080477 108.5175985  43.5958275  41.6765840 109.4900832
  47.2913889  27.0752255 104.2770319  46.9478159  27.9653896 104.2009430
  47.6592852  26.8853912 103.4139904  35.3599740  39.3985785  97.0958921
  36.1974962  39.8082793  96.8792629  35.5378007  38.4585227  97.0659115
  47.2564172  37.0660866  92.7842754  46.7410795  37.8365470  93.0231142
  46.9841480  36.3926002  93.4075816  44.8411283  31.9110566  97.8427993
  43.9852879  31.5217417  97.6633631  45.2538235  31.9902527  96.9827778
  46.3710430  29.4456910 102.2419552  45.8675225  29.4087045 101.4287358
  46.6641036  30.3549652 102.3016209  42.6153315  29.5295639 101.2485734
  43.4806312  29.3338448 100.8891624  42.6830824  29.3005991 102.1755091
  52.2298446  39.8193220  94.7195928  51.4527889  39.4804380  94.2751090
  52.9089927  39.8245843  94.0450893  47.0450475  34.9387958  94.6102535
  46.7400611  35.2534107  95.4612679  47.9980917  35.0169378  94.6529868
  45.4896907  41.0978181  96.2595489  44.9618268  40.3630941  95.9468727
  44.9884410  41.8752857  96.0135458  50.4689753  39.2927202 101.3762536
  49.8113427  39.9826463 101.4642664  51.2730152  39.6823634 101.7196522
  40.2215634  31.7597847  98.6202101  40.7959386  31.5373029  97.8875294
  40.8086617  31.8286542  99.3730702  49.2795212  37.6471574  99.4266477
  49.7927093  38.2801566  99.9288187  49.9296436  37.0472770  99.0609838
  40.5485222  33.7902308  92.6397986  39.7122534  34.1276995  92.9607261
  40.4089991  33.6551288  91.7025123  42.5238302  28.6339096  97.3477170
  41.8702715  28.3188113  96.7233785  42.4818776  28.0114837  98.0736993
  43.6349507  38.9158391  89.2630462  42.7276569  38.6847645  89.4621611
  44.1320539  38.1196011  89.4504444  45.7576043  35.1221030 101.6724818
  44.8398604  35.3435977 101.5146506  46.1736186  35.1967340 100.8136525
  46.5411090  36.5212445  96.8027498  47.2882909  37.0333843  96.4934620
  46.8102680  36.1996498  97.6631892  44.8137740  39.0170986  93.7854453
  43.9048960  38.7330019  93.8826922  44.8432824  39.4370065  92.9257759
  50.0457008  42.6277576  97.5545620  49.5919335  41.7868486  97.6110811
  49.4150975  43.2638974  97.8920400  48.9889927  33.5569562  98.7846288
  48.2512684  33.0446948  99.1156530  49.2416701  33.1169943  97.9729564
  48.4889947  44.4654072  98.4895438  48.7812922  45.0259130  97.7707804
  48.9988568  44.7582633  99.2448597  49.0901555  26.3345814  99.3788057
  49.3960432  25.4743177  99.0913972  49.8154160  26.9263434  99.1787051
  35.3825911  36.7376500  97.7669655  35.1850311  36.1445861  97.0420721
  34.8272575  36.4328711  98.4845594  43.3622635  36.6299607  99.8864248
  43.4171244  35.6773443  99.8106725  42.5513837  36.7859046 100.3705546
  44.5113828  40.5579730  91.1242531  44.0733258  39.8415589  90.6648168
  45.2524269  40.7855845  90.5627623  41.3014994  35.2476667  97.6454627
  40.4882860  35.5470837  98.0519819  41.7973989  34.8532355  98.3629109
  43.4523572  45.2434423  99.5788891  43.4099751  45.4695270  98.6497423
  44.3686271  45.0097798  99.7274693  46.8989206  35.7118491 106.4769521
  47.2538594  35.9389964 107.3363986  47.5461337  36.0436868 105.8546776
  52.6286943  38.8336927  97.1818850  52.4904842  39.0238523  96.2540039
  52.2723162  39.5956310  97.6386901  40.7929069  32.8195022 103.2615862
  41.4328449  32.6783781 102.5638825  39.9606600  32.5329535 102.8854464
  52.6556323  40.9013454 102.1930121  53.0892829  40.8088743 103.0413175
  53.3687903  40.8770954 101.5550137  41.5689373  42.1197453  99.3750854
  42.3629972  41.6247773  99.1733429  40.8581066  41.5915316  99.0118560
  46.3884218  44.5015548 103.7263222  46.4421240  45.0706484 104.4940938
  45.5198999  44.6717433 103.3617259  37.8772137  36.2640534  95.4510607
  36.9469725  36.2024990  95.6680569  37.9729609  35.7416487  94.6547248
  37.7957686  32.7895347  98.0388849  38.0564503  33.7040680  97.9298009
  38.6174858  32.3219790  98.1885461  39.2682611  34.2033104 105.2087673
  39.9405664  33.9950466 104.5600322  38.4412398  34.0055190 104.7692905
  53.5171872  40.9437155 104.7263007  53.7107762  41.8482965 104.9722282
  53.4172490  40.4844574 105.5601592  45.1708183  30.8295045 107.2253334
  44.5236098  31.5284995 107.1317810  45.9409198  31.2631189 107.5929582
  48.5786981  41.0943897 110.3003887  48.4272487  40.8654449 109.3833971
  48.5691660  42.0514499 110.3135232  45.3472317  38.6675810 105.2850154
  46.2764377  38.8186970 105.1119121  44.9263347  38.7559831 104.4298800
  44.1460649  42.6926474 103.0548691  44.0071735  42.3245259 103.9274629
  43.3575245  43.2074114 102.8832649  45.6965864  42.0708077 100.4437529
  45.3615697  42.0308847 101.3395179  45.1969810  41.4052793  99.9707939
  39.6710108  37.4775707 105.9690110  39.5329906  36.7455946 106.5701649
  40.5815032  37.3884607 105.6874298  48.6325056  39.4164112  90.7174589
  48.0154227  38.6910940  90.6207641  48.1641544  40.1773472  90.3741663
  42.2992409  37.1895667 105.4573790  43.0092027  36.5488859 105.4160408
  42.2561717  37.4408561 106.3799971  50.2879188  44.1263020 108.3780369
  50.2291734  43.4422240 107.7110952  50.6898706  44.8682010 107.9260995
  41.0121343  34.1760884 107.2769429  40.4758700  33.7251623 107.9291026
  40.4238051  34.3106793 106.5339894  39.3069886  50.9424934 101.1714088
  39.5466485  51.5743458 101.8493107  38.4639083  50.5912974 101.4579447
  40.4223602  33.6349536  89.8395893  39.5453068  33.5138337  89.4758140
  40.8981355  32.8435614  89.5874782  50.2896595  42.0902604 106.6094349
  49.4023374  41.7528526 106.7320748  50.8595146  41.3585635 106.8463114
  31.9425742  38.4226696  99.9337400  32.6296782  38.1088426  99.3458415
  31.7873871  39.3268060  99.6604652  36.7460464  33.3116892 104.3622424
  36.6618653  32.7042562 103.6272834  35.9243171  33.8025910 104.3631920
  43.8197748  46.7504056 103.5755592  43.7467920  47.5559028 104.0874897
  43.3775141  46.9496022 102.7503613  46.9184178  31.7970456  99.7292619
  47.4152878  31.0440418  99.4093689  46.1471159  31.8334772  99.1635828
  54.7713935  37.5010821 101.3710910  54.7603812  38.3835537 101.0004844
  53.9031315  37.1482372 101.1765447  46.2796432  46.6490890 105.7313751
  46.9924404  47.2838355 105.6589652  45.7886460  46.7454756 104.9153752
  48.0013959  40.5542143  97.3031042  47.0670237  40.6743605  97.1335747
  48.1790627  39.6514610  97.0391052  43.5019147  33.9387839  99.4564303
  43.1316934  33.3858879 100.1445209  43.9978239  33.3345972  98.9039304
  51.3886510  36.3959462  97.8381076  51.8546962  37.2287454  97.7641379
  51.8394011  35.9304444  98.5426335  41.3308345  44.3985334 106.5519321
  42.0317805  45.0321817 106.7048716  40.8603460  44.7400065 105.7914961
  49.4562741  42.7403283  94.8367228  49.7322585  42.6259878  95.7461103
  48.5867240  42.3420768  94.7979402  49.3603173  28.7640049 101.8771978
  48.4466253  28.9944276 102.0454185  49.7896274  28.8478493 102.7286010
  49.1309631  36.9529941 104.3771872  48.4781081  37.2005849 103.7224325
  49.5090011  36.1394079 104.0434349  46.0916805  46.9889634  98.4800042
  46.2739200  46.1711290  98.9427794  46.9149791  47.2057327  98.0424932
  46.4258971  45.9157819  95.7415091  46.9546737  45.4050274  95.1285253
  46.6887190  45.6000350  96.6060624  45.1797204  37.6949752 110.8637909
  44.5037841  37.5943882 111.5340284  46.0024838  37.5388966 111.3273906
  36.9276063  43.9321689 103.4850424  37.5129500  43.1865377 103.6178328
  36.7300902  44.2425645 104.3687088  39.7814719  46.9672936  98.5012867
  39.1125094  47.4519064  98.0176907  39.6427588  47.2142157  99.4156245
  31.5193718  36.5027289 102.2054867  31.5577818  35.9690880 102.9991985
  31.0134011  35.9762494 101.5865844  43.9219987  49.0016680 105.0995525
  44.4738295  49.1648301 105.8644610  44.2626181  49.5921117 104.4275550
  38.8984480  31.3491829 105.7017410  38.9625807  32.2106660 105.2894807
  38.8351601  30.7365831 104.9689768  48.7730861  43.8277937 110.9544179
  49.3170765  44.4407895 110.4599134  48.1917706  44.3857516 111.4711192
  35.1502296  35.2291391  95.2808799  35.4455737  34.3202069  95.2275852
  34.2490331  35.2079131  94.9589801  47.0588374  46.9498655 102.0859207
  46.9339514  46.1488395 101.5770153  47.7167466  47.4444849 101.5973177
  38.6796543  33.3047388 101.2636347  37.9583128  33.9183355 101.1243821
  39.4689798  33.8405152 101.1852993  49.1223283  44.7507675 103.7138757
  48.1753618  44.6313026 103.6417084  49.4706056  43.8630173 103.7965019
  41.4822856  30.6401814 107.5376999  42.0057258  30.8864111 108.3003308
  41.2635189  31.4721849 107.1180136  36.8790137  32.9105489  95.4048124
  36.5502843  32.0302868  95.2223230  37.2329508  32.8553157  96.2924513
  46.1269716  44.5460391  99.9143109  45.9794679  43.6177099 100.0950679
  46.9523210  44.5680482  99.4300185  39.9931960  33.1978459  95.7723602
  40.3328033  33.7264380  95.0502210  40.4404081  33.5358865  96.5482168
  49.7303838  45.3688950 101.0007982  50.6550385  45.1631812 100.8632433
  49.5619141  45.1205351 101.9097324  42.6875401  31.5815509 105.2226670
  42.3472222  30.7823322 105.6247349  41.9814408  31.8817220 104.6503503
  43.3391873  28.6664822 103.6753993  44.1617942  28.1925300 103.5532883
  43.5829937  29.4455305 104.1752679  41.9800108  31.6953080  93.9716894
  42.7008470  32.0734333  93.4680611  41.3565412  32.4141957  94.0751872
  46.1231230  32.3998229  94.9075227  46.3394845  33.2822867  94.6064055
  45.6425298  32.0084443  94.1780869  40.8630452  35.3583942 101.4845971
  40.7175033  35.6724245 102.3770253  40.3855655  35.9768843 100.9316870
  42.7226835  32.3486490 101.5326861  42.7088403  31.4527584 101.1959159
  43.4399263  32.3557154 102.1665147  44.5752965  32.7823831 103.5779988
  44.3170743  33.7040901 103.5764319  44.0438006  32.3854265 104.2680452
  49.5199154  45.8874618  96.3570074  49.6936032  45.3221040  95.6043926
  50.0128045  46.6875513  96.1749564  35.3376114  37.8989287 104.4233632
  34.7929582  38.6749095 104.5553907  36.2155464  38.2460091 104.2652754
  42.1263731  31.2300871  96.8014431  42.2479642  30.3017517  97.0005318
  41.8365773  31.2439557  95.8892746  44.9954921  28.9155781  99.9381151
  45.0176618  28.9795114  98.9833130  45.4122980  28.0760290 100.1321657
  55.3738545  38.6511041  97.9760373  55.8169691  37.9018366  97.5779497
  54.4965056  38.6421177  97.5934105  50.5074327  45.2041382  93.4566972
  51.2025231  45.8248075  93.6754286  50.8497477  44.3536733  93.7319350
  36.1242136  37.0259183 107.3163789  35.3823872  37.1741818 107.9028420
  35.8034880  37.2867449 106.4530539  52.4065750  42.6541088  94.9854303
  52.9317074  42.9928360  94.2603623  52.3188102  41.7188103  94.8017437
  44.0685798  46.5675161 107.1144179  44.3772925  46.3224308 107.9866879
  44.8661281  46.7721800 106.6263049  44.0906411  48.7213071  99.3449556
  43.6511401  48.2289450 100.0382413  44.8414527  48.1786039  99.1041631
  36.5698750  44.9124612  99.3474184  37.3956769  44.6128384  98.9672827
  36.2192802  44.1432234  99.7963973  41.5380283  44.2651080 101.4171857
  40.9160292  43.6021785 101.1174085  42.2085150  44.2912212 100.7345505
  34.7707355  42.8310938 100.3063117  33.9339263  42.4033113 100.1247119
  34.7431000  43.0243382 101.2433909  52.0959656  43.2873991 110.2905501
  51.3055200  43.2698130 109.7510000  51.8593010  43.8262285 111.0454537
  52.2157531  40.1366458 107.6038229  52.2655536  39.9716465 108.5453752
  52.1071454  39.2693717 107.2136110  41.0993790  42.8155003  94.8930318
  41.2481910  43.4990468  94.2396991  41.9060233  42.7960093  95.4079774
  49.5061293  36.1197386 108.9197536  50.4071156  35.9803850 108.6281534
  49.5809268  36.2851840 109.8595713  43.8404099  33.4964240 107.7650722
  42.9707408  33.7897806 107.4933311  44.0763579  34.0804685 108.4857986
  53.7175728  42.5563399 107.8480251  53.4260536  42.9193380 108.6843712
  53.1047859  41.8430407 107.6693583  54.9171410  40.1216279 100.3682821
  55.7518301  40.5606083 100.5320381  55.0530539  39.6454932  99.5491067
  51.9662916  37.6796014 106.3160309  52.4417038  37.8723660 105.5079160
  51.0428481  37.7355200 106.0703692  38.8546423  38.8420181  95.8991387
  38.6092465  37.9382511  96.0971597  39.0242337  38.8437331  94.9570865
  46.5443132  29.7143857 105.2816143  47.0625076  30.4504884 104.9562631
  46.1898265  30.0207851 106.1162902  38.1242070  34.5748538  93.3977548
  37.4311315  34.6492893  92.7417584  37.8793822  33.8108882  93.9199065
  46.7955727  26.1344140 100.8017039  47.0757480  25.4667329 101.4277466
  47.5806334  26.3273235 100.2891703  50.6664585  34.5561774 104.5488614
  51.6182008  34.6559871 104.5700838  50.4968035  33.7640042 105.0586699
  48.6878964  31.6417357 104.7348015  48.0928897  31.9222370 104.0394504
  48.4028661  32.1311258 105.5064756  47.8186455  45.5940284  93.4950648
  48.7517128  45.5285846  93.6983523  47.7309668  46.4296551  93.0365180
  50.4474472  44.9106154  90.4554595  50.3688103  44.5766018  91.3490353
  51.2684138  45.4027922  90.4546068  53.1452663  37.7767894 103.6630914
  53.1128983  36.8383894 103.8490598  53.7553286  37.8551930 102.9296739
  44.9835994  36.6463946  89.7058118  45.9295098  36.5170155  89.7746536
  44.6050239  35.9078608  90.1827546  53.2947151  34.5678937 103.7089197
  52.7786200  33.7837394 103.5219126  54.1787100  34.2397654 103.8735717
  50.9557878  28.3119953  99.6685010  50.7582699  28.0035041 100.5528342
  51.5657584  29.0381591  99.7982940  58.9629213  38.8383900 102.8036951
  59.6932601  38.5769188 103.3644654  58.3536158  38.1012622 102.8439019
  57.0444510  36.9791763 103.4011402  56.3177673  36.8447728 102.7927893
  56.6291797  37.2868592 104.2068120  44.8674686  40.6981693 111.1658775
  45.7877696  40.8760292 111.3598821  44.8324269  39.7537738 111.0138474
  43.1678911  34.5713923  89.6413003  42.2610366  34.2747036  89.7175717
  43.4454892  34.2743741  88.7747289  34.0856851  35.8920286 100.0912050
  33.7659635  35.0385594  99.7986424  33.5390279  36.1068864 100.8470017
  37.8636759  38.6082727 103.8081556  38.0822768  39.5399835 103.8269590
  38.2762533  38.2490702 104.5936360  44.7840976  29.1150813  95.7957244
  43.9741705  28.7697898  96.1712491  45.4725393  28.8058356  96.3844856
  46.7131525  28.1928859  97.4181541  47.2662563  28.6124313  98.0771564
  46.9501611  27.2664607  97.4604497  41.9377695  31.4300858  89.7824982
  42.7996859  31.7555756  90.0420800  42.1228040  30.6432354  89.2698048
  33.9545111  39.5123198 102.0605171  33.2608583  39.0977151 101.5475126
  34.7018102  39.5543734 101.4638590  50.0910332  30.3029385  96.9260205
  49.5109001  30.9614189  96.5438258  49.8246265  29.4806729  96.5147623
  48.5413898  29.7034442  99.1281526  49.0413677  29.8150977  98.3195845
  49.1849506  29.3995495  99.7682334  42.5995894  37.6113072 112.0149367
  42.1162976  38.4113432 112.2213256  42.6856833  37.6221017 111.0616811
  35.8681854  39.4441452  99.9371186  35.8452542  39.5429139  98.9853069
  36.1782490  40.2906602 100.2588352  38.5269232  41.5017607 104.0517800
  39.4812485  41.4701549 103.9847732  38.3281755  41.0408230 104.8668026
  39.1168614  40.0718723 106.6188598  39.9361503  40.5662801 106.6423435
  39.3905421  39.1550691 106.5906166  48.8735210  32.4629475  95.9816554
  47.9861065  32.7479126  95.7636748  49.2889199  32.3023238  95.1343831
  52.2249746  32.4875996  99.6970893  53.0010136  32.9772448  99.9695510
  51.4997880  32.9134050 100.1542762  54.6622305  33.2003615 100.7544833
  55.2566795  32.9599351 100.0438142  54.7348888  32.4810746 101.3818370
  36.8819460  47.0437226 101.0687998  36.7473928  46.2837627 100.5025996
  36.4651523  47.7678126 100.6016787  48.0178423  42.2274150  90.0764574
  48.7214273  42.4324152  90.6922229  47.2941072  42.7950911  90.3413657
  48.8476234  37.9784011  96.1966844  48.7911435  38.4352562  95.3574476
  49.4004576  37.2174695  96.0189687  52.6581040  33.7673743  97.0216963
  52.4017974  33.3670378  97.8525171  52.0333908  34.4817537  96.8967102
  56.9693377  36.5069816  99.5288255  56.4092935  36.5763005 100.3019817
  56.3636881  36.3310801  98.8087751  40.0388586  47.9406543 101.2806441
  39.9220970  48.8851976 101.1785131  39.2181032  47.6380105 101.6692240
  49.9265121  42.6656679  92.1263034  50.7610725  42.2337877  91.9440508
  49.7649464  42.4938692  93.0539928  49.5811013  39.1688792  93.4919373
  49.5259817  39.0033064  92.5507817  48.9557068  39.8764825  93.6481563
  34.3703528  34.4056856 107.3180795  35.0162392  33.8955810 107.8068020
  34.1620679  35.1425538 107.8924220  46.8956920  41.4737704 112.8172936
  47.7648080  41.6478356 112.4559571  46.4163672  42.2932121 112.6948665
  42.8907138  28.6696901  93.0704691  42.8785808  29.6138741  93.2272962
  43.7830560  28.4867047  92.7764153  41.0643100  48.5934805 104.4962369
  41.9670347  48.6258415 104.8128864  40.8380470  47.6635256 104.5108705
  42.8196702  47.3465792 101.1572448  41.8692333  47.3467653 101.0436820
  43.1229189  46.5998526 100.6408483  46.7059258  25.2639678  97.3250628
  45.9391654  24.7098164  97.4707311  47.1169963  25.3361547  98.1864780
  58.5549396  53.1826330 102.2218210  59.1927806  53.0633077 101.5181550
  58.4370239  54.1307174 102.2806163  55.3639102  53.1353758 102.1579735
  55.0257614  53.0194823 101.2700270  56.2328870  52.7344923 102.1380741
  55.8458885  54.2888610 108.1165941  55.8347526  53.8941408 107.2446444
  56.0079525  53.5554682 108.7099712  56.8025477  58.6560202  93.4591091
  56.1513456  59.2414283  93.0725105  57.5969839  59.1866397  93.5186128
  52.5666146  57.0725722 107.0645125  52.2756012  57.9771352 106.9491791
  53.2023131  57.1142249 107.7789194  53.4922353  54.4502570 103.6546484
  54.0885925  54.2258592 102.9403447  53.5497325  53.7087316 104.2571932
  53.0647382  51.9042005  91.4896675  53.3172902  51.3823527  90.7280138
  52.1271941  51.7408151  91.5923359  58.1090664  50.9077784  99.2971418
  58.8953754  50.4897207  98.9461835  58.3729369  51.8123876  99.4653067
  58.2800742  56.3450634  93.9960075  57.6446575  56.4185261  94.7080980
  57.9498148  56.9344233  93.3179154  63.5099091  50.8453017 100.2004397
  64.2424263  50.2752234 100.4342226  62.7538447  50.4574617 100.6410903
  52.7843670  53.8070111  93.6921050  52.6679928  53.1315015  94.3602134
  52.8945930  53.3202485  92.8753203  55.1275211  53.2680258  97.3967739
  54.7633418  52.7410879  98.1080661  55.9842327  52.8778728  97.2234225
  61.0324512  44.5574591 104.6599006  60.7007837  45.4270002 104.4360221
  60.4370125  44.2410875 105.3393036  54.7680698  48.2970158  92.3929088
  54.9355101  49.1650395  92.7599559  54.5777867  48.4597440  91.4690377
  57.5256031  56.7587137 104.0594918  57.2256754  57.6612176 103.9510726
  57.1807091  56.4919320 104.9116071  50.9768513  53.2100934 100.0931623
  50.0519009  53.0777148 100.3009314  51.2252926  53.9895153 100.5901565
  60.9253175  49.2769677 101.7392356  60.0170052  49.2085086 101.4451117
  60.8740771  49.7541622 102.5674181  54.7469919  50.7527816  93.3775755
  54.6269544  51.1984866  94.2161235  54.0522507  51.1013133  92.8189293
  52.5076811  63.5231457  97.0265886  52.4300841  64.4739282  97.1054367
  51.9038455  63.1777330  97.6840812  54.9994041  50.6959323 109.6827253
  54.2227375  51.2553243 109.6730118  55.6384604  51.1816106 110.2042123
  62.7914822  47.4786116 103.5170230  62.1489202  47.7718649 102.8710024
  62.2869750  47.3639036 104.3223426  60.4454985  51.2249289  94.2056089
  61.3572841  51.4576676  94.0303786  59.9364632  51.8086333  93.6431167
  53.2540413  53.5044776 109.2445220  53.9955098  54.0429820 108.9680043
  52.5477399  54.1311065 109.4016772  58.7295753  55.6473917 107.8417381
  59.1379109  55.2056327 107.0972014  58.0073014  55.0726544 108.0951574
  55.0826823  50.5846523 105.2150938  55.9288018  51.0085937 105.3585587
  55.0225461  49.9280148 105.9089501  59.0524568  56.2075107 101.5969670
  58.4233430  56.3720821 100.8945738  58.6650230  56.6216717 102.3680634
  62.9313799  57.1429545  98.9514034  62.2464838  57.5228446  98.4011067
  63.0157649  57.7524872  99.6845982  58.2326268  48.2450892 106.8732112
  57.9887200  48.9992952 106.3366388  58.5086199  48.6236239 107.7079359
  60.1864731  54.7889504 105.5509378  60.3981626  55.4321264 104.8743759
  60.1394479  53.9551821 105.0831308  57.7890960  47.4007325 102.4545950
  56.9275439  47.6988578 102.7462687  57.8153395  47.6177724 101.5226982
  54.6052529  55.9449515  98.8619755  55.0690875  56.2237218  98.0724378
  54.3409327  55.0432960  98.6792846  51.4976610  55.4920997 101.7999519
  52.0677968  55.9208265 101.1617003  52.0884722  55.2103582 102.4983704
  53.5421415  52.0672668  95.6709320  54.2445459  52.5193711  96.1383247
  53.2102044  51.4256487  96.2989214  51.9901777  50.6584424 110.0460530
  51.3600438  51.3400705 110.2795927  51.8837865  50.5467506 109.1013668
  61.3010559  57.6661460 103.7231735  62.1228003  57.2641647 103.4414417
  61.2972962  57.5629694 104.6747851  55.0667162  57.2145503 105.8792445
  55.1311595  57.6765910 106.7150617  54.3578086  56.5842868 106.0074755
  69.3916552  54.0100208 100.0716706  68.6380260  53.4407606  99.9160711
  69.5264093  53.9762873 101.0187341  54.7815180  58.8813610  95.7471426
  54.6460855  59.7265146  96.1756274  55.3224993  59.0832888  94.9837360
  51.2682520  44.9605190 112.4085781  50.8749465  44.4071389 113.0833425
  52.0848660  45.2715769 112.7992298  54.1850481  46.3763069 110.0006037
  54.9260194  46.9770222 109.9210500  54.4168404  45.6340707 109.4424080
  49.3291819  51.5619437 108.2784267  49.2145334  50.6604694 108.5791366
  48.4736336  51.8083133 107.9269084  56.4083656  59.5037177 109.8771768
  55.9647511  58.7173555 109.5592672  57.0700870  59.6916327 109.2115659
  58.5064895  59.7839977 107.9053169  58.4883370  60.6048858 107.4133438
  59.4284815  59.6594052 108.1303310  54.9637949  57.2984106 108.7476677
  55.4966285  56.5372394 108.5175985  54.4352030  57.0057758 109.4900832
  58.1307644  42.4044172 104.2770319  57.7871913  43.2945814 104.2009430
  58.4986606  42.2145830 103.4139904  58.0957926  52.3952783  92.7842754
  57.5804550  53.1657388  93.0231142  57.8235235  51.7217920  93.4075816
  55.6805037  47.2402484  97.8427993  54.8246634  46.8509335  97.6633631
  56.0931989  47.3194445  96.9827778  57.2104184  44.7748827 102.2419552
  56.7068980  44.7378963 101.4287358  57.5034791  45.6841570 102.3016209
  53.4547070  44.8587557 101.2485734  54.3200067  44.6630366 100.8891624
  53.5224579  44.6297909 102.1755091  63.0692200  55.1485138  94.7195928
  62.2921643  54.8096297  94.2751090  63.7483681  55.1537761  94.0450893
  57.8844230  50.2679875  94.6102535  57.5794365  50.5826025  95.4612679
  58.8374672  50.3461295  94.6529868  56.3290661  56.4270099  96.2595489
  55.8012023  55.6922858  95.9468727  55.8278164  57.2044775  96.0135458
  61.3083507  54.6219119 101.3762536  60.6507182  55.3118381 101.4642664
  62.1123907  55.0115551 101.7196522  51.0609389  47.0889765  98.6202101
  51.6353141  46.8664947  97.8875294  51.6480371  47.1578460  99.3730702
  60.1188966  52.9763492  99.4266477  60.6320848  53.6093484  99.9288187
  60.7690190  52.3764687  99.0609838  51.3878976  49.1194226  92.6397986
  50.5516288  49.4568913  92.9607261  51.2483746  48.9843206  91.7025123
  53.3632057  43.9631014  97.3477170  52.7096469  43.6480031  96.7233785
  53.3212531  43.3406754  98.0736993  54.4743262  54.2450309  89.2630462
  53.5670323  54.0139562  89.4621611  54.9714294  53.4487928  89.4504444
  57.3811340  62.9547816  92.1827149  56.7073039  63.2579513  92.7912106
  57.7677162  63.7576897  91.8332606  56.5969797  50.4512947 101.6724818
  55.6792358  50.6727894 101.5146506  57.0129941  50.5259258 100.8136525
  57.3804845  51.8504363  96.8027498  58.1276664  52.3625760  96.4934620
  57.6496434  51.5288416  97.6631892  55.6531495  54.3462904  93.7854453
  54.7442714  54.0621937  93.8826922  55.6826579  54.7661982  92.9257759
  60.8850762  57.9569493  97.5545620  60.4313090  57.1160403  97.6110811
  60.2544729  58.5930892  97.8920400  59.8283682  48.8861479  98.7846288
  59.0906439  48.3738866  99.1156530  60.0810456  48.4461861  97.9729564
  59.3283702  59.7945990  98.4895438  59.6206676  60.3551047  97.7707804
  59.8382322  60.0874551  99.2448597  59.9295309  41.6637731  99.3788057
  60.2354186  40.8035095  99.0913972  60.6547914  42.2555352  99.1787051
  54.2016389  51.9591524  99.8864248  54.2564999  51.0065361  99.8106725
  53.3907591  52.1150964 100.3705546  55.3507583  55.8871648  91.1242531
  54.9127013  55.1707506  90.6648168  56.0918024  56.1147762  90.5627623
  52.1408749  50.5768584  97.6454627  51.3276614  50.8762755  98.0519819
  52.6367743  50.1824273  98.3629109  54.2917327  60.5726341  99.5788891
  54.2493506  60.7987187  98.6497423  55.2080026  60.3389716  99.7274693
  57.7382961  51.0410409 106.4769521  58.0932348  51.2681882 107.3363986
  58.3855092  51.3728786 105.8546776  63.4680698  54.1628845  97.1818850
  63.3298596  54.3530441  96.2540039  63.1116916  54.9248227  97.6386901
  51.6322824  48.1486940 103.2615862  52.2722203  48.0075699 102.5638825
  50.8000354  47.8621453 102.8854464  63.4950077  56.2305372 102.1930121
  63.9286584  56.1380661 103.0413175  64.2081658  56.2062872 101.5550137
  52.4083128  57.4489370  99.3750854  53.2023726  56.9539690  99.1733429
  51.6974820  56.9207233  99.0118560  57.2277972  59.8307466 103.7263222
  57.2814994  60.3998402 104.4940938  56.3592753  60.0009351 103.3617259
  48.6351440  48.1187265  98.0388849  48.8958257  49.0332598  97.9298009
  49.4568612  47.6511707  98.1885461  50.1076365  49.5325022 105.2087673
  50.7799419  49.3242384 104.5600322  49.2806152  49.3347108 104.7692905
  64.3565627  56.2729072 104.7263007  64.5501517  57.1774883 104.9722282
  64.2566245  55.8136491 105.5601592  56.0101937  46.1586963 107.2253334
  55.3629853  46.8576913 107.1317810  56.7802953  46.5923107 107.5929582
  59.4180735  56.4235815 110.3003887  59.2666242  56.1946367 109.3833971
  59.4085415  57.3806416 110.3135232  56.1866072  53.9967728 105.2850154
  57.1158132  54.1478887 105.1119121  55.7657102  54.0851749 104.4298800
  54.9854404  58.0218392 103.0548691  54.8465489  57.6537177 103.9274629
  54.1969000  58.5366032 102.8832649  55.5802556  63.1227489  94.3974228
  55.7554311  62.6515532  95.2119850  54.8935344  63.7493255  94.6255489
  56.5359619  57.3999995 100.4437529  56.2009451  57.3600765 101.3395179
  56.0363564  56.7344711  99.9707939  50.5103863  52.8067625 105.9690110
  50.3723661  52.0747864 106.5701649  51.4208786  52.7176525 105.6874298
  59.4718810  54.7456029  90.7174589  58.8547981  54.0202857  90.6207641
  59.0035299  55.5065389  90.3741663  53.1386163  52.5187584 105.4573790
  53.8485782  51.8780776 105.4160408  53.0955472  52.7700479 106.3799971
  61.1272942  59.4554938 108.3780369  61.0685488  58.7714158 107.7110952
  61.5292460  60.1973928 107.9260995  51.8515097  49.5052802 107.2769429
  51.3152454  49.0543541 107.9291026  51.2631806  49.6398711 106.5339894
  50.1463641  66.2716851 101.1714088  50.3860239  66.9035376 101.8493107
  49.3032837  65.9204891 101.4579447  51.2617356  48.9641454  89.8395893
  50.3846823  48.8430254  89.4758140  51.7375109  48.1727532  89.5874782
  61.1290349  57.4194522 106.6094349  60.2417128  57.0820443 106.7320748
  61.6988900  56.6877553 106.8463114  47.5854219  48.6408810 104.3622424
  47.5012407  48.0334479 103.6272834  46.7636925  49.1317828 104.3631920
  54.6591503  62.0795974 103.5755592  54.5861674  62.8850945 104.0874897
  54.2168896  62.2787940 102.7503613  54.4481282  61.3167744  97.0858414
  53.6648804  61.8589424  97.1796638  55.1474028  61.8341724  97.4852655
  57.7577932  47.1262373  99.7292619  58.2546632  46.3732336  99.4093689
  56.9864914  47.1626690  99.1635828  65.6107690  52.8302739 101.3710910
  65.5997566  53.7127454 101.0004844  64.7425069  52.4774290 101.1765447
  57.1190186  61.9782808 105.7313751  57.8318158  62.6130273 105.6589652
  56.6280215  62.0746674 104.9153752  58.8407713  55.8834061  97.3031042
  57.9063992  56.0035523  97.1335747  59.0184382  54.9806527  97.0391052
  54.3412901  49.2679756  99.4564303  53.9710689  48.7150797 100.1445209
  54.8371994  48.6637890  98.9039304  62.2280265  51.7251380  97.8381076
  62.6940717  52.5579371  97.7641379  62.6787765  51.2596361  98.5426335
  60.2956496  58.0695201  94.8367228  60.5716340  57.9551796  95.7461103
  59.4260994  57.6712686  94.7979402  60.1996927  44.0931967 101.8771978
  59.2860007  44.3236194 102.0454185  60.6290029  44.1770411 102.7286010
  59.9703386  52.2821859 104.3771872  59.3174836  52.5297766 103.7224325
  60.3483766  51.4685997 104.0434349  56.9310560  62.3181552  98.4800042
  57.1132954  61.5003208  98.9427794  57.7543546  62.5349244  98.0424932
  57.2652725  61.2449737  95.7415091  57.7940492  60.7342192  95.1285253
  57.5280945  60.9292267  96.6060624  56.0190959  53.0241670 110.8637909
  55.3431596  52.9235799 111.5340284  56.8418593  52.8680884 111.3273906
  54.7613742  64.3308597 105.0995525  55.3132050  64.4940219 105.8644610
  55.1019935  64.9213035 104.4275550  49.7378235  46.6783747 105.7017410
  49.8019561  47.5398578 105.2894807  49.6745355  46.0657749 104.9689768
  49.2130507  48.7506880 109.3490444  49.8402546  48.3683957 109.9627968
  48.3558426  48.5321082 109.7146136  59.6124616  59.1569855 110.9544179
  60.1564520  59.7699813 110.4599134  59.0311461  59.7149433 111.4711192
  57.8982129  62.2790573 102.0859207  57.7733268  61.4780313 101.5770153
  58.5561220  62.7736766 101.5973177  49.5190297  48.6339305 101.2636347
  48.7976883  49.2475273 101.1243821  50.3083553  49.1697070 101.1852993
  59.9617037  60.0799593 103.7138757  59.0147373  59.9604944 103.6417084
  60.3099810  59.1922091 103.7965019  52.3216611  45.9693732 107.5376999
  52.8451012  46.2156028 108.3003308  52.1028944  46.8013767 107.1180136
  47.7183892  48.2397406  95.4048124  47.3896598  47.3594785  95.2223230
  48.0723262  48.1845075  96.2924513  56.9663471  59.8752309  99.9143109
  56.8188433  58.9469017 100.0950679  57.7916964  59.8972400  99.4300185
  50.8325715  48.5270376  95.7723602  51.1721787  49.0556297  95.0502210
  51.2797835  48.8650782  96.5482168  60.5697592  60.6980868 101.0007982
  61.4944140  60.4923729 100.8632433  60.4012896  60.4497269 101.9097324
  53.5269156  46.9107427 105.2226670  53.1865976  46.1115240 105.6247349
  52.8208162  47.2109138 104.6503503  54.1785628  43.9956739 103.6753993
  55.0011697  43.5217218 103.5532883  54.4223691  44.7747223 104.1752679
  52.8193862  47.0244998  93.9716894  53.5402225  47.4026251  93.4680611
  52.1959166  47.7433875  94.0751872  56.9624985  47.7290147  94.9075227
  57.1788599  48.6114785  94.6064055  56.4819052  47.3376360  94.1780869
  51.7024206  50.6875860 101.4845971  51.5568787  51.0016163 102.3770253
  51.2249410  51.3060760 100.9316870  53.5620589  47.6778408 101.5326861
  53.5482158  46.7819501 101.1959159  54.2793017  47.6849072 102.1665147
  55.4146720  48.1115748 103.5779988  55.1564498  49.0332819 103.5764319
  54.8831760  47.7146183 104.2680452  60.3592909  61.2166535  96.3570074
  60.5329786  60.6512958  95.6043926  60.8521800  62.0167430  96.1749564
  52.9657485  46.5592788  96.8014431  53.0873396  45.6309434  97.0005318
  52.6759527  46.5731474  95.8892746  55.8348676  44.2447699  99.9381151
  55.8570372  44.3087032  98.9833130  56.2516735  43.4052207 100.1321657
  66.2132300  53.9802958  97.9760373  66.6563446  53.2310283  97.5779497
  65.3358810  53.9713095  97.5934105  61.3468081  60.5333300  93.4566972
  62.0418986  61.1539992  93.6754286  61.6891231  59.6828651  93.7319350
  46.9635890  52.3551101 107.3163789  46.2217626  52.5033736 107.9028420
  46.6428635  52.6159366 106.4530539  63.2459504  57.9833005  94.9854303
  63.7710828  58.3220278  94.2603623  63.1581857  57.0480021  94.8017437
  54.9079553  61.8967079 107.1144179  55.2166679  61.6516226 107.9866879
  55.7055035  62.1013717 106.6263049  54.9300165  64.0504989  99.3449556
  54.4905155  63.5581367 100.0382413  55.6808282  63.5077956  99.1041631
  52.4498565  48.0724786 111.0104364  52.4986720  48.9486908 110.6282133
  52.9921079  47.5302179 110.4376007  62.9353410  58.6165909 110.2905501
  62.1448954  58.5990048 109.7510000  62.6986765  59.1554203 111.0454537
  63.0551285  55.4658375 107.6038229  63.1049290  55.3008383 108.5453752
  62.9465209  54.5985634 107.2136110  51.9387544  58.1446921  94.8930318
  52.0875664  58.8282385  94.2396991  52.7453988  58.1252011  95.4079774
  60.3455048  51.4489303 108.9197536  61.2464911  51.3095768 108.6281534
  60.4203022  51.6143758 109.8595713  54.6797853  48.8256158 107.7650722
  53.8101163  49.1189724 107.4933311  54.9157333  49.4096603 108.4857986
  64.5569482  57.8855317 107.8480251  64.2654291  58.2485297 108.6843712
  63.9441614  57.1722325 107.6693583  65.7565165  55.4508197 100.3682821
  66.5912056  55.8898001 100.5320381  65.8924293  54.9746850  99.5491067
  62.8056670  53.0087931 106.3160309  63.2810792  53.2015578 105.5079160
  61.8822236  53.0647117 106.0703692  57.3836887  45.0435775 105.2816143
  57.9018831  45.7796802 104.9562631  57.0292020  45.3499768 106.1162902
  48.9635825  49.9040456  93.3977548  48.2705070  49.9784811  92.7417584
  48.7187576  49.1400800  93.9199065  57.6349481  41.4636058 100.8017039
  57.9151235  40.7959247 101.4277466  58.4200088  41.6565153 100.2891703
  55.4382950  60.6395051  92.3642065  54.8656917  61.2585239  91.9112537
  56.0115743  61.1894413  92.8981987  61.5058339  49.8853691 104.5488614
  62.4575762  49.9851789 104.5700838  61.3361790  49.0931960 105.0586699
  59.5272719  46.9709275 104.7348015  58.9322651  47.2514287 104.0394504
  59.2422416  47.4603176 105.5064756  58.6580209  60.9232202  93.4950648
  59.5910883  60.8577763  93.6983523  58.5703422  61.7588468  93.0365180
  61.2868226  60.2398072  90.4554595  61.2081858  59.9057935  91.3490353
  62.1077893  60.7319840  90.4546068  63.9846417  53.1059811 103.6630914
  63.9522737  52.1675812 103.8490598  64.5947041  53.1843848 102.9296739
  55.8229748  51.9755864  89.7058118  56.7688853  51.8462072  89.7746536
  55.4443993  51.2370526  90.1827546  64.1340906  49.8970855 103.7089197
  63.6179954  49.1129311 103.5219126  65.0180854  49.5689571 103.8735717
  61.7951633  43.6411870  99.6685010  61.5976454  43.3326958 100.5528342
  62.4051338  44.3673509  99.7982940  69.8022967  54.1675818 102.8036951
  70.5326356  53.9061106 103.3644654  69.1929913  53.4304540 102.8439019
  67.8838264  52.3083681 103.4011402  67.1571428  52.1739646 102.7927893
  67.4685551  52.6160509 104.2068120  55.7068441  56.0273610 111.1658775
  56.6271450  56.2052209 111.3598821  55.6718024  55.0829656 111.0138474
  54.0072665  49.9005841  89.6413003  53.1004121  49.6038953  89.7175717
  54.2848646  49.6035659  88.7747289  55.6234731  44.4442730  95.7957244
  54.8135459  44.0989815  96.1712491  56.3119148  44.1350274  96.3844856
  57.5525279  43.5220777  97.4181541  58.1056318  43.9416230  98.0771564
  57.7895366  42.5956525  97.4604497  53.5758379  49.5107851 113.1984305
  53.4755105  50.4602208 113.1296396  53.3579921  49.1826090 112.3260375
  52.7771450  46.7592776  89.7824982  53.6390614  47.0847674  90.0420800
  52.9621794  45.9724272  89.2698048  60.9304086  45.6321302  96.9260205
  60.3502755  46.2906106  96.5438258  60.6640019  44.8098647  96.5147623
  59.3807653  45.0326360  99.1281526  59.8807431  45.1442894  98.3195845
  60.0243261  44.7287413  99.7682334  53.4389649  52.9404990 112.0149367
  52.9556730  53.7405350 112.2213256  53.5250588  52.9512934 111.0616811
  49.3662986  56.8309524 104.0517800  50.3206240  56.7993467 103.9847732
  49.1675510  56.3700148 104.8668026  49.9562368  55.4010640 106.6188598
  50.7755257  55.8954719 106.6423435  50.2299176  54.4842608 106.5906166
  59.7128964  47.7921393  95.9816554  58.8254819  48.0771043  95.7636748
  60.1282953  47.6315156  95.1343831  63.0643501  47.8167914  99.6970893
  63.8403891  48.3064366  99.9695510  62.3391635  48.2425968 100.1542762
  65.5016059  48.5295533 100.7544833  66.0960550  48.2891269 100.0438142
  65.5742643  47.8102663 101.3818370  58.8572178  57.5566067  90.0764574
  59.5608028  57.7616070  90.6922229  58.1334827  58.1242829  90.3413657
  59.6869988  53.3075929  96.1966844  59.6305190  53.7644480  95.3574476
  60.2398331  52.5466613  96.0189687  63.4974794  49.0965660  97.0216963
  63.2411728  48.6962296  97.8525171  62.8727662  49.8109454  96.8967102
  67.8087132  51.8361734  99.5288255  67.2486690  51.9054923 100.3019817
  67.2030635  51.6602718  98.8087751  60.7658875  57.9948596  92.1263034
  61.6004479  57.5629795  91.9440508  60.6043218  57.8230610  93.0539928
  60.4204767  54.4980710  93.4919373  60.3653571  54.3324981  92.5507817
  59.7950823  55.2056743  93.6481563  45.2097282  49.7348774 107.3180795
  45.8556146  49.2247728 107.8068020  45.0014434  50.4717456 107.8924220
  57.7350675  56.8029622 112.8172936  58.6041834  56.9770274 112.4559571
  57.2557426  57.6224038 112.6948665  53.7300893  43.9988819  93.0704691
  53.7179563  44.9430659  93.2272962  54.6224315  43.8158964  92.7764153
  57.5453012  40.5931595  97.3250628  56.7785408  40.0390082  97.4707311
  57.9563717  40.6653464  98.1864780  49.5494773  46.8816391 111.4155809
  50.4126235  46.5253196 111.6259134  48.9760184  46.5430286 112.1031214
  69.3943150  68.5118248 102.2218210  70.0321560  68.3924995 101.5181550
  69.2763993  69.4599092 102.2806163  66.2032857  68.4645676 102.1579735
  65.8651368  68.3486740 101.2700270  67.0722625  68.0636841 102.1380741
  62.0619672  70.3181152  98.1476626  61.4984537  70.2271089  97.3792914
  61.9472067  69.4981057  98.6279119  66.6852640  69.6180527 108.1165941
  66.6741280  69.2233326 107.2446444  66.8473279  68.8846600 108.7099712
  59.6084104  71.8132344 100.9860846  60.4005396  71.4723168 100.5707146
  59.8480754  71.9227319 101.9063000  67.6419231  73.9852120  93.4591091
  66.9907211  74.5706200  93.0725105  68.4363594  74.5158315  93.5186128
  61.5674858  71.0741257  93.8578225  62.3405734  70.5270244  93.7191101
  61.9200257  71.9385506  94.0692687  63.4059901  72.4017639 107.0645125
  63.1149767  73.3063270 106.9491791  64.0416885  72.4434167 107.7789194
  64.3316108  69.7794488 103.6546484  64.9279680  69.5550510 102.9403447
  64.3891079  69.0379233 104.2571932  63.9041136  67.2333923  91.4896675
  64.1566657  66.7115444  90.7280138  62.9665695  67.0700069  91.5923359
  68.9484419  66.2369701  99.2971418  69.7347508  65.8189125  98.9461835
  69.2123123  67.1415794  99.4653067  69.1194496  71.6742552  93.9960075
  68.4840329  71.7477178  94.7080980  68.7891903  72.2636151  93.3179154
  74.3492846  66.1744935 100.2004397  75.0818018  65.6044151 100.4342226
  73.5932202  65.7866535 100.6410903  63.6237425  69.1362029  93.6921050
  63.5073683  68.4606932  94.3602134  63.7339685  68.6494403  92.8753203
  65.9668966  68.5972176  97.3967739  65.6027173  68.0702797  98.1080661
  66.8236082  68.2070645  97.2234225  71.8718266  59.8866509 104.6599006
  71.5401591  60.7561920 104.4360221  71.2763880  59.5702793 105.3393036
  65.6074453  63.6262076  92.3929088  65.7748855  64.4942312  92.7599559
  65.4171622  63.7889358  91.4690377  68.3649786  72.0879055 104.0594918
  68.0650509  72.9904094 103.9510726  68.0200845  71.8211238 104.9116071
  61.8162267  68.5392852 100.0931623  60.8912764  68.4069066 100.3009314
  62.0646681  69.3187071 100.5901565  71.7646930  64.6061595 101.7392356
  70.8563807  64.5377003 101.4451117  71.7134525  65.0833540 102.5674181
  65.5863674  66.0819733  93.3775755  65.4663299  66.5276784  94.2161235
  64.8916262  66.4305051  92.8189293  59.1771078  68.1826125 100.9275412
  59.3063460  68.4360604 101.8414823  58.4968530  68.7753833 100.6080067
  63.3470566  78.8523375  97.0265886  63.2694595  79.8031200  97.1054367
  62.7432209  78.5069248  97.6840812  65.8387795  66.0251241 109.6827253
  65.0621129  66.5845161 109.6730118  66.4778358  66.5108023 110.2042123
  73.6308576  62.8078033 103.5170230  72.9882956  63.1010566 102.8710024
  73.1263505  62.6930954 104.3223426  71.2848740  66.5541207  94.2056089
  72.1966596  66.7868593  94.0303786  70.7758387  67.1378251  93.6431167
  64.0934168  68.8336694 109.2445220  64.8348852  69.3721738 108.9680043
  63.3871153  69.4602983 109.4016772  69.5689507  70.9765834 107.8417381
  69.9772863  70.5348245 107.0972014  68.8466769  70.4018462 108.0951574
  65.9220577  65.9138441 105.2150938  66.7681773  66.3377855 105.3585587
  65.8619215  65.2572065 105.9089501  69.8918322  71.5367025 101.5969670
  69.2627184  71.7012739 100.8945738  69.5043984  71.9508635 102.3680634
  73.7707554  72.4721463  98.9514034  73.0858592  72.8520364  98.4011067
  73.8551403  73.0816789  99.6845982  69.0720023  63.5742809 106.8732112
  68.8280955  64.3284870 106.3366388  69.3479953  63.9528157 107.7079359
  71.0258486  70.1181422 105.5509378  71.2375381  70.7613182 104.8743759
  70.9788234  69.2843738 105.0831308  68.6284714  62.7299242 102.4545950
  67.7669193  63.0280496 102.7462687  68.6547149  62.9469641 101.5226982
  65.4446284  71.2741433  98.8619755  65.9084629  71.5529136  98.0724378
  65.1803082  70.3724878  98.6792846  62.3370365  70.8212915 101.7999519
  62.9071722  71.2500183 101.1617003  62.9278477  70.5395499 102.4983704
  64.3815170  67.3964585  95.6709320  65.0839213  67.8485629  96.1383247
  64.0495798  66.7548404  96.2989214  62.8295531  65.9876342 110.0460530
  62.1994192  66.6692623 110.2795927  62.7231619  65.8759424 109.1013668
  58.1240504  65.6548138 100.9726454  57.3339558  65.9105667 100.4966565
  58.6151751  66.4696476 101.0778495  72.1404313  72.9953377 103.7231735
  72.9621757  72.5933565 103.4414417  72.1366716  72.8921611 104.6747851
  60.0755249  66.0192717  97.9309931  59.2786413  66.1311412  98.4493426
  59.8480841  66.3579370  97.0650821  65.9060917  72.5437421 105.8792445
  65.9705349  73.0057828 106.7150617  65.1971841  71.9134785 106.0074755
  56.4078207  65.9078629 103.4041445  56.6586245  66.7925638 103.6699021
  56.9437755  65.7283230 102.6316537  80.2310307  69.3392126 100.0716706
  79.4774015  68.7699524  99.9160711  80.3657848  69.3054790 101.0187341
  65.6208935  74.2105528  95.7471426  65.4854609  75.0557064  96.1756274
  66.1618747  74.4124806  94.9837360  62.1076274  60.2897108 112.4085781
  61.7143220  59.7363306 113.0833425  62.9242415  60.6007686 112.7992298
  59.0738332  71.7280966  96.3199351  59.5862853  72.5224216  96.4704915
  59.7261045  71.0307257  96.2532952  60.8833217  74.8446722  98.4022104
  61.0599845  75.7664687  98.2143088  61.6790050  74.5305142  98.8316484
  65.0244235  61.7054987 110.0006037  65.7653949  62.3062140 109.9210500
  65.2562158  60.9632625 109.4424080  60.1685573  66.8911354 108.2784267
  60.0539088  65.9896611 108.5791366  59.3130091  67.1375051 107.9269084
  67.2477411  74.8329095 109.8771768  66.8041265  74.0465473 109.5592672
  67.9094625  75.0208245 109.2115659  62.0064532  76.3624896 104.4032446
  62.5571957  76.2341960 103.6309440  61.1676008  76.6619785 104.0527339
  69.3458649  75.1131894 107.9053169  69.3277124  75.9340776 107.4133438
  70.2678569  74.9885970 108.1303310  65.8031703  72.6276024 108.7476677
  66.3360040  71.8664312 108.5175985  65.2745784  72.3349676 109.4900832
  68.9701398  57.7336090 104.2770319  68.6265668  58.6237732 104.2009430
  69.3380361  57.5437748 103.4139904  57.0387249  70.0569620  97.0958921
  57.8762471  70.4666629  96.8792629  57.2165516  69.1169063  97.0659115
  68.9351681  67.7244701  92.7842754  68.4198304  68.4949306  93.0231142
  68.6628989  67.0509837  93.4075816  66.5198792  62.5694402  97.8427993
  65.6640388  62.1801252  97.6633631  66.9325744  62.6486363  96.9827778
  68.0497939  60.1040745 102.2419552  67.5462734  60.0670880 101.4287358
  68.3428545  61.0133488 102.3016209  64.2940824  60.1879475 101.2485734
  65.1593821  59.9922283 100.8891624  64.3618333  59.9589827 102.1755091
  73.9085955  70.4777056  94.7195928  73.1315398  70.1388215  94.2751090
  74.5877436  70.4829679  94.0450893  68.7237984  65.5971793  94.6102535
  68.4188120  65.9117942  95.4612679  69.6768426  65.6753213  94.6529868
  67.1684416  71.7562016  96.2595489  66.6405777  71.0214776  95.9468727
  66.6671919  72.5336693  96.0135458  72.1477262  69.9511037 101.3762536
  71.4900936  70.6410298 101.4642664  72.9517661  70.3407469 101.7196522
  61.9003143  62.4181683  98.6202101  62.4746895  62.1956864  97.8875294
  62.4874126  62.4870377  99.3730702  70.9582721  68.3055410  99.4266477
  71.4714602  68.9385401  99.9288187  71.6083945  67.7056605  99.0609838
  62.2272731  64.4486144  92.6397986  61.3910043  64.7860830  92.9607261
  62.0877500  64.3135124  91.7025123  64.2025811  59.2922932  97.3477170
  63.5490224  58.9771949  96.7233785  64.1606285  58.6698672  98.0736993
  65.3137016  69.5742227  89.2630462  64.4064078  69.3431480  89.4621611
  65.8108048  68.7779846  89.4504444  68.2205095  78.2839734  92.1827149
  67.5466794  78.5871431  92.7912106  68.6070917  79.0868814  91.8332606
  67.4363552  65.7804865 101.6724818  66.5186113  66.0019812 101.5146506
  67.8523695  65.8551176 100.8136525  68.2198599  67.1796281  96.8027498
  68.9670418  67.6917678  96.4934620  68.4890189  66.8580334  97.6631892
  66.4925249  69.6754822  93.7854453  65.5836469  69.3913854  93.8826922
  66.5220333  70.0953900  92.9257759  71.7244517  73.2861411  97.5545620
  71.2706844  72.4452321  97.6110811  71.0938484  73.9222809  97.8920400
  70.6677436  64.2153397  98.7846288  69.9300193  63.7030783  99.1156530
  70.9204210  63.7753779  97.9729564  70.1677456  75.1237908  98.4895438
  70.4600431  75.6842965  97.7707804  70.6776077  75.4166469  99.2448597
  70.7689064  56.9929649  99.3788057  71.0747941  56.1327013  99.0913972
  71.4941669  57.5847269  99.1787051  57.0613420  67.3960336  97.7669655
  56.8637820  66.8029696  97.0420721  56.5060084  67.0912546  98.4845594
  65.0410144  67.2883442  99.8864248  65.0958753  66.3357279  99.8106725
  64.2301346  67.4442881 100.3705546  66.1901337  71.2163565  91.1242531
  65.7520767  70.4999424  90.6648168  66.9311778  71.4439680  90.5627623
  62.9802503  65.9060502  97.6454627  62.1670369  66.2054672  98.0519819
  63.4761498  65.5116191  98.3629109  65.1311081  75.9018259  99.5788891
  65.0887260  76.1279105  98.6497423  66.0473780  75.6681633  99.7274693
  68.5776715  66.3702326 106.4769521  68.9326103  66.5973800 107.3363986
  69.2248846  66.7020703 105.8546776  74.3074452  69.4920762  97.1818850
  74.1692351  69.6822358  96.2540039  73.9510671  70.2540145  97.6386901
  62.4716578  63.4778857 103.2615862  63.1115958  63.3367617 102.5638825
  61.6394109  63.1913371 102.8854464  74.3343832  71.5597289 102.1930121
  74.7680338  71.4672578 103.0413175  75.0475412  71.5354790 101.5550137
  63.2476882  72.7781288  99.3750854  64.0417481  72.2831608  99.1733429
  62.5368574  72.2499151  99.0118560  68.0671727  75.1599383 103.7263222
  68.1208749  75.7290320 104.4940938  67.1986508  75.3301268 103.3617259
  59.5559646  66.9224370  95.4510607  58.6257234  66.8608825  95.6680569
  59.6517118  66.4000322  94.6547248  59.4745195  63.4479182  98.0388849
  59.7352012  64.3624516  97.9298009  60.2962367  62.9803625  98.1885461
  60.9470120  64.8616940 105.2087673  61.6193173  64.6534302 104.5600322
  60.1199906  64.6639026 104.7692905  75.1959381  71.6020990 104.7263007
  75.3895271  72.5066800 104.9722282  75.0959999  71.1428409 105.5601592
  66.8495692  61.4878881 107.2253334  66.2023607  62.1868830 107.1317810
  67.6196707  61.9215024 107.5929582  70.2574490  71.7527733 110.3003887
  70.1059996  71.5238284 109.3833971  70.2479169  72.7098334 110.3135232
  67.0259826  69.3259645 105.2850154  67.9551886  69.4770805 105.1119121
  66.6050856  69.4143666 104.4298800  65.8248158  73.3510310 103.0548691
  65.6859244  72.9829094 103.9274629  65.0362754  73.8657949 102.8832649
  66.4196310  78.4519406  94.3974228  66.5948066  77.9807450  95.2119850
  65.7329098  79.0785173  94.6255489  67.3753373  72.7291913 100.4437529
  67.0403206  72.6892683 101.3395179  66.8757319  72.0636628  99.9707939
  61.3497617  68.1359543 105.9690110  61.2117415  67.4039781 106.5701649
  62.2602541  68.0468443 105.6874298  70.3112565  70.0747947  90.7174589
  69.6941736  69.3494775  90.6207641  69.8429053  70.8357307  90.3741663
  63.9779918  67.8479502 105.4573790  64.6879536  67.2072694 105.4160408
  63.9349226  68.0992397 106.3799971  71.9666697  74.7846855 108.3780369
  71.9079243  74.1006075 107.7110952  72.3686215  75.5265845 107.9260995
  62.6908852  64.8344720 107.2769429  62.1546209  64.3835458 107.9291026
  62.1025560  64.9690629 106.5339894  60.9857395  81.6008769 101.1714088
  61.2253994  82.2327293 101.8493107  60.1426592  81.2496809 101.4579447
  62.1011111  64.2933371  89.8395893  61.2240577  64.1722172  89.4758140
  62.5768864  63.5019449  89.5874782  71.9684104  72.7486439 106.6094349
  71.0810883  72.4112361 106.7320748  72.5382655  72.0169470 106.8463114
  53.6213251  69.0810531  99.9337400  54.3084291  68.7672261  99.3458415
  53.4661380  69.9851896  99.6604652  58.4247973  63.9700727 104.3622424
  58.3406162  63.3626397 103.6272834  57.6030679  64.4609746 104.3631920
  65.4985257  77.4087892 103.5755592  65.4255429  78.2142863 104.0874897
  65.0562650  77.6079857 102.7503613  65.2875037  76.6459662  97.0858414
  64.5042559  77.1881342  97.1796638  65.9867782  77.1633641  97.4852655
  68.5971687  62.4554291  99.7292619  69.0940386  61.7024253  99.4093689
  67.8258668  62.4918608  99.1635828  76.4501444  68.1594657 101.3710910
  76.4391321  69.0419372 101.0004844  75.5818824  67.8066207 101.1765447
  67.9583941  77.3074726 105.7313751  68.6711913  77.9422190 105.6589652
  67.4673969  77.4038592 104.9153752  69.6801468  71.2125978  97.3031042
  68.7457746  71.3327441  97.1335747  69.8578136  70.3098445  97.0391052
  65.1806656  64.5971674  99.4564303  64.8104443  64.0442714 100.1445209
  65.6765748  63.9929807  98.9039304  73.0674019  67.0543298  97.8381076
  73.5334471  67.8871289  97.7641379  73.5181519  66.5888279  98.5426335
  63.0095854  75.0569169 106.5519321  63.7105314  75.6905652 106.7048716
  62.5390969  75.3983901 105.7914961  71.1350250  73.3987119  94.8367228
  71.4110094  73.2843713  95.7461103  70.2654749  73.0004604  94.7979402
  71.0390682  59.4223885 101.8771978  70.1253762  59.6528111 102.0454185
  71.4683783  59.5062329 102.7286010  70.8097140  67.6113776 104.3771872
  70.1568590  67.8589684 103.7224325  71.1877520  66.7977915 104.0434349
  67.7704314  77.6473470  98.4800042  67.9526709  76.8295126  98.9427794
  68.5937300  77.8641162  98.0424932  68.1046480  76.5741655  95.7415091
  68.6334246  76.0634109  95.1285253  68.3674699  76.2584185  96.6060624
  66.8584713  68.3533588 110.8637909  66.1825350  68.2527717 111.5340284
  67.6812347  68.1972801 111.3273906  58.6063572  74.5905524 103.4850424
  59.1917009  73.8449212 103.6178328  58.4088411  74.9009481 104.3687088
  61.4602228  77.6256771  98.5012867  60.7912603  78.1102899  98.0176907
  61.3215097  77.8725992  99.4156245  53.1981227  67.1611124 102.2054867
  53.2365327  66.6274715 102.9991985  52.6921520  66.6346330 101.5865844
  65.6007496  79.6600515 105.0995525  66.1525804  79.8232136 105.8644610
  65.9413690  80.2504953 104.4275550  60.5771989  62.0075665 105.7017410
  60.6413316  62.8690496 105.2894807  60.5139110  61.3949666 104.9689768
  60.0524262  64.0798797 109.3490444  60.6796301  63.6975875 109.9627968
  59.1952181  63.8612999 109.7146136  70.4518370  74.4861772 110.9544179
  70.9958274  75.0991731 110.4599134  69.8705215  75.0441351 111.4711192
  56.8289805  65.8875226  95.2808799  57.1243246  64.9785905  95.2275852
  55.9277840  65.8662966  94.9589801  68.7375883  77.6082491 102.0859207
  68.6127023  76.8072230 101.5770153  69.3954975  78.1028684 101.5973177
  60.3584052  63.9631223 101.2636347  59.6370637  64.5767191 101.1243821
  61.1477307  64.4988988 101.1852993  70.8010792  75.4091511 103.7138757
  69.8541127  75.2896862 103.6417084  71.1493565  74.5214009 103.7965019
  63.1610365  61.2985650 107.5376999  63.6844767  61.5447946 108.3003308
  62.9422698  62.1305684 107.1180136  58.5577646  63.5689324  95.4048124
  58.2290352  62.6886703  95.2223230  58.9117017  63.5136993  96.2924513
  67.8057225  75.2044227  99.9143109  67.6582188  74.2760934 100.0950679
  68.6310719  75.2264318  99.4300185  61.6719469  63.8562294  95.7723602
  62.0115542  64.3848215  95.0502210  62.1191590  64.1942700  96.5482168
  71.4091347  76.0272786 101.0007982  72.3337894  75.8215647 100.8632433
  71.2406650  75.7789187 101.9097324  64.3662910  62.2399345 105.2226670
  64.0259731  61.4407158 105.6247349  63.6601916  62.5401055 104.6503503
  65.0179382  59.3248657 103.6753993  65.8405451  58.8509135 103.5532883
  65.2617446  60.1039141 104.1752679  63.6587617  62.3536915  93.9716894
  64.3795979  62.7318168  93.4680611  63.0352921  63.0725792  94.0751872
  67.8018739  63.0582064  94.9075227  68.0182354  63.9406702  94.6064055
  67.3212807  62.6668278  94.1780869  62.5417961  66.0167778 101.4845971
  62.3962542  66.3308081 102.3770253  62.0643164  66.6352678 100.9316870
  64.4014344  63.0070326 101.5326861  64.3875912  62.1111419 101.1959159
  65.1186772  63.0140989 102.1665147  66.2540474  63.4407666 103.5779988
  65.9958252  64.3624737 103.5764319  65.7225515  63.0438100 104.2680452
  71.1986663  76.5458453  96.3570074  71.3723541  75.9804875  95.6043926
  71.6915554  77.3459348  96.1749564  57.0163623  68.5573122 104.4233632
  56.4717091  69.3332930 104.5553907  57.8942973  68.9043927 104.2652754
  63.8051240  61.8884706  96.8014431  63.9267151  60.9601352  97.0005318
  63.5153282  61.9023392  95.8892746  66.6742430  59.5739616  99.9381151
  66.6964127  59.6378949  98.9833130  67.0910489  58.7344125 100.1321657
  77.0526054  69.3094876  97.9760373  77.4957200  68.5602201  97.5779497
  76.1752565  69.3005012  97.5934105  72.1861836  75.8625217  93.4566972
  72.8812740  76.4831910  93.6754286  72.5284986  75.0120569  93.7319350
  57.8029645  67.6843018 107.3163789  57.0611381  67.8325654 107.9028420
  57.4822389  67.9451284 106.4530539  74.0853259  73.3124923  94.9854303
  74.6104583  73.6512196  94.2603623  73.9975611  72.3771938  94.8017437
  65.7473307  77.2258997 107.1144179  66.0560434  76.9808143 107.9866879
  66.5448789  77.4305635 106.6263049  65.7693920  79.3796906  99.3449556
  65.3298910  78.8873285 100.0382413  66.5202036  78.8369874  99.1041631
  58.2486258  75.5708447  99.3474184  59.0744278  75.2712219  98.9672827
  57.8980310  74.8016069  99.7963973  63.2167792  74.9234915 101.4171857
  62.5947801  74.2605620 101.1174085  63.8872659  74.9496047 100.7345505
  56.4494864  73.4894774 100.3063117  55.6126772  73.0616948 100.1247119
  56.4218509  73.6827217 101.2433909  63.2892319  63.4016703 111.0104364
  63.3380475  64.2778826 110.6282133  63.8314833  62.8594096 110.4376007
  73.7747165  73.9457827 110.2905501  72.9842709  73.9281965 109.7510000
  73.5380519  74.4846120 111.0454537  73.8945040  70.7950293 107.6038229
  73.9443045  70.6300300 108.5453752  73.7858963  69.9277552 107.2136110
  62.7781299  73.4738839  94.8930318  62.9269419  74.1574303  94.2396991
  63.5847742  73.4543929  95.4079774  71.1848802  66.7781221 108.9197536
  72.0858665  66.6387686 108.6281534  71.2596777  66.9435676 109.8595713
  65.5191608  64.1548076 107.7650722  64.6494917  64.4481642 107.4933311
  65.7551088  64.7388521 108.4857986  75.3963237  73.2147234 107.8480251
  75.1048045  73.5777215 108.6843712  74.7835368  72.5014243 107.6693583
  76.5958919  70.7800114 100.3682821  77.4305810  71.2189918 100.5320381
  76.7318048  70.3038767  99.5491067  73.6450425  68.3379849 106.3160309
  74.1204547  68.5307495 105.5079160  72.7215990  68.3939035 106.0703692
  60.5333932  69.5004016  95.8991387  60.2879973  68.5966346  96.0971597
  60.7029846  69.5021167  94.9570865  68.2230641  60.3727693 105.2816143
  68.7412585  61.1088720 104.9562631  67.8685774  60.6791686 106.1162902
  59.8029579  65.2332374  93.3977548  59.1098824  65.3076729  92.7417584
  59.5581331  64.4692717  93.9199065  68.4743236  56.7927975 100.8017039
  68.7544989  56.1251164 101.4277466  69.2593843  56.9857071 100.2891703
  66.2776704  75.9686969  92.3642065  65.7050671  76.5877156  91.9112537
  66.8509498  76.5186331  92.8981987  72.3452094  65.2145609 104.5488614
  73.2969517  65.3143707 104.5700838  72.1755544  64.4223878 105.0586699
  70.3666473  62.3001192 104.7348015  69.7716406  62.5806205 104.0394504
  70.0816170  62.7895093 105.5064756  69.4973964  76.2524119  93.4950648
  70.4304637  76.1869681  93.6983523  69.4097177  77.0880386  93.0365180
  72.1261981  75.5689990  90.4554595  72.0475612  75.2349853  91.3490353
  72.9471647  76.0611757  90.4546068  74.8240172  68.4351729 103.6630914
  74.7916492  67.4967730 103.8490598  75.4340795  68.5135766 102.9296739
  66.6623503  67.3047782  89.7058118  67.6082607  67.1753990  89.7746536
  66.2837748  66.5662444  90.1827546  74.9734660  65.2262772 103.7089197
  74.4573709  64.4421229 103.5219126  75.8574609  64.8981489 103.8735717
  72.6345387  58.9703788  99.6685010  72.4370208  58.6618876 100.5528342
  73.2445093  59.6965427  99.7982940  80.6416722  69.4967736 102.8036951
  81.3720110  69.2353024 103.3644654  80.0323667  68.7596458 102.8439019
  78.7232019  67.6375598 103.4011402  77.9965182  67.5031563 102.7927893
  78.3079306  67.9452427 104.2068120  66.5462195  71.3565528 111.1658775
  67.4665205  71.5344127 111.3598821  66.5111778  70.4121573 111.0138474
  64.8466420  65.2297758  89.6413003  63.9397875  64.9330871  89.7175717
  65.1242401  64.9327576  88.7747289  55.7644360  66.5504122 100.0912050
  55.4447144  65.6969430  99.7986424  55.2177788  66.7652700 100.8470017
  59.5424268  69.2666563 103.8081556  59.7610277  70.1983670 103.8269590
  59.9550042  68.9074537 104.5936360  66.4628485  59.7734648  95.7957244
  65.6529214  59.4281733  96.1712491  67.1512902  59.4642192  96.3844856
  68.3919034  58.8512695  97.4181541  68.9450072  59.2708148  98.0771564
  68.6289120  57.9248443  97.4604497  64.4152133  64.8399768 113.1984305
  64.3148860  65.7894125 113.1296396  64.1973675  64.5118007 112.3260375
  63.6165204  62.0884693  89.7824982  64.4784368  62.4139592  90.0420800
  63.8015549  61.3016189  89.2698048  55.6332620  70.1707033 102.0605171
  54.9396092  69.7560986 101.5475126  56.3805611  70.2127570 101.4638590
  71.7697841  60.9613220  96.9260205  71.1896510  61.6198024  96.5438258
  71.5033774  60.1390564  96.5147623  70.2201407  60.3618278  99.1281526
  70.7201186  60.4734812  98.3195845  70.8637015  60.0579330  99.7682334
  64.2783403  68.2696907 112.0149367  63.7950485  69.0697267 112.2213256
  64.3644342  68.2804852 111.0616811  57.5469363  70.1025287  99.9371186
  57.5240051  70.2012974  98.9853069  57.8569999  70.9490438 100.2588352
  60.2056741  72.1601442 104.0517800  61.1599994  72.1285384 103.9847732
  60.0069264  71.6992066 104.8668026  60.7956123  70.7302558 106.6188598
  61.6149012  71.2246637 106.6423435  61.0692930  69.8134526 106.5906166
  70.5522719  63.1213310  95.9816554  69.6648574  63.4062961  95.7636748
  70.9676708  62.9607074  95.1343831  73.9037255  63.1459831  99.6970893
  74.6797645  63.6356284  99.9695510  73.1785389  63.5717885 100.1542762
  76.3409814  63.8587450 100.7544833  76.9354304  63.6183186 100.0438142
  76.4136397  63.1394581 101.3818370  58.5606969  77.7021061 101.0687998
  58.4261437  76.9421462 100.5025996  58.1439032  78.4261961 100.6016787
  69.6965932  72.8857985  90.0764574  70.4001782  73.0907987  90.6922229
  68.9728581  73.4534747  90.3413657  70.5263743  68.6367846  96.1966844
  70.4698944  69.0936398  95.3574476  71.0792085  67.8758531  96.0189687
  74.3368549  64.4257578  97.0216963  74.0805483  64.0254214  97.8525171
  73.7121417  65.1401372  96.8967102  78.6480886  67.1653651  99.5288255
  78.0880444  67.2346841 100.3019817  78.0424390  66.9894636  98.8087751
  61.7176095  78.5990378 101.2806441  61.6008479  79.5435811 101.1785131
  60.8968541  78.2963940 101.6692240  71.6052630  73.3240514  92.1263034
  72.4398234  72.8921713  91.9440508  71.4436973  73.1522528  93.0539928
  71.2598522  69.8272627  93.4919373  71.2047326  69.6616899  92.5507817
  70.6344577  70.5348660  93.6481563  56.0491037  65.0640692 107.3180795
  56.6949901  64.5539646 107.8068020  55.8408188  65.8009373 107.8924220
  68.5744429  72.1321539 112.8172936  69.4435589  72.3062192 112.4559571
  68.0951181  72.9515956 112.6948665  64.5694647  59.3280736  93.0704691
  64.5573317  60.2722576  93.2272962  65.4618069  59.1450882  92.7764153
  62.7430609  79.2518640 104.4962369  63.6457856  79.2842251 104.8128864
  62.5167979  78.3219091 104.5108705  64.4984211  78.0049627 101.1572448
  63.5479842  78.0051488 101.0436820  64.8016697  77.2582361 100.6408483
  68.3846767  55.9223513  97.3250628  67.6179163  55.3682000  97.4707311
  68.7957472  55.9945382  98.1864780  60.3888528  62.2108309 111.4155809
  61.2519989  61.8545114 111.6259134  59.8153939  61.8722204 112.1031214
  80.2336905  83.8410165 102.2218210  80.8715315  83.7216913 101.5181550
  80.1157748  84.7891009 102.2806163  77.0426611  83.7937593 102.1579735
  76.7045123  83.6778658 101.2700270  77.9116379  83.3928758 102.1380741
  72.9013427  85.6473070  98.1476626  72.3378292  85.5563007  97.3792914
  72.7865822  84.8272974  98.6279119  77.5246394  84.9472445 108.1165941
  77.5135035  84.5525243 107.2446444  77.6867034  84.2138518 108.7099712
  70.4477859  87.1424261 100.9860846  71.2399151  86.8015086 100.5707146
  70.6874509  87.2519236 101.9063000  78.4812986  89.3144037  93.4591091
  77.8300965  89.8998118  93.0725105  79.2757348  89.8450232  93.5186128
  72.4068613  86.4033175  93.8578225  73.1799489  85.8562162  93.7191101
  72.7594012  87.2677424  94.0692687  74.2453655  87.7309557 107.0645125
  73.9543521  88.6355188 106.9491791  74.8810640  87.7726085 107.7789194
  75.1709862  85.1086405 103.6546484  75.7673434  84.8842428 102.9403447
  75.2284834  84.3671151 104.2571932  74.7434891  82.5625841  91.4896675
  74.9960411  82.0407362  90.7280138  73.8059450  82.3991986  91.5923359
  79.7878173  81.5661619  99.2971418  80.5741263  81.1481042  98.9461835
  80.0516878  82.4707711  99.4653067  79.9588251  87.0034469  93.9960075
  79.3234084  87.0769096  94.7080980  79.6285657  87.5928068  93.3179154
  85.1886600  81.5036852 100.2004397  85.9211772  80.9336069 100.4342226
  84.4325956  81.1158453 100.6410903  74.4631179  84.4653947  93.6921050
  74.3467437  83.7898850  94.3602134  74.5733439  83.9786321  92.8753203
  76.8062720  83.9264094  97.3967739  76.4420927  83.3994715  98.1080661
  77.6629836  83.5362563  97.2234225  82.7112021  75.2158426 104.6599006
  82.3795346  76.0853837 104.4360221  82.1157634  74.8994710 105.3393036
  76.4468207  78.9553994  92.3929088  76.6142610  79.8234230  92.7599559
  76.2565376  79.1181275  91.4690377  79.2043540  87.4170972 104.0594918
  78.9044263  88.3196011 103.9510726  78.8594600  87.1503156 104.9116071
  72.6556022  83.8684769 100.0931623  71.7306518  83.7360983 100.3009314
  72.9040435  84.6478988 100.5901565  82.6040684  79.9353513 101.7392356
  81.6957561  79.8668921 101.4451117  82.5528280  80.4125458 102.5674181
  76.4257428  81.4111651  93.3775755  76.3057053  81.8568702  94.2161235
  75.7310016  81.7596969  92.8189293  70.0164833  83.5118043 100.9275412
  70.1457214  83.7652522 101.8414823  69.3362284  84.1045751 100.6080067
  74.1864320  94.1815293  97.0265886  74.1088350  95.1323118  97.1054367
  73.5825964  93.8361165  97.6840812  76.6781550  81.3543158 109.6827253
  75.9014884  81.9137078 109.6730118  77.3172113  81.8399941 110.2042123
  84.4702331  78.1369951 103.5170230  83.8276711  78.4302484 102.8710024
  83.9657259  78.0222871 104.3223426  82.1242494  81.8833124  94.2056089
  83.0360350  82.1160511  94.0303786  81.6152141  82.4670168  93.6431167
  74.9327922  84.1628612 109.2445220  75.6742607  84.7013656 108.9680043
  74.2264908  84.7894900 109.4016772  80.4083262  86.3057752 107.8417381
  80.8166618  85.8640163 107.0972014  79.6860523  85.7310380 108.0951574
  76.7614332  81.2430359 105.2150938  77.6075527  81.6669772 105.3585587
  76.7012970  80.5863983 105.9089501  80.7312076  86.8658943 101.5969670
  80.1020939  87.0304657 100.8945738  80.3437739  87.2800552 102.3680634
  84.6101308  87.8013380  98.9514034  83.9252347  88.1812282  98.4011067
  84.6945158  88.4108707  99.6845982  79.9113777  78.9034727 106.8732112
  79.6674709  79.6576788 106.3366388  80.1873708  79.2820075 107.7079359
  81.8652240  85.4473340 105.5509378  82.0769135  86.0905099 104.8743759
  81.8181988  84.6135656 105.0831308  79.4678469  78.0591160 102.4545950
  78.6062948  78.3572414 102.7462687  79.4940904  78.2761559 101.5226982
  76.2840038  86.6033351  98.8619755  76.7478384  86.8821054  98.0724378
  76.0196836  85.7016795  98.6792846  73.1764119  86.1504832 101.7999519
  73.7465476  86.5792101 101.1617003  73.7672231  85.8687417 102.4983704
  75.2208924  82.7256503  95.6709320  75.9232968  83.1777547  96.1383247
  74.8889553  82.0840322  96.2989214  73.6689286  81.3168260 110.0460530
  73.0387947  81.9984541 110.2795927  73.5625374  81.2051341 109.1013668
  68.9634258  80.9840056 100.9726454  68.1733312  81.2397584 100.4966565
  69.4545506  81.7988394 101.0778495  82.9798068  88.3245295 103.7231735
  83.8015512  87.9225482 103.4414417  82.9760471  88.2213529 104.6747851
  70.9149004  81.3484635  97.9309931  70.1180167  81.4603329  98.4493426
  70.6874596  81.6871287  97.0650821  76.7454671  87.8729338 105.8792445
  76.8099104  88.3349745 106.7150617  76.0365595  87.2426703 106.0074755
  67.2471961  81.2370546 103.4041445  67.4980000  82.1217556 103.6699021
  67.7831510  81.0575148 102.6316537  91.0704061  84.6684043 100.0716706
  90.3167769  84.0991441  99.9160711  91.2051602  84.6346708 101.0187341
  76.4602689  89.5397446  95.7471426  76.3248364  90.3848981  96.1756274
  77.0012502  89.7416723  94.9837360  72.9470029  75.6189026 112.4085781
  72.5536974  75.0655224 113.0833425  73.7636169  75.9299604 112.7992298
  69.9132086  87.0572884  96.3199351  70.4256607  87.8516134  96.4704915
  70.5654799  86.3599174  96.2532952  71.7226971  90.1738640  98.4022104
  71.8993599  91.0956605  98.2143088  72.5183805  89.8597059  98.8316484
  75.8637990  77.0346905 110.0006037  76.6047703  77.6354058 109.9210500
  76.0955912  76.2924542 109.4424080  71.0079328  82.2203272 108.2784267
  70.8932843  81.3188529 108.5791366  70.1523845  82.4666969 107.9269084
  78.0871165  90.1621012 109.8771768  77.6435020  89.3757391 109.5592672
  78.7488379  90.3500163 109.2115659  72.8458287  91.6916814 104.4032446
  73.3965712  91.5633877 103.6309440  72.0069763  91.9911703 104.0527339
  80.1852403  90.4423812 107.9053169  80.1670879  91.2632693 107.4133438
  81.1072324  90.3177887 108.1303310  76.6425458  87.9567942 108.7476677
  77.1753794  87.1956230 108.5175985  76.1139539  87.6641593 109.4900832
  79.8095153  73.0628008 104.2770319  79.4659422  73.9529649 104.2009430
  80.1774115  72.8729665 103.4139904  67.8781003  85.3861538  97.0958921
  68.7156225  85.7958546  96.8792629  68.0559271  84.4460980  97.0659115
  79.7745435  83.0536619  92.7842754  79.2592059  83.8241223  93.0231142
  79.5022744  82.3801755  93.4075816  77.3592546  77.8986319  97.8427993
  76.5034143  77.5093170  97.6633631  77.7719498  77.9778280  96.9827778
  78.8891693  75.4332663 102.2419552  78.3856489  75.3962798 101.4287358
  79.1822300  76.3425405 102.3016209  75.1334579  75.5171392 101.2485734
  75.9987576  75.3214201 100.8891624  75.2012088  75.2881744 102.1755091
  84.7479709  85.8068973  94.7195928  83.9709152  85.4680133  94.2751090
  85.4271190  85.8121597  94.0450893  79.5631739  80.9263711  94.6102535
  79.2581874  81.2409860  95.4612679  80.5162181  81.0045131  94.6529868
  78.0078170  87.0853934  96.2595489  77.4799532  86.3506694  95.9468727
  77.5065673  87.8628610  96.0135458  82.9871016  85.2802955 101.3762536
  82.3294691  85.9702216 101.4642664  83.7911416  85.6699387 101.7196522
  72.7396898  77.7473600  98.6202101  73.3140650  77.5248782  97.8875294
  73.3267880  77.8162295  99.3730702  81.7976475  83.6347327  99.4266477
  82.3108357  84.2677319  99.9288187  82.4477699  83.0348523  99.0609838
  73.0666485  79.7778061  92.6397986  72.2303797  80.1152748  92.9607261
  72.9271255  79.6427041  91.7025123  75.0419566  74.6214849  97.3477170
  74.3883978  74.3063866  96.7233785  75.0000040  73.9990590  98.0736993
  76.1530771  84.9034144  89.2630462  75.2457832  84.6723398  89.4621611
  76.6501803  84.1071764  89.4504444  79.0598849  93.6131652  92.1827149
  78.3860548  93.9163348  92.7912106  79.4464671  94.4160732  91.8332606
  78.2757306  81.1096783 101.6724818  77.3579867  81.3311730 101.5146506
  78.6917450  81.1843093 100.8136525  79.0592354  82.5088199  96.8027498
  79.8064173  83.0209596  96.4934620  79.3283943  82.1872251  97.6631892
  77.3319004  85.0046739  93.7854453  76.4230223  84.7205772  93.8826922
  77.3614088  85.4245818  92.9257759  82.5638271  88.6153329  97.5545620
  82.1100598  87.7744239  97.6110811  81.9332238  89.2514727  97.8920400
  81.5071191  79.5445315  98.7846288  80.7693948  79.0322701  99.1156530
  81.7597964  79.1045696  97.9729564  81.0071211  90.4529825  98.4895438
  81.2994185  91.0134883  97.7707804  81.5169831  90.7458386  99.2448597
  81.6082818  72.3221567  99.3788057  81.9141695  71.4618930  99.0913972
  82.3335423  72.9139187  99.1787051  67.9007174  82.7252253  97.7669655
  67.7031574  82.1321614  97.0420721  67.3453838  82.4204464  98.4845594
  75.8803898  82.6175360  99.8864248  75.9352508  81.6649196  99.8106725
  75.0695100  82.7734799 100.3705546  77.0295092  86.5455483  91.1242531
  76.5914522  85.8291342  90.6648168  77.7705533  86.7731598  90.5627623
  73.8196258  81.2352420  97.6454627  73.0064123  81.5346590  98.0519819
  74.3155252  80.8408108  98.3629109  75.9704836  91.2310177  99.5788891
  75.9281015  91.4571023  98.6497423  76.8867535  90.9973551  99.7274693
  79.4170470  81.6994244 106.4769521  79.7719857  81.9265717 107.3363986
  80.0642601  82.0312621 105.8546776  85.1468207  84.8212680  97.1818850
  85.0086105  85.0114276  96.2540039  84.7904425  85.5832063  97.6386901
  73.3110333  78.8070775 103.2615862  73.9509712  78.6659534 102.5638825
  72.4787863  78.5205289 102.8854464  85.1737586  86.8889207 102.1930121
  85.6074093  86.7964496 103.0413175  85.8869167  86.8646707 101.5550137
  74.0870637  88.1073206  99.3750854  74.8811235  87.6123526  99.1733429
  73.3762329  87.5791069  99.0118560  78.9065481  90.4891301 103.7263222
  78.9602503  91.0582237 104.4940938  78.0380262  90.6593186 103.3617259
  70.3953400  82.2516287  95.4510607  69.4650988  82.1900743  95.6680569
  70.4910872  81.7292240  94.6547248  70.3138949  78.7771100  98.0388849
  70.5745766  79.6916433  97.9298009  71.1356121  78.3095543  98.1885461
  71.7863874  80.1908857 105.2087673  72.4586928  79.9826219 104.5600322
  70.9593661  79.9930943 104.7692905  86.0353136  86.9312908 104.7263007
  86.2289026  87.8358718 104.9722282  85.9353754  86.4720327 105.5601592
  77.6889446  76.8170798 107.2253334  77.0417361  77.5160748 107.1317810
  78.4590462  77.2506942 107.5929582  81.0968244  87.0819650 110.3003887
  80.9453751  86.8530202 109.3833971  81.0872924  88.0390252 110.3135232
  77.8653581  84.6551563 105.2850154  78.7945641  84.8062723 105.1119121
  77.4444611  84.7435584 104.4298800  76.6641913  88.6802228 103.0548691
  76.5252998  88.3121012 103.9274629  75.8756509  89.1949867 102.8832649
  77.2590065  93.7811324  94.3974228  77.4341820  93.3099367  95.2119850
  76.5722853  94.4077090  94.6255489  78.2147128  88.0583830 100.4437529
  77.8796960  88.0184600 101.3395179  77.7151073  87.3928546  99.9707939
  72.1891372  83.4651460 105.9690110  72.0511170  82.7331699 106.5701649
  73.0996295  83.3760360 105.6874298  81.1506319  85.4039865  90.7174589
  80.5335490  84.6786693  90.6207641  80.6822808  86.1649225  90.3741663
  74.8173672  83.1771420 105.4573790  75.5273291  82.5364612 105.4160408
  74.7742981  83.4284314 106.3799971  82.8060451  90.1138773 108.3780369
  82.7472997  89.4297993 107.7110952  83.2079969  90.8557763 107.9260995
  73.5302606  80.1636637 107.2769429  72.9939963  79.7127376 107.9291026
  72.9419315  80.2982546 106.5339894  71.8251150  96.9300687 101.1714088
  72.0647748  97.5619211 101.8493107  70.9820346  96.5788727 101.4579447
  72.9404865  79.6225289  89.8395893  72.0634332  79.5014090  89.4758140
  73.4162618  78.8311367  89.5874782  82.8077858  88.0778357 106.6094349
  81.9204637  87.7404279 106.7320748  83.3776409  87.3461388 106.8463114
  64.4607005  84.4102449  99.9337400  65.1478045  84.0964179  99.3458415
  64.3055134  85.3143813  99.6604652  69.2641728  79.2992645 104.3622424
  69.1799916  78.6918315 103.6272834  68.4424434  79.7901663 104.3631920
  76.3379012  92.7379809 103.5755592  76.2649183  93.5434781 104.0874897
  75.8956405  92.9371775 102.7503613  76.1268791  91.9751579  97.0858414
  75.3436313  92.5173259  97.1796638  76.8261537  92.4925559  97.4852655
  79.4365441  77.7846209  99.7292619  79.9334141  77.0316171  99.4093689
  78.6652423  77.8210525  99.1635828  87.2895199  83.4886574 101.3710910
  87.2785075  84.3711290 101.0004844  86.4212578  83.1358125 101.1765447
  78.7977695  92.6366643 105.7313751  79.5105667  93.2714108 105.6589652
  78.3067724  92.7330509 104.9153752  80.5195222  86.5417896  97.3031042
  79.5851501  86.6619358  97.1335747  80.6971891  85.6390363  97.0391052
  76.0200410  79.9263592  99.4564303  75.6498198  79.3734632 100.1445209
  76.5159503  79.3221725  98.9039304  83.9067773  82.3835215  97.8381076
  84.3728226  83.2163207  97.7641379  84.3575274  81.9180197  98.5426335
  73.8489609  90.3861087 106.5519321  74.5499068  91.0197570 106.7048716
  73.3784724  90.7275818 105.7914961  81.9744005  88.7279036  94.8367228
  82.2503848  88.6135631  95.7461103  81.1048503  88.3296521  94.7979402
  81.8784436  74.7515802 101.8771978  80.9647516  74.9820029 102.0454185
  82.3077538  74.8354246 102.7286010  81.6490895  82.9405694 104.3771872
  80.9962345  83.1881602 103.7224325  82.0271275  82.1269832 104.0434349
  78.6098069  92.9765387  98.4800042  78.7920463  92.1587043  98.9427794
  79.4331055  93.1933080  98.0424932  78.9440234  91.9033572  95.7415091
  79.4728001  91.3926027  95.1285253  79.2068454  91.5876103  96.6060624
  77.6978468  83.6825505 110.8637909  77.0219105  83.5819635 111.5340284
  78.5206102  83.5264719 111.3273906  69.4457327  89.9197442 103.4850424
  70.0310764  89.1741130 103.6178328  69.2482165  90.2301398 104.3687088
  72.2995982  92.9548689  98.5012867  71.6306357  93.4394817  98.0176907
  72.1608852  93.2017910  99.4156245  64.0374982  82.4903042 102.2054867
  64.0759081  81.9566633 102.9991985  63.5315274  81.9638247 101.5865844
  76.4401251  94.9892433 105.0995525  76.9919559  95.1524054 105.8644610
  76.7807444  95.5796870 104.4275550  71.4165744  77.3367582 105.7017410
  71.4807070  78.1982413 105.2894807  71.3532864  76.7241584 104.9689768
  70.8918016  79.4090715 109.3490444  71.5190055  79.0267792 109.9627968
  70.0345935  79.1904917 109.7146136  67.6683559  81.2167144  95.2808799
  67.9637000  80.3077823  95.2275852  66.7671595  81.1954884  94.9589801
  79.5769638  92.9374408 102.0859207  79.4520777  92.1364148 101.5770153
  80.2348729  93.4320602 101.5973177  71.1977806  79.2923141 101.2636347
  70.4764392  79.9059108 101.1243821  71.9871062  79.8280906 101.1852993
  81.6404546  90.7383428 103.7138757  80.6934882  90.6188779 103.6417084
  81.9887319  89.8505926 103.7965019  74.0004120  76.6277567 107.5376999
  74.5238521  76.8739864 108.3003308  73.7816453  77.4597602 107.1180136
  69.3971401  78.8981242  95.4048124  69.0684107  78.0178621  95.2223230
  69.7510771  78.8428910  96.2924513  78.6450980  90.5336144  99.9143109
  78.4975942  89.6052852 100.0950679  79.4704473  90.5556235  99.4300185
  72.5113224  79.1854212  95.7723602  72.8509296  79.7140133  95.0502210
  72.9585344  79.5234618  96.5482168  82.2485101  91.3564703 101.0007982
  83.1731649  91.1507565 100.8632433  82.0800405  91.1081104 101.9097324
  75.2056665  77.5691262 105.2226670  74.8653485  76.7699075 105.6247349
  74.4995671  77.8692973 104.6503503  75.8573137  74.6540575 103.6753993
  76.6799206  74.1801053 103.5532883  76.1011200  75.4331058 104.1752679
  74.4981371  77.6828833  93.9716894  75.2189734  78.0610086  93.4680611
  73.8746675  78.4017710  94.0751872  78.6412494  78.3873982  94.9075227
  78.8576108  79.2698620  94.6064055  78.1606561  77.9960196  94.1780869
  73.3811715  81.3459695 101.4845971  73.2356296  81.6599998 102.3770253
  72.9036919  81.9644596 100.9316870  75.2408098  78.3362243 101.5326861
  75.2269667  77.4403337 101.1959159  75.9580526  78.3432907 102.1665147
  77.0934229  78.7699584 103.5779988  76.8352007  79.6916654 103.5764319
  76.5619269  78.3730018 104.2680452  82.0380418  91.8750371  96.3570074
  82.2117295  91.3096793  95.6043926  82.5309309  92.6751266  96.1749564
  67.8557377  83.8865040 104.4233632  67.3110846  84.6624848 104.5553907
  68.7336727  84.2335844 104.2652754  74.6444994  77.2176624  96.8014431
  74.7660905  76.2893270  97.0005318  74.3547036  77.2315310  95.8892746
  77.5136184  74.9031534  99.9381151  77.5357881  74.9670867  98.9833130
  77.9304243  74.0636043 100.1321657  87.8919809  84.6386794  97.9760373
  88.3350955  83.8894119  97.5779497  87.0146319  84.6296930  97.5934105
  83.0255590  91.1917135  93.4566972  83.7206495  91.8123828  93.6754286
  83.3678740  90.3412486  93.7319350  68.6423399  83.0134936 107.3163789
  67.9005135  83.1617571 107.9028420  68.3216144  83.2743202 106.4530539
  84.9247013  88.6416841  94.9854303  85.4498337  88.9804113  94.2603623
  84.8369366  87.7063856  94.8017437  76.5867062  92.5550914 107.1144179
  76.8954188  92.3100061 107.9866879  77.3842544  92.7597553 106.6263049
  76.6087674  94.7088824  99.3449556  76.1692664  94.2165203 100.0382413
  77.3595791  94.1661792  99.1041631  69.0880013  90.9000365  99.3474184
  69.9138033  90.6004137  98.9672827  68.7374065  90.1307987  99.7963973
  74.0561546  90.2526833 101.4171857  73.4341555  89.5897538 101.1174085
  74.7266413  90.2787965 100.7345505  67.2888618  88.8186691 100.3063117
  66.4520526  88.3908866 100.1247119  67.2612263  89.0119135 101.2433909
  74.1286074  78.7308621 111.0104364  74.1774229  79.6070744 110.6282133
  74.6708588  78.1886014 110.4376007  84.7338794  86.1242211 107.6038229
  84.7836799  85.9592218 108.5453752  84.6252718  85.2569470 107.2136110
  73.6175053  88.8030756  94.8930318  73.7663173  89.4866221  94.2396991
  74.4241497  88.7835846  95.4079774  82.0242557  82.1073139 108.9197536
  82.9252420  81.9679603 108.6281534  82.0990531  82.2727593 109.8595713
  76.3585362  79.4839993 107.7650722  75.4888671  79.7773559 107.4933311
  76.5944842  80.0680438 108.4857986  86.2356991  88.5439152 107.8480251
  85.9441800  88.9069133 108.6843712  85.6229122  87.8306160 107.6693583
  87.4352674  86.1092032 100.3682821  88.2699565  86.5481836 100.5320381
  87.5711802  85.6330685  99.5491067  84.4844179  83.6671767 106.3160309
  84.9598301  83.8599413 105.5079160  83.5609745  83.7230953 106.0703692
  71.3727686  84.8295934  95.8991387  71.1273728  83.9258264  96.0971597
  71.5423601  84.8313084  94.9570865  79.0624396  75.7019610 105.2816143
  79.5806340  76.4380637 104.9562631  78.7079529  76.0083604 106.1162902
  70.6423334  80.5624292  93.3977548  69.9492579  80.6368647  92.7417584
  70.3975085  79.7984635  93.9199065  79.3136990  72.1219893 100.8017039
  79.5938744  71.4543082 101.4277466  80.0987597  72.3148988 100.2891703
  77.1170459  91.2978887  92.3642065  76.5444426  91.9169074  91.9112537
  77.6903252  91.8478248  92.8981987  83.1845848  80.5437527 104.5488614
  84.1363271  80.6435625 104.5700838  83.0149299  79.7515795 105.0586699
  81.2060228  77.6293110 104.7348015  80.6110160  77.9098123 104.0394504
  80.9209925  78.1187011 105.5064756  80.3367718  91.5816037  93.4950648
  81.2698392  91.5161599  93.6983523  80.2490931  92.4172304  93.0365180
  82.9655735  90.8981907  90.4554595  82.8869367  90.5641771  91.3490353
  83.7865402  91.3903675  90.4546068  85.6633926  83.7643647 103.6630914
  85.6310246  82.8259647 103.8490598  86.2734550  83.8427683 102.9296739
  77.5017257  82.6339700  89.7058118  78.4476362  82.5045908  89.7746536
  77.1231502  81.8954361  90.1827546  85.8128415  80.5554690 103.7089197
  85.2967463  79.7713147 103.5219126  86.6968363  80.2273407 103.8735717
  83.4739142  74.2995706  99.6685010  83.2763963  73.9910794 100.5528342
  84.0838847  75.0257344  99.7982940  91.4810476  84.8259653 102.8036951
  92.2113865  84.5644942 103.3644654  90.8717422  84.0888375 102.8439019
  89.5625773  82.9667516 103.4011402  88.8358937  82.8323481 102.7927893
  89.1473060  83.2744345 104.2068120  77.3855950  86.6857446 111.1658775
  78.3058959  86.8636045 111.3598821  77.3505533  85.7413491 111.0138474
  75.6860174  80.5589676  89.6413003  74.7791630  80.2622789  89.7175717
  75.9636155  80.2619494  88.7747289  66.6038115  81.8796039 100.0912050
  66.2840899  81.0261347  99.7986424  66.0571543  82.0944617 100.8470017
  70.3818022  84.5958480 103.8081556  70.6004032  85.5275588 103.8269590
  70.7943796  84.2366455 104.5936360  77.3022240  75.1026566  95.7957244
  76.4922968  74.7573651  96.1712491  77.9906657  74.7934109  96.3844856
  79.2312788  74.1804612  97.4181541  79.7843827  74.6000066  98.0771564
  79.4682875  73.2540361  97.4604497  75.2545887  80.1691686 113.1984305
  75.1542614  81.1186043 113.1296396  75.0367430  79.8409925 112.3260375
  74.4558959  77.4176611  89.7824982  75.3178123  77.7431509  90.0420800
  74.6409303  76.6308107  89.2698048  66.4726375  85.4998951 102.0605171
  65.7789846  85.0852904 101.5475126  67.2199366  85.5419487 101.4638590
  82.6091595  76.2905138  96.9260205  82.0290264  76.9489942  96.5438258
  82.3427528  75.4682482  96.5147623  81.0595162  75.6910195  99.1281526
  81.5594940  75.8026730  98.3195845  81.7030770  75.3871248  99.7682334
  75.1177158  83.5988825 112.0149367  74.6344239  84.3989185 112.2213256
  75.2038097  83.6096770 111.0616811  68.3863117  85.4317205  99.9371186
  68.3633805  85.5304892  98.9853069  68.6963754  86.2782355 100.2588352
  71.0450495  87.4893360 104.0517800  71.9993749  87.4577302 103.9847732
  70.8463019  87.0283983 104.8668026  71.6349877  86.0594476 106.6188598
  72.4542766  86.5538554 106.6423435  71.9086685  85.1426444 106.5906166
  81.3916473  78.4505228  95.9816554  80.5042328  78.7354879  95.7636748
  81.8070462  78.2898991  95.1343831  84.7431010  78.4751749  99.6970893
  85.5191400  78.9648201  99.9695510  84.0179144  78.9009803 100.1542762
  87.1803568  79.1879368 100.7544833  87.7748059  78.9475104 100.0438142
  87.2530152  78.4686499 101.3818370  69.4000724  93.0312979 101.0687998
  69.2655192  92.2713380 100.5025996  68.9832786  93.7553879 100.6016787
  80.5359687  88.2149903  90.0764574  81.2395537  88.4199905  90.6922229
  79.8122336  88.7826665  90.3413657  81.3657497  83.9659764  96.1966844
  81.3092699  84.4228315  95.3574476  81.9185840  83.2050448  96.0189687
  85.1762303  79.7549496  97.0216963  84.9199237  79.3546131  97.8525171
  84.5515171  80.4693290  96.8967102  89.4874641  82.4945569  99.5288255
  88.9274199  82.5638758 100.3019817  88.8818144  82.3186554  98.8087751
  72.5569850  93.9282296 101.2806441  72.4402234  94.8727729 101.1785131
  71.7362296  93.6255858 101.6692240  82.4446384  88.6532432  92.1263034
  83.2791988  88.2213630  91.9440508  82.2830727  88.4814446  93.0539928
  82.0992276  85.1564545  93.4919373  82.0441080  84.9908817  92.5507817
  81.4738332  85.8640578  93.6481563  66.8884791  80.3932610 107.3180795
  67.5343655  79.8831563 107.8068020  66.6801943  81.1301291 107.8924220
  75.4088402  74.6572654  93.0704691  75.3967072  75.6014494  93.2272962
  76.3011824  74.4742800  92.7764153  73.5824364  94.5810558 104.4962369
  74.4851611  94.6134168 104.8128864  73.3561734  93.6511009 104.5108705
  75.3377966  93.3341545 101.1572448  74.3873597  93.3343406 101.0436820
  75.6410452  92.5874279 100.6408483  79.2240521  71.2515431  97.3250628
  78.4572917  70.6973917  97.4707311  79.6351226  71.3237300  98.1864780
  71.2282282  77.5400227 111.4155809  72.0913744  77.1837031 111.6259134
  70.6547693  77.2014121 112.1031214  83.7407181 100.9764987  98.1476626
  83.1772046 100.8854924  97.3792914  83.6259576 100.1564892  98.6279119
  81.2871613 102.4716179 100.9860846  82.0792905 102.1307004 100.5707146
  81.5268263 102.5811154 101.9063000  89.3206740 104.6435955  93.4591091
  88.6694720 105.2290036  93.0725105  90.1151103 105.1742150  93.5186128
  83.2462367 101.7325092  93.8578225  84.0193243 101.1854079  93.7191101
  83.5987766 102.5969342  94.0692687  85.5828645  97.8917758  91.4896675
  85.8354166  97.3699280  90.7280138  84.6453204  97.7283904  91.5923359
  90.6271928  96.8953537  99.2971418  91.4135017  96.4772960  98.9461835
  90.8910632  97.7999629  99.4653067  90.7982005 102.3326387  93.9960075
  90.1627838 102.4061014  94.7080980  90.4679412 102.9219986  93.3179154
  85.3024934  99.7945864  93.6921050  85.1861192  99.1190768  94.3602134
  85.4127194  99.3078238  92.8753203  87.6456475  99.2556011  97.3967739
  87.2814682  98.7286632  98.1080661  88.5023591  98.8654481  97.2234225
  87.2861962  94.2845911  92.3929088  87.4536364  95.1526148  92.7599559
  87.0959131  94.4473193  91.4690377  83.4949776  99.1976687 100.0931623
  82.5700273  99.0652901 100.3009314  83.7434190  99.9770906 100.5901565
  87.2651183  96.7403569  93.3775755  87.1450808  97.1860619  94.2161235
  86.5703771  97.0888886  92.8189293  80.8558587  98.8409960 100.9275412
  80.9850969  99.0944439 101.8414823  80.1756039  99.4337668 100.6080067
  92.9636249  97.2125042  94.2056089  93.8754105  97.4452429  94.0303786
  92.4545896  97.7962086  93.6431167  90.3072223  93.3883078 102.4545950
  89.4456702  93.6864331 102.7462687  90.3334658  93.6053477 101.5226982
  87.1233793 101.9325268  98.8619755  87.5872138 102.2112971  98.0724378
  86.8590591 101.0308713  98.6792846  86.0602679  98.0548421  95.6709320
  86.7626722  98.5069464  96.1383247  85.7283307  97.4132240  96.2989214
  79.8028013  96.3131973 100.9726454  79.0127067  96.5689502 100.4966565
  80.2939260  97.1280311 101.0778495  81.7542758  96.6776553  97.9309931
  80.9573922  96.7895247  98.4493426  81.5268350  97.0163205  97.0650821
  78.0865716  96.5662464 103.4041445  78.3373754  97.4509474 103.6699021
  78.6225264  96.3867065 102.6316537  87.2996444 104.8689363  95.7471426
  87.1642118 105.7140899  96.1756274  87.8406256 105.0708641  94.9837360
  80.7525841 102.3864801  96.3199351  81.2650361 103.1808052  96.4704915
  81.4048554 101.6891092  96.2532952  82.5620726 105.5030558  98.4022104
  82.7387354 106.4248522  98.2143088  83.3577559 105.1888977  98.8316484
  90.6488907  88.3919925 104.2770319  90.3053176  89.2821567 104.2009430
  91.0167870  88.2021583 103.4139904  78.7174758 100.7153456  97.0958921
  79.5549980 101.1250464  96.8792629  78.8953025  99.7752898  97.0659115
  90.6139190  98.3828536  92.7842754  90.0985813  99.1533141  93.0231142
  90.3416498  97.7093673  93.4075816  88.1986301  93.2278237  97.8427993
  87.3427897  92.8385088  97.6633631  88.6113253  93.3070198  96.9827778
  89.7285447  90.7624580 102.2419552  89.2250243  90.7254716 101.4287358
  90.0216054  91.6717323 102.3016209  85.9728333  90.8463310 101.2485734
  86.8381330  90.6506119 100.8891624  86.0405842  90.6173662 102.1755091
  95.5873464 101.1360891  94.7195928  94.8102907 100.7972051  94.2751090
  96.2664945 101.1413514  94.0450893  90.4025493  96.2555628  94.6102535
  90.0975629  96.5701778  95.4612679  91.3555935  96.3337048  94.6529868
  88.8471925 102.4145852  96.2595489  88.3193286 101.6798611  95.9468727
  88.3459428 103.1920528  96.0135458  83.5790652  93.0765518  98.6202101
  84.1534404  92.8540700  97.8875294  84.1661635  93.1454213  99.3730702
  83.9060240  95.1069979  92.6397986  83.0697552  95.4444666  92.9607261
  83.7665009  94.9718959  91.7025123  85.8813320  89.9506767  97.3477170
  85.2277733  89.6355784  96.7233785  85.8393794  89.3282507  98.0736993
  86.9924525 100.2326062  89.2630462  86.0851587 100.0015316  89.4621611
  87.4895557  99.4363681  89.4504444  89.8992604 108.9423569  92.1827149
  89.2254303 109.2455266  92.7912106  90.2858426 109.7452650  91.8332606
  89.1151061  96.4388701 101.6724818  88.1973622  96.6603648 101.5146506
  89.5311204  96.5135011 100.8136525  89.8986108  97.8380116  96.8027498
  90.6457927  98.3501513  96.4934620  90.1677698  97.5164169  97.6631892
  88.1712758 100.3338657  93.7854453  87.2623978 100.0497690  93.8826922
  88.2007842 100.7537735  92.9257759  92.3464945  94.8737232  98.7846288
  91.6087702  94.3614619  99.1156530  92.5991719  94.4337614  97.9729564
  92.4476573  87.6513484  99.3788057  92.7535450  86.7910848  99.0913972
  93.1729178  88.2431105  99.1787051  78.7400929  98.0544171  97.7669655
  78.5425329  97.4613532  97.0420721  78.1847593  97.7496381  98.4845594
  86.7197652  97.9467278  99.8864248  86.7746262  96.9941114  99.8106725
  85.9088855  98.1026717 100.3705546  87.8688846 101.8747401  91.1242531
  87.4308276 101.1583260  90.6648168  88.6099287 102.1023515  90.5627623
  84.6590012  96.5644337  97.6454627  83.8457878  96.8638508  98.0519819
  85.1549007  96.1700026  98.3629109  95.9861961 100.1504598  97.1818850
  95.8479860 100.3406194  96.2540039  95.6298180 100.9123980  97.6386901
  84.1504087  94.1362693 103.2615862  84.7903467  93.9951452 102.5638825
  83.3181618  93.8497206 102.8854464  84.9264391 103.4365123  99.3750854
  85.7204990 102.9415443  99.1733429  84.2156083 102.9082986  99.0118560
  81.2347155  97.5808205  95.4510607  80.3044743  97.5192660  95.6680569
  81.3304627  97.0584158  94.6547248  81.1532704  94.1063018  98.0388849
  81.4139521  95.0208351  97.9298009  81.9749876  93.6387460  98.1885461
  82.6257629  95.5200775 105.2087673  83.2980682  95.3118137 104.5600322
  81.7987415  95.3222861 104.7692905  88.0983819 109.1103242  94.3974228
  88.2735575 108.6391285  95.2119850  87.4116607 109.7369008  94.6255489
  91.9900074 100.7331782  90.7174589  91.3729245 100.0078610  90.6207641
  91.5216562 101.4941143  90.3741663  83.7798620  94.9517207  89.8395893
  82.9028086  94.8306007  89.4758140  84.2556373  94.1603285  89.5874782
  75.3000760  99.7394366  99.9337400  75.9871800  99.4256096  99.3458415
  75.1448889 100.6435731  99.6604652  80.1035482  94.6284563 104.3622424
  80.0193671  94.0210232 103.6272834  79.2818188  95.1193581 104.3631920
  90.2759196  93.1138126  99.7292619  90.7727895  92.3608089  99.4093689
  89.5046177  93.1502443  99.1635828  91.3588977 101.8709814  97.3031042
  90.4245255 101.9911276  97.1335747  91.5365645 100.9682280  97.0391052
  86.8594165  95.2555509  99.4564303  86.4891952  94.7026550 100.1445209
  87.3553257  94.6513643  98.9039304  94.7461528  97.7127133  97.8381076
  95.2121980  98.5455124  97.7641379  95.1969028  97.2472114  98.5426335
  92.8137759 104.0570954  94.8367228  93.0897603 103.9427549  95.7461103
  91.9442258 103.6588439  94.7979402  92.7178191  90.0807720 101.8771978
  91.8041271  90.3111947 102.0454185  93.1471292  90.1646164 102.7286010
  89.7833989 107.2325490  95.7415091  90.3121755 106.7217945  95.1285253
  90.0462208 106.9168020  96.6060624  74.8768736  97.8194960 102.2054867
  74.9152836  97.2858550 102.9991985  74.3709029  97.2930165 101.5865844
  82.2559498  92.6659500 105.7017410  82.3200825  93.5274331 105.2894807
  82.1926619  92.0533502 104.9689768  78.5077314  96.5459062  95.2808799
  78.8030755  95.6369740  95.2275852  77.6065349  96.5246801  94.9589801
  82.0371561  94.6215058 101.2636347  81.3158146  95.2351026 101.1243821
  82.8264816  95.1572823 101.1852993  80.2365155  94.2273159  95.4048124
  79.9077861  93.3470538  95.2223230  80.5904526  94.1720828  96.2924513
  83.3506978  94.5146129  95.7723602  83.6903051  95.0432050  95.0502210
  83.7979099  94.8526535  96.5482168  86.0450419  92.8983180 105.2226670
  85.7047240  92.0990993 105.6247349  85.3389425  93.1984891 104.6503503
  86.6966891  89.9832492 103.6753993  87.5192960  89.5092971 103.5532883
  86.9404955  90.7622976 104.1752679  85.3375126  93.0120751  93.9716894
  86.0583488  93.3902004  93.4680611  84.7140430  93.7309628  94.0751872
  89.4806248  93.7165900  94.9075227  89.6969863  94.5990538  94.6064055
  89.0000316  93.3252113  94.1780869  84.2205470  96.6751613 101.4845971
  84.0750050  96.9891916 102.3770253  83.7430673  97.2936513 100.9316870
  86.0801853  93.6654161 101.5326861  86.0663421  92.7695254 101.1959159
  86.7974281  93.6724825 102.1665147  87.9327983  94.0991501 103.5779988
  87.6745761  95.0208572 103.5764319  87.4013024  93.7021936 104.2680452
  78.6951132  99.2156957 104.4233632  78.1504600  99.9916765 104.5553907
  79.5730482  99.5627762 104.2652754  85.4838749  92.5468541  96.8014431
  85.6054660  91.6185187  97.0005318  85.1940791  92.5607227  95.8892746
  88.3529939  90.2323452  99.9381151  88.3751636  90.2962785  98.9833130
  88.7697998  89.3927960 100.1321657  93.8649345 106.5209053  93.4566972
  94.5600249 107.1415745  93.6754286  94.2072495 105.6704404  93.7319350
  95.7640768 103.9708758  94.9854303  96.2892092 104.3096031  94.2603623
  95.6763120 103.0355774  94.8017437  79.9273767 106.2292282  99.3474184
  80.7531787 105.9296054  98.9672827  79.5767819 105.4599905  99.7963973
  78.1282373 104.1478609 100.3063117  77.2914281 103.7200783 100.1247119
  78.1006018 104.3411052 101.2433909  84.4568808 104.1322674  94.8930318
  84.6056928 104.8158138  94.2396991  85.2635251 104.1127764  95.4079774
  82.2121441 100.1587852  95.8991387  81.9667482  99.2550182  96.0971597
  82.3817355 100.1605002  94.9570865  81.4817088  95.8916209  93.3977548
  80.7886333  95.9660564  92.7417584  81.2368840  95.1276553  93.9199065
  90.1530745  87.4511811 100.8017039  90.4332498  86.7835000 101.4277466
  90.9381352  87.6440906 100.2891703  87.9564213 106.6270804  92.3642065
  87.3838180 107.2460992  91.9112537  88.5297007 107.1770166  92.8981987
  91.1761473 106.9107955  93.4950648  92.1092146 106.8453516  93.6983523
  91.0884686 107.7464221  93.0365180  93.8049490 106.2273825  90.4554595
  93.7263121 105.8933689  91.3490353  94.6259156 106.7195593  90.4546068
  88.3411012  97.9631617  89.7058118  89.2870116  97.8337825  89.7746536
  87.9625257  97.2246279  90.1827546  94.3132896  89.6287623  99.6685010
  94.1157717  89.3202711 100.5528342  94.9232602  90.3549262  99.7982940
  86.5253929  95.8881594  89.6413003  85.6185384  95.5914706  89.7175717
  86.8029910  95.5911412  88.7747289  77.4431869  97.2087957 100.0912050
  77.1234653  96.3553265  99.7986424  76.8965297  97.4236535 100.8470017
  88.1415994  90.4318483  95.7957244  87.3316723  90.0865568  96.1712491
  88.8300411  90.1226027  96.3844856  90.0706543  89.5096530  97.4181541
  90.6237581  89.9291984  98.0771564  90.3076629  88.5832278  97.4604497
  85.2952713  92.7468529  89.7824982  86.1571877  93.0723427  90.0420800
  85.4803058  91.9600025  89.2698048  77.3120129 100.8290868 102.0605171
  76.6183601 100.4144821 101.5475126  78.0593120 100.8711405 101.4638590
  93.4485350  91.6197055  96.9260205  92.8684019  92.2781859  96.5438258
  93.1821283  90.7974400  96.5147623  91.8988916  91.0202113  99.1281526
  92.3988695  91.1318647  98.3195845  92.5424524  90.7163166  99.7682334
  79.2256872 100.7609122  99.9371186  79.2027560 100.8596810  98.9853069
  79.5357508 101.6074273 100.2588352  92.2310228  93.7797146  95.9816554
  91.3436083  94.0646796  95.7636748  92.6464217  93.6190909  95.1343831
  95.5824764  93.8043667  99.6970893  96.3585154  94.2940119  99.9695510
  94.8572898  94.2301721 100.1542762  91.3753441 103.5441820  90.0764574
  92.0789291 103.7491823  90.6922229  90.6516090 104.1118582  90.3413657
  92.2051252  99.2951682  96.1966844  92.1486453  99.7520233  95.3574476
  92.7579594  98.5342366  96.0189687  96.0156058  95.0841413  97.0216963
  95.7592992  94.6838049  97.8525171  95.3908926  95.7985207  96.8967102
  93.2840139 103.9824350  92.1263034  94.1185743 103.5505548  91.9440508
  93.1224482 103.8106363  93.0539928  92.9386031 100.4856463  93.4919373
  92.8834835 100.3200734  92.5507817  92.3132086 101.1932496  93.6481563
  77.7278546  95.7224527 107.3180795  78.3737409  95.2123481 107.8068020
  77.5195697  96.4593209 107.8924220  86.2482156  89.9864572  93.0704691
  86.2360826  90.9306412  93.2272962  87.1405578  89.8034717  92.7764153
  90.0634276  86.5807348  97.3250628  89.2966672  86.0265835  97.4707311
  90.4744981  86.6529217  98.1864780  94.7453994 110.4361897  92.6397986
  93.9091306 110.7736583  92.9607261  94.6058764 110.3010877  91.7025123
  94.6192374 110.2809124  89.8395893  93.7421841 110.1597925  89.4758140
  95.0950127 109.4895203  89.5874782  92.3210843 111.2208127  93.3977548
  91.6280087 111.2952482  92.7417584  92.0762594 110.4568471  93.9199065
  97.3647683 111.2173511  89.6413003  96.4579139 110.9206624  89.7175717
  97.6423664 110.9203329  88.7747289  96.1346468 108.0760446  89.7824982
  96.9965632 108.4015345  90.0420800  96.3196812 107.2891942  89.2698048
  97.0875911 105.3156489  93.0704691  97.0754581 106.2598329  93.2272962
  97.9799333 105.1326635  92.7764153  36.8761888  -0.4695383  88.9463517
  37.5140298  -0.5888635  88.2426857  36.7582731   0.4785461  89.0051469
  29.5438410   1.3367522  84.8721933  28.9803275   1.2457459  84.1038220
  29.4290805   0.5167426  85.3524425  35.1237969   5.0038489  80.1836398
  34.4725949   5.5892570  79.7970411  35.9182332   5.5344684  80.2431435
  29.0493596   2.0927627  80.5823532  29.8224472   1.5456614  80.4436408
  29.4018995   2.9571876  80.7937993  31.3859874  -1.7479707  78.2141982
  31.6385394  -2.2698186  77.4525445  30.4484433  -1.9113562  78.3168665
  36.4303157  -2.7443929  86.0216725  37.2166246  -3.1624506  85.6707142
  36.6941861  -1.8397837  86.1898373  36.6013234   2.6928921  80.7205382
  35.9659067   2.7663548  81.4326287  36.2710640   3.2822520  80.0424461
  41.8311584  -2.8068696  86.9249704  42.5636756  -3.3769479  87.1587533
  41.0750939  -3.1947095  87.3656209  31.1056163   0.1548399  80.4166357
  30.9892421  -0.5206698  81.0847441  31.2158422  -0.3319227  79.5998510
  33.4487703  -0.3841454  84.1213046  33.0845911  -0.9110833  84.8325968
  34.3054819  -0.7742985  83.9479531  33.0682411  -2.8993897  80.1021061
  32.9482037  -2.4536846  80.9406542  32.3735000  -2.5508579  79.5434600
  30.8289303   9.8709745  83.7511193  30.7513333  10.8217570  83.8299673
  30.2250947   9.5255617  84.4086119  38.7667477  -2.4272424  80.9301395
  39.6785334  -2.1945037  80.7549093  38.2577125  -1.8435380  80.3676474
  37.3737060   2.5553395  88.3214977  36.7445922   2.7199109  87.6191045
  36.9862722   2.9695004  89.0925941  41.2526292   3.4907832  85.6759341
  40.5677330   3.8706734  85.1256374  41.3370141   4.1003159  86.4091288
  32.9265022   2.2927803  85.5865062  33.3903367   2.5715506  84.7969684
  32.6621820   1.3911247  85.4038153  31.8633908  -1.5849045  82.3954627
  32.5657951  -1.1328001  82.8628553  31.5314536  -2.2265226  83.0234520
  39.6223051   4.0139747  90.4477042  40.4440495   3.6119934  90.1659723
  39.6185454   3.9107981  91.3993157  47.7129044   0.3578495  86.7962013
  46.9592753  -0.2114107  86.6406017  47.8476586   0.3241160  87.7432648
  33.1027672   5.2291898  82.4716732  32.9673347   6.0743433  82.9001580
  33.6437485   5.4311175  81.7082666  26.5557070   2.7467336  83.0444657
  27.0681590   3.5410586  83.1950222  27.2079783   2.0493626  82.9778259
  28.3651954   5.8633092  85.1267411  28.5418583   6.7851057  84.9388395
  29.1608788   5.5491511  85.5561790  29.4883270   7.3811266  91.1277753
  30.0390695   7.2528329  90.3554747  28.6494746   7.6806155  90.7772646
  36.4170419  -1.2568929  79.5088061  35.9017042  -0.4864325  79.7476448
  36.1447727  -1.9303793  80.1321122  41.3904693   1.4963425  81.4441234
  40.6134136   1.1574585  80.9996396  42.0696174   1.5016048  80.7696199
  36.2056722  -3.3841837  81.3347842  35.9006857  -3.0695688  82.1857985
  37.1587164  -3.3060417  81.3775175  34.6503154   2.7748386  82.9840796
  34.1224515   2.0401146  82.6714034  34.1490656   3.5523062  82.7380764
  39.6296000   0.9697406  88.1007842  38.9719674   1.6596668  88.1887971
  40.4336399   1.3593838  88.4441829  38.4401458  -0.6758221  86.1511784
  38.9533340  -0.0428229  86.6533494  39.0902682  -1.2757025  85.7855144
  32.7955754   0.5928596  75.9875769  31.8882816   0.3617850  76.1866918
  33.2926786  -0.2033784  76.1749751  35.7023833   9.3026103  78.9072455
  35.0285531   9.6057800  79.5157413  36.0889655  10.1055184  78.5577912
  35.7017337  -1.8017350  83.5272805  36.4489156  -1.2895952  83.2179927
  35.9708927  -2.1233297  84.3877198  33.9743987   0.6941191  80.5099759
  33.0655207   0.4100224  80.6072229  34.0039071   1.1140270  79.6503066
  39.2063255   4.3047781  84.2790927  38.7525582   3.4638691  84.3356117
  38.5757221   4.9409179  84.6165707  38.1496174  -4.7660233  85.5091594
  37.4118931  -5.2782847  85.8401837  38.4022948  -5.2059852  84.6974871
  37.6496194   6.1424277  85.2140745  37.9419168   6.7029334  84.4953111
  38.1594814   6.4352838  85.9693904  32.5228881  -1.6930188  86.6109555
  32.5777491  -2.6456352  86.5352031  31.7120083  -1.5370749  87.0950853
  33.6720075   2.2349935  77.8487838  33.2339505   1.5185794  77.3893475
  34.4130516   2.4626050  77.2872929  32.6129819   6.9204628  86.3034198
  32.5705998   7.1465475  85.3742730  33.5292518   6.6868003  86.4519999
  41.7893190   0.5107132  83.9064156  41.6511088   0.7008728  82.9785346
  41.4329409   1.2726515  84.3632207  41.8162569   2.5783659  88.9175428
  42.2499076   2.4858948  89.7658482  42.5294150   2.5541159  88.2795444
  30.7295620   3.7967657  86.0996161  31.5236218   3.3017978  85.8978736
  30.0187312   3.2685521  85.7363866  35.5490464   6.1785753  90.4508528
  35.6027487   6.7476689  91.2186244  34.6805246   6.3487638  90.0862566
  42.6778119   2.6207360  91.4508313  42.8714009   3.5253170  91.6967588
  42.5778737   2.1614779  92.2846898  33.3066896   4.3696679  89.7793998
  33.1677982   4.0015464  90.6519936  32.5181492   4.8844319  89.6077956
  33.9015048   9.4705776  81.1219534  34.0766804   8.9993819  81.9365157
  33.2147836  10.0971542  81.3500795  34.8572111   3.7478282  87.1682836
  34.5221944   3.7079052  88.0640486  34.3576057   3.0822998  86.6953246
  37.7931303   1.0934316  77.4419895  37.1760473   0.3681145  77.3452948
  37.3247791   1.8543677  77.0986970  28.4676133  12.6195139  87.8959395
  28.7072731  13.2513663  88.5738413  27.6245330  12.2683179  88.1824754
  32.9803995   8.4274261  90.3000899  32.9074166   9.2329233  90.8120203
  32.5381388   8.6266227  89.4748920  32.7693775   7.6646031  83.8103720
  31.9861297   8.2067711  83.9041945  33.4686520   8.1820011  84.2097961
  43.9320182  -0.8218974  88.0956217  43.9210058   0.0605742  87.7250150
  43.0637562  -1.1747423  87.9010754  35.4402679   8.3261095  92.4559057
  36.1530651   8.9608560  92.3834959  34.9492707   8.4224961  91.6399059
  37.1620205   2.2312348  84.0276349  36.2276484   2.3513810  83.8581053
  37.3396874   1.3284815  83.7636359  40.5492757  -1.9270333  84.5626383
  41.0153209  -1.0942341  84.4886686  41.0000257  -2.3925351  85.2671642
  38.6168988   4.4173488  81.5612535  38.8928832   4.3030083  82.4706409
  37.7473487   4.0190973  81.5224708  35.2523052   8.6659839  85.2045349
  35.4345446   7.8481495  85.6673101  36.0756038   8.8827531  84.7670239
  35.5865217   7.5928024  82.4660397  36.1152984   7.0820479  81.8530559
  35.8493437   7.2770555  83.3305930  28.9420965   8.6443141  85.2258173
  28.2731341   9.1289269  84.7422213  28.8033835   8.8912361  86.1401552
  33.0826234  10.6786885  91.8240832  33.6344542  10.8418506  92.5889917
  33.4232427  11.2691322  91.1520856  36.2194621   8.6268860  88.8104514
  36.0945761   7.8258600  88.3015459  36.8773712   9.1215053  88.3218484
  38.2829530   6.4277880  90.4384064  37.3359865   6.3083231  90.3662390
  38.6312303   5.5400378  90.5210325  35.2875963   6.2230596  86.6388416
  35.1400925   5.2947304  86.8195986  36.1129456   6.2450687  86.1545491
  38.8910085   7.0459155  87.7253289  39.8156632   6.8402016  87.5877740
  38.7225388   6.7975556  88.6342630  38.6805401   7.5644823  83.0815380
  38.8542278   6.9991245  82.3289233  39.1734292   8.3645717  82.8994870
  44.5344792   0.3281245  84.7005680  44.9775938  -0.4211429  84.3024803
  43.6571302   0.3191382  84.3179412  39.6680573   6.8811587  80.1812278
  40.3631478   7.5018280  80.3999593  40.0103724   6.0306938  80.4564656
  41.5671997   4.3311292  81.7099609  42.0923321   4.6698565  80.9848929
  41.4794349   3.3958308  81.5262744  33.2512657  10.3983276  86.0694862
  32.8117648   9.9059654  86.7627719  34.0020774   9.8556243  85.8286938
  25.7304996   6.5894817  86.0719491  26.5563016   6.2898588  85.6918134
  25.3799048   5.8202439  86.5209279  30.6986529   5.9421285  88.1417164
  30.0766539   5.2791990  87.8419392  31.3691396   5.9682417  87.4590812
  30.2600036   4.4925208  81.6175625  30.4088157   5.1760673  80.9642297
  31.0666480   4.4730298  82.1325080  44.0777657   1.7986484  87.0928128
  44.9124548   2.2376288  87.2565688  44.2136786   1.3225137  86.2736373
  28.0152669   0.5190386  82.6236694  27.7698711  -0.3847284  82.8216904
  28.1848584   0.5207536  81.6816172  33.7595442   6.9873339  79.0887372
  33.1869409   7.6063526  78.6357844  34.3328236   7.5372700  79.6227294
  36.9792702   7.2710489  80.2195954  37.9123375   7.2056050  80.4228830
  36.8915915   8.1066756  79.7610487  39.6080718   6.5876359  77.1799902
  39.5294350   6.2536223  78.0735660  40.4290385   7.0798127  77.1791374
  42.3058910  -0.5461902  90.3876221  42.2735230  -1.4845901  90.5735904
  42.9159533  -0.4677865  89.6542045  34.1442240  -1.6765849  76.4303425
  35.0901345  -1.8059640  76.4991843  33.7656485  -2.4151187  76.9072853
  48.1235459   0.5154105  89.5282257  48.8538848   0.2539393  90.0889961
  47.5142405  -0.2217173  89.5684325  46.2050757  -1.3438032  90.1256709
  45.4783920  -1.4782067  89.5173200  45.7898043  -1.0361204  90.9313427
  39.2516579  -8.0200411  83.6505512  38.6715248  -7.3615607  83.2683564
  38.9852511  -8.8423066  83.2392929  38.0341457  -5.8600320  82.7061860
  37.1467312  -5.5750670  82.4882055  38.4495446  -6.0206557  81.8589137
  41.3855993  -5.8353799  86.4216199  42.1616383  -5.3457347  86.6940816
  40.6604127  -5.4095745  86.8788069  43.8228551  -5.1226180  87.4790140
  44.4173042  -5.3630444  86.7683448  43.8955135  -5.8419049  88.1063676
  26.0425707   8.7207431  87.7933305  25.9080175   7.9607832  87.2271303
  25.6257769   9.4448331  87.3262094  37.1784670   3.9044355  76.8009880
  37.8820520   4.1094357  77.4167536  36.4547319   4.4721116  77.0658964
  38.0082480  -0.3445784  82.9212150  37.9517682   0.1122767  82.0819783
  38.5610823  -1.1055100  82.7434993  41.8187286  -4.5556052  83.7462270
  41.5624221  -4.9559417  84.5770478  41.1940154  -3.8412258  83.6212409
  46.1299624  -1.8159979  86.2533561  45.5699182  -1.7466790  87.0265123
  45.5243128  -1.9918994  85.5333058  29.1994833   9.6176748  88.0051748
  29.0827217  10.5622180  87.9030438  28.3787279   9.3150310  88.3937547
  39.0871368   4.3426884  78.8508340  39.9216971   3.9108082  78.6685815
  38.9255710   4.1708897  79.7785235  38.7417260   0.8458997  80.2164680
  38.6866064   0.6803268  79.2753124  38.1163315   1.5535030  80.3726869
  30.2249347  10.2705010  91.2207676  31.1276594  10.3028620  91.5374171
  29.9986717   9.3405461  91.2354012  31.9802949   9.0235996  87.8817755
  31.0298580   9.0237858  87.7682127  32.2835435   8.2768731  87.3653789
  47.7155643  14.8596535  88.9463517  48.3534053  14.7403282  88.2426857
  47.5976486  15.8077379  89.0051469  44.5245349  14.8123963  88.8825042
  44.1863860  14.6965028  87.9945577  45.3935117  14.4115128  88.8626048
  40.3832165  16.6659439  84.8721933  39.8197030  16.5749376  84.1038220
  40.2684560  15.8459344  85.3524425  45.0065132  15.9658815  94.8411247
  44.9953773  15.5711613  93.9691751  45.1685771  15.2324887  95.4345019
  37.9296597  18.1610631  87.7106153  38.7217888  17.8201456  87.2952452
  38.1693247  18.2705606  88.6308306  45.9631723  20.3330407  80.1836398
  45.3119703  20.9184487  79.7970411  46.7576086  20.8636602  80.2431435
  39.8887350  17.4219544  80.5823532  40.6618226  16.8748531  80.4436408
  40.2412749  18.2863794  80.7937993  41.7272393  18.7495926  93.7890431
  41.4362259  19.6541557  93.6737098  42.3629377  18.7912454  94.5034501
  42.6528600  16.1272775  90.3791791  43.2492172  15.9028797  89.6648754
  42.7103571  15.3857520  90.9817239  42.2253628  13.5812210  78.2141982
  42.4779149  13.0593732  77.4525445  41.2878187  13.4178356  78.3168665
  47.2696911  12.5847989  86.0216725  48.0560000  12.1667412  85.6707142
  47.5335615  13.4894081  86.1898373  47.4406988  18.0220839  80.7205382
  46.8052821  18.0955466  81.4326287  47.1104395  18.6114438  80.0424461
  52.6705338  12.5223222  86.9249704  53.4030510  11.9522439  87.1587533
  51.9144694  12.1344822  87.3656209  41.9449917  15.4840316  80.4166357
  41.8286175  14.8085220  81.0847441  42.0552177  14.9972690  79.5998510
  44.2881458  14.9450463  84.1213046  43.9239665  14.4181084  84.8325968
  45.1448574  14.5548932  83.9479531  50.1930759   6.2344796  91.3844312
  49.8614083   7.1040207  91.1605527  49.5976372   5.9181080  92.0638343
  43.9286945   9.9740363  79.1174395  44.0961347  10.8420599  79.4844866
  43.7384114  10.1367645  78.1935684  46.6862278  18.4357342  90.7840225
  46.3863001  19.3382381  90.6756032  46.3413338  18.1689525  91.6361378
  40.1374760  14.8871139  86.8176929  39.2125256  14.7547353  87.0254621
  40.3859173  15.6665358  87.3146872  50.0859422  10.9539882  88.4637662
  49.1776299  10.8855291  88.1696423  50.0347018  11.4311827  89.2919488
  43.9076166  12.4298021  80.1021061  43.7875791  12.8755071  80.9406542
  43.2128754  12.7783338  79.5434600  37.4983571  14.5304412  87.6520718
  37.6275952  14.7838891  88.5660130  36.8181022  15.1232120  87.3325373
  41.6683058  25.2001662  83.7511193  41.5907088  26.1509487  83.8299673
  41.0644702  24.8547535  84.4086119  44.1600288  12.3729528  96.4072560
  43.3833622  12.9323448  96.3975424  44.7990851  12.8586311  96.9287430
  51.9521068   9.1556321  90.2415536  51.3095449   9.4488854  89.5955331
  51.4475997   9.0409241  91.0468733  49.6061232  12.9019494  80.9301395
  50.5179088  13.1346881  80.7549093  49.0970879  13.4856538  80.3676474
  42.4146660  15.1814981  95.9690527  43.1561344  15.7200025  95.6925350
  41.7083645  15.8081270  96.1262078  47.8902000  17.3244122  94.5662688
  48.2985356  16.8826532  93.8217320  47.1679261  16.7496749  94.8196881
  44.2433070  12.2616728  91.9396245  45.0894265  12.6856142  92.0830894
  44.1831707  11.6050353  92.6334808  48.2130814  17.8845312  88.3214977
  47.5839677  18.0491026  87.6191045  47.8256476  18.2986922  89.0925941
  52.0920046  18.8199750  85.6759341  51.4071084  19.1998651  85.1256374
  52.1763895  19.4295077  86.4091288  47.3932515   9.9221097  93.5977419
  47.1493447  10.6763157  93.0611694  47.6692446  10.3006444  94.4324666
  49.3470978  16.4659709  92.2754684  49.5587873  17.1091469  91.5989065
  49.3000726  15.6322026  91.8076614  46.9497207   9.0777530  89.1791256
  46.0881686   9.3758783  89.4707994  46.9759641   9.2947929  88.2472289
  43.7658776  17.6219720  85.5865062  44.2297122  17.9007423  84.7969684
  43.5015574  16.7203165  85.4038153  40.6582857  17.1691202  88.5244825
  41.2284214  17.5978470  87.8862310  41.2490969  16.8873787  89.2229011
  42.7027662  13.7442873  82.3954627  43.4051706  14.1963916  82.8628553
  42.3708291  13.1026692  83.0234520  41.1508024  12.3354629  96.7705837
  40.5206684  13.0170910  97.0041233  41.0444112  12.2237711  95.8258975
  36.4452996  12.0026425  87.6971761  35.6552050  12.2583954  87.2211871
  36.9364244  12.8174763  87.8023801  50.4616806  19.3431665  90.4477042
  51.2834249  18.9411852  90.1659723  50.4579209  19.2399899  91.3993157
  38.3967742  12.3671005  84.6555237  37.5998905  12.4789699  85.1738733
  38.1693334  12.7057657  83.7896128  44.2273409  18.8915708  92.6037752
  44.2917842  19.3536115  93.4395924  43.5184333  18.2613073  92.7320062
  34.7290699  12.2556916  90.1286751  34.9798738  13.1403926  90.3944327
  35.2650248  12.0761517  89.3561843  58.5522799  15.6870413  86.7962013
  57.7986507  15.1177811  86.6406017  58.6870340  15.6533077  87.7432648
  43.9421427  20.5583815  82.4716732  43.8067102  21.4035351  82.9001580
  44.4831239  20.7603093  81.7082666  37.3950824  18.0759253  83.0444657
  37.9075345  18.8702504  83.1950222  38.0473537  17.3785544  82.9778259
  39.2045709  21.1925010  85.1267411  39.3812337  22.1142974  84.9388395
  40.0002542  20.8783429  85.5561790  43.3456727   8.0533274  96.7251344
  44.0866441   8.6540427  96.6455807  43.5774650   7.3110912  96.1669387
  38.4898065  13.2389641  95.0029574  38.3751581  12.3374899  95.3036673
  37.6342583  13.4853338  94.6514390  45.5689903  21.1807382  96.6017074
  45.1253757  20.3943760  96.2837979  46.2307117  21.3686532  95.9360965
  40.3277024  22.7103183  91.1277753  40.8784450  22.5820247  90.3554747
  39.4888500  23.0098072  90.7772646  47.6671141  21.4610182  94.6298476
  47.6489617  22.2819063  94.1378745  48.5891061  21.3364257  94.8548617
  44.1244195  18.9754311  95.4721984  44.6572532  18.2142599  95.2421292
  43.5958277  18.6827963  96.2146139  47.2913890   4.0814377  91.0015626
  46.9478160   4.9716019  90.9254736  47.6592853   3.8916035  90.1385211
  35.3599741  16.4047908  83.8204228  36.1974963  16.8144916  83.6037936
  35.5378009  15.4647350  83.7904422  47.2564173  14.0722988  79.5088061
  46.7410797  14.8427593  79.7476448  46.9841482  13.3988124  80.1321122
  44.8411284   8.9172689  84.5673299  43.9852880   8.5279539  84.3878938
  45.2538236   8.9964650  83.7073085  46.3710431   6.4519032  88.9664859
  45.8675226   6.4149167  88.1532664  46.6641038   7.3611775  89.0261516
  42.6153317   6.5357762  87.9731041  43.4806313   6.3400571  87.6136930
  42.6830826   6.3068114  88.9000398  52.2298447  16.8255343  81.4441234
  51.4527890  16.4866502  80.9996396  52.9089928  16.8307966  80.7696199
  47.0450476  11.9450080  81.3347842  46.7400612  12.2596230  82.1857985
  47.9980918  12.0231500  81.3775175  45.4896908  18.1040304  82.9840796
  44.9618270  17.3693063  82.6714034  44.9884411  18.8814980  82.7380764
  50.4689754  16.2989324  88.1007842  49.8113429  16.9888586  88.1887971
  51.2730153  16.6885756  88.4441829  40.2215636   8.7659970  85.3447408
  40.7959388   8.5435151  84.6120601  40.8086618   8.8348664  86.0976009
  49.2795213  14.6533697  86.1511784  49.7927095  15.2863689  86.6533494
  49.9296437  14.0534892  85.7855144  40.5485223  10.7964431  79.3643293
  39.7122535  11.1339118  79.6852568  40.4089993  10.6613411  78.4270430
  42.5238303   5.6401219  84.0722477  41.8702716   5.3250236  83.4479092
  42.4818778   5.0176959  84.7982300  43.6349508  15.9220514  75.9875769
  42.7276570  15.6909767  76.1866918  44.1320540  15.1258133  76.1749751
  46.5417587  24.6318021  78.9072455  45.8679286  24.9349718  79.5157413
  46.9283409  25.4347101  78.5577912  45.7576044  12.1283152  88.3970125
  44.8398605  12.3498099  88.2391813  46.1736187  12.2029463  87.5381832
  46.5411092  13.5274568  83.5272805  47.2882911  14.0395965  83.2179927
  46.8102681  13.2058621  84.3877198  44.8137742  16.0233109  80.5099759
  43.9048961  15.7392142  80.6072229  44.8432826  16.4432187  79.6503066
  50.0457009  19.6339698  84.2790927  49.5919336  18.7930608  84.3356117
  49.4150976  20.2701097  84.6165707  48.9889929  10.5631684  85.5091594
  48.2512686  10.0509071  85.8401837  49.2416702  10.1232066  84.6974871
  48.4889948  21.4716195  85.2140745  48.7812923  22.0321252  84.4953111
  48.9988569  21.7644756  85.9693904  49.0901556   3.3407936  86.1033363
  49.3960433   2.4805300  85.8159279  49.8154161   3.9325557  85.9032357
  35.3825912  13.7438623  84.4914961  35.1850312  13.1507984  83.7666028
  34.8272576  13.4390833  85.2090900  43.3622636  13.6361729  86.6109555
  43.4171246  12.6835566  86.5352031  42.5513838  13.7921169  87.0950853
  44.5113830  17.5641852  77.8487838  44.0733259  16.8477711  77.3893475
  45.2524270  17.7917967  77.2872929  41.3014996  12.2538789  84.3699933
  40.4882861  12.5532960  84.7765126  41.7973990  11.8594478  85.0874416
  43.4523574  22.2496546  86.3034198  43.4099752  22.4757392  85.3742730
  44.3686272  22.0159921  86.4519999  46.8989207  12.7180614  93.2014827
  47.2538595  12.9452087  94.0609293  47.5461339  13.0498990  92.5792083
  52.6286944  15.8399050  83.9064156  52.4904843  16.0300645  82.9785346
  52.2723163  16.6018432  84.3632207  40.7929070   9.8257145  89.9861168
  41.4328450   9.6845904  89.2884132  39.9606601   9.5391658  89.6099770
  52.6556324  17.9075577  88.9175428  53.0892831  17.8150866  89.7658482
  53.3687905  17.8833077  88.2795444  41.5689374  19.1259575  86.0996161
  42.3629973  18.6309895  85.8978736  40.8581067  18.5977438  85.7363866
  46.3884219  21.5077671  90.4508528  46.4421241  22.0768607  91.2186244
  45.5199000  21.6779556  90.0862566  37.8772138  13.2702657  82.1755914
  36.9469726  13.2087112  82.3925876  37.9729610  12.7478610  81.3792555
  37.7957687   9.7957470  84.7634155  38.0564504  10.7102803  84.6543316
  38.6174859   9.3281912  84.9130768  39.2682612  11.2095227  91.9332980
  39.9405666  11.0012589  91.2845629  38.4412399  11.0117313  91.4938212
  53.5171874  17.9499277  91.4508313  53.7107764  18.8545088  91.6967588
  53.4172492  17.4906696  92.2846898  45.1708184   7.8357168  93.9498641
  44.5236099   8.5347117  93.8563117  45.9409200   8.2693312  94.3174889
  48.5786982  18.1006020  97.0249194  48.4272489  17.8716572  96.1079278
  48.5691662  19.0576621  97.0380539  45.3472319  15.6737933  92.0095460
  46.2764379  15.8249092  91.8364428  44.9263349  15.7621953  91.1544107
  44.1460650  19.6988597  89.7793998  44.0071736  19.3307381  90.6519936
  43.3575247  20.2136237  89.6077956  44.7408802  24.7997694  81.1219534
  44.9160558  24.3285737  81.9365157  44.0541590  25.4263460  81.3500795
  45.6965866  19.0770200  87.1682836  45.3615698  19.0370970  88.0640486
  45.1969811  18.4114916  86.6953246  39.6710109  14.4837830  92.6935417
  39.5329907  13.7518069  93.2946956  40.5815033  14.3946730  92.4119605
  48.6325057  16.4226234  77.4419895  48.0154228  15.6973062  77.3452948
  48.1641546  17.1835594  77.0986970  42.2992410  14.1957789  92.1819097
  43.0092029  13.5550981  92.1405715  42.2561718  14.4470684  93.1045277
  50.2879189  21.1325142  95.1025676  50.2291735  20.4484363  94.4356259
  50.6898707  21.8744132  94.6506302  41.0121344  11.1823007  94.0014736
  40.4758701  10.7313745  94.6536332  40.4238053  11.3168916  93.2585200
  39.3069888  27.9487056  87.8959395  39.5466486  28.5805580  88.5738413
  38.4639084  27.5975096  88.1824754  40.4223603  10.6411658  76.5641200
  39.5453069  10.5200459  76.2003446  40.8981356   9.8497737  76.3120088
  50.2896596  19.0964726  93.3339655  49.4023375  18.7590648  93.4566054
  50.8595147  18.3647758  93.5708421  31.9425743  15.4288818  86.6582707
  32.6296783  15.1150548  86.0703722  31.7873872  16.3330183  86.3849958
  36.7460465  10.3179015  91.0867730  36.6618654   9.7104684  90.3518140
  35.9243172  10.8088033  91.0877227  43.8197750  23.7566179  90.3000899
  43.7467921  24.5621150  90.8120203  43.3775143  23.9558145  89.4748920
  43.6087529  22.9937949  83.8103720  42.8255051  23.5359629  83.9041945
  44.3080274  23.5111928  84.2097961  46.9184179   8.8032578  86.4537926
  47.4152879   8.0502541  86.1338996  46.1471161   8.8396895  85.8881135
  54.7713937  14.5072944  88.0956217  54.7603813  15.3897659  87.7250150
  53.9031316  14.1544495  87.9010754  46.2796433  23.6553013  92.4559057
  46.9924405  24.2900478  92.3834959  45.7886462  23.7516879  91.6399059
  48.0013960  17.5604265  84.0276349  47.0670239  17.6805728  83.8581053
  48.1790628  16.6576732  83.7636359  43.5019148  10.9449961  86.1809610
  43.1316936  10.3921002  86.8690516  43.9978240  10.3408095  85.6284610
  51.3886511  13.4021585  84.5626383  51.8546963  14.2349576  84.4886686
  51.8394012  12.9366566  85.2671642  41.3308347  21.4047456  93.2764628
  42.0317806  22.0383939  93.4294022  40.8603462  21.7462188  92.5160267
  49.4562742  19.7465406  81.5612535  49.7322586  19.6322001  82.4706409
  48.5867241  19.3482891  81.5224708  49.3603174   5.7702172  88.6017284
  48.4466254   6.0006399  88.7699491  49.7896275   5.8540616  89.4531317
  49.1309633  13.9592064  91.1017178  48.4781083  14.2067971  90.4469631
  49.5090012  13.1456202  90.7679656  46.0916806  23.9951757  85.2045349
  46.2739201  23.1773413  85.6673101  46.9149792  24.2119449  84.7670239
  46.4258972  22.9219942  82.4660397  46.9546738  22.4112397  81.8530559
  46.6887191  22.6062472  83.3305930  45.1797206  14.7011875  97.5883216
  44.5037843  14.6006004  98.2585591  46.0024839  14.5451089  98.0519213
  36.9276065  20.9383811  90.2095731  37.5129501  20.1927499  90.3423635
  36.7300903  21.2487768  91.0932395  39.7814720  23.9735059  85.2258173
  39.1125095  24.4581186  84.7422213  39.6427590  24.2204279  86.1401552
  31.5193719  13.5089412  88.9300174  31.5577819  12.9753002  89.7237292
  31.0134012  12.9824617  88.3111151  43.9219988  26.0078802  91.8240832
  44.4738296  26.1710424  92.5889917  44.2626182  26.5983240  91.1520856
  38.8984482   8.3553952  92.4262716  38.9625808   9.2168783  92.0140114
  38.8351602   7.7427954  91.6935075  48.7730863  20.8340060  97.6789486
  49.3170767  21.4470018  97.1844441  48.1917708  21.3919638  98.1956499
  35.1502297  12.2353514  82.0054105  35.4455738  11.3264192  81.9521159
  34.2490333  12.2141253  81.6835108  47.0588376  23.9560778  88.8104514
  46.9339515  23.1550518  88.3015459  47.7167467  24.4506971  88.3218484
  38.6796544  10.3109510  87.9881654  37.9583130  10.9245478  87.8489127
  39.4689800  10.8467275  87.9098300  49.1223284  21.7569798  90.4384064
  48.1753620  21.6375149  90.3662390  49.4706057  20.8692296  90.5210325
  41.4822857   7.6463937  94.2622306  42.0057259   7.8926233  95.0248615
  41.2635191   8.4783972  93.8425443  36.8790139   9.9167611  82.1293430
  36.5502845   9.0364990  81.9468536  37.2329509   9.8615280  83.0169820
  46.1269717  21.5522514  86.6388416  45.9794680  20.6239221  86.8195986
  46.9523211  21.5742605  86.1545491  39.9931962  10.2040581  82.4968908
  40.3328034  10.7326502  81.7747517  40.4404082  10.5420987  83.2727475
  49.7303839  22.3751073  87.7253289  50.6550387  22.1693934  87.5877740
  49.5619143  22.1267474  88.6342630  42.6875403   8.5877632  91.9471976
  42.3472223   7.7885445  92.3492656  41.9814409   8.8879343  91.3748809
  43.3391874   5.6726944  90.3999299  44.1617944   5.1987422  90.2778190
  43.5829938   6.4517428  90.8997986  41.9800109   8.7015203  80.6962201
  42.7008471   9.0796456  80.1925918  41.3565413   9.4204080  80.7997179
  46.1231232   9.4060352  81.6320533  46.3394846  10.2884990  81.3309361
  45.6425299   9.0146565  80.9026175  40.8630453  12.3646065  88.2091278
  40.7175034  12.6786368  89.1015559  40.3855657  12.9830965  87.6562176
  42.7226836   9.3548613  88.2572167  42.7088405   8.4589706  87.9204465
  43.4399264   9.3619277  88.8910453  44.5752967   9.7885953  90.3025295
  44.3170745  10.7103024  90.3009625  44.0438007   9.3916388  90.9925759
  49.5199155  22.8936740  83.0815380  49.6936033  22.3283163  82.3289233
  50.0128047  23.6937635  82.8994870  35.3376115  14.9051409  91.1478939
  34.7929583  15.6811217  91.2799213  36.2155465  15.2522214  90.9898060
  42.1263732   8.2362993  83.5259738  42.2479643   7.3079639  83.7250625
  41.8365774   8.2501679  82.6138053  44.9954922   5.9217904  86.6626457
  45.0176619   5.9857237  85.7078437  45.4122981   5.0822412  86.8566964
  55.3738547  15.6573163  84.7005680  55.8169693  14.9080488  84.3024803
  54.4965057  15.6483300  84.3179412  50.5074328  22.2103505  80.1812278
  51.2025233  22.8310197  80.3999593  50.8497478  21.3598856  80.4564656
  36.1242137  14.0321306  94.0409096  35.3823873  14.1803941  94.6273726
  35.8034881  14.2929571  93.1775845  52.4065751  19.6603210  81.7099609
  52.9317075  19.9990483  80.9848929  52.3188104  18.7250225  81.5262744
  44.0685800  23.5737284  93.8389486  44.3772926  23.3286431  94.7112185
  44.8661282  23.7783922  93.3508356  44.0906412  25.7275193  86.0694862
  43.6511402  25.2351572  86.7627719  44.8414529  25.1848161  85.8286938
  36.5698751  21.9186734  86.0719491  37.3956771  21.6190506  85.6918134
  36.2192803  21.1494357  86.5209279  41.5380284  21.2713203  88.1417164
  40.9160293  20.6083908  87.8419392  42.2085151  21.2974334  87.4590812
  34.7707356  19.8373061  87.0308424  33.9339264  19.4095235  86.8492425
  34.7431001  20.0305504  87.9679215  52.0959657  20.2936114  97.0150807
  51.3055201  20.2760253  96.4755307  51.8593012  20.8324407  97.7699844
  52.2157532  17.1428580  94.3283536  52.2655537  16.9778588  95.2699059
  52.1071456  16.2755839  93.9381417  41.0993791  19.8217126  81.6175625
  41.2481911  20.5052590  80.9642297  41.9060234  19.8022216  82.1325080
  49.5061295  13.1259508  95.6442842  50.4071157  12.9865973  95.3526840
  49.5809269  13.2913963  96.5841020  43.8404100  10.5026363  94.4896029
  42.9707409  10.7959929  94.2178617  44.0763580  11.0866808  95.2103292
  53.7175729  19.5625522  94.5725557  53.4260537  19.9255502  95.4089018
  53.1047860  18.8492530  94.3938889  54.9171411  17.1278401  87.0928128
  55.7518303  17.5668206  87.2565688  55.0530540  16.6517055  86.2736373
  51.9662917  14.6858136  93.0405615  52.4417039  14.8785783  92.2324467
  51.0428483  14.7417322  92.7948999  38.8546424  15.8482304  82.6236694
  38.6092466  14.9444634  82.8216904  39.0242338  15.8499454  81.6816172
  46.5443134   6.7205980  92.0061449  47.0625078   7.4567007  91.6807938
  46.1898266   7.0269973  92.8408208  38.1242071  11.5810661  80.1222855
  37.4311316  11.6555016  79.4662891  37.8793823  10.8171005  80.6444372
  46.7955728   3.1406262  87.5262346  47.0757482   2.4729451  88.1522772
  47.5806335   3.3335358  87.0137010  44.5989196  22.3165256  79.0887372
  44.0263163  22.9355443  78.6357844  45.1721990  22.8664618  79.6227294
  50.6664586  11.5623896  91.2733921  51.6182009  11.6621994  91.2946145
  50.4968037  10.7702165  91.7832005  48.6878966   8.6479480  91.4593322
  48.0928898   8.9284492  90.7639810  48.4028662   9.1373381  92.2310063
  47.8186456  22.6002406  80.2195954  48.7517129  22.5347968  80.4228830
  47.7309669  23.4358673  79.7610487  50.4474473  21.9168277  77.1799902
  50.3688104  21.5828140  78.0735660  51.2684140  22.4090045  77.1791374
  53.1452664  14.7830016  90.3876221  53.1128984  13.8446017  90.5735904
  53.7553288  14.8614053  89.6542045  44.9835995  13.6526069  76.4303425
  45.9295100  13.5232277  76.4991843  44.6050240  12.9140731  76.9072853
  53.2947153  11.5741060  90.4334504  52.7786201  10.7899516  90.2464433
  54.1787101  11.2459776  90.5981023  50.9557879   5.3182075  86.3930316
  50.7582701   5.0097163  87.2773648  51.5657585   6.0443714  86.5228246
  58.9629214  15.8446023  89.5282257  59.6932602  15.5831311  90.0889961
  58.3536159  15.1074745  89.5684325  57.0444511  13.9853886  90.1256709
  56.3177675  13.8509850  89.5173200  56.6291798  14.2930714  90.9313427
  44.8674687  17.7043815  97.8904082  45.7877697  17.8822414  98.0844128
  44.8324270  16.7599861  97.7383781  43.1678912  11.5776045  76.3658310
  42.2610367  11.2809158  76.4421023  43.4454893  11.2805864  75.4992596
  34.0856852  12.8982409  86.8157356  33.7659637  12.0447717  86.5231730
  33.5390281  13.1130987  87.5715324  37.8636760  15.6144850  90.5326863
  38.0822770  16.5461958  90.5514897  38.2762534  15.2552824  91.3181667
  44.7840978   6.1212935  82.5202551  43.9741706   5.7760020  82.8957797
  45.4725395   5.8120479  83.1090163  46.7131526   5.1990982  84.1426848
  47.2662565   5.6186435  84.8016871  46.9501612   4.2726730  84.1849804
  41.9377697   8.4362981  76.5070289  42.7996861   8.7617879  76.7666106
  42.1228041   7.6494477  75.9943355  33.9545112  16.5185320  88.7850478
  33.2608584  16.1039273  88.2720432  34.7018103  16.5605857  88.1883897
  50.0910333   7.3091507  83.6505512  49.5109002   7.9676311  83.2683564
  49.8246266   6.4868852  83.2392929  48.5413900   6.7096565  85.8526832
  49.0413678   6.8213099  85.0441151  49.1849507   6.4057618  86.4927641
  42.5995895  14.6175194  98.7394673  42.1162977  15.4175555  98.9458562
  42.6856834  14.6283139  97.7862117  35.8681855  16.4503574  86.6616493
  35.8452543  16.5491261  85.7098376  36.1782491  17.2968725  86.9833659
  38.5269233  18.5079729  90.7763107  39.4812486  18.4763672  90.7093039
  38.3281756  18.0470353  91.5913333  39.1168615  17.0780845  93.3433905
  39.9361504  17.5724924  93.3668742  39.3905423  16.1612813  93.3151472
  48.8735211   9.4691598  82.7061860  47.9861066   9.7541248  82.4882055
  49.2889200   9.3085361  81.8589137  52.2249747   9.4938119  86.4216199
  53.0010137   9.9834571  86.6940816  51.4997881   9.9196173  86.8788069
  54.6622306  10.2065738  87.4790140  55.2566797   9.9661474  86.7683448
  54.7348890   9.4872868  88.1063676  36.8819462  24.0499349  87.7933305
  36.7473930  23.2899750  87.2271303  36.4651524  24.7740249  87.3262094
  48.0178425  19.2336272  76.8009880  48.7214275  19.4386275  77.4167536
  47.2941073  19.8013034  77.0658964  48.8476235  14.9846133  82.9212150
  48.7911436  15.4414685  82.0819783  49.4004577  14.2236818  82.7434993
  52.6581041  10.7735865  83.7462270  52.4017975  10.3732501  84.5770478
  52.0333909  11.4879659  83.6212409  56.9693379  13.5131939  86.2533561
  56.4092937  13.5825128  87.0265123  56.3636882  13.3372923  85.5333058
  40.0388587  24.9468666  88.0051748  39.9220972  25.8914098  87.9030438
  39.2181034  24.6442227  88.3937547  49.9265122  19.6718801  78.8508340
  50.7610726  19.2400000  78.6685815  49.7649465  19.5000815  79.7785235
  49.5811014  16.1750915  80.2164680  49.5259818  16.0095186  79.2753124
  48.9557069  16.8826948  80.3726869  34.3703529  11.4118979  94.0426102
  35.0162393  10.9017933  94.5313327  34.1620680  12.1487661  94.6169527
  46.8956921  18.4799827  99.5418242  47.7648081  18.6540479  99.1804877
  46.4163673  19.2994243  99.4193972  42.8907140   5.6759024  79.7949998
  42.8785809   6.6200864  79.9518269  43.7830562   5.4929169  79.5009459
  41.0643102  25.5996928  91.2207676  41.9670348  25.6320538  91.5374171
  40.8380472  24.6697379  91.2354012  42.8196704  24.3527914  87.8817755
  41.8692335  24.3529776  87.7682127  43.1229190  23.6060649  87.3653789
  46.7059259   2.2701800  84.0495935  45.9391655   1.7160287  84.1952617
  47.1169964   2.3423669  84.9110086  58.5549397  30.1888453  88.9463517
  59.1927807  30.0695200  88.2426857  58.4370240  31.1369296  89.0051469
  55.3639103  30.1415881  88.8825042  55.0257615  30.0256945  87.9945577
  56.2328872  29.7407046  88.8626048  51.2225919  31.9951357  84.8721933
  50.6590784  31.9041294  84.1038220  51.1078314  31.1751261  85.3524425
  55.8458886  31.2950732  94.8411247  55.8347527  30.9003531  93.9691751
  56.0079526  30.5616805  95.4345019  48.7690351  33.4902549  87.7106153
  49.5611643  33.1493373  87.2952452  49.0087001  33.5997524  88.6308306
  56.8025478  35.6622325  80.1836398  56.1513458  36.2476405  79.7970411
  57.5969841  36.1928520  80.2431435  50.7281105  32.7511462  80.5823532
  51.5011981  32.2040449  80.4436408  51.0806504  33.6155711  80.7937993
  52.5666148  34.0787844  93.7890431  52.2756014  34.9833475  93.6737098
  53.2023132  34.1204372  94.5034501  53.4922354  31.4564693  90.3791791
  54.0885927  31.2320715  89.6648754  53.5497326  30.7149438  90.9817239
  53.0647383  28.9104128  78.2141982  53.3172903  28.3885649  77.4525445
  52.1271942  28.7470273  78.3168665  58.1090666  27.9139906  86.0216725
  58.8953755  27.4959330  85.6707142  58.3729370  28.8185999  86.1898373
  58.2800743  33.3512757  80.7205382  57.6446576  33.4247383  81.4326287
  57.9498149  33.9406355  80.0424461  63.5099093  27.8515140  86.9249704
  64.2424265  27.2814356  87.1587533  62.7538448  27.4636740  87.3656209
  52.7843672  30.8132234  80.4166357  52.6679930  30.1377137  81.0847441
  52.8945931  30.3264608  79.5998510  55.1275212  30.2742381  84.1213046
  54.7633420  29.7473002  84.8325968  55.9842328  29.8840850  83.9479531
  61.0324513  21.5636714  91.3844312  60.7007838  22.4332125  91.1605527
  60.4370126  21.2472998  92.0638343  54.7680699  25.3032281  79.1174395
  54.9355102  26.1712517  79.4844866  54.5777869  25.4659562  78.1935684
  57.5256033  33.7649260  90.7840225  57.2256756  34.6674298  90.6756032
  57.1807092  33.4981443  91.6361378  50.9768514  30.2163056  86.8176929
  50.0519011  30.0839271  87.0254621  51.2252927  30.9957276  87.3146872
  60.9253176  26.2831800  88.4637662  60.0170054  26.2147208  88.1696423
  60.8740772  26.7603745  89.2919488  54.7469920  27.7589938  80.1021061
  54.6269546  28.2046989  80.9406542  54.0522509  28.1075256  79.5434600
  48.3377325  29.8596330  87.6520718  48.4669706  30.1130809  88.5660130
  47.6574776  30.4524038  87.3325373  52.5076812  40.5293580  83.7511193
  52.4300842  41.4801405  83.8299673  51.9038456  40.1839453  84.4086119
  54.9994042  27.7021445  96.4072560  54.2227376  28.2615366  96.3975424
  55.6384605  28.1878228  96.9287430  62.7914823  24.4848238  90.2415536
  62.1489203  24.7780771  89.5955331  62.2869751  24.3701159  91.0468733
  60.4454986  28.2311411  80.9301395  61.3572843  28.4638798  80.7549093
  59.9364634  28.8148456  80.3676474  53.2540414  30.5106899  95.9690527
  53.9955099  31.0491943  95.6925350  52.5477400  31.1373188  96.1262078
  58.7295754  32.6536039  94.5662688  59.1379110  32.2118450  93.8217320
  58.0073016  32.0788667  94.8196881  55.0826824  27.5908646  91.9396245
  55.9288019  28.0148060  92.0830894  55.0225462  26.9342270  92.6334808
  59.0524569  33.2137230  88.3214977  58.4233431  33.3782944  87.6191045
  58.6650231  33.6278839  89.0925941  62.9313801  34.1491668  85.6759341
  62.2464839  34.5290569  85.1256374  63.0157650  34.7586994  86.4091288
  58.2326270  25.2513014  93.5977419  57.9887201  26.0055075  93.0611694
  58.5086200  25.6298362  94.4324666  60.1864732  31.7951627  92.2754684
  60.3981628  32.4383387  91.5989065  60.1394481  30.9613943  91.8076614
  57.7890961  24.4069447  89.1791256  56.9275440  24.7050701  89.4707994
  57.8153396  24.6239846  88.2472289  54.6052531  32.9511638  85.5865062
  55.0690876  33.2299341  84.7969684  54.3409329  32.0495083  85.4038153
  51.4976612  32.4983120  88.5244825  52.0677969  32.9270388  87.8862310
  52.0884724  32.2165704  89.2229011  53.5421417  29.0734790  82.3954627
  54.2445460  29.5255834  82.8628553  53.2102045  28.4318609  83.0234520
  51.9901778  27.6646547  96.7705837  51.3600439  28.3462828  97.0041233
  51.8837866  27.5529629  95.8258975  47.2846751  27.3318343  87.6971761
  46.4945805  27.5875872  87.2211871  47.7757998  28.1466681  87.8023801
  61.3010560  34.6723582  90.4477042  62.1228004  34.2703769  90.1659723
  61.2972963  34.5691816  91.3993157  49.2361496  27.6962922  84.6555237
  48.4392659  27.8081616  85.1738733  49.0087088  28.0349574  83.7896128
  55.0667164  34.2207625  92.6037752  55.1311596  34.6828033  93.4395924
  54.3578088  33.5904990  92.7320062  45.5684454  27.5848833  90.1286751
  45.8192492  28.4695843  90.3944327  46.1044002  27.4053435  89.3561843
  69.3916553  31.0162331  86.7962013  68.6380262  30.4469729  86.6406017
  69.5264094  30.9824995  87.7432648  54.7815181  35.8875733  82.4716732
  54.6460856  36.7327269  82.9001580  55.3224994  36.0895011  81.7082666
  51.2682521  21.9667313  99.1331088  50.8749467  21.4133511  99.8078732
  52.0848661  22.2777891  99.5237605  48.2344579  33.4051171  83.0444657
  48.7469099  34.1994421  83.1950222  48.8867292  32.7077461  82.9778259
  50.0439463  36.5216927  85.1267411  50.2206092  37.4434892  84.9388395
  50.8396297  36.2075346  85.5561790  54.1850482  23.3825192  96.7251344
  54.9260195  23.9832345  96.6455807  54.4168405  22.6402830  96.1669387
  49.3291820  28.5681559  95.0029574  49.2145335  27.6666816  95.3036673
  48.4736338  28.8145256  94.6514390  56.4083658  36.5099299  96.6017074
  55.9647512  35.7235678  96.2837979  57.0700871  36.6978450  95.9360965
  51.1670779  38.0395101  91.1277753  51.7178204  37.9112164  90.3554747
  50.3282255  38.3389990  90.7772646  58.5064896  36.7902099  94.6298476
  58.4883371  37.6110980  94.1378745  59.4284816  36.6656175  94.8548617
  54.9637950  34.3046229  95.4721984  55.4966287  33.5434517  95.2421292
  54.4352031  34.0119881  96.2146139  58.1307645  19.4106295  91.0015626
  57.7871914  20.3007937  90.9254736  58.4986607  19.2207952  90.1385211
  46.1993495  31.7339825  83.8204228  47.0368718  32.1436834  83.6037936
  46.3771763  30.7939267  83.7904422  58.0957928  29.4014906  79.5088061
  57.5804551  30.1719511  79.7476448  57.8235236  28.7280042  80.1321122
  55.6805039  24.2464607  84.5673299  54.8246635  23.8571457  84.3878938
  56.0931990  24.3256568  83.7073085  57.2104185  21.7810950  88.9664859
  56.7068981  21.7441085  88.1532664  57.5034792  22.6903693  89.0261516
  53.4547071  21.8649680  87.9731041  54.3200068  21.6692488  87.6136930
  53.5224580  21.6360031  88.9000398  63.0692202  32.1547261  81.4441234
  62.2921645  31.8158420  80.9996396  63.7483683  32.1599884  80.7696199
  57.8844231  27.2741998  81.3347842  57.5794366  27.5888147  82.1857985
  58.8374673  27.3523418  81.3775175  56.3290663  33.4332221  82.9840796
  55.8012024  32.6984981  82.6714034  55.8278165  34.2106898  82.7380764
  61.3083509  31.6281242  88.1007842  60.6507183  32.3180503  88.1887971
  62.1123908  32.0177674  88.4441829  51.0609390  24.0951888  85.3447408
  51.6353142  23.8727069  84.6120601  51.6480373  24.1640582  86.0976009
  60.1188967  29.9825615  86.1511784  60.6320849  30.6155606  86.6533494
  60.7690191  29.3826810  85.7855144  51.3878977  26.1256349  79.3643293
  50.5516290  26.4631035  79.6852568  51.2483747  25.9905328  78.4270430
  53.3632058  20.9693137  84.0722477  52.7096470  20.6542154  83.4479092
  53.3212532  20.3468877  84.7982300  54.4743263  31.2512432  75.9875769
  53.5670325  31.0201685  76.1866918  54.9714295  30.4550051  76.1749751
  57.3811342  39.9609939  78.9072455  56.7073040  40.2641636  79.5157413
  57.7677164  40.7639019  78.5577912  56.5969798  27.4575070  88.3970125
  55.6792360  27.6790017  88.2391813  57.0129942  27.5321381  87.5381832
  57.3804846  28.8566486  83.5272805  58.1276665  29.3687883  83.2179927
  57.6496436  28.5350538  84.3877198  55.6531496  31.3525026  80.5099759
  54.7442716  31.0684059  80.6072229  55.6826580  31.7724105  79.6503066
  60.8850764  34.9631616  84.2790927  60.4313091  34.1222526  84.3356117
  60.2544730  35.5993014  84.6165707  59.8283683  25.8923602  85.5091594
  59.0906440  25.3800988  85.8401837  60.0810457  25.4523984  84.6974871
  59.3283703  36.8008113  85.2140745  59.6206677  37.3613170  84.4953111
  59.8382323  37.0936674  85.9693904  59.9295311  18.6699854  86.1033363
  60.2354187  17.8097217  85.8159279  60.6547915  19.2617474  85.9032357
  46.2219667  29.0730541  84.4914961  46.0244066  28.4799901  83.7666028
  45.6666331  28.7682751  85.2090900  54.2016390  28.9653647  86.6109555
  54.2565000  28.0127483  86.5352031  53.3907592  29.1213086  87.0950853
  55.3507584  32.8933770  77.8487838  54.9127014  32.1769629  77.3893475
  56.0918025  33.1209885  77.2872929  52.1408750  27.5830707  84.3699933
  51.3276616  27.8824877  84.7765126  52.6367744  27.1886396  85.0874416
  54.2917328  37.5788464  86.3034198  54.2493507  37.8049310  85.3742730
  55.2080027  37.3451838  86.4519999  57.7382962  28.0472531  93.2014827
  58.0932350  28.2744004  94.0609293  58.3855093  28.3790908  92.5792083
  63.4680699  31.1690967  83.9064156  63.3298597  31.3592563  82.9785346
  63.1116918  31.9310350  84.3632207  51.6322825  25.1549062  89.9861168
  52.2722204  25.0137821  89.2884132  50.8000356  24.8683576  89.6099770
  63.4950078  33.2367494  88.9175428  63.9286585  33.1442783  89.7658482
  64.2081659  33.2124995  88.2795444  52.4083129  34.4551493  86.0996161
  53.2023727  33.9601813  85.8978736  51.6974821  33.9269356  85.7363866
  57.2277973  36.8369588  90.4508528  57.2814996  37.4060525  91.2186244
  56.3592755  37.0071473  90.0862566  48.7165892  28.5994575  82.1755914
  47.7863480  28.5379030  82.3925876  48.8123364  28.0770527  81.3792555
  48.6351441  25.1249387  84.7634155  48.8958259  26.0394721  84.6543316
  49.4568614  24.6573830  84.9130768  50.1076367  26.5387145  91.9332980
  50.7799420  26.3304507  91.2845629  49.2806153  26.3409231  91.4938212
  64.3565628  33.2791195  91.4508313  64.5501518  34.1837005  91.6967588
  64.2566246  32.8198614  92.2846898  56.0101939  23.1649085  93.9498641
  55.3629854  23.8639035  93.8563117  56.7802954  23.5985229  94.3174889
  59.4180737  33.4297938  97.0249194  59.2666243  33.2008489  96.1079278
  59.4085416  34.3868539  97.0380539  56.1866073  31.0029850  92.0095460
  57.1158133  31.1541010  91.8364428  55.7657103  31.0913871  91.1544107
  54.9854405  35.0280515  89.7793998  54.8465491  34.6599299  90.6519936
  54.1969001  35.5428154  89.6077956  55.5802557  40.1289611  81.1219534
  55.7554313  39.6577654  81.9365157  54.8935345  40.7555377  81.3500795
  56.5359620  34.4062117  87.1682836  56.2009453  34.3662887  88.0640486
  56.0363566  33.7406833  86.6953246  50.5103864  29.8129747  92.6935417
  50.3723662  29.0809986  93.2946956  51.4208787  29.7238648  92.4119605
  59.4718812  31.7518152  77.4419895  58.8547982  31.0264980  77.3452948
  59.0035300  32.5127512  77.0986970  53.1386165  29.5249707  92.1819097
  53.8485783  28.8842899  92.1405715  53.0955473  29.7762602  93.1045277
  61.1272943  36.4617060  95.1025676  61.0685489  35.7776280  94.4356259
  61.5292462  37.2036050  94.6506302  51.8515099  26.5114925  94.0014736
  51.3152456  26.0605663  94.6536332  51.2631807  26.6460834  93.2585200
  50.1463642  43.2778974  87.8959395  50.3860240  43.9097498  88.5738413
  49.3032839  42.9267014  88.1824754  51.2617358  25.9703576  76.5641200
  50.3846824  25.8492377  76.2003446  51.7375111  25.1789654  76.3120088
  61.1290351  34.4256644  93.3339655  60.2417129  34.0882566  93.4566054
  61.6988902  33.6939675  93.5708421  42.7819498  30.7580736  86.6582707
  43.4690538  30.4442466  86.0703722  42.6267626  31.6622100  86.3849958
  47.5854220  25.6470932  91.0867730  47.5012409  25.0396602  90.3518140
  46.7636926  26.1379951  91.0877227  54.6591504  39.0858096  90.3000899
  54.5861675  39.8913068  90.8120203  54.2168897  39.2850062  89.4748920
  54.4481284  38.3229866  83.8103720  53.6648806  38.8651547  83.9041945
  55.1474029  38.8403846  84.2097961  57.7577934  24.1324496  86.4537926
  58.2546633  23.3794458  86.1338996  56.9864915  24.1688813  85.8881135
  65.6107691  29.8364861  88.0956217  65.5997567  30.7189577  87.7250150
  64.7425071  29.4836412  87.9010754  57.1190188  38.9844930  92.4559057
  57.8318160  39.6192395  92.3834959  56.6280216  39.0808796  91.6399059
  58.8407714  32.8896183  84.0276349  57.9063993  33.0097646  83.8581053
  59.0184383  31.9868650  83.7636359  54.3412902  26.2741879  86.1809610
  53.9710690  25.7212919  86.8690516  54.8371995  25.6700012  85.6284610
  62.2280266  28.7313502  84.5626383  62.6940718  29.5641494  84.4886686
  62.6787766  28.2658484  85.2671642  52.1702101  36.7339374  93.2764628
  52.8711561  37.3675857  93.4294022  51.6997216  37.0754105  92.5160267
  60.2956497  35.0757324  81.5612535  60.5716341  34.9613918  82.4706409
  59.4260996  34.6774809  81.5224708  60.1996929  21.0994089  88.6017284
  59.2860008  21.3298316  88.7699491  60.6290030  21.1832533  89.4531317
  59.9703387  29.2883981  91.1017178  59.3174837  29.5359889  90.4469631
  60.3483767  28.4748120  90.7679656  56.9310561  39.3243675  85.2045349
  57.1132955  38.5065330  85.6673101  57.7543547  39.5411367  84.7670239
  57.2652726  38.2511860  82.4660397  57.7940493  37.7404314  81.8530559
  57.5280946  37.9354390  83.3305930  56.0190960  30.0303792  97.5883216
  55.3431597  29.9297922  98.2585591  56.8418594  29.8743006  98.0519213
  47.7669819  36.2675729  90.2095731  48.3523256  35.5219417  90.3423635
  47.5694658  36.5779686  91.0932395  50.6208474  39.3026976  85.2258173
  49.9518850  39.7873104  84.7422213  50.4821344  39.5496197  86.1401552
  42.3587474  28.8381329  88.9300174  42.3971573  28.3044920  89.7237292
  41.8527767  28.3116535  88.3111151  54.7613743  41.3370720  91.8240832
  55.3132051  41.5002341  92.5889917  55.1019936  41.9275158  91.1520856
  49.7378236  23.6845870  92.4262716  49.8019563  24.5460701  92.0140114
  49.6745356  23.0719871  91.6935075  49.2130509  25.7569002  96.0735750
  49.8402547  25.3746080  96.6873275  48.3558428  25.5383204  96.4391443
  59.6124617  36.1631977  97.6789486  60.1564521  36.7761936  97.1844441
  59.0311462  36.7211556  98.1956499  45.9896051  27.5645431  82.0054105
  46.2849493  26.6556110  81.9521159  45.0884087  27.5433171  81.6835108
  57.8982130  39.2852695  88.8104514  57.7733270  38.4842435  88.3015459
  58.5561221  39.7798889  88.3218484  49.5190298  25.6401428  87.9881654
  48.7976884  26.2537396  87.8489127  50.3083554  26.1759193  87.9098300
  59.9617039  37.0861716  90.4384064  59.0147374  36.9667067  90.3662390
  60.3099812  36.1984214  90.5210325  52.3216612  22.9755854  94.2622306
  52.8451014  23.2218151  95.0248615  52.1028945  23.8075889  93.8425443
  47.7183893  25.2459529  82.1293430  47.3896599  24.3656908  81.9468536
  48.0723264  25.1907198  83.0169820  56.9663472  36.8814432  86.6388416
  56.8188434  35.9531139  86.8195986  57.7916965  36.9034522  86.1545491
  50.8325716  25.5332499  82.4968908  51.1721789  26.0618420  81.7747517
  51.2797837  25.8712905  83.2727475  60.5697594  37.7042990  87.7253289
  61.4944141  37.4985852  87.5877740  60.4012897  37.4559392  88.6342630
  53.5269157  23.9169550  91.9471976  53.1865977  23.1177363  92.3492656
  52.8208163  24.2171260  91.3748809  54.1785629  21.0018862  90.3999299
  55.0011698  20.5279340  90.2778190  54.4223692  21.7809346  90.8997986
  52.8193863  24.0307120  80.6962201  53.5402226  24.4088373  80.1925918
  52.1959167  24.7495997  80.7997179  56.9624986  24.7352269  81.6320533
  57.1788601  25.6176907  81.3309361  56.4819053  24.3438483  80.9026175
  51.7024208  27.6937983  88.2091278  51.5568788  28.0078286  89.1015559
  51.2249411  28.3122883  87.6562176  53.5620590  24.6840531  88.2572167
  53.5482159  23.7881624  87.9204465  54.2793019  24.6911194  88.8910453
  55.4146721  25.1177871  90.3025295  55.1564499  26.0394941  90.3009625
  54.8831762  24.7208305  90.9925759  60.3592910  38.2228658  83.0815380
  60.5329787  37.6575080  82.3289233  60.8521801  39.0229553  82.8994870
  46.1769870  30.2343327  91.1478939  45.6323338  31.0103135  91.2799213
  47.0549220  30.5814131  90.9898060  52.9657486  23.5654911  83.5259738
  53.0873398  22.6371557  83.7250625  52.6759529  23.5793597  82.6138053
  55.8348677  21.2509821  86.6626457  55.8570374  21.3149154  85.7078437
  56.2516736  20.4114330  86.8566964  66.2132301  30.9865081  84.7005680
  66.6563447  30.2372406  84.3024803  65.3358811  30.9775217  84.3179412
  61.3468082  37.5395422  80.1812278  62.0418987  38.1602115  80.3999593
  61.6891233  36.6890774  80.4564656  46.9635892  29.3613223  94.0409096
  46.2217628  29.5095859  94.6273726  46.6428636  29.6221489  93.1775845
  63.2459506  34.9895128  81.7099609  63.7710830  35.3282401  80.9848929
  63.1581858  34.0542143  81.5262744  54.9079554  38.9029201  93.8389486
  55.2166681  38.6578348  94.7112185  55.7055036  39.1075840  93.3508356
  54.9300166  41.0567111  86.0694862  54.4905157  40.5643490  86.7627719
  55.6808283  40.5140079  85.8286938  47.4092505  37.2478652  86.0719491
  48.2350525  36.9482424  85.6918134  47.0586557  36.4786274  86.5209279
  52.3774038  36.6005120  88.1417164  51.7554048  35.9375825  87.8419392
  53.0478905  36.6266252  87.4590812  45.6101110  35.1664978  87.0308424
  44.7733019  34.7387153  86.8492425  45.5824756  35.3597422  87.9679215
  52.4498566  25.0786908  97.7349670  52.4986721  25.9549031  97.3527440
  52.9921080  24.5364301  97.1621313  62.9353412  35.6228031  97.0150807
  62.1448955  35.6052170  96.4755307  62.6986766  36.1616325  97.7699844
  63.0551287  32.4720498  94.3283536  63.1049292  32.3070505  95.2699059
  62.9465210  31.6047757  93.9381417  51.9387545  35.1509044  81.6175625
  52.0875666  35.8344508  80.9642297  52.7453989  35.1314134  82.1325080
  60.3455049  28.4551426  95.6442842  61.2464912  28.3157891  95.3526840
  60.4203024  28.6205881  96.5841020  54.6797854  25.8318281  94.4896029
  53.8101164  26.1251847  94.2178617  54.9157335  26.4158726  95.2103292
  64.5569483  34.8917439  94.5725557  64.2654292  35.2547420  95.4089018
  63.9441615  34.1784448  94.3938889  65.7565166  32.4570319  87.0928128
  66.5912057  32.8960123  87.2565688  65.8924295  31.9808972  86.2736373
  62.8056672  30.0150054  93.0405615  63.2810793  30.2077700  92.2324467
  61.8822237  30.0709240  92.7948999  49.6940178  31.1774221  82.6236694
  49.4486220  30.2736551  82.8216904  49.8636093  31.1791372  81.6816172
  57.3836888  22.0497898  92.0061449  57.9018832  22.7858924  91.6807938
  57.0292021  22.3561891  92.8408208  48.9635826  26.9102579  80.1222855
  48.2705071  26.9846934  79.4662891  48.7187578  26.1462922  80.6444372
  57.6349482  18.4698180  87.5262346  57.9151236  17.8021369  88.1522772
  58.4200089  18.6627276  87.0137010  55.4382951  37.6457174  79.0887372
  54.8656918  38.2647361  78.6357844  56.0115745  38.1956536  79.6227294
  61.5058341  26.8915814  91.2733921  62.4575764  26.9913912  91.2946145
  61.3361791  26.0994083  91.7832005  59.5272720  23.9771397  91.4593322
  58.9322652  24.2576410  90.7639810  59.2422417  24.4665298  92.2310063
  58.6580211  37.9294324  80.2195954  59.5910884  37.8639886  80.4228830
  58.5703423  38.7650591  79.7610487  61.2868227  37.2460194  77.1799902
  61.2081859  36.9120058  78.0735660  62.1077894  37.7381962  77.1791374
  63.9846419  30.1121934  90.3876221  63.9522739  29.1737935  90.5735904
  64.5947042  30.1905970  89.6542045  55.8229749  28.9817987  76.4303425
  56.7688854  28.8524195  76.4991843  55.4443994  28.2432649  76.9072853
  64.1340907  26.9032977  90.4334504  63.6179956  26.1191434  90.2464433
  65.0180856  26.5751694  90.5981023  61.7951634  20.6473993  86.3930316
  61.5976455  20.3389081  87.2773648  62.4051339  21.3735632  86.5228246
  69.8022968  31.1737941  89.5282257  70.5326357  30.9123229  90.0889961
  69.1929914  30.4366663  89.5684325  67.8838265  29.3145803  90.1256709
  67.1571429  29.1801768  89.5173200  67.4685552  29.6222632  90.9313427
  55.7068442  33.0335733  97.8904082  56.6271451  33.2114332  98.0844128
  55.6718025  32.0891778  97.7383781  54.0072667  26.9067963  76.3658310
  53.1004122  26.6101076  76.4421023  54.2848648  26.6097781  75.4992596
  44.9250607  28.2274327  86.8157356  44.6053391  27.3739635  86.5231730
  44.3784035  28.4422905  87.5715324  48.7030514  30.9436768  90.5326863
  48.9216524  31.8753875  90.5514897  49.1156288  30.5844742  91.3181667
  55.6234732  21.4504853  82.5202551  54.8135461  21.1051938  82.8957797
  56.3119149  21.1412397  83.1090163  57.5525281  20.5282900  84.1426848
  58.1056319  20.9478353  84.8016871  57.7895367  19.6018648  84.1849804
  53.5758380  26.5169973  99.9229612  53.4755107  27.4664330  99.8541703
  53.3579922  26.1888212  99.0505682  52.7771451  23.7654898  76.5070289
  53.6390615  24.0909797  76.7666106  52.9621795  22.9786394  75.9943355
  44.7938867  31.8477238  88.7850478  44.1002338  31.4331191  88.2720432
  45.5411858  31.8897775  88.1883897  60.9304088  22.6383425  83.6505512
  60.3502757  23.2968229  83.2683564  60.6640020  21.8160769  83.2392929
  59.3807654  22.0388483  85.8526832  59.8807432  22.1505017  85.0441151
  60.0243262  21.7349535  86.4927641  53.4389650  29.9467112  98.7394673
  52.9556732  30.7467472  98.9458562  53.5250589  29.9575057  97.7862117
  46.7075609  31.7795492  86.6616493  46.6846298  31.8783179  85.7098376
  47.0176246  32.6260643  86.9833659  49.3662987  33.8371647  90.7763107
  50.3206241  33.8055589  90.7093039  49.1675511  33.3762271  91.5913333
  49.9562369  32.4072763  93.3433905  50.7755258  32.9016842  93.3668742
  50.2299177  31.4904731  93.3151472  59.7128966  24.7983515  82.7061860
  58.8254821  25.0833166  82.4882055  60.1282955  24.6377279  81.8589137
  63.0643502  24.8230036  86.4216199  63.8403892  25.3126489  86.6940816
  62.3391636  25.2488090  86.8788069  65.5016060  25.5357655  87.4790140
  66.0960551  25.2953391  86.7683448  65.5742644  24.8164786  88.1063676
  47.7213216  39.3791266  87.7933305  47.5867684  38.6191667  87.2271303
  47.3045278  40.1032166  87.3262094  58.8572179  34.5628190  76.8009880
  59.5608029  34.7678192  77.4167536  58.1334828  35.1304952  77.0658964
  59.6869989  30.3138051  82.9212150  59.6305191  30.7706603  82.0819783
  60.2398332  29.5528736  82.7434993  63.4974795  26.1027783  83.7462270
  63.2411730  25.7024419  84.5770478  62.8727663  26.8171577  83.6212409
  67.8087133  28.8423856  86.2533561  67.2486691  28.9117046  87.0265123
  67.2030637  28.6664841  85.5333058  50.8782342  40.2760583  88.0051748
  50.7614726  41.2206016  87.9030438  50.0574788  39.9734145  88.3937547
  60.7658877  35.0010719  78.8508340  61.6004480  34.5691918  78.6685815
  60.6043219  34.8292733  79.7785235  60.4204769  31.5042832  80.2164680
  60.3653572  31.3387104  79.2753124  59.7950824  32.2118865  80.3726869
  45.2097284  26.7410897  94.0426102  45.8556147  26.2309851  94.5313327
  45.0014435  27.4779578  94.6169527  57.7350676  33.8091744  99.5418242
  58.6041836  33.9832397  99.1804877  57.2557427  34.6286161  99.4193972
  53.7300894  21.0050941  79.7949998  53.7179564  21.9492781  79.9518269
  54.6224316  20.8221087  79.5009459  51.9036856  40.9288845  91.2207676
  52.8064103  40.9612456  91.5374171  51.6774226  39.9989296  91.2354012
  53.6590458  39.6819832  87.8817755  52.7086089  39.6821693  87.7682127
  53.9622944  38.9352566  87.3653789  57.5453014  17.5993718  84.0495935
  56.7785409  17.0452205  84.1952617  57.9563719  17.6715587  84.9110086
  49.5494775  23.8878514  98.1401116  50.4126236  23.5315319  98.3504441
  48.9760185  23.5492409  98.8276520  69.3943152  45.5180370  88.9463517
  70.0321562  45.3987118  88.2426857  69.2763994  46.4661214  89.0051469
  66.2032858  45.4707798  88.8825042  65.8651369  45.3548863  87.9945577
  67.0722626  45.0698963  88.8626048  62.0619674  47.3243275  84.8721933
  61.4984539  47.2333212  84.1038220  61.9472069  46.5043179  85.3524425
  66.6852641  46.6242650  94.8411247  66.6741282  46.2295448  93.9691751
  66.8473280  45.8908723  95.4345019  59.6084106  48.8194466  87.7106153
  60.4005397  48.4785291  87.2952452  59.8480756  48.9289441  88.6308306
  67.6419232  50.9914242  80.1836398  66.9907212  51.5768323  79.7970411
  68.4363595  51.5220437  80.2431435  61.5674859  48.0803380  80.5823532
  62.3405735  47.5332367  80.4436408  61.9200258  48.9447629  80.7937993
  63.4059902  49.4079762  93.7890431  63.1149768  50.3125393  93.6737098
  64.0416886  49.4496289  94.5034501  64.3316109  46.7856610  90.3791791
  64.9279681  46.5612633  89.6648754  64.3891080  46.0441356  90.9817239
  63.9041137  44.2396046  78.2141982  64.1566658  43.7177567  77.4525445
  62.9665696  44.0762191  78.3168665  68.9484420  43.2431824  86.0216725
  69.7347509  42.8251247  85.6707142  69.2123124  44.1477916  86.1898373
  69.1194497  48.6804674  80.7205382  68.4840330  48.7539301  81.4326287
  68.7891904  49.2698273  80.0424461  74.3492847  43.1807057  86.9249704
  75.0818019  42.6106274  87.1587533  73.5932203  42.7928658  87.3656209
  63.6237426  46.1424152  80.4166357  63.5073684  45.4669055  81.0847441
  63.7339686  45.6556526  79.5998510  65.9668967  45.6034299  84.1213046
  65.6027174  45.0764920  84.8325968  66.8236083  45.2132768  83.9479531
  71.8718268  36.8928631  91.3844312  71.5401592  37.7624042  91.1605527
  71.2763881  36.5764915  92.0638343  65.6074454  40.6324198  79.1174395
  65.7748856  41.5004435  79.4844866  65.4171623  40.7951480  78.1935684
  68.3649787  49.0941177  90.7840225  68.0650510  49.9966216  90.6756032
  68.0200847  48.8273361  91.6361378  61.8162269  45.5454974  86.8176929
  60.8912765  45.4131188  87.0254621  62.0646682  46.3249193  87.3146872
  71.7646931  41.6123718  88.4637662  70.8563808  41.5439126  88.1696423
  71.7134527  42.0895662  89.2919488  65.5863675  43.0881856  80.1021061
  65.4663300  43.5338907  80.9406542  64.8916263  43.4367174  79.5434600
  59.1771080  45.1888248  87.6520718  59.3063461  45.4422727  88.5660130
  58.4968531  45.7815956  87.3325373  63.3470567  55.8585498  83.7511193
  63.2694597  56.8093323  83.8299673  62.7432210  55.5131370  84.4086119
  65.8387797  43.0313363  96.4072560  65.0621131  43.5907283  96.3975424
  66.4778360  43.5170146  96.9287430  73.6308577  39.8140156  90.2415536
  72.9882958  40.1072689  89.5955331  73.1263506  39.6993076  91.0468733
  71.2848741  43.5603329  80.9301395  72.1966597  43.7930716  80.7549093
  70.7758388  44.1440373  80.3676474  64.0934169  45.8398816  95.9690527
  64.8348853  46.3783860  95.6925350  63.3871154  46.4665105  96.1262078
  69.5689509  47.9827957  94.5662688  69.9772865  47.5410367  93.8217320
  68.8466770  47.4080584  94.8196881  65.9220579  42.9200564  91.9396245
  66.7681774  43.3439977  92.0830894  65.8619216  42.2634188  92.6334808
  69.8918323  48.5429148  88.3214977  69.2627186  48.7074862  87.6191045
  69.5043985  48.9570757  89.0925941  73.7707555  49.4783585  85.6759341
  73.0858593  49.8582487  85.1256374  73.8551404  50.0878912  86.4091288
  69.0720024  40.5804932  93.5977419  68.8280956  41.3346993  93.0611694
  69.3479955  40.9590280  94.4324666  71.0258487  47.1243544  92.2754684
  71.2375382  47.7675304  91.5989065  70.9788235  46.2905861  91.8076614
  68.6284716  39.7361365  89.1791256  67.7669195  40.0342619  89.4707994
  68.6547150  39.9531764  88.2472289  65.4446285  48.2803556  85.5865062
  65.9084631  48.5591259  84.7969684  65.1803083  47.3787000  85.4038153
  62.3370366  47.8275037  88.5244825  62.9071723  48.2562306  87.8862310
  62.9278478  47.5457622  89.2229011  64.3815171  44.4026708  82.3954627
  65.0839215  44.8547752  82.8628553  64.0495800  43.7610527  83.0234520
  62.8295533  42.9938465  96.7705837  62.1994193  43.6754745  97.0041233
  62.7231621  42.8821546  95.8258975  58.1240505  42.6610261  87.6971761
  57.3339559  42.9167789  87.2211871  58.6151753  43.4758599  87.8023801
  72.1404315  50.0015500  90.4477042  72.9621758  49.5995687  90.1659723
  72.1366718  49.8983734  91.3993157  60.0755251  43.0254840  84.6555237
  59.2786414  43.1373534  85.1738733  59.8480843  43.3641492  83.7896128
  65.9060918  49.5499543  92.6037752  65.9705351  50.0119950  93.4395924
  65.1971842  48.9196908  92.7320062  56.4078208  42.9140751  90.1286751
  56.6586247  43.7987761  90.3944327  56.9437757  42.7345353  89.3561843
  80.2310308  46.3454248  86.7962013  79.4774016  45.7761646  86.6406017
  80.3657849  46.3116913  87.7432648  65.6208936  51.2167651  82.4716732
  65.4854611  52.0619186  82.9001580  66.1618748  51.4186928  81.7082666
  62.1076275  37.2959230  99.1331088  61.7143221  36.7425429  99.8078732
  62.9242416  37.6069809  99.5237605  59.0738333  48.7343089  83.0444657
  59.5862854  49.5286339  83.1950222  59.7261046  48.0369379  82.9778259
  60.8833218  51.8508845  85.1267411  61.0599846  52.7726810  84.9388395
  61.6790051  51.5367264  85.5561790  65.0244236  38.7117110  96.7251344
  65.7653950  39.3124263  96.6455807  65.2562159  37.9694747  96.1669387
  60.1685574  43.8973477  95.0029574  60.0539090  42.9958734  95.3036673
  59.3130092  44.1437174  94.6514390  67.2477412  51.8391217  96.6017074
  66.8041266  51.0527596  96.2837979  67.9094626  52.0270368  95.9360965
  62.0064533  53.3687019  91.1277753  62.5571958  53.2404082  90.3554747
  61.1676009  53.6681908  90.7772646  69.3458650  52.1194017  94.6298476
  69.3277126  52.9402898  94.1378745  70.2678570  51.9948092  94.8548617
  65.8031704  49.6338147  95.4721984  66.3360041  48.8726435  95.2421292
  65.2745786  49.3411798  96.2146139  68.9701399  34.7398213  91.0015626
  68.6265669  35.6299854  90.9254736  69.3380362  34.5499870  90.1385211
  57.0387250  47.0631743  83.8204228  57.8762472  47.4728751  83.6037936
  57.2165518  46.1231185  83.7904422  68.9351682  44.7306824  79.5088061
  68.4198306  45.5011428  79.7476448  68.6628991  44.0571960  80.1321122
  66.5198793  39.5756524  84.5673299  65.6640389  39.1863375  84.3878938
  66.9325745  39.6548485  83.7073085  68.0497940  37.1102868  88.9664859
  67.5462735  37.0733003  88.1532664  68.3428547  38.0195610  89.0261516
  64.2940826  37.1941597  87.9731041  65.1593822  36.9984406  87.6136930
  64.3618335  36.9651949  88.9000398  73.9085956  47.4839178  81.4441234
  73.1315399  47.1450338  80.9996396  74.5877437  47.4891801  80.7696199
  68.7237985  42.6033916  81.3347842  68.4188121  42.9180065  82.1857985
  69.6768427  42.6815336  81.3775175  67.1684417  48.7624139  82.9840796
  66.6405779  48.0276899  82.6714034  66.6671920  49.5398815  82.7380764
  72.1477263  46.9573160  88.1007842  71.4900938  47.6472421  88.1887971
  72.9517662  47.3469591  88.4441829  61.9003145  39.4243805  85.3447408
  62.4746897  39.2018987  84.6120601  62.4874127  39.4932500  86.0976009
  70.9582722  45.3117532  86.1511784  71.4714604  45.9447524  86.6533494
  71.6083946  44.7118728  85.7855144  62.2272732  41.4548266  79.3643293
  61.3910044  41.7922953  79.6852568  62.0877501  41.3197246  78.4270430
  64.2025812  36.2985054  84.0722477  63.5490225  35.9834071  83.4479092
  64.1606287  35.6760795  84.7982300  65.3137017  46.5804349  75.9875769
  64.4064079  46.3493603  76.1866918  65.8108049  45.7841969  76.1749751
  68.2205096  55.2901856  78.9072455  67.5466795  55.5933553  79.5157413
  68.6070918  56.0930937  78.5577912  67.4363553  42.7866988  88.3970125
  66.5186114  43.0081935  88.2391813  67.8523696  42.8613298  87.5381832
  68.2198601  44.1858403  83.5272805  68.9670420  44.6979801  83.2179927
  68.4890190  43.8642456  84.3877198  66.4925251  46.6816944  80.5099759
  65.5836470  46.3975977  80.6072229  66.5220335  47.1016023  79.6503066
  71.7244518  50.2923534  84.2790927  71.2706845  49.4514444  84.3356117
  71.0938485  50.9284932  84.6165707  70.6677438  41.2215520  85.5091594
  69.9300195  40.7092906  85.8401837  70.9204211  40.7815901  84.6974871
  70.1677457  52.1300030  85.2140745  70.4600432  52.6905087  84.4953111
  70.6776078  52.4228591  85.9693904  70.7689065  33.9991772  86.1033363
  71.0747942  33.1389135  85.8159279  71.4941670  34.5909392  85.9032357
  57.0613421  44.4022458  84.4914961  56.8637821  43.8091819  83.7666028
  56.5060085  44.0974668  85.2090900  65.0410145  44.2945565  86.6109555
  65.0958755  43.3419401  86.5352031  64.2301347  44.4505004  87.0950853
  66.1901339  48.2225688  77.8487838  65.7520768  47.5061547  77.3893475
  66.9311779  48.4501803  77.2872929  62.9802505  42.9122625  84.3699933
  62.1670370  43.2116795  84.7765126  63.4761499  42.5178313  85.0874416
  65.1311083  52.9080381  86.3034198  65.0887261  53.1341228  85.3742730
  66.0473781  52.6743756  86.4519999  68.5776716  43.3764449  93.2014827
  68.9326104  43.6035922  94.0609293  69.2248848  43.7082826  92.5792083
  74.3074453  46.4982885  83.9064156  74.1692352  46.6884481  82.9785346
  73.9510672  47.2602268  84.3632207  62.4716579  40.4840980  89.9861168
  63.1115959  40.3429739  89.2884132  61.6394110  40.1975493  89.6099770
  74.3343833  48.5659412  88.9175428  74.7680340  48.4734701  89.7658482
  75.0475414  48.5416912  88.2795444  63.2476883  49.7843410  86.0996161
  64.0417482  49.2893731  85.8978736  62.5368576  49.2561274  85.7363866
  68.0671728  52.1661506  90.4508528  68.1208750  52.7352442  91.2186244
  67.1986509  52.3363391  90.0862566  59.5559647  43.9286492  82.1755914
  58.6257235  43.8670948  82.3925876  59.6517119  43.4062445  81.3792555
  59.4745196  40.4541305  84.7634155  59.7352013  41.3686638  84.6543316
  60.2962368  39.9865748  84.9130768  60.9470121  41.8679062  91.9332980
  61.6193175  41.6596424  91.2845629  60.1199908  41.6701148  91.4938212
  75.1959382  48.6083113  91.4508313  75.3895273  49.5128923  91.6967588
  75.0960001  48.1490532  92.2846898  66.8495693  38.4941003  93.9498641
  66.2023608  39.1930953  93.8563117  67.6196709  38.9277147  94.3174889
  70.2574491  48.7589855  97.0249194  70.1059998  48.5300407  96.1079278
  70.2479171  49.7160457  97.0380539  67.0259828  46.3321768  92.0095460
  67.9551888  46.4832928  91.8364428  66.6050858  46.4205789  91.1544107
  65.8248159  50.3572432  89.7793998  65.6859245  49.9891217  90.6519936
  65.0362756  50.8720072  89.6077956  66.4196311  55.4581529  81.1219534
  66.5948067  54.9869572  81.9365157  65.7329099  56.0847295  81.3500795
  67.3753375  49.7354035  87.1682836  67.0403207  49.6954805  88.0640486
  66.8757320  49.0698751  86.6953246  61.3497618  45.1421665  92.6935417
  61.2117416  44.4101904  93.2946956  62.2602542  45.0530565  92.4119605
  70.3112566  47.0810069  77.4419895  69.6941737  46.3556898  77.3452948
  69.8429055  47.8419430  77.0986970  63.9779919  44.8541624  92.1819097
  64.6879538  44.2134817  92.1405715  63.9349227  45.1054519  93.1045277
  71.9666698  51.7908978  95.1025676  71.9079244  51.1068198  94.4356259
  72.3686216  52.5327968  94.6506302  62.6908853  41.8406842  94.0014736
  62.1546210  41.3897581  94.6536332  62.1025562  41.9752751  93.2585200
  60.9857397  58.6070892  87.8959395  61.2253995  59.2389416  88.5738413
  60.1426593  58.2558932  88.1824754  62.1011112  41.2995494  76.5641200
  61.2240578  41.1784295  76.2003446  62.5768865  40.5081572  76.3120088
  71.9684105  49.7548562  93.3339655  71.0810884  49.4174484  93.4566054
  72.5382656  49.0231593  93.5708421  53.6213252  46.0872654  86.6582707
  54.3084292  45.7734384  86.0703722  53.4661381  46.9914018  86.3849958
  58.4247974  40.9762850  91.0867730  58.3406163  40.3688520  90.3518140
  57.6030681  41.4671868  91.0877227  65.4985258  54.4150014  90.3000899
  65.4255430  55.2204986  90.8120203  65.0562652  54.6141980  89.4748920
  65.2875038  53.6521784  83.8103720  64.5042560  54.1943464  83.9041945
  65.9867783  54.1695764  84.2097961  68.5971688  39.4616414  86.4537926
  69.0940388  38.7086376  86.1338996  67.8258670  39.4980730  85.8881135
  76.4501446  45.1656779  88.0956217  76.4391322  46.0481495  87.7250150
  75.5818825  44.8128330  87.9010754  67.9583942  54.3136848  92.4559057
  68.6711914  54.9484313  92.3834959  67.4673971  54.4100714  91.6399059
  69.6801469  48.2188101  84.0276349  68.7457748  48.3389563  83.8581053
  69.8578137  47.3160568  83.7636359  65.1806657  41.6033797  86.1809610
  64.8104444  41.0504837  86.8690516  65.6765749  40.9991930  85.6284610
  73.0674020  44.0605420  84.5626383  73.5334472  44.8933412  84.4886686
  73.5181521  43.5950402  85.2671642  63.0095856  52.0631292  93.2764628
  63.7105315  52.6967775  93.4294022  62.5390971  52.4046023  92.5160267
  71.1350251  50.4049241  81.5612535  71.4110095  50.2905836  82.4706409
  70.2654750  50.0066726  81.5224708  71.0390683  36.4286007  88.6017284
  70.1253763  36.6590234  88.7699491  71.4683784  36.5124451  89.4531317
  70.8097142  44.6175899  91.1017178  70.1568592  44.8651807  90.4469631
  71.1877521  43.8040037  90.7679656  67.7704315  54.6535592  85.2045349
  67.9526710  53.8357248  85.6673101  68.5937301  54.8703284  84.7670239
  68.1046481  53.5803777  82.4660397  68.6334247  53.0696232  81.8530559
  68.3674700  53.2646308  83.3305930  66.8584715  45.3595710  97.5883216
  66.1825352  45.2589839  98.2585591  67.6812348  45.2034924  98.0519213
  58.6063574  51.5967647  90.2095731  59.1917010  50.8511335  90.3423635
  58.4088412  51.9071603  91.0932395  61.4602229  54.6318894  85.2258173
  60.7912604  55.1165022  84.7422213  61.3215099  54.8788115  86.1401552
  53.1981228  44.1673247  88.9300174  53.2365328  43.6336838  89.7237292
  52.6921521  43.6408452  88.3111151  65.6007497  56.6662638  91.8240832
  66.1525805  56.8294259  92.5889917  65.9413691  57.2567075  91.1520856
  60.5771991  39.0137787  92.4262716  60.6413317  39.8752618  92.0140114
  60.5139111  38.4011789  91.6935075  60.0524263  41.0860920  96.0735750
  60.6796302  40.7037997  96.6873275  59.1952182  40.8675122  96.4391443
  70.4518372  51.4923895  97.6789486  70.9958276  52.1053853  97.1844441
  69.8705217  52.0503473  98.1956499  56.8289806  42.8937349  82.0054105
  57.1243247  41.9848027  81.9521159  55.9277842  42.8725088  81.6835108
  68.7375885  54.6144613  88.8104514  68.6127024  53.8134353  88.3015459
  69.3954976  55.1090806  88.3218484  60.3584053  40.9693346  87.9881654
  59.6370639  41.5829313  87.8489127  61.1477309  41.5051110  87.9098300
  70.8010793  52.4153633  90.4384064  69.8541129  52.2958984  90.3662390
  71.1493566  51.5276131  90.5210325  63.1610366  38.3047772  94.2622306
  63.6844768  38.5510069  95.0248615  62.9422700  39.1367807  93.8425443
  58.5577648  40.5751447  82.1293430  58.2290354  39.6948826  81.9468536
  58.9117018  40.5199115  83.0169820  67.8057226  52.2106349  86.6388416
  67.6582189  51.2823057  86.8195986  68.6310720  52.2326440  86.1545491
  61.6719471  40.8624416  82.4968908  62.0115543  41.3910338  81.7747517
  62.1191591  41.2004823  83.2727475  71.4091348  53.0334908  87.7253289
  72.3337896  52.8277769  87.5877740  71.2406652  52.7851309  88.6342630
  64.3662911  39.2461467  91.9471976  64.0259732  38.4469280  92.3492656
  63.6601918  39.5463178  91.3748809  65.0179383  36.3310780  90.3999299
  65.8405453  35.8571258  90.2778190  65.2617447  37.1101263  90.8997986
  63.6587618  39.3599038  80.6962201  64.3795980  39.7380291  80.1925918
  63.0352922  40.0787915  80.7997179  67.8018741  40.0644187  81.6320533
  68.0182355  40.9468825  81.3309361  67.3212808  39.6730400  80.9026175
  62.5417962  43.0229900  88.2091278  62.3962543  43.3370203  89.1015559
  62.0643166  43.6414801  87.6562176  64.4014345  40.0132448  88.2572167
  64.3875914  39.1173542  87.9204465  65.1186773  40.0203112  88.8910453
  66.2540476  40.4469788  90.3025295  65.9958253  41.3686859  90.3009625
  65.7225516  40.0500223  90.9925759  57.0163624  45.5635245  91.1478939
  56.4717092  46.3395053  91.2799213  57.8942974  45.9106049  90.9898060
  63.8051241  38.8946829  83.5259738  63.9267152  37.9663475  83.7250625
  63.5153283  38.9085515  82.6138053  66.6742431  36.5801739  86.6626457
  66.6964128  36.6441072  85.7078437  67.0910490  35.7406248  86.8566964
  77.0526056  46.3156999  84.7005680  77.4957202  45.5664324  84.3024803
  76.1752566  46.3067135  84.3179412  72.1861837  52.8687340  80.1812278
  72.8812742  53.4894033  80.3999593  72.5284987  52.0182691  80.4564656
  57.8029646  44.6905141  94.0409096  57.0611382  44.8387776  94.6273726
  57.4822390  44.9513407  93.1775845  74.0853260  50.3187046  81.7099609
  74.6104584  50.6574318  80.9848929  73.9975613  49.3834061  81.5262744
  65.7473309  54.2321119  93.8389486  66.0560435  53.9870266  94.7112185
  66.5448791  54.4367758  93.3508356  65.7693921  56.3859029  86.0694862
  65.3298911  55.8935407  86.7627719  66.5202038  55.8431996  85.8286938
  58.2486260  52.5770570  86.0719491  59.0744280  52.2774342  85.6918134
  57.8980312  51.8078192  86.5209279  63.2167793  51.9297038  88.1417164
  62.5947802  51.2667743  87.8419392  63.8872660  51.9558170  87.4590812
  56.4494865  50.4956896  87.0308424  55.6126773  50.0679070  86.8492425
  56.4218510  50.6889339  87.9679215  63.2892320  40.4078826  97.7349670
  63.3380476  41.2840949  97.3527440  63.8314835  39.8656219  97.1621313
  73.7747166  50.9519949  97.0150807  72.9842710  50.9344088  96.4755307
  73.5380521  51.4908243  97.7699844  73.8945041  47.8012416  94.3283536
  73.9443046  47.6362423  95.2699059  73.7858964  46.9339675  93.9381417
  62.7781300  50.4800961  81.6175625  62.9269420  51.1636426  80.9642297
  63.5847743  50.4606051  82.1325080  71.1848804  43.7843344  95.6442842
  72.0858666  43.6449808  95.3526840  71.2596778  43.9497798  96.5841020
  65.5191609  41.1610198  94.4896029  64.6494918  41.4543764  94.2178617
  65.7551089  41.7450643  95.2103292  75.3963238  50.2209357  94.5725557
  75.1048046  50.5839338  95.4089018  74.7835369  49.5076365  94.3938889
  76.5958920  47.7862237  87.0928128  77.4305812  48.2252041  87.2565688
  76.7318049  47.3100890  86.2736373  73.6450426  45.3441972  93.0405615
  74.1204548  45.5369618  92.2324467  72.7215992  45.4001158  92.7948999
  60.5333933  46.5066139  82.6236694  60.2879975  45.6028469  82.8216904
  60.7029847  46.5083289  81.6816172  68.2230643  37.3789815  92.0061449
  68.7412587  38.1150842  91.6807938  67.8685775  37.6853809  92.8408208
  59.8029580  42.2394496  80.1222855  59.1098825  42.3138851  79.4662891
  59.5581332  41.4754840  80.6444372  68.4743237  33.7990098  87.5262346
  68.7544991  33.1313287  88.1522772  69.2593844  33.9919193  87.0137010
  66.2776705  52.9749092  79.0887372  65.7050672  53.5939279  78.6357844
  66.8509499  53.5248453  79.6227294  72.3452095  42.2207732  91.2733921
  73.2969518  42.3205829  91.2946145  72.1755546  41.4286000  91.7832005
  70.3666475  39.3063315  91.4593322  69.7716407  39.5868328  90.7639810
  70.0816171  39.7957216  92.2310063  69.4973965  53.2586242  80.2195954
  70.4304638  53.1931803  80.4228830  69.4097178  54.0942509  79.7610487
  72.1261982  52.5752112  77.1799902  72.0475613  52.2411976  78.0735660
  72.9471649  53.0673880  77.1791374  74.8240173  45.4413851  90.3876221
  74.7916493  44.5029852  90.5735904  75.4340797  45.5197888  89.6542045
  66.6623504  44.3109904  76.4303425  67.6082609  44.1816113  76.4991843
  66.2837749  43.5724566  76.9072853  74.9734661  42.2324895  90.4334504
  74.4573710  41.4483352  90.2464433  75.8574610  41.9043612  90.5981023
  72.6345388  35.9765910  86.3930316  72.4370210  35.6680999  87.2773648
  73.2445094  36.7027549  86.5228246  80.6416723  46.5029858  89.5282257
  81.3720111  46.2415146  90.0889961  80.0323668  45.7658580  89.5684325
  78.7232020  44.6437721  90.1256709  77.9965184  44.5093686  89.5173200
  78.3079307  44.9514549  90.9313427  66.5462196  48.3627651  97.8904082
  67.4665206  48.5406250  98.0844128  66.5111779  47.4183696  97.7383781
  64.8466421  42.2359881  76.3658310  63.9397876  41.9392994  76.4421023
  65.1242402  41.9389699  75.4992596  55.7644361  43.5566244  86.8157356
  55.4447146  42.7031552  86.5231730  55.2177790  43.7714822  87.5715324
  59.5424269  46.2728685  90.5326863  59.7610279  47.2045793  90.5514897
  59.9550043  45.9136660  91.3181667  66.4628487  36.7796771  82.5202551
  65.6529215  36.4343856  82.8957797  67.1512904  36.4704314  83.1090163
  68.3919035  35.8574817  84.1426848  68.9450074  36.2770271  84.8016871
  68.6289121  34.9310565  84.1849804  64.4152134  41.8461891  99.9229612
  64.3148861  42.7956248  99.8541703  64.1973676  41.5180130  99.0505682
  63.6165206  39.0946816  76.5070289  64.4784370  39.4201714  76.7666106
  63.8015550  38.3078312  75.9943355  55.6332621  47.1769156  88.7850478
  54.9396093  46.7623109  88.2720432  56.3805612  47.2189692  88.1883897
  71.7697842  37.9675342  83.6505512  71.1896511  38.6260147  83.2683564
  71.5033775  37.1452687  83.2392929  70.2201408  37.3680400  85.8526832
  70.7201187  37.4796935  85.0441151  70.8637016  37.0641453  86.4927641
  64.2783404  45.2759030  98.7394673  63.7950486  46.0759390  98.9458562
  64.3644343  45.2866975  97.7862117  57.5469364  47.1087409  86.6616493
  57.5240052  47.2075097  85.7098376  57.8570000  47.9552560  86.9833659
  60.2056742  49.1663565  90.7763107  61.1599995  49.1347507  90.7093039
  60.0069265  48.7054188  91.5913333  60.7956124  47.7364681  93.3433905
  61.6149013  48.2308759  93.3668742  61.0692932  46.8196649  93.3151472
  70.5522720  40.1275433  82.7061860  69.6648575  40.4125083  82.4882055
  70.9676709  39.9669196  81.8589137  73.9037256  40.1521954  86.4216199
  74.6797646  40.6418406  86.6940816  73.1785390  40.5780008  86.8788069
  76.3409815  40.8649573  87.4790140  76.9354306  40.6245309  86.7683448
  76.4136399  40.1456704  88.1063676  58.5606971  54.7083184  87.7933305
  58.4261439  53.9483585  87.2271303  58.1439033  55.4324084  87.3262094
  69.6965934  49.8920108  76.8009880  70.4001784  50.0970110  77.4167536
  68.9728582  50.4596869  77.0658964  70.5263744  45.6429969  82.9212150
  70.4698945  46.0998520  82.0819783  71.0792086  44.8820653  82.7434993
  74.3368550  41.4319701  83.7462270  74.0805484  41.0316336  84.5770478
  73.7121418  42.1463495  83.6212409  78.6480888  44.1715774  86.2533561
  78.0880446  44.2408963  87.0265123  78.0424391  43.9956759  85.5333058
  61.7176096  55.6052501  88.0051748  61.6008481  56.5497934  87.9030438
  60.8968543  55.3026063  88.3937547  71.6052631  50.3302637  78.8508340
  72.4398235  49.8983835  78.6685815  71.4436974  50.1584650  79.7785235
  71.2598523  46.8334750  80.2164680  71.2047327  46.6679021  79.2753124
  70.6344578  47.5410783  80.3726869  56.0491038  42.0702814  94.0426102
  56.6949902  41.5601768  94.5313327  55.8408189  42.8071496  94.6169527
  68.5744430  49.1383662  99.5418242  69.4435590  49.3124314  99.1804877
  68.0951182  49.9578079  99.4193972  64.5694649  36.3342859  79.7949998
  64.5573318  37.2784699  79.9518269  65.4618071  36.1513004  79.5009459
  62.7430611  56.2580763  91.2207676  63.6457857  56.2904373  91.5374171
  62.5167981  55.3281214  91.2354012  64.4984213  55.0111749  87.8817755
  63.5479844  55.0113611  87.7682127  64.8016699  54.2644484  87.3653789
  68.3846768  32.9285636  84.0495935  67.6179164  32.3744122  84.1952617
  68.7957473  33.0007504  84.9110086  60.3888529  39.2170432  98.1401116
  61.2519991  38.8607236  98.3504441  59.8153940  38.8784326  98.8276520
  80.2336906  60.8472288  88.9463517  80.8715316  60.7279035  88.2426857
  80.1157749  61.7953132  89.0051469  77.0426612  60.7999716  88.8825042
  76.7045124  60.6840781  87.9945577  77.9116381  60.3990881  88.8626048
  72.9013428  62.6535192  84.8721933  72.3378293  62.5625129  84.1038220
  72.7865823  61.8335097  85.3524425  77.5246395  61.9534568  94.8411247
  77.5135036  61.5587366  93.9691751  77.6867035  61.2200640  95.4345019
  70.4477860  64.1486384  87.7106153  71.2399152  63.8077209  87.2952452
  70.6874510  64.2581359  88.6308306  74.2453657  64.7371679  93.7890431
  73.9543522  65.6417310  93.6737098  74.8810641  64.7788207  94.5034501
  75.1709863  62.1148528  90.3791791  75.7673436  61.8904550  89.6648754
  75.2284835  61.3733273  90.9817239  79.7878175  58.5723742  86.0216725
  80.5741264  58.1543165  85.6707142  80.0516879  59.4769834  86.1898373
  79.9588252  64.0096592  80.7205382  79.3234085  64.0831219  81.4326287
  79.6285658  64.5990191  80.0424461  85.1886602  58.5098975  86.9249704
  85.9211774  57.9398192  87.1587533  84.4325957  58.1220575  87.3656209
  76.8062721  60.9326216  84.1213046  76.4420929  60.4056837  84.8325968
  77.6629837  60.5424685  83.9479531  82.7112022  52.2220549  91.3844312
  82.3795347  53.0915960  91.1605527  82.1157635  51.9056833  92.0638343
  76.4468208  55.9616116  79.1174395  76.6142611  56.8296353  79.4844866
  76.2565377  56.1243398  78.1935684  79.2043542  64.4233095  90.7840225
  78.9044265  65.3258134  90.6756032  78.8594601  64.1565278  91.6361378
  72.6556023  60.8746892  86.8176929  71.7306520  60.7423106  87.0254621
  72.9040436  61.6541111  87.3146872  82.6040685  56.9415635  88.4637662
  81.6957563  56.8731044  88.1696423  82.5528281  57.4187580  89.2919488
  70.0164834  60.5180165  87.6520718  70.1457215  60.7714644  88.5660130
  69.3362285  61.1107873  87.3325373  74.1864321  71.1877415  83.7511193
  74.1088351  72.1385240  83.8299673  73.5825965  70.8423288  84.4086119
  76.6781551  58.3605281  96.4072560  75.9014885  58.9199201  96.3975424
  77.3172114  58.8462064  96.9287430  84.4702332  55.1432074  90.2415536
  83.8276712  55.4364607  89.5955331  83.9657260  55.0284994  91.0468733
  82.1242495  58.8895247  80.9301395  83.0360352  59.1222634  80.7549093
  81.6152143  59.4732291  80.3676474  74.9327923  61.1690734  95.9690527
  75.6742608  61.7075778  95.6925350  74.2264909  61.7957023  96.1262078
  80.4083263  63.3119875  94.5662688  80.8166619  62.8702285  93.8217320
  79.6860525  62.7372502  94.8196881  76.7614333  58.2492481  91.9396245
  77.6075528  58.6731895  92.0830894  76.7012971  57.5926106  92.6334808
  80.7312078  63.8721065  88.3214977  80.1020940  64.0366779  87.6191045
  80.3437740  64.2862675  89.0925941  84.6101310  64.8075503  85.6759341
  83.9252348  65.1874404  85.1256374  84.6945159  65.4170830  86.4091288
  79.9113778  55.9096850  93.5977419  79.6674710  56.6638910  93.0611694
  80.1873709  56.2882197  94.4324666  81.8652241  62.4535462  92.2754684
  82.0769136  63.0967222  91.5989065  81.8181990  61.6197779  91.8076614
  79.4678470  55.0653283  89.1791256  78.6062949  55.3634536  89.4707994
  79.4940905  55.2823682  88.2472289  76.2840040  63.6095473  85.5865062
  76.7478385  63.8883176  84.7969684  76.0196838  62.7078918  85.4038153
  73.1764121  63.1566955  88.5244825  73.7465478  63.5854223  87.8862310
  73.7672233  62.8749540  89.2229011  75.2208926  59.7318626  82.3954627
  75.9232969  60.1839669  82.8628553  74.8889554  59.0902445  83.0234520
  73.6689287  58.3230382  96.7705837  73.0387948  59.0046663  97.0041233
  73.5625375  58.2113464  95.8258975  68.9634260  57.9902178  87.6971761
  68.1733314  58.2459707  87.2211871  69.4545507  58.8050516  87.8023801
  82.9798069  65.3307418  90.4477042  83.8015513  64.9287605  90.1659723
  82.9760472  65.2275652  91.3993157  76.7454673  64.8791461  92.6037752
  76.8099105  65.3411868  93.4395924  76.0365597  64.2488826  92.7320062
  67.2471963  58.2432669  90.1286751  67.4980001  59.1279679  90.3944327
  67.7831511  58.0637270  89.3561843  91.0704062  61.6746166  86.7962013
  90.3167771  61.1053564  86.6406017  91.2051603  61.6408831  87.7432648
  72.9470030  52.6251148  99.1331088  72.5536976  52.0717347  99.8078732
  73.7636170  52.9361727  99.5237605  71.7226972  67.1800763  85.1267411
  71.8993601  68.1018727  84.9388395  72.5183806  66.8659182  85.5561790
  75.8637991  54.0409027  96.7251344  76.6047704  54.6416180  96.6455807
  76.0955914  53.2986665  96.1669387  71.0079329  59.2265395  95.0029574
  70.8932844  58.3250652  95.3036673  70.1523847  59.4729091  94.6514390
  78.0871167  67.1683135  96.6017074  77.6435021  66.3819513  96.2837979
  78.7488380  67.3562285  95.9360965  72.8458288  68.6978936  91.1277753
  73.3965713  68.5696000  90.3554747  72.0069764  68.9973825  90.7772646
  80.1852405  67.4485935  94.6298476  80.1670880  68.2694816  94.1378745
  81.1072325  67.3240010  94.8548617  76.6425459  64.9630064  95.4721984
  77.1753796  64.2018352  95.2421292  76.1139540  64.6703716  96.2146139
  79.8095154  50.0690130  91.0015626  79.4659423  50.9591772  90.9254736
  80.1774116  49.8791788  90.1385211  67.8781004  62.3923661  83.8204228
  68.7156226  62.8020669  83.6037936  68.0559272  61.4523103  83.7904422
  79.7745437  60.0598741  79.5088061  79.2592060  60.8303346  79.7476448
  79.5022745  59.3863877  80.1321122  77.3592548  54.9048442  84.5673299
  76.5034144  54.5155292  84.3878938  77.7719499  54.9840403  83.7073085
  78.8891694  52.4394785  88.9664859  78.3856490  52.4024921  88.1532664
  79.1822301  53.3487528  89.0261516  75.1334580  52.5233515  87.9731041
  75.9987577  52.3276324  87.6136930  75.2012089  52.2943867  88.9000398
  84.7479711  62.8131096  81.4441234  83.9709153  62.4742255  80.9996396
  85.4271192  62.8183719  80.7696199  79.5631740  57.9325833  81.3347842
  79.2581875  58.2471983  82.1857985  80.5162182  58.0107253  81.3775175
  78.0078172  64.0916057  82.9840796  77.4799533  63.3568816  82.6714034
  77.5065674  64.8690733  82.7380764  82.9871018  62.2865077  88.1007842
  82.3294692  62.9764339  88.1887971  83.7911417  62.6761509  88.4441829
  81.7976476  60.6409450  86.1511784  82.3108358  61.2739442  86.6533494
  82.4477700  60.0410645  85.7855144  75.0419567  51.6276972  84.0722477
  74.3883979  51.3125989  83.4479092  75.0000041  51.0052712  84.7982300
  79.0598851  70.6193774  78.9072455  78.3860549  70.9225471  79.5157413
  79.4464673  71.4222855  78.5577912  78.2757307  58.1158905  88.3970125
  77.3579869  58.3373852  88.2391813  78.6917451  58.1905216  87.5381832
  79.0592355  59.5150321  83.5272805  79.8064174  60.0271718  83.2179927
  79.3283945  59.1934374  84.3877198  77.3319005  62.0108862  80.5099759
  76.4230224  61.7267895  80.6072229  77.3614089  62.4307940  79.6503066
  82.5638273  65.6215451  84.2790927  82.1100600  64.7806361  84.3356117
  81.9332239  66.2576850  84.6165707  81.5071192  56.5507437  85.5091594
  80.7693949  56.0384824  85.8401837  81.7597966  56.1107819  84.6974871
  81.0071212  67.4591948  85.2140745  81.2994186  68.0197005  84.4953111
  81.5169832  67.7520509  85.9693904  81.6082820  49.3283689  86.1033363
  81.9141696  48.4681053  85.8159279  82.3335424  49.9201310  85.9032357
  67.9007176  59.7314376  84.4914961  67.7031575  59.1383737  83.7666028
  67.3453840  59.4266586  85.2090900  75.8803899  59.6237482  86.6109555
  75.9352509  58.6711319  86.5352031  75.0695101  59.7796922  87.0950853
  75.9704837  68.2372299  86.3034198  75.9281016  68.4633145  85.3742730
  76.8867536  68.0035674  86.4519999  79.4170471  58.7056367  93.2014827
  79.7719859  58.9327840  94.0609293  80.0642602  59.0374743  92.5792083
  85.1468208  61.8274803  83.9064156  85.0086106  62.0176399  82.9785346
  84.7904427  62.5894185  84.3632207  73.3110334  55.8132898  89.9861168
  73.9509713  55.6721657  89.2884132  72.4787864  55.5267411  89.6099770
  85.1737587  63.8951330  88.9175428  85.6074094  63.8026619  89.7658482
  85.8869168  63.8708830  88.2795444  74.0870638  65.1135328  86.0996161
  74.8811236  64.6185648  85.8978736  73.3762330  64.5853191  85.7363866
  78.9065482  67.4953424  90.4508528  78.9602505  68.0644360  91.2186244
  78.0380264  67.6655309  90.0862566  71.7863876  57.1970980  91.9332980
  72.4586929  56.9888342  91.2845629  70.9593662  56.9993066  91.4938212
  86.0353137  63.9375030  91.4508313  86.2289027  64.8420841  91.6967588
  85.9353755  63.4782449  92.2846898  77.6889448  53.8232921  93.9498641
  77.0417363  54.5222870  93.8563117  78.4590463  54.2569065  94.3174889
  81.0968246  64.0881773  97.0249194  80.9453752  63.8592325  96.1079278
  81.0872925  65.0452374  97.0380539  77.8653582  61.6613686  92.0095460
  78.7945642  61.8124845  91.8364428  77.4444612  61.7497706  91.1544107
  76.6641914  65.6864350  89.7793998  76.5253000  65.3183135  90.6519936
  75.8756510  66.2011990  89.6077956  77.2590066  70.7873447  81.1219534
  77.4341822  70.3161490  81.9365157  76.5722854  71.4139213  81.3500795
  78.2147129  65.0645953  87.1682836  77.8796962  65.0246723  88.0640486
  77.7151075  64.3990669  86.6953246  72.1891373  60.4713583  92.6935417
  72.0511171  59.7393822  93.2946956  73.0996296  60.3822483  92.4119605
  81.1506321  62.4101987  77.4419895  80.5335491  61.6848815  77.3452948
  80.6822809  63.1711347  77.0986970  74.8173674  60.1833542  92.1819097
  75.5273292  59.5426734  92.1405715  74.7742982  60.4346437  93.1045277
  82.8060452  67.1200896  95.1025676  82.7472998  66.4360116  94.4356259
  83.2079971  67.8619886  94.6506302  73.5302608  57.1698760  94.0014736
  72.9939965  56.7189499  94.6536332  72.9419316  57.3044669  93.2585200
  82.8077860  65.0840479  93.3339655  81.9204638  64.7466401  93.4566054
  83.3776411  64.3523511  93.5708421  64.4607007  61.4164571  86.6582707
  65.1478047  61.1026301  86.0703722  64.3055135  62.3205936  86.3849958
  69.2641729  56.3054768  91.0867730  69.1799918  55.6980437  90.3518140
  68.4424435  56.7963786  91.0877227  76.3379013  69.7441932  90.3000899
  76.2649184  70.5496903  90.8120203  75.8956406  69.9433898  89.4748920
  79.4365443  54.7908331  86.4537926  79.9334142  54.0378294  86.1338996
  78.6652424  54.8272648  85.8881135  87.2895200  60.4948697  88.0956217
  87.2785076  61.3773412  87.7250150  86.4212580  60.1420248  87.9010754
  78.7977696  69.6428766  92.4559057  79.5105669  70.2776231  92.3834959
  78.3067725  69.7392632  91.6399059  80.5195223  63.5480019  84.0276349
  79.5851502  63.6681481  83.8581053  80.6971892  62.6452485  83.7636359
  76.0200411  56.9325714  86.1809610  75.6498199  56.3796755  86.8690516
  76.5159504  56.3283848  85.6284610  83.9067775  59.3897338  84.5626383
  84.3728227  60.2225329  84.4886686  84.3575275  58.9242319  85.2671642
  73.8489610  67.3923209  93.2764628  74.5499070  68.0259692  93.4294022
  73.3784725  67.7337941  92.5160267  81.9744006  65.7341159  81.5612535
  82.2503850  65.6197754  82.4706409  81.1048505  65.3358644  81.5224708
  81.8784437  51.7577925  88.6017284  80.9647517  51.9882152  88.7699491
  82.3077539  51.8416369  89.4531317  81.6490896  59.9467817  91.1017178
  80.9962346  60.1943724  90.4469631  82.0271276  59.1331955  90.7679656
  78.6098070  69.9827510  85.2045349  78.7920464  69.1649166  85.6673101
  79.4331056  70.1995202  84.7670239  78.9440235  68.9095695  82.4660397
  79.4728002  68.3988150  81.8530559  79.2068455  68.5938225  83.3305930
  77.6978469  60.6887628  97.5883216  77.0219106  60.5881757  98.2585591
  78.5206103  60.5326842  98.0519213  69.4457328  66.9259564  90.2095731
  70.0310765  66.1803252  90.3423635  69.2482167  67.2363521  91.0932395
  72.2995983  69.9610812  85.2258173  71.6306359  70.4456939  84.7422213
  72.1608853  70.2080032  86.1401552  64.0374983  59.4965165  88.9300174
  64.0759082  58.9628755  89.7237292  63.5315276  58.9700370  88.3111151
  76.4401252  71.9954555  91.8240832  76.9919560  72.1586177  92.5889917
  76.7807445  72.5858993  91.1520856  71.4165745  54.3429705  92.4262716
  71.4807072  55.2044536  92.0140114  71.3532865  53.7303707  91.6935075
  70.8918018  56.4152838  96.0735750  71.5190056  56.0329915  96.6873275
  70.0345937  56.1967040  96.4391443  81.2912126  66.8215813  97.6789486
  81.8352030  67.4345771  97.1844441  80.7098971  67.3795391  98.1956499
  79.5769639  69.9436531  88.8104514  79.4520779  69.1426271  88.3015459
  80.2348730  70.4382724  88.3218484  71.1977807  56.2985263  87.9881654
  70.4764393  56.9121231  87.8489127  71.9871063  56.8343028  87.9098300
  81.6404548  67.7445551  90.4384064  80.6934883  67.6250902  90.3662390
  81.9887321  66.8568049  90.5210325  74.0004121  53.6339690  94.2622306
  74.5238523  53.8801986  95.0248615  73.7816454  54.4659725  93.8425443
  78.6450981  67.5398267  86.6388416  78.4975943  66.6114974  86.8195986
  79.4704474  67.5618358  86.1545491  82.2485103  68.3626826  87.7253289
  83.1731650  68.1569687  87.5877740  82.0800406  68.1143227  88.6342630
  75.2056666  54.5753385  91.9471976  74.8653486  53.7761198  92.3492656
  74.4995672  54.8755096  91.3748809  75.8573138  51.6602697  90.3999299
  76.6799207  51.1863176  90.2778190  76.1011201  52.4393181  90.8997986
  78.6412495  55.3936105  81.6320533  78.8576110  56.2760743  81.3309361
  78.1606562  55.0022318  80.9026175  73.3811717  58.3521818  88.2091278
  73.2356297  58.6662121  89.1015559  72.9036920  58.9706718  87.6562176
  75.2408099  55.3424366  88.2572167  75.2269668  54.4465459  87.9204465
  75.9580528  55.3495030  88.8910453  77.0934230  55.7761706  90.3025295
  76.8352008  56.6978777  90.3009625  76.5619271  55.3792141  90.9925759
  82.0380419  68.8812493  83.0815380  82.2117296  68.3158916  82.3289233
  82.5309310  69.6813388  82.8994870  67.8557379  60.8927162  91.1478939
  67.3110847  61.6686970  91.2799213  68.7336729  61.2397967  90.9898060
  74.6444995  54.2238746  83.5259738  74.7660907  53.2955392  83.7250625
  74.3547038  54.2377432  82.6138053  77.5136186  51.9093657  86.6626457
  77.5357883  51.9732990  85.7078437  77.9304245  51.0698165  86.8566964
  87.8919810  61.6448916  84.7005680  88.3350956  60.8956241  84.3024803
  87.0146320  61.6359053  84.3179412  83.0255591  68.1979258  80.1812278
  83.7206496  68.8185950  80.3999593  83.3678742  67.3474609  80.4564656
  68.6423401  60.0197059  94.0409096  67.9005137  60.1679694  94.6273726
  68.3216145  60.2805324  93.1775845  84.9247015  65.6478963  81.7099609
  85.4498339  65.9866236  80.9848929  84.8369367  64.7125979  81.5262744
  76.5867063  69.5613037  93.8389486  76.8954190  69.3162184  94.7112185
  77.3842545  69.7659675  93.3508356  76.6087675  71.7150946  86.0694862
  76.1692666  71.2227325  86.7627719  77.3595792  71.1723914  85.8286938
  69.0880014  67.9062487  86.0719491  69.9138034  67.6066259  85.6918134
  68.7374066  67.1370110  86.5209279  74.0561547  67.2588956  88.1417164
  73.4341557  66.5959661  87.8419392  74.7266414  67.2850087  87.4590812
  67.2888619  65.8248814  87.0308424  66.4520528  65.3970988  86.8492425
  67.2612265  66.0181257  87.9679215  74.1286075  55.7370744  97.7349670
  74.1774230  56.6132866  97.3527440  74.6708589  55.1948137  97.1621313
  84.6140921  66.2811867  97.0150807  83.8236464  66.2636006  96.4755307
  84.3774275  66.8200161  97.7699844  84.7338796  63.1304333  94.3283536
  84.7836801  62.9654341  95.2699059  84.6252719  62.2631592  93.9381417
  82.0242558  59.1135261  95.6442842  82.9252421  58.9741726  95.3526840
  82.0990533  59.2789716  96.5841020  76.3585363  56.4902116  94.4896029
  75.4888673  56.7835682  94.2178617  76.5944844  57.0742561  95.2103292
  86.2356992  65.5501275  94.5725557  85.9441801  65.9131255  95.4089018
  85.6229124  64.8368283  94.3938889  87.4352675  63.1154155  87.0928128
  88.2699566  63.5543959  87.2565688  87.5711804  62.6392808  86.2736373
  84.4844181  60.6733889  93.0405615  84.9598302  60.8661536  92.2324467
  83.5609746  60.7293075  92.7948999  79.0624397  52.7081733  92.0061449
  79.5806341  53.4442760  91.6807938  78.7079530  53.0145726  92.8408208
  79.3136991  49.1282015  87.5262346  79.5938745  48.4605205  88.1522772
  80.0987598  49.3211111  87.0137010  83.1845850  57.5499649  91.2733921
  84.1363273  57.6497747  91.2946145  83.0149300  56.7577918  91.7832005
  81.2060229  54.6355233  91.4593322  80.6110161  54.9160245  90.7639810
  80.9209926  55.1249134  92.2310063  80.3367720  68.5878159  80.2195954
  81.2698393  68.5223721  80.4228830  80.2490932  69.4234426  79.7610487
  82.9655736  67.9044030  77.1799902  82.8869368  67.5703893  78.0735660
  83.7865403  68.3965798  77.1791374  85.6633927  60.7705769  90.3876221
  85.6310248  59.8321770  90.5735904  86.2734551  60.8489806  89.6542045
  77.5017258  59.6401822  76.4303425  78.4476363  59.5108030  76.4991843
  77.1231503  58.9016484  76.9072853  85.8128416  57.5616813  90.4334504
  85.2967465  56.7775269  90.2464433  86.6968364  57.2335529  90.5981023
  83.4739143  51.3057828  86.3930316  83.2763964  50.9972916  87.2773648
  84.0838848  52.0319467  86.5228246  91.4810477  61.8321776  89.5282257
  92.2113866  61.5707064  90.0889961  90.8717423  61.0950498  89.5684325
  89.5625774  59.9729639  90.1256709  88.8358938  59.8385603  89.5173200
  89.1473061  60.2806467  90.9313427  77.3855951  63.6919568  97.8904082
  78.3058960  63.8698167  98.0844128  77.3505534  62.7475614  97.7383781
  66.6038116  58.8858162  86.8157356  66.2840900  58.0323470  86.5231730
  66.0571544  59.1006740  87.5715324  70.3818023  61.6020603  90.5326863
  70.6004033  62.5337711  90.5514897  70.7943797  61.2428577  91.3181667
  77.3022241  52.1088688  82.5202551  76.4922970  51.7635773  82.8957797
  77.9906658  51.7996232  83.1090163  79.2312790  51.1866735  84.1426848
  79.7843828  51.6062188  84.8016871  79.4682876  50.2602483  84.1849804
  75.2545889  57.1753809  99.9229612  75.1542616  58.1248166  99.8541703
  75.0367431  56.8472048  99.0505682  74.4558960  54.4238734  76.5070289
  75.3178124  54.7493632  76.7666106  74.6409304  53.6370230  75.9943355
  66.4726376  62.5061073  88.7850478  65.7789847  62.0915026  88.2720432
  67.2199367  62.5481610  88.1883897  82.6091597  53.2967260  83.6505512
  82.0290266  53.9552064  83.2683564  82.3427529  52.4744605  83.2392929
  81.0595163  52.6972318  85.8526832  81.5594941  52.8088852  85.0441151
  81.7030771  52.3933371  86.4927641  75.1177159  60.6050947  98.7394673
  74.6344241  61.4051308  98.9458562  75.2038098  60.6158892  97.7862117
  68.3863118  62.4379327  86.6616493  68.3633807  62.5367014  85.7098376
  68.6963755  63.2844478  86.9833659  71.0450496  64.4955482  90.7763107
  71.9993750  64.4639425  90.7093039  70.8463020  64.0346106  91.5913333
  71.6349878  63.0656598  93.3433905  72.4542767  63.5600677  93.3668742
  71.9086686  62.1488566  93.3151472  81.3916475  55.4567351  82.7061860
  80.5042330  55.7417001  82.4882055  81.8070464  55.2961114  81.8589137
  84.7431011  55.4813872  86.4216199  85.5191401  55.9710324  86.6940816
  84.0179145  55.9071926  86.8788069  87.1803569  56.1941491  87.4790140
  87.7748060  55.9537227  86.7683448  87.2530153  55.4748621  88.1063676
  69.4000725  70.0375102  87.7933305  69.2655193  69.2775503  87.2271303
  68.9832787  70.7616002  87.3262094  80.5359688  65.2212025  76.8009880
  81.2395538  65.4262028  77.4167536  79.8122337  65.7888787  77.0658964
  81.3657498  60.9721886  82.9212150  81.3092700  61.4290438  82.0819783
  81.9185841  60.2112571  82.7434993  85.1762304  56.7611618  83.7462270
  84.9199239  56.3608254  84.5770478  84.5515172  57.4755412  83.6212409
  89.4874642  59.5007692  86.2533561  88.9274200  59.5700881  87.0265123
  88.8818145  59.3248676  85.5333058  72.5569851  70.9344419  88.0051748
  72.4402235  71.8789851  87.9030438  71.7362297  70.6317980  88.3937547
  82.4446385  65.6594554  78.8508340  83.2791989  65.2275753  78.6685815
  82.2830728  65.4876568  79.7785235  82.0992278  62.1626668  80.2164680
  82.0441081  61.9970939  79.2753124  81.4738333  62.8702701  80.3726869
  66.8884793  57.3994732  94.0426102  67.5343656  56.8893686  94.5313327
  66.6801944  58.1363414  94.6169527  79.4138185  64.4675580  99.5418242
  80.2829344  64.6416232  99.1804877  78.9344936  65.2869996  99.4193972
  75.4088403  51.6634777  79.7949998  75.3967073  52.6076617  79.9518269
  76.3011825  51.4804922  79.5009459  73.5824365  71.5872681  91.2207676
  74.4851612  71.6196291  91.5374171  73.3561735  70.6573132  91.2354012
  75.3377967  70.3403667  87.8817755  74.3873598  70.3405529  87.7682127
  75.6410453  69.5936402  87.3653789  79.2240523  48.2577553  84.0495935
  78.4572918  47.7036040  84.1952617  79.6351228  48.3299422  84.9110086
  71.2282284  54.5462349  98.1401116  72.0913745  54.1899154  98.3504441
  70.6547694  54.2076244  98.8276520  91.0730661  76.1764206  88.9463517
  91.7109071  76.0570953  88.2426857  90.9551503  77.1245049  89.0051469
  87.8820367  76.1291634  88.8825042  87.5438878  76.0132698  87.9945577
  88.7510135  75.7282799  88.8626048  83.7407183  77.9827110  84.8721933
  83.1772048  77.8917047  84.1038220  83.6259578  77.1627015  85.3524425
  88.3640150  77.2826485  94.8411247  88.3528791  76.8879284  93.9691751
  88.5260789  76.5492558  95.4345019  81.2871614  79.4778302  87.7106153
  82.0792906  79.1369126  87.2952452  81.5268265  79.5873277  88.6308306
  89.3206741  81.6498078  80.1836398  88.6694721  82.2352158  79.7970411
  90.1151104  82.1804273  80.2431435  83.2462368  78.7387215  80.5823532
  84.0193244  78.1916202  80.4436408  83.5987767  79.6031464  80.7937993
  85.0847411  80.0663597  93.7890431  84.7937277  80.9709228  93.6737098
  85.7204395  80.1080125  94.5034501  86.0103618  77.4440446  90.3791791
  86.6067190  77.2196468  89.6648754  86.0678589  76.7025191  90.9817239
  85.5828646  74.8979881  78.2141982  85.8354167  74.3761402  77.4525445
  84.6453205  74.7346026  78.3168665  90.6271929  73.9015659  86.0216725
  91.4135018  73.4835083  85.6707142  90.8910633  74.8061752  86.1898373
  90.7982006  79.3388510  80.7205382  90.1627839  79.4123136  81.4326287
  90.4679413  79.9282109  80.0424461  96.0280356  73.8390893  86.9249704
  96.7605528  73.2690109  87.1587533  95.2719712  73.4512493  87.3656209
  85.3024935  76.8007987  80.4166357  85.1861193  76.1252890  81.0847441
  85.4127195  76.3140361  79.5998510  87.6456476  76.2618134  84.1213046
  87.2814683  75.7348755  84.8325968  88.5023592  75.8716603  83.9479531
  93.5505777  67.5512467  91.3844312  93.2189101  68.4207878  91.1605527
  92.9551390  67.2348751  92.0638343  87.2861963  71.2908034  79.1174395
  87.4536365  72.1588270  79.4844866  87.0959132  71.4535315  78.1935684
  90.0437296  79.7525013  90.7840225  89.7438019  80.6550051  90.6756032
  89.6988356  79.4857196  91.6361378  83.4949778  76.2038810  86.8176929
  82.5700274  76.0715024  87.0254621  83.7434191  76.9833029  87.3146872
  93.4434440  72.2707553  88.4637662  92.5351317  72.2022961  88.1696423
  93.3922036  72.7479498  89.2919488  87.2651184  73.7465691  80.1021061
  87.1450809  74.1922742  80.9406542  86.5703772  74.0951009  79.5434600
  80.8558589  75.8472083  87.6520718  80.9850970  76.1006562  88.5660130
  80.1756040  76.4399791  87.3325373  85.0258076  86.5169333  83.7511193
  84.9482106  87.4677158  83.8299673  84.4219719  86.1715206  84.4086119
  87.5175306  73.6897198  96.4072560  86.7408640  74.2491119  96.3975424
  88.1565869  74.1753981  96.9287430  95.3096086  70.4723991  90.2415536
  94.6670467  70.7656524  89.5955331  94.8051015  70.3576912  91.0468733
  92.9636250  74.2187164  80.9301395  93.8754106  74.4514551  80.7549093
  92.4545897  74.8024209  80.3676474  85.7721678  76.4982652  95.9690527
  86.5136362  77.0367696  95.6925350  85.0658663  77.1248941  96.1262078
  91.2477018  78.6411792  94.5662688  91.6560374  78.1994203  93.8217320
  90.5254279  78.0664420  94.8196881  87.6008088  73.5784399  91.9396245
  88.4469283  74.0023813  92.0830894  87.5406725  72.9218023  92.6334808
  91.5705832  79.2012983  88.3214977  90.9414695  79.3658697  87.6191045
  91.1831494  79.6154592  89.0925941  95.4495064  80.1367421  85.6759341
  94.7646102  80.5166322  85.1256374  95.5338913  80.7462747  86.4091288
  90.7507533  71.2388767  93.5977419  90.5068465  71.9930828  93.0611694
  91.0267463  71.6174115  94.4324666  92.7045996  77.7827380  92.2754684
  92.9162891  78.4259140  91.5989065  92.6575744  76.9489696  91.8076614
  90.3072225  70.3945200  89.1791256  89.4456704  70.6926454  89.4707994
  90.3334659  70.6115599  88.2472289  87.1233794  78.9387391  85.5865062
  87.5872140  79.2175094  84.7969684  86.8590592  78.0370836  85.4038153
  84.0157875  78.4858873  88.5244825  84.5859232  78.9146141  87.8862310
  84.6065987  78.2041457  89.2229011  86.0602680  75.0610543  82.3954627
  86.7626724  75.5131587  82.8628553  85.7283309  74.4194362  83.0234520
  84.5083042  73.6522300  96.7705837  83.8781702  74.3338581  97.0041233
  84.4019130  73.5405382  95.8258975  79.8028014  73.3194096  87.6971761
  79.0127068  73.5751625  87.2211871  80.2939262  74.1342434  87.8023801
  93.8191824  80.6599335  90.4477042  94.6409267  80.2579522  90.1659723
  93.8154227  80.5567569  91.3993157  81.7542760  73.6838675  84.6555237
  80.9573923  73.7957370  85.1738733  81.5268352  74.0225327  83.7896128
  87.5848427  80.2083378  92.6037752  87.6492860  80.6703786  93.4395924
  86.8759351  79.5780743  92.7320062  78.0865717  73.5724586  90.1286751
  78.3373756  74.4571596  90.3944327  78.6225266  73.3929188  89.3561843
 101.9097817  77.0038084  86.7962013 101.1561525  76.4345482  86.6406017
 102.0445358  76.9700748  87.7432648  87.2996445  81.8751486  82.4716732
  87.1642120  82.7203022  82.9001580  87.8406257  82.0770764  81.7082666
  83.7863784  67.9543066  99.1331088  83.3930730  67.4009264  99.8078732
  84.6029925  68.2653644  99.5237605  80.7525842  79.3926924  83.0444657
  81.2650363  80.1870174  83.1950222  81.4048555  78.6953214  82.9778259
  82.5620727  82.5092680  85.1267411  82.7387355  83.4310645  84.9388395
  83.3577560  82.1951100  85.5561790  86.7031745  69.3700945  96.7251344
  87.4441459  69.9708098  96.6455807  86.9349668  68.6278583  96.1669387
  81.8473083  74.5557312  95.0029574  81.7326599  73.6542569  95.3036673
  80.9917601  74.8021009  94.6514390  88.9264921  82.4975052  96.6017074
  88.4828775  81.7111431  96.2837979  89.5882135  82.6854203  95.9360965
  83.6852042  84.0270854  91.1277753  84.2359467  83.8987917  90.3554747
  82.8463518  84.3265743  90.7772646  91.0246159  82.7777852  94.6298476
  91.0064635  83.5986733  94.1378745  91.9466079  82.6531928  94.8548617
  87.4819213  80.2921982  95.4721984  88.0147550  79.5310270  95.2421292
  86.9533294  79.9995634  96.2146139  90.6488908  65.3982048  91.0015626
  90.3053178  66.2883690  90.9254736  91.0167871  65.2083706  90.1385211
  78.7174759  77.7215578  83.8204228  79.5549981  78.1312587  83.6037936
  78.8953027  76.7815020  83.7904422  90.6139191  75.3890659  79.5088061
  90.0985815  76.1595264  79.7476448  90.3416500  74.7155795  80.1321122
  88.1986302  70.2340360  84.5673299  87.3427898  69.8447210  84.3878938
  88.6113254  70.3132321  83.7073085  89.7285449  67.7686703  88.9664859
  89.2250244  67.7316838  88.1532664  90.0216056  68.6779446  89.0261516
  85.9728335  67.8525433  87.9731041  86.8381331  67.6568241  87.6136930
  86.0405844  67.6235785  88.9000398  95.5873465  78.1423014  81.4441234
  94.8102908  77.8034173  80.9996396  96.2664946  78.1475637  80.7696199
  90.4025494  73.2617751  81.3347842  90.0975630  73.5763900  82.1857985
  91.3555936  73.3399171  81.3775175  88.8471926  79.4207974  82.9840796
  88.3193288  78.6860734  82.6714034  88.3459429  80.1982651  82.7380764
  93.8264772  77.6156995  88.1007842  93.1688447  78.3056256  88.1887971
  94.6305171  78.0053427  88.4441829  83.5790654  70.0827641  85.3447408
  84.1534406  69.8602822  84.6120601  84.1661636  70.1516335  86.0976009
  92.6370231  75.9701368  86.1511784  93.1502113  76.6031359  86.6533494
  93.2871455  75.3702563  85.7855144  83.9060241  72.1132102  79.3643293
  83.0697553  72.4506788  79.6852568  83.7665010  71.9781081  78.4270430
  85.8813321  66.9568890  84.0722477  85.2277734  66.6417907  83.4479092
  85.8393796  66.3344630  84.7982300  86.9924526  77.2388185  75.9875769
  86.0851588  77.0077438  76.1866918  87.4895558  76.4425804  76.1749751
  89.8992605  85.9485692  78.9072455  89.2254304  86.2517389  79.5157413
  90.2858427  86.7514772  78.5577912  89.1151062  73.4450823  88.3970125
  88.1973623  73.6665770  88.2391813  89.5311205  73.5197134  87.5381832
  89.8986110  74.8442239  83.5272805  90.6457928  75.3563636  83.2179927
  90.1677699  74.5226292  84.3877198  88.1712760  77.3400780  80.5099759
  87.2623979  77.0559812  80.6072229  88.2007844  77.7599858  79.6503066
  93.4032027  80.9507369  84.2790927  92.9494354  80.1098279  84.3356117
  92.7725994  81.5868767  84.6165707  92.3464947  71.8799355  85.5091594
  91.6087703  71.3676741  85.8401837  92.5991720  71.4399737  84.6974871
  91.8464966  82.7883866  85.2140745  92.1387941  83.3488923  84.4953111
  92.3563587  83.0812427  85.9693904  92.4476574  64.6575607  86.1033363
  92.7535451  63.7972970  85.8159279  93.1729179  65.2493227  85.9032357
  78.7400930  75.0606294  84.4914961  78.5425330  74.4675654  83.7666028
  78.1847594  74.7558504  85.2090900  86.7197654  74.9529400  86.6109555
  86.7746264  74.0003237  86.5352031  85.9088856  75.1088839  87.0950853
  87.8688848  78.8809523  77.8487838  87.4308277  78.1645382  77.3893475
  88.6099288  79.1085638  77.2872929  84.6590014  73.5706460  84.3699933
  83.8457879  73.8700630  84.7765126  85.1549008  73.1762149  85.0874416
  86.8098592  83.5664217  86.3034198  86.7674770  83.7925063  85.3742730
  87.7261290  83.3327591  86.4519999  90.2564225  74.0348284  93.2014827
  90.6113613  74.2619757  94.0609293  90.9036357  74.3666661  92.5792083
  95.9861962  77.1566720  83.9064156  95.8479861  77.3468316  82.9785346
  95.6298181  77.9186103  84.3632207  84.1504088  71.1424815  89.9861168
  84.7903468  71.0013574  89.2884132  83.3181619  70.8559329  89.6099770
  96.0131342  79.2243247  88.9175428  96.4467849  79.1318536  89.7658482
  96.7262923  79.2000748  88.2795444  84.9264392  80.4427246  86.0996161
  85.7204991  79.9477566  85.8978736  84.2156085  79.9145109  85.7363866
  89.7459237  82.8245341  90.4508528  89.7996259  83.3936278  91.2186244
  88.8774018  82.9947226  90.0862566  81.2347156  74.5870328  82.1755914
  80.3044744  74.5254783  82.3925876  81.3304628  74.0646280  81.3792555
  81.1532705  71.1125140  84.7634155  81.4139522  72.0270474  84.6543316
  81.9749877  70.6449583  84.9130768  82.6257630  72.5262898  91.9332980
  83.2980684  72.3180260  91.2845629  81.7987417  72.3284984  91.4938212
  96.8746891  79.2666948  91.4508313  97.0682782  80.1712758  91.6967588
  96.7747510  78.8074367  92.2846898  88.5283202  69.1524838  93.9498641
  87.8811117  69.8514788  93.8563117  89.2984218  69.5860982  94.3174889
  91.9362000  79.4173691  97.0249194  91.7847507  79.1884242  96.1079278
  91.9266680  80.3744292  97.0380539  88.7047337  76.9905603  92.0095460
  89.6339397  77.1416763  91.8364428  88.2838367  77.0789624  91.1544107
  87.5035668  81.0156268  89.7793998  87.3646754  80.6475052  90.6519936
  86.7150265  81.5303907  89.6077956  88.0983820  86.1165364  81.1219534
  88.2735576  85.6453407  81.9365157  87.4116608  86.7431130  81.3500795
  89.0540883  80.3937870  87.1682836  88.7190716  80.3538640  88.0640486
  88.5544829  79.7282586  86.6953246  83.0285127  75.8005501  92.6935417
  82.8904925  75.0685739  93.2946956  83.9390051  75.7114401  92.4119605
  91.9900075  77.7393905  77.4419895  91.3729246  77.0140733  77.3452948
  91.5216564  78.5003265  77.0986970  85.6567428  75.5125460  92.1819097
  86.3667047  74.8718652  92.1405715  85.6136736  75.7638355  93.1045277
  93.6454207  82.4492813  95.1025676  93.5866753  81.7652033  94.4356259
  94.0473725  83.1911803  94.6506302  84.3696362  72.4990678  94.0014736
  83.8333719  72.0481416  94.6536332  83.7813071  72.6336587  93.2585200
  82.6644906  89.2654727  87.8959395  82.9041504  89.8973251  88.5738413
  81.8214102  88.9142767  88.1824754  83.7798621  71.9579329  76.5641200
  82.9028087  71.8368130  76.2003446  84.2556374  71.1665407  76.3120088
  93.6471614  80.4132397  93.3339655  92.7598393  80.0758319  93.4566054
  94.2170165  79.6815428  93.5708421  75.3000761  76.7456489  86.6582707
  75.9871801  76.4318219  86.0703722  75.1448890  77.6497854  86.3849958
  80.1035483  71.6346685  91.0867730  80.0193672  71.0272355  90.3518140
  79.2818190  72.1255704  91.0877227  87.1772767  85.0733849  90.3000899
  87.1042939  85.8788821  90.8120203  86.7350161  85.2725815  89.4748920
  86.9662547  84.3105620  83.8103720  86.1830069  84.8527300  83.9041945
  87.6655292  84.8279599  84.2097961  90.2759197  70.1200249  86.4537926
  90.7727897  69.3670211  86.1338996  89.5046179  70.1564566  85.8881135
  98.1288955  75.8240614  88.0956217  98.1178831  76.7065330  87.7250150
  97.2606334  75.4712165  87.9010754  89.6371451  84.9720684  92.4559057
  90.3499423  85.6068148  92.3834959  89.1461480  85.0684549  91.6399059
  91.3588978  78.8771936  84.0276349  90.4245257  78.9973399  83.8581053
  91.5365646  77.9744403  83.7636359  86.8594166  72.2617632  86.1809610
  86.4891953  71.7088672  86.8690516  87.3553258  71.6575765  85.6284610
  94.7461529  74.7189255  84.5626383  95.2121981  75.5517247  84.4886686
  95.1969030  74.2534237  85.2671642  84.6883365  82.7215127  93.2764628
  85.3892824  83.3551610  93.4294022  84.2178480  83.0629859  92.5160267
  92.8137760  81.0633077  81.5612535  93.0897604  80.9489671  82.4706409
  91.9442259  80.6650562  81.5224708  92.7178192  67.0869842  88.6017284
  91.8041272  67.3174069  88.7699491  93.1471293  67.1708287  89.4531317
  92.4884650  75.2759734  91.1017178  91.8356101  75.5235642  90.4469631
  92.8665030  74.4623873  90.7679656  89.4491824  85.3119428  85.2045349
  89.6314219  84.4941084  85.6673101  90.2724810  85.5287120  84.7670239
  89.7833990  84.2387613  82.4660397  90.3121756  83.7280067  81.8530559
  90.0462209  83.9230143  83.3305930  88.5372223  76.0179545  97.5883216
  87.8612861  75.9173675  98.2585591  89.3599857  75.8618759  98.0519213
  80.2851083  82.2551482  90.2095731  80.8704519  81.5095170  90.3423635
  80.0875921  82.5655439  91.0932395  83.1389738  85.2902729  85.2258173
  82.4700113  85.7748857  84.7422213  83.0002607  85.5371950  86.1401552
  74.8768737  74.8257082  88.9300174  74.9152837  74.2920673  89.7237292
  74.3709030  74.2992288  88.3111151  87.2795006  87.3246473  91.8240832
  87.8313314  87.4878094  92.5889917  87.6201200  87.9150911  91.1520856
  82.2559500  69.6721623  92.4262716  82.3200826  70.5336454  92.0140114
  82.1926620  69.0595624  91.6935075  81.7311772  71.7444755  96.0735750
  82.3583811  71.3621833  96.6873275  80.8739691  71.5258957  96.4391443
  92.1305881  82.1507730  97.6789486  92.6745785  82.7637689  97.1844441
  91.5492726  82.7087309  98.1956499  78.5077315  73.5521184  82.0054105
  78.8030756  72.6431863  81.9521159  77.6065351  73.5308924  81.6835108
  90.4163394  85.2728448  88.8104514  90.2914533  84.4718188  88.3015459
  91.0742485  85.7674642  88.3218484  82.0371562  71.6277181  87.9881654
  81.3158148  72.2413149  87.8489127  82.8264818  72.1634946  87.9098300
  92.4798302  83.0737469  90.4384064  91.5328638  82.9542820  90.3662390
  92.8281075  82.1859967  90.5210325  84.8397875  68.9631607  94.2622306
  85.3632277  69.2093904  95.0248615  84.6210209  69.7951642  93.8425443
  80.2365156  71.2335282  82.1293430  79.9077863  70.3532661  81.9468536
  80.5904527  71.1782951  83.0169820  89.4844735  82.8690185  86.6388416
  89.3369698  81.9406892  86.8195986  90.3098229  82.8910275  86.1545491
  83.3506980  71.5208252  82.4968908  83.6903052  72.0494173  81.7747517
  83.7979100  71.8588658  83.2727475  93.0878857  83.6918743  87.7253289
  94.0125405  83.4861605  87.5877740  92.9194161  83.4435145  88.6342630
  86.0450420  69.9045303  91.9471976  85.7047241  69.1053116  92.3492656
  85.3389427  70.2047013  91.3748809  86.6966892  66.9894615  90.3999299
  87.5192962  66.5155093  90.2778190  86.9404956  67.7685099  90.8997986
  85.3375127  70.0182873  80.6962201  86.0583489  70.3964126  80.1925918
  84.7140431  70.7371750  80.7997179  89.4806250  70.7228022  81.6320533
  89.6969864  71.6052660  81.3309361  89.0000317  70.3314236  80.9026175
  84.2205471  73.6813736  88.2091278  84.0750052  73.9954039  89.1015559
  83.7430675  74.2998636  87.6562176  86.0801854  70.6716284  88.2572167
  86.0663423  69.7757377  87.9204465  86.7974282  70.6786947  88.8910453
  87.9327985  71.1053624  90.3025295  87.6745762  72.0270694  90.3009625
  87.4013025  70.7084058  90.9925759  92.8774173  84.2104411  83.0815380
  93.0511051  83.6450833  82.3289233  93.3703065  85.0105306  82.8994870
  78.6951133  76.2219080  91.1478939  78.1504601  76.9978888  91.2799213
  79.5730483  76.5689884  90.9898060  85.4838750  69.5530664  83.5259738
  85.6054661  68.6247310  83.7250625  85.1940792  69.5669350  82.6138053
  88.3529940  67.2385574  86.6626457  88.3751637  67.3024907  85.7078437
  88.7697999  66.3990083  86.8566964  98.7313565  76.9740834  84.7005680
  99.1744711  76.2248159  84.3024803  97.8540075  76.9650970  84.3179412
  93.8649346  83.5271175  80.1812278  94.5600251  84.1477868  80.3999593
  94.2072496  82.6766527  80.4564656  79.4817155  75.3488976  94.0409096
  78.7398891  75.4971612  94.6273726  79.1609899  75.6097242  93.1775845
  95.7640769  80.9770881  81.7099609  96.2892093  81.3158154  80.9848929
  95.6763122  80.0417896  81.5262744  87.4260818  84.8904955  93.8389486
  87.7347944  84.6454101  94.7112185  88.2236300  85.0951593  93.3508356
  87.4481430  87.0442864  86.0694862  87.0086420  86.5519243  86.7627719
  88.1989547  86.5015832  85.8286938  79.9273769  83.2354405  86.0719491
  80.7531789  82.9358177  85.6918134  79.5767821  82.4662027  86.5209279
  84.8955302  82.5880873  88.1417164  84.2735311  81.9251578  87.8419392
  85.5660169  82.6142005  87.4590812  78.1282374  81.1540731  87.0308424
  77.2914282  80.7262906  86.8492425  78.1006019  81.3473175  87.9679215
  84.9679829  71.0662661  97.7349670  85.0167985  71.9424784  97.3527440
  85.5102344  70.5240054  97.1621313  95.4534675  81.6103785  97.0150807
  94.6630219  81.5927923  96.4755307  95.2168030  82.1492078  97.7699844
  95.5732550  78.4596251  94.3283536  95.6230555  78.2946258  95.2699059
  95.4646473  77.5923510  93.9381417  84.4568809  81.1384797  81.6175625
  84.6056929  81.8220261  80.9642297  85.2635252  81.1189887  82.1325080
  92.8636313  74.4427179  95.6442842  93.7646175  74.3033644  95.3526840
  92.9384287  74.6081634  96.5841020  87.1979118  71.8194034  94.4896029
  86.3282427  72.1127600  94.2178617  87.4338598  72.4034479  95.2103292
  97.0750747  80.8793192  94.5725557  96.7835555  81.2423173  95.4089018
  96.4622878  80.1660201  94.3938889  98.2746429  78.4446072  87.0928128
  99.1093321  78.8835876  87.2565688  98.4105558  77.9684725  86.2736373
  95.3237935  76.0025807  93.0405615  95.7992057  76.1953453  92.2324467
  94.4003501  76.0584993  92.7948999  82.2121442  77.1649974  82.6236694
  81.9667484  76.2612304  82.8216904  82.3817356  77.1667125  81.6816172
  89.9018152  68.0373651  92.0061449  90.4200096  68.7734678  91.6807938
  89.5473284  68.3437644  92.8408208  81.4817089  72.8978332  80.1222855
  80.7886334  72.9722687  79.4662891  81.2368841  72.1338675  80.6444372
  90.1530746  64.4573933  87.5262346  90.4332500  63.7897122  88.1522772
  90.9381353  64.6503029  87.0137010  87.9564214  83.6332927  79.0887372
  87.3838181  84.2523114  78.6357844  88.5297008  84.1832289  79.6227294
  94.0239604  72.8791567  91.2733921  94.9757027  72.9789665  91.2946145
  93.8543055  72.0869836  91.7832005  92.0453984  69.9647150  91.4593322
  91.4503916  70.2452163  90.7639810  91.7603680  70.4541051  92.2310063
  91.1761474  83.9170077  80.2195954  92.1092147  83.8515639  80.4228830
  91.0884687  84.7526344  79.7610487  93.8049491  83.2335948  77.1799902
  93.7263122  82.8995811  78.0735660  94.6259158  83.7257715  77.1791374
  96.5027682  76.0997687  90.3876221  96.4704002  75.1613688  90.5735904
  97.1128306  76.1781724  89.6542045  88.3411013  74.9693740  76.4303425
  89.2870118  74.8399948  76.4991843  87.9625258  74.2308402  76.9072853
  96.6522170  72.8908730  90.4334504  96.1361219  72.1067187  90.2464433
  97.5362119  72.5627447  90.5981023  94.3132897  66.6349746  86.3930316
  94.1157719  66.3264834  87.2773648  94.9232603  67.3611385  86.5228246
 102.3204232  77.1613694  89.5282257 103.0507620  76.8998982  90.0889961
 101.7111177  76.4242416  89.5684325 100.4019529  75.3021556  90.1256709
  99.6752693  75.1677521  89.5173200  99.9866816  75.6098385  90.9313427
  88.2249705  79.0211486  97.8904082  89.1452715  79.1990085  98.0844128
  88.1899288  78.0767531  97.7383781  86.5253930  72.8943716  76.3658310
  85.6185385  72.5976829  76.4421023  86.8029911  72.5973534  75.4992596
  77.4431870  74.2150080  86.8157356  77.1234655  73.3615388  86.5231730
  76.8965299  74.4298658  87.5715324  81.2211778  76.9312521  90.5326863
  81.4397788  77.8629628  90.5514897  81.6337552  76.5720495  91.3181667
  88.1415996  67.4380606  82.5202551  87.3316724  67.0927691  82.8957797
  88.8300413  67.1288150  83.1090163  90.0706544  66.5158653  84.1426848
  90.6237583  66.9354106  84.8016871  90.3076630  65.5894401  84.1849804
  86.0939643  72.5045726  99.9229612  85.9936370  73.4540083  99.8541703
  85.8761185  72.1763965  99.0505682  85.2952715  69.7530651  76.5070289
  86.1571879  70.0785550  76.7666106  85.4803059  68.9662147  75.9943355
  77.3120130  77.8352991  88.7850478  76.6183602  77.4206944  88.2720432
  78.0593121  77.8773528  88.1883897  93.4485351  68.6259178  83.6505512
  92.8684020  69.2843982  83.2683564  93.1821284  67.8036522  83.2392929
  91.8988917  68.0264236  85.8526832  92.3988696  68.1380770  85.0441151
  92.5424525  67.7225288  86.4927641  85.9570913  75.9342865  98.7394673
  85.4737995  76.7343225  98.9458562  86.0431852  75.9450810  97.7862117
  79.2256873  77.7671245  86.6616493  79.2027561  77.8658932  85.7098376
  79.5357509  78.6136396  86.9833659  81.8844251  79.8247400  90.7763107
  82.8387504  79.7931342  90.7093039  81.6856774  79.3638024  91.5913333
  82.4743633  78.3948516  93.3433905  83.2936522  78.8892595  93.3668742
  82.7480441  77.4780484  93.3151472  92.2310229  70.7859268  82.7061860
  91.3436084  71.0708919  82.4882055  92.6464218  70.6253032  81.8589137
  95.5824765  70.8105789  86.4216199  96.3585155  71.3002242  86.6940816
  94.8572899  71.2363843  86.8788069  98.0197324  71.5233408  87.4790140
  98.6141815  71.2829144  86.7683448  98.0923908  70.8040539  88.1063676
  80.2394480  85.3667019  87.7933305  80.1048947  84.6067420  87.2271303
  79.8226542  86.0907919  87.3262094  91.3753443  80.5503943  76.8009880
  92.0789293  80.7553945  77.4167536  90.6516091  81.1180705  77.0658964
  92.2051253  76.3013804  82.9212150  92.1486454  76.7582356  82.0819783
  92.7579595  75.5404489  82.7434993  96.0156059  72.0903536  83.7462270
  95.7592993  71.6900172  84.5770478  95.3908927  72.8047330  83.6212409
 100.3268397  74.8299609  86.2533561  99.7667955  74.8992799  87.0265123
  99.7211900  74.6540594  85.5333058  83.3963605  86.2636336  88.0051748
  83.2795990  87.2081769  87.9030438  82.5756052  85.9609898  88.3937547
  93.2840140  80.9886472  78.8508340  94.1185744  80.5567671  78.6685815
  93.1224483  80.8168486  79.7785235  92.9386032  77.4918585  80.2164680
  92.8834836  77.3262857  79.2753124  92.3132087  78.1994618  80.3726869
  77.7278547  72.7286650  94.0426102  78.3737411  72.2185604  94.5313327
  77.5195698  73.4655331  94.6169527  90.2531939  79.7967497  99.5418242
  91.1223099  79.9708150  99.1804877  89.7738691  80.6161914  99.4193972
  86.2482158  66.9926694  79.7949998  86.2360827  67.9368534  79.9518269
  87.1405579  66.8096840  79.5009459  84.4218120  86.9164598  91.2207676
  85.3245366  86.9488209  91.5374171  84.1955490  85.9865049  91.2354012
  86.1771722  85.6695585  87.8817755  85.2267353  85.6697446  87.7682127
  86.4804208  84.9228319  87.3653789  90.0634277  63.5869471  84.0495935
  89.2966673  63.0327958  84.1952617  90.4744982  63.6591340  84.9110086
  82.0676038  69.8754267  98.1401116  82.9307500  69.5191072  98.3504441
  81.4941449  69.5368162  98.8276520 101.9124415  91.5056123  88.9463517
 102.5502825  91.3862871  88.2426857 101.7945258  92.4536967  89.0051469
  98.7214121  91.4583551  88.8825042  98.3832633  91.3424616  87.9945577
  99.5903890  91.0574716  88.8626048  94.5800937  93.3119028  84.8721933
  94.0165802  93.2208965  84.1038220  94.4653332  92.4918932  85.3524425
  99.2033904  92.6118403  94.8411247  99.1922545  92.2171201  93.9691751
  99.3654544  91.8784476  95.4345019  92.1265369  94.8070219  87.7106153
  92.9186661  94.4661044  87.2952452  92.3662019  94.9165194  88.6308306
 100.1600496  96.9789995  80.1836398  99.5088476  97.5644076  79.7970411
 100.9544859  97.5096190  80.2431435  94.0856123  94.0679133  80.5823532
  94.8586999  93.5208120  80.4436408  94.4381522  94.9323382  80.7937993
  95.9241165  95.3955515  93.7890431  95.6331031  96.3001146  93.6737098
  96.5598150  95.4372042  94.5034501  96.8497372  92.7732363  90.3791791
  97.4460945  92.5488386  89.6648754  96.9072344  92.0317109  90.9817239
  96.4222401  90.2271799  78.2141982  96.6747921  89.7053320  77.4525445
  95.4846960  90.0637944  78.3168665 101.4665684  89.2307577  86.0216725
 102.2528773  88.8127000  85.6707142 101.7304388  90.1353669  86.1898373
 101.6375761  94.6680427  80.7205382 101.0021594  94.7415054  81.4326287
 101.3073167  95.2574026  80.0424461 106.8674111  89.1682810  86.9249704
 107.5999283  88.5982027  87.1587533 106.1113466  88.7804411  87.3656209
  96.1418689  92.1299905  80.4166357  96.0254948  91.4544808  81.0847441
  96.2520949  91.6432279  79.5998510  98.4850230  91.5910052  84.1213046
  98.1208438  91.0640673  84.8325968  99.3417346  91.2008521  83.9479531
 104.3899531  82.8804384  91.3844312 104.0582856  83.7499795  91.1605527
 103.7945144  82.5640668  92.0638343  98.1255717  86.6199951  79.1174395
  98.2930120  87.4880188  79.4844866  97.9352886  86.7827233  78.1935684
 100.8831051  95.0816930  90.7840225 100.5831774  95.9841969  90.6756032
 100.5382110  94.8149114  91.6361378  94.3343532  91.5330727  86.8176929
  93.4094029  91.4006941  87.0254621  94.5827945  92.3124946  87.3146872
 104.2828194  87.5999471  88.4637662 103.3745072  87.5314879  88.1696423
 104.2315790  88.0771415  89.2919488  98.1044938  89.0757609  80.1021061
  97.9844563  89.5214660  80.9406542  97.4097527  89.4242927  79.5434600
  91.6952343  91.1764001  87.6520718  91.8244724  91.4298480  88.5660130
  91.0149794  91.7691709  87.3325373  95.8651830 101.8461251  83.7511193
  95.7875860 102.7969076  83.8299673  95.2613474 101.5007123  84.4086119
  98.3569060  89.0189116  96.4072560  97.5802394  89.5783036  96.3975424
  98.9959623  89.5045899  96.9287430 106.1489841  85.8015909  90.2415536
 105.5064221  86.0948442  89.5955331 105.6444769  85.6868829  91.0468733
 103.8030004  89.5479082  80.9301395 104.7147861  89.7806469  80.7549093
 103.2939651  90.1316126  80.3676474  96.6115432  91.8274569  95.9690527
  97.3530117  92.3659613  95.6925350  95.9052418  92.4540858  96.1262078
 102.0870772  93.9703710  94.5662688 102.4954128  93.5286120  93.8217320
 101.3648034  93.3956337  94.8196881  98.4401842  88.9076317  91.9396245
  99.2863037  89.3315730  92.0830894  98.3800480  88.2509941  92.6334808
 102.4099587  94.5304901  88.3214977 101.7808449  94.6950615  87.6191045
 102.0225249  94.9446510  89.0925941 106.2888819  95.4659338  85.6759341
 105.6039857  95.8458240  85.1256374 106.3732668  96.0754665  86.4091288
 101.5901287  86.5680685  93.5977419 101.3462219  87.3222746  93.0611694
 101.8661218  86.9466033  94.4324666 103.5439750  93.1119297  92.2754684
 103.7556645  93.7551057  91.5989065 103.4969498  92.2781614  91.8076614
 101.1465979  85.7237118  89.1791256 100.2850458  86.0218372  89.4707994
 101.1728414  85.9407517  88.2472289  97.9627549  94.2679309  85.5865062
  98.4265894  94.5467012  84.7969684  97.6984347  93.3662753  85.4038153
  94.8551630  93.8150790  88.5244825  95.4252987  94.2438059  87.8862310
  95.4459742  93.5333375  89.2229011  96.8996435  90.3902461  82.3954627
  97.6020478  90.8423505  82.8628553  96.5677063  89.7486280  83.0234520
  95.3476796  88.9814218  96.7705837  94.7175457  89.6630499  97.0041233
  95.2412884  88.8697299  95.8258975  90.6421769  88.6486014  87.6971761
  89.8520823  88.9043542  87.2211871  91.1333016  89.4634352  87.8023801
 104.6585578  95.9891253  90.4477042 105.4803022  95.5871440  90.1659723
 104.6547981  95.8859487  91.3993157  92.5936514  89.0130593  84.6555237
  91.7967677  89.1249287  85.1738733  92.3662106  89.3517245  83.7896128
  98.4242182  95.5375296  92.6037752  98.4886614  95.9995703  93.4395924
  97.7153106  94.9072661  92.7320062  88.9259472  88.9016504  90.1286751
  89.1767510  89.7863514  90.3944327  89.4619020  88.7221106  89.3561843
 112.7491571  92.3330001  86.7962013 111.9955280  91.7637399  86.6406017
 112.8839112  92.2992666  87.7432648  98.1390199  97.2043404  82.4716732
  98.0035874  98.0494939  82.9001580  98.6800012  97.4062681  81.7082666
  94.6257539  83.2834984  99.1331088  94.2324484  82.7301182  99.8078732
  95.4423679  83.5945562  99.5237605  91.5919597  94.7218842  83.0444657
  92.1044117  95.5162092  83.1950222  92.2442310  94.0245132  82.9778259
  93.4014481  97.8384598  85.1267411  93.5781110  98.7602563  84.9388395
  94.1971315  97.5243017  85.5561790  97.5425500  84.6992863  96.7251344
  98.2835213  85.3000016  96.6455807  97.7743423  83.9570500  96.1669387
  92.6866838  89.8849230  95.0029574  92.5720353  88.9834487  95.3036673
  91.8311356  90.1312927  94.6514390  99.7658676  97.8266970  96.6017074
  99.3222530  97.0403349  96.2837979 100.4275889  98.0146121  95.9360965
  94.5245797  99.3562772  91.1277753  95.0753222  99.2279835  90.3554747
  93.6857273  99.6557661  90.7772646 101.8639914  98.1069770  94.6298476
 101.8458389  98.9278651  94.1378745 102.7859834  97.9823845  94.8548617
  98.3212968  95.6213900  95.4721984  98.8541305  94.8602188  95.2421292
  97.7927049  95.3287551  96.2146139 101.4882663  80.7273966  91.0015626
 101.1446932  81.6175607  90.9254736 101.8561625  80.5375623  90.1385211
  89.5568513  93.0507496  83.8204228  90.3943735  93.4604504  83.6037936
  89.7346781  92.1106938  83.7904422 101.4532946  90.7182577  79.5088061
 100.9379569  91.4887181  79.7476448 101.1810254  90.0447713  80.1321122
  99.0380057  85.5632277  84.5673299  98.1821653  85.1739128  84.3878938
  99.4507008  85.6424238  83.7073085 100.5679203  83.0978621  88.9664859
 100.0643999  83.0608756  88.1532664 100.8609810  84.0071363  89.0261516
  96.8122089  83.1817350  87.9731041  97.6775086  82.9860159  87.6136930
  96.8799598  82.9527702  88.9000398 106.4267220  93.4714931  81.4441234
 105.6496662  93.1326091  80.9996396 107.1058701  93.4767554  80.7696199
 101.2419249  88.5909669  81.3347842 100.9369384  88.9055818  82.1857985
 102.1949691  88.6691089  81.3775175  99.6865681  94.7499892  82.9840796
  99.1587042  94.0152652  82.6714034  99.1853183  95.5274568  82.7380764
 104.6658527  92.9448913  88.1007842 104.0082201  93.6348174  88.1887971
 105.4698926  93.3345344  88.4441829  94.4184408  85.4119558  85.3447408
  94.9928160  85.1894740  84.6120601  95.0055391  85.4808253  86.0976009
 103.4763985  91.2993285  86.1511784 103.9895867  91.9323277  86.6533494
 104.1265209  90.6994481  85.7855144  94.7453995  87.4424019  79.3643293
  93.9091308  87.7798706  79.6852568  94.6058765  87.3072999  78.4270430
  96.7207076  82.2860807  84.0722477  96.0671488  81.9709824  83.4479092
  96.6787550  81.6636548  84.7982300  97.8318281  92.5680102  75.9875769
  96.9245343  92.3369356  76.1866918  98.3289313  91.7717722  76.1749751
 100.7386360 101.2777610  78.9072455 100.0648058 101.5809306  79.5157413
 101.1252182 102.0806690  78.5577912  99.9544816  88.7742741  88.3970125
  99.0367378  88.9957688  88.2391813 100.3704960  88.8489051  87.5381832
 100.7379864  90.1734156  83.5272805 101.4851683  90.6855554  83.2179927
 101.0071454  89.8518209  84.3877198  99.0106514  92.6692697  80.5099759
  98.1017733  92.3851730  80.6072229  99.0401598  93.0891776  79.6503066
 104.2425782  96.2799287  84.2790927 103.7888109  95.4390197  84.3356117
 103.6119748  96.9160685  84.6165707 103.1858701  87.2091273  85.5091594
 102.4481458  86.6968659  85.8401837 103.4385475  86.7691654  84.6974871
 102.6858721  98.1175783  85.2140745 102.9781695  98.6780840  84.4953111
 103.1957341  98.4104344  85.9693904 103.2870329  79.9867525  86.1033363
 103.5929205  79.1264888  85.8159279 104.0122933  80.5785145  85.9032357
  89.5794685  90.3898211  84.4914961  89.3819084  89.7967572  83.7666028
  89.0241349  90.0850422  85.2090900  97.5591408  90.2821318  86.6109555
  97.6140018  89.3295154  86.5352031  96.7482610  90.4380757  87.0950853
  98.7082602  94.2101441  77.8487838  98.2702032  93.4937300  77.3893475
  99.4493043  94.4377556  77.2872929  95.4983768  88.8998378  84.3699933
  94.6851634  89.1992548  84.7765126  95.9942762  88.5054066  85.0874416
  97.6492346  98.8956134  86.3034198  97.6068525  99.1216981  85.3742730
  98.5655045  98.6619509  86.4519999 101.0957980  89.3640202  93.2014827
 101.4507368  89.5911675  94.0609293 101.7430111  89.6958579  92.5792083
 106.8255717  92.4858638  83.9064156 106.6873615  92.6760234  82.9785346
 106.4691936  93.2478021  84.3632207  94.9897843  86.4716733  89.9861168
  95.6297222  86.3305492  89.2884132  94.1575373  86.1851246  89.6099770
 106.8525096  94.5535165  88.9175428 107.2861603  94.4610454  89.7658482
 107.5656677  94.5292665  88.2795444  95.7658147  95.7719163  86.0996161
  96.5598745  95.2769484  85.8978736  95.0549839  95.2437027  85.7363866
 100.5852991  98.1537259  90.4508528 100.6390014  98.7228195  91.2186244
  99.7167773  98.3239144  90.0862566  92.0740910  89.9162245  82.1755914
  91.1438498  89.8546701  82.3925876  92.1698382  89.3938198  81.3792555
  91.9926459  86.4417058  84.7634155  92.2533277  87.3562391  84.6543316
  92.8143632  85.9741501  84.9130768  93.4651385  87.8554815  91.9332980
  94.1374438  87.6472177  91.2845629  92.6381171  87.6576901  91.4938212
 107.7140646  94.5958866  91.4508313 107.9076536  95.5004676  91.6967588
 107.6141264  94.1366285  92.2846898  99.3676957  84.4816756  93.9498641
  98.7204872  85.1806706  93.8563117 100.1377972  84.9152900  94.3174889
 102.7755755  94.7465608  97.0249194 102.6241261  94.5176160  96.1079278
 102.7660434  95.7036210  97.0380539  99.5441091  92.3197521  92.0095460
 100.4733151  92.4708681  91.8364428  99.1232121  92.4081542  91.1544107
  98.3429423  96.3448185  89.7793998  98.2040509  95.9766970  90.6519936
  97.5544019  96.8595825  89.6077956  98.9377575 101.4457282  81.1219534
  99.1129330 100.9745325  81.9365157  98.2510363 102.0723048  81.3500795
  99.8934638  95.7229788  87.1682836  99.5584471  95.6830558  88.0640486
  99.3938584  95.0574504  86.6953246  93.8678882  91.1297418  92.6935417
  93.7298680  90.3977657  93.2946956  94.7783805  91.0406318  92.4119605
 102.8293830  93.0685823  77.4419895 102.2123000  92.3432651  77.3452948
 102.3610318  93.8295183  77.0986970  96.4961183  90.8417378  92.1819097
  97.2060801  90.2010570  92.1405715  96.4530491  91.0930272  93.1045277
 104.4847961  97.7784731  95.1025676 104.4260507  97.0943951  94.4356259
 104.8867480  98.5203721  94.6506302  95.2090117  87.8282595  94.0014736
  94.6727474  87.3773334  94.6536332  94.6206825  87.9628504  93.2585200
  93.5038660 104.5946645  87.8959395  93.7435258 105.2265169  88.5738413
  92.6607857 104.2434685  88.1824754  94.6192376  87.2871247  76.5641200
  93.7421842  87.1660048  76.2003446  95.0950129  86.4957325  76.3120088
 104.4865369  95.7424315  93.3339655 103.5992147  95.4050237  93.4566054
 105.0563920  95.0107346  93.5708421  86.1394516  92.0748407  86.6582707
  86.8265556  91.7610137  86.0703722  85.9842644  92.9789771  86.3849958
  90.9429238  86.9638603  91.0867730  90.8587427  86.3564273  90.3518140
  90.1211944  87.4547621  91.0877227  98.0166522 100.4025767  90.3000899
  97.9436693 101.2080739  90.8120203  97.5743915 100.6017733  89.4748920
  97.8056302  99.6397537  83.8103720  97.0223823 100.1819217  83.9041945
  98.5049047 100.1571517  84.2097961 101.1152952  85.4492167  86.4537926
 101.6121651  84.6962129  86.1338996 100.3439933  85.4856483  85.8881135
 108.9682709  91.1532532  88.0956217 108.9572585  92.0357248  87.7250150
 108.1000089  90.8004083  87.9010754 100.4765205 100.3012601  92.4559057
 101.1893178 100.9360066  92.3834959  99.9855234 100.3976467  91.6399059
 102.1982732  94.2063854  84.0276349 101.2639011  94.3265316  83.8581053
 102.3759401  93.3036321  83.7636359  97.6987920  87.5909550  86.1809610
  97.3285708  87.0380590  86.8690516  98.1947013  86.9867683  85.6284610
 105.5855284  90.0481173  84.5626383 106.0515736  90.8809165  84.4886686
 106.0362784  89.5826155  85.2671642  95.5277119  98.0507045  93.2764628
  96.2286578  98.6843528  93.4294022  95.0572234  98.3921776  92.5160267
 103.6531515  96.3924994  81.5612535 103.9291359  96.2781589  82.4706409
 102.7836014  95.9942479  81.5224708 103.5571946  82.4161760  88.6017284
 102.6435026  82.6465987  88.7699491 103.9865048  82.5000204  89.4531317
 103.3278405  90.6051652  91.1017178 102.6749855  90.8527560  90.4469631
 103.7058785  89.7915790  90.7679656 100.2885579 100.6411345  85.2045349
 100.4707973  99.8233001  85.6673101 101.1118565 100.8579038  84.7670239
 100.6227744  99.5679530  82.4660397 101.1515511  99.0571985  81.8530559
 100.8855964  99.2522061  83.3305930  99.3765978  91.3471463  97.5883216
  98.7006615  91.2465592  98.2585591 100.1993612  91.1910677  98.0519213
  91.1244837  97.5843400  90.2095731  91.7098274  96.8387088  90.3423635
  90.9269676  97.8947356  91.0932395  93.9783492 100.6194647  85.2258173
  93.3093868 101.1040775  84.7422213  93.8396362 100.8663868  86.1401552
  85.7162492  90.1549000  88.9300174  85.7546591  89.6212591  89.7237292
  85.2102785  89.6284205  88.3111151  98.1188761 102.6538391  91.8240832
  98.6707069 102.8170012  92.5889917  98.4594954 103.2442828  91.1520856
  93.0953254  85.0013540  92.4262716  93.1594581  85.8628371  92.0140114
  93.0320374  84.3887542  91.6935075  92.5705527  87.0736673  96.0735750
  93.1977565  86.6913750  96.6873275  91.7133445  86.8550875  96.4391443
  89.3471069  88.8813102  82.0054105  89.6424510  87.9723780  81.9521159
  88.4459105  88.8600842  81.6835108 101.2557148 100.6020366  88.8104514
 101.1308288  99.8010106  88.3015459 101.9136239 101.0966559  88.3218484
  92.8765316  86.9569099  87.9881654  92.1551902  87.5705066  87.8489127
  93.6658572  87.4926863  87.9098300 103.3192057  98.4029386  90.4384064
 102.3722392  98.2834737  90.3662390 103.6674830  97.5151884  90.5210325
  95.6791630  84.2923525  94.2622306  96.2026032  84.5385822  95.0248615
  95.4603963  85.1243560  93.8425443  91.0758911  86.5627200  82.1293430
  90.7471617  85.6824579  81.9468536  91.4298282  86.5074868  83.0169820
 100.3238490  98.1982102  86.6388416 100.1763452  97.2698810  86.8195986
 101.1491983  98.2202193  86.1545491  94.1900734  86.8500170  82.4968908
  94.5296807  87.3786091  81.7747517  94.6372855  87.1880576  83.2727475
 103.9272612  99.0210661  87.7253289 104.8519159  98.8153523  87.5877740
 103.7587915  98.7727062  88.6342630  96.8844175  85.2337220  91.9471976
  96.5440995  84.4345033  92.3492656  96.1783181  85.5338931  91.3748809
  97.5360647  82.3186533  90.3999299  98.3586716  81.8447011  90.2778190
  97.7798710  83.0977016  90.8997986  96.1768881  85.3474791  80.6962201
  96.8977244  85.7256044  80.1925918  95.5534185  86.0663668  80.7997179
 100.3200004  86.0519940  81.6320533 100.5363619  86.9344578  81.3309361
  99.8394071  85.6606153  80.9026175  95.0599226  89.0105653  88.2091278
  94.9143806  89.3245956  89.1015559  94.5824429  89.6290554  87.6562176
  96.9195608  86.0008201  88.2572167  96.9057177  85.1049295  87.9204465
  97.6368037  86.0078865  88.8910453  98.7721739  86.4345541  90.3025295
  98.5139517  87.3562612  90.3009625  98.2406779  86.0375976  90.9925759
 103.7167928  99.5396329  83.0815380 103.8904805  98.9742751  82.3289233
 104.2096819 100.3397223  82.8994870  89.5344888  91.5510998  91.1478939
  88.9898356  92.3270806  91.2799213  90.4124238  91.8981802  90.9898060
  96.3232504  84.8822582  83.5259738  96.4448416  83.9539228  83.7250625
  96.0334547  84.8961268  82.6138053  99.1923695  82.5677492  86.6626457
  99.2145392  82.6316825  85.7078437  99.6091754  81.7282001  86.8566964
 109.5707319  92.3032752  84.7005680 110.0138465  91.5540077  84.3024803
 108.6933829  92.2942888  84.3179412 104.7043100  98.8563093  80.1812278
 105.3994005  99.4769786  80.3999593 105.0466251  98.0058444  80.4564656
  90.3210910  90.6780894  94.0409096  89.5792646  90.8263529  94.6273726
  90.0003654  90.9389160  93.1775845 106.6034523  96.3062799  81.7099609
 107.1285848  96.6450071  80.9848929 106.5156876  95.3709814  81.5262744
  98.2654572 100.2196872  93.8389486  98.5741699  99.9746019  94.7112185
  99.0630054 100.4243511  93.3508356  98.2875184 102.3734782  86.0694862
  97.8480175 101.8811161  86.7627719  99.0383301 101.8307749  85.8286938
  90.7667523  98.5646323  86.0719491  91.5925543  98.2650095  85.6918134
  90.4161575  97.7953945  86.5209279  95.7349056  97.9172791  88.1417164
  95.1129066  97.2543496  87.8419392  96.4053923  97.9433923  87.4590812
  88.9676128  96.4832649  87.0308424  88.1308037  96.0554824  86.8492425
  88.9399774  96.6765092  87.9679215  95.8073584  86.3954579  97.7349670
  95.8561739  87.2716702  97.3527440  96.3496098  85.8531972  97.1621313
 106.4126305  93.7888169  94.3283536 106.4624310  93.6238176  95.2699059
 106.3040228  92.9215428  93.9381417  95.2962563  96.4676714  81.6175625
  95.4450684  97.1512179  80.9642297  96.1029007  96.4481804  82.1325080
 103.7030067  89.7719097  95.6442842 104.6039930  89.6325561  95.3526840
 103.7778042  89.9373551  96.5841020  98.0372872  87.1485951  94.4896029
  97.1676182  87.4419517  94.2178617  98.2732353  87.7326396  95.2103292
 107.9144501  96.2085110  94.5725557 107.6229310  96.5715091  95.4089018
 107.3016633  95.4952118  94.3938889 109.1140184  93.7737990  87.0928128
 109.9487075  94.2127794  87.2565688 109.2499313  93.2976643  86.2736373
 106.1631690  91.3317725  93.0405615 106.6385811  91.5245371  92.2324467
 105.2397255  91.3876911  92.7948999  93.0515196  92.4941892  82.6236694
  92.8061238  91.5904222  82.8216904  93.2211111  92.4959042  81.6816172
 100.7411906  83.3665568  92.0061449 101.2593850  84.1026595  91.6807938
 100.3867039  83.6729562  92.8408208  92.3210844  88.2270249  80.1222855
  91.6280089  88.3014604  79.4662891  92.0762596  87.4630593  80.6444372
 100.9924500  79.7865851  87.5262346 101.2726254  79.1189040  88.1522772
 101.7775107  79.9794946  87.0137010  98.7957969  98.9624845  79.0887372
  98.2231936  99.5815032  78.6357844  99.3690762  99.5124206  79.6227294
 104.8633359  88.2083485  91.2733921 105.8150782  88.3081582  91.2946145
 104.6936809  87.4161753  91.7832005 102.8847738  85.2939068  91.4593322
 102.2897670  85.5744081  90.7639810 102.5997435  85.7832969  92.2310063
 102.0155229  99.2461995  80.2195954 102.9485902  99.1807557  80.4228830
 101.9278441 100.0818262  79.7610487 104.6443245  98.5627865  77.1799902
 104.5656877  98.2287729  78.0735660 105.4652912  99.0549633  77.1791374
 107.3421436  91.4289604  90.3876221 107.3097757  90.4905605  90.5735904
 107.9522060  91.5073641  89.6542045  99.1804767  90.2985657  76.4303425
 100.1263872  90.1691866  76.4991843  98.8019012  89.5600319  76.9072853
 107.4915925  88.2200648  90.4334504 106.9754974  87.4359105  90.2464433
 108.3755873  87.8919365  90.5981023 105.1526652  81.9641663  86.3930316
 104.9551473  81.6556752  87.2773648 105.7626357  82.6903302  86.5228246
 113.1597986  92.4905611  89.5282257 113.8901375  92.2290899  90.0889961
 112.5504932  91.7534333  89.5684325 111.2413283  90.6313474  90.1256709
 110.5146447  90.4969439  89.5173200 110.8260570  90.9390303  90.9313427
  99.0643460  94.3503404  97.8904082  99.9846469  94.5282003  98.0844128
  99.0293043  93.4059449  97.7383781  97.3647684  88.2235634  76.3658310
  96.4579140  87.9268747  76.4421023  97.6423665  87.9265452  75.4992596
  88.2825625  89.5441997  86.8157356  87.9628409  88.6907305  86.5231730
  87.7359053  89.7590575  87.5715324  92.0605532  92.2604438  90.5326863
  92.2791542  93.1921546  90.5514897  92.4731306  91.9012413  91.3181667
  98.9809750  82.7672524  82.5202551  98.1710479  82.4219609  82.8957797
  99.6694167  82.4580067  83.1090163 100.9100298  81.8450570  84.1426848
 101.4631337  82.2646024  84.8016871 101.1470385  80.9186318  84.1849804
  96.9333398  87.8337644  99.9229612  96.8330125  88.7832001  99.8541703
  96.7154940  87.5055883  99.0505682  96.1346469  85.0822569  76.5070289
  96.9965633  85.4077467  76.7666106  96.3196813  84.2954065  75.9943355
  88.1513885  93.1644909  88.7850478  87.4577356  92.7498862  88.2720432
  88.8986876  93.2065445  88.1883897 104.2879106  83.9551096  83.6505512
 103.7077775  84.6135900  83.2683564 104.0215038  83.1328440  83.2392929
 102.7382672  83.3556153  85.8526832 103.2382450  83.4672688  85.0441151
 103.3818280  83.0517206  86.4927641  96.7964668  91.2634783  98.7394673
  96.3131749  92.0635143  98.9458562  96.8825607  91.2742728  97.7862117
  90.0650627  93.0963163  86.6616493  90.0421315  93.1950850  85.7098376
  90.3751264  93.9428313  86.9833659  92.7238005  95.1539318  90.7763107
  93.6781259  95.1223260  90.7093039  92.5250529  94.6929941  91.5913333
  93.3137387  93.7240434  93.3433905  94.1330276  94.2184512  93.3668742
  93.5874195  92.8072402  93.3151472 103.0703984  86.1151186  82.7061860
 102.1829839  86.4000837  82.4882055 103.4857973  85.9544949  81.8589137
 106.4218520  86.1397707  86.4216199 107.1978910  86.6294159  86.6940816
 105.6966654  86.5655761  86.8788069 108.8591078  86.8525326  87.4790140
 109.4535569  86.6121062  86.7683448 108.9317662  86.1332457  88.1063676
  91.0788234 100.6958937  87.7933305  90.9442702  99.9359338  87.2271303
  90.6620296 101.4199837  87.3262094 102.2147197  95.8795861  76.8009880
 102.9183047  96.0845863  77.4167536 101.4909846  96.4472622  77.0658964
 103.0445007  91.6305722  82.9212150 102.9880209  92.0874273  82.0819783
 103.5973350  90.8696406  82.7434993 106.8549813  87.4195454  83.7462270
 106.5986747  87.0192089  84.5770478 106.2302681  88.1339248  83.6212409
 111.1662151  90.1591527  86.2533561 110.6061709  90.2284716  87.0265123
 110.5605654  89.9832512  85.5333058  94.2357360 101.5928254  88.0051748
  94.1189744 102.5373687  87.9030438  93.4149806 101.2901816  88.3937547
 104.1233894  96.3178390  78.8508340 104.9579498  95.8859588  78.6685815
 103.9618237  96.1460403  79.7785235 103.7779787  92.8210503  80.2164680
 103.7228590  92.6554775  79.2753124 103.1525842  93.5286536  80.3726869
  88.5672302  88.0578567  94.0426102  89.2131165  87.5477521  94.5313327
  88.3589453  88.7947249  94.6169527  97.0875912  82.3218612  79.7949998
  97.0754582  83.2660452  79.9518269  97.9799334  82.1388758  79.5009459
  95.2611874 102.2456516  91.2207676  96.1639121 102.2780126  91.5374171
  95.0349244 101.3156967  91.2354012  97.0165476 100.9987503  87.8817755
  96.0661107 100.9989364  87.7682127  97.3197962 100.2520237  87.3653789
 100.9028032  78.9161389  84.0495935 100.1360427  78.3619875  84.1952617
 101.3138737  78.9883257  84.9110086  92.9069793  85.2046185  98.1401116
  93.7701254  84.8482989  98.3504441  92.3335203  84.8660079  98.8276520
 105.4194692 108.6410945  84.8721933 104.8559557 108.5500882  84.1038220
 105.3047087 107.8210850  85.3524425 102.9659123 110.1362137  87.7106153
 103.7580415 109.7952962  87.2952452 103.2055774 110.2457112  88.6308306
 104.9249877 109.3971050  80.5823532 105.6980753 108.8500037  80.4436408
 105.2775276 110.2615300  80.7937993 107.2616155 105.5563716  78.2141982
 107.5141676 105.0345238  77.4525445 106.3240714 105.3929862  78.3168665
 112.3059438 104.5599495  86.0216725 113.0922527 104.1418918  85.6707142
 112.5698142 105.4645587  86.1898373 106.9812444 107.4591822  80.4166357
 106.8648702 106.7836726  81.0847441 107.0914704 106.9724196  79.5998510
 109.3243985 106.9201969  84.1213046 108.9602192 106.3932590  84.8325968
 110.1811101 106.5300438  83.9479531 108.9649472 101.9491869  79.1174395
 109.1323874 102.8172106  79.4844866 108.7746641 102.1119151  78.1935684
 105.1737287 106.8622645  86.8176929 104.2487783 106.7298859  87.0254621
 105.4221700 107.6416864  87.3146872 108.9438693 104.4049527  80.1021061
 108.8238318 104.8506577  80.9406542 108.2491281 104.7534844  79.5434600
 102.5346098 106.5055918  87.6520718 102.6638479 106.7590397  88.5660130
 101.8543549 107.0983626  87.3325373 114.6423759 104.8771000  80.9301395
 115.5541615 105.1098387  80.7549093 114.1333406 105.4608044  80.3676474
 111.9859734 101.0529036  89.1791256 111.1244213 101.3510289  89.4707994
 112.0122168 101.2699435  88.2472289 108.8021303 109.5971226  85.5865062
 109.2659649 109.8758929  84.7969684 108.5378101 108.6954671  85.4038153
 107.7390189 105.7194379  82.3954627 108.4414232 106.1715422  82.8628553
 107.4070818 105.0778198  83.0234520 101.4815523 103.9777931  87.6971761
 100.6914577 104.2335460  87.2211871 101.9726770 104.7926269  87.8023801
 103.4330268 104.3422511  84.6555237 102.6361432 104.4541205  85.1738733
 103.2055861 104.6809163  83.7896128  99.7653226 104.2308422  90.1286751
 100.0161265 105.1155432  90.3944327 100.3012774 104.0513023  89.3561843
 102.4313351 110.0510759  83.0444657 102.9437872 110.8454010  83.1950222
 103.0836064 109.3537050  82.9778259 104.2408236 113.1676516  85.1267411
 104.4174864 114.0894480  84.9388395 105.0365069 112.8534935  85.5561790
 112.3276417  96.0565883  91.0015626 111.9840687  96.9467525  90.9254736
 112.6955380  95.8667541  90.1385211 100.3962268 108.3799414  83.8204228
 101.2337490 108.7896422  83.6037936 100.5740536 107.4398856  83.7904422
 112.2926700 106.0474494  79.5088061 111.7773323 106.8179099  79.7476448
 112.0204009 105.3739630  80.1321122 109.8773811 100.8924195  84.5673299
 109.0215407 100.5031046  84.3878938 110.2900763 100.9716156  83.7073085
 111.4072958  98.4270538  88.9664859 110.9037753  98.3900674  88.1532664
 111.7003565  99.3363281  89.0261516 107.6515844  98.5109268  87.9731041
 108.5168840  98.3152077  87.6136930 107.7193353  98.2819620  88.9000398
 112.0813003 103.9201586  81.3347842 111.7763139 104.2347736  82.1857985
 113.0343445 103.9983006  81.3775175 110.5259435 110.0791810  82.9840796
 109.9980797 109.3444569  82.6714034 110.0246938 110.8566486  82.7380764
 105.2578163 100.7411476  85.3447408 105.8321915 100.5186658  84.6120601
 105.8449145 100.8100171  86.0976009 105.5847750 102.7715937  79.3643293
 104.7485062 103.1090624  79.6852568 105.4452519 102.6364917  78.4270430
 107.5600830  97.6152725  84.0722477 106.9065243  97.3001742  83.4479092
 107.5181305  96.9928465  84.7982300 108.6712035 107.8972020  75.9875769
 107.7639097 107.6661273  76.1866918 109.1683067 107.1009639  76.1749751
 110.7938571 104.1034658  88.3970125 109.8761132 104.3249605  88.2391813
 111.2098714 104.1780969  87.5381832 111.5773619 105.5026074  83.5272805
 112.3245437 106.0147471  83.2179927 111.8465208 105.1810127  84.3877198
 109.8500269 107.9984615  80.5099759 108.9411488 107.7143648  80.6072229
 109.8795353 108.4183693  79.6503066 114.0252456 102.5383190  85.5091594
 113.2875212 102.0260577  85.8401837 114.2779229 102.0983572  84.6974871
 114.1264083  95.3159442  86.1033363 114.4322960  94.4556806  85.8159279
 114.8516688  95.9077063  85.9032357 100.4188439 105.7190129  84.4914961
 100.2212839 105.1259490  83.7666028  99.8635103 105.4142339  85.2090900
 108.3985163 105.6113235  86.6109555 108.4533773 104.6587072  86.5352031
 107.5876365 105.7672675  87.0950853 109.5476357 109.5393359  77.8487838
 109.1095786 108.8229217  77.3893475 110.2886797 109.7669473  77.2872929
 106.3377523 104.2290295  84.3699933 105.5245388 104.5284466  84.7765126
 106.8336517 103.8345984  85.0874416 105.8291597 101.8008651  89.9861168
 106.4690977 101.6597410  89.2884132 104.9969128 101.5143164  89.6099770
 106.6051901 111.1011081  86.0996161 107.3992500 110.6061401  85.8978736
 105.8943594 110.5728944  85.7363866 102.9134665 105.2454163  82.1755914
 101.9832253 105.1838618  82.3925876 103.0092137 104.7230116  81.3792555
 102.8320214 101.7708976  84.7634155 103.0927031 102.6854309  84.6543316
 103.6537386 101.3033418  84.9130768 104.3045139 103.1846733  91.9332980
 104.9768193 102.9764095  91.2845629 103.4774926 102.9868819  91.4938212
 113.6687584 108.3977740  77.4419895 113.0516755 107.6724568  77.3452948
 113.2004073 109.1587100  77.0986970 105.4586130 102.6163164  76.5641200
 104.5815596 102.4951965  76.2003446 105.9343883 101.8249243  76.3120088
  96.9788270 107.4040324  86.6582707  97.6659310 107.0902054  86.0703722
  96.8236399 108.3081689  86.3849958 101.7822992 102.2930521  91.0867730
 101.6981181 101.6856190  90.3518140 100.9605699 102.7839539  91.0877227
 111.9546706 100.7784084  86.4537926 112.4515406 100.0254047  86.1338996
 111.1833688 100.8148401  85.8881135 113.0376487 109.5355772  84.0276349
 112.1032766 109.6557234  83.8581053 113.2153155 108.6328238  83.7636359
 108.5381675 102.9201467  86.1809610 108.1679462 102.3672508  86.8690516
 109.0340767 102.3159601  85.6284610 116.4249038 105.3773091  84.5626383
 116.8909490 106.2101082  84.4886686 116.8756539 104.9118072  85.2671642
 114.3965701  97.7453678  88.6017284 113.4828781  97.9757905  88.7699491
 114.8258802  97.8292122  89.4531317  96.5556246 105.4840918  88.9300174
  96.5940346 104.9504508  89.7237292  96.0496539 104.9576123  88.3111151
 103.9347009 100.3305458  92.4262716 103.9988335 101.1920289  92.0140114
 103.8714129  99.7179460  91.6935075 100.1864824 104.2105020  82.0054105
 100.4818265 103.3015698  81.9521159  99.2852860 104.1892759  81.6835108
 103.7159071 102.2861016  87.9881654 102.9945657 102.8996984  87.8489127
 104.5052327 102.8218781  87.9098300 101.9152665 101.8919117  82.1293430
 101.5865372 101.0116496  81.9468536 102.2692036 101.8366786  83.0169820
 105.0294489 102.1792087  82.4968908 105.3690561 102.7078008  81.7747517
 105.4766609 102.5172493  83.2727475 107.7237929 100.5629138  91.9471976
 107.3834750  99.7636951  92.3492656 107.0176936 100.8630849  91.3748809
 108.3754401  97.6478450  90.3999299 109.1980471  97.1738929  90.2778190
 108.6192465  98.4268934  90.8997986 107.0162636 100.6766709  80.6962201
 107.7370998 101.0547962  80.1925918 106.3927940 101.3955586  80.7997179
 111.1593759 101.3811858  81.6320533 111.3757373 102.2636496  81.3309361
 110.6787826 100.9898071  80.9026175 105.8992980 104.3397571  88.2091278
 105.7537561 104.6537874  89.1015559 105.4218184 104.9582471  87.6562176
 107.7589363 101.3300119  88.2572167 107.7450932 100.4341212  87.9204465
 108.4761791 101.3370783  88.8910453 109.6115494 101.7637459  90.3025295
 109.3533271 102.6854530  90.3009625 109.0800534 101.3667894  90.9925759
 100.3738642 106.8802915  91.1478939  99.8292110 107.6562723  91.2799213
 101.2517992 107.2273720  90.9898060 107.1626259 100.2114499  83.5259738
 107.2842170  99.2831145  83.7250625 106.8728301 100.2253185  82.6138053
 110.0317449  97.8969410  86.6626457 110.0539146  97.9608743  85.7078437
 110.4485508  97.0573918  86.8566964 101.6061278 113.8938240  86.0719491
 102.4319298 113.5942012  85.6918134 101.2555330 113.1245863  86.5209279
  99.8069883 111.8124567  87.0308424  98.9701791 111.3846741  86.8492425
  99.7793528 112.0057010  87.9679215 106.1356318 111.7968632  81.6175625
 106.2844438 112.4804096  80.9642297 106.9422761 111.7773722  82.1325080
 103.8908951 107.8233810  82.6236694 103.6454993 106.9196140  82.8216904
 104.0604865 107.8250960  81.6816172 103.1604598 103.5562167  80.1222855
 102.4673843 103.6306522  79.4662891 102.9156350 102.7922511  80.6444372
 111.8318255  95.1157768  87.5262346 112.1120009  94.4480958  88.1522772
 112.6168862  95.3086864  87.0137010 110.0198522 105.6277575  76.4303425
 110.9657627 105.4983783  76.4991843 109.6412767 104.8892237  76.9072853
 115.9920406  97.2933581  86.3930316 115.7945227  96.9848669  87.2773648
 116.6020112  98.0195220  86.5228246 108.2041439 103.5527552  76.3658310
 107.2972894 103.2560664  76.4421023 108.4817420 103.2557370  75.4992596
  99.1219379 104.8733915  86.8157356  98.8022164 104.0199223  86.5231730
  98.5752808 105.0882493  87.5715324 109.8203505  98.0964441  82.5202551
 109.0104233  97.7511526  82.8957797 110.5087922  97.7871985  83.1090163
 111.7494053  97.1742488  84.1426848 112.3025092  97.5937941  84.8016871
 111.9864139  96.2478236  84.1849804 106.9740224 100.4114487  76.5070289
 107.8359388 100.7369385  76.7666106 107.1590568  99.6245983  75.9943355
  98.9907639 108.4936826  88.7850478  98.2971111 108.0790779  88.2720432
  99.7380630 108.5357363  88.1883897 115.1272860  99.2843013  83.6505512
 114.5471529  99.9427817  83.2683564 114.8608793  98.4620358  83.2392929
 113.5776426  98.6848071  85.8526832 114.0776205  98.7964605  85.0441151
 114.2212034  98.3809124  86.4927641 100.9044382 108.4255080  86.6616493
 100.8815070 108.5242767  85.7098376 101.2145018 109.2720231  86.9833659
 113.9097738 101.4443104  82.7061860 113.0223593 101.7292754  82.4882055
 114.3251727 101.2836867  81.8589137 117.2612274 101.4689625  86.4216199
 118.0372664 101.9586077  86.6940816 116.5360408 101.8947679  86.8788069
 113.8838762 106.9597640  82.9212150 113.8273963 107.4166191  82.0819783
 114.4367104 106.1988324  82.7434993 117.6943568 102.7487371  83.7462270
 117.4380502 102.3484007  84.5770478 117.0696436 103.4631165  83.6212409
 114.6173541 108.1502421  80.2164680 114.5622345 107.9846692  79.2753124
 113.9919596 108.8578454  80.3726869  99.4066056 103.3870485  94.0426102
 100.0524920 102.8769439  94.5313327  99.1983207 104.1239167  94.6169527
 107.9269667  97.6510530  79.7949998 107.9148336  98.5952370  79.9518269
 108.8193088  97.4680675  79.5009459 111.7421786  94.2453306  84.0495935
 110.9754182  93.6911793  84.1952617 112.1532491  94.3175175  84.9110086
  44.5245350  -8.1813914  75.6070348  44.1863862  -8.2972850  74.7190883
  45.3935118  -8.5822749  75.5871354  40.3832166  -6.3278438  71.5967239
  39.8197031  -6.4188501  70.8283527  40.2684561  -7.1478534  72.0769732
  45.0065133  -7.0279063  81.5656554  44.9953774  -7.4226264  80.6937058
  45.1685773  -7.7612990  82.1590325  37.9296598  -4.8327246  74.4351460
  38.7217890  -5.1736422  74.0197759  38.1693248  -4.7232271  75.3553613
  45.9631725  -2.6607470  66.9081704  45.3119704  -2.0753390  66.5215718
  46.7576087  -2.1301275  66.9676742  39.8887352  -5.5718333  67.3068839
  40.6618228  -6.1189346  67.1681714  40.2412751  -4.7074084  67.5183300
  41.7272394  -4.2441951  80.5135738  41.4362260  -3.3396320  80.3982404
  42.3629379  -4.2025423  81.2279807  42.6528601  -6.8665102  77.1037098
  43.2492173  -7.0909080  76.3894060  42.7103573  -7.6080357  77.7062545
  47.4406990  -4.9717038  67.4450689  46.8052823  -4.8982412  68.1571593
  47.1104396  -4.3823440  66.7669768  41.9449918  -7.5097561  67.1411663
  41.8286176  -8.1852658  67.8092748  42.0552178  -7.9965187  66.3243816
  44.2881459  -8.0487414  70.8458353  43.9239666  -8.5756793  71.5571274
  45.1448575  -8.4388945  70.6724838  46.6862279  -4.5580535  77.5085532
  46.3863002  -3.6555497  77.4001339  46.3413339  -4.8248352  78.3606684
  40.1374761  -8.1066739  73.5422236  39.2125257  -8.2390524  73.7499928
  40.3859174  -7.3272519  74.0392178  41.6683059   2.2063785  70.4756499
  41.5907089   3.1571610  70.5544980  41.0644703   1.8609657  71.1331426
  42.4146661  -7.8122896  82.6935833  43.1561346  -7.2737852  82.4170657
  41.7083647  -7.1856608  82.8507385  47.8902001  -5.6693756  81.2907995
  48.2985357  -6.1111345  80.5462627  47.1679262  -6.2441128  81.5442188
  48.2130816  -5.1092565  75.0460284  47.5839678  -4.9446851  74.3436351
  47.8256478  -4.6950956  75.8171248  52.0920047  -4.1738127  72.4004647
  51.4071086  -3.7939226  71.8501681  52.1763897  -3.5642801  73.1336595
  49.3470979  -6.5278168  78.9999991  49.5587874  -5.8846408  78.3234372
  49.3000727  -7.3615852  78.5321921  43.7658777  -5.3718157  72.3110369
  44.2297123  -5.0930454  71.5214991  43.5015576  -6.2734713  72.1283459
  40.6582858  -5.8246676  75.2490132  41.2284216  -5.3959407  74.6107616
  41.2490970  -6.1064091  75.9474318  50.4616807  -3.6506213  77.1722348
  51.2834251  -4.0526026  76.8905030  50.4579210  -3.7537979  78.1238464
  44.2273410  -4.1022170  79.3283059  44.2917843  -3.6401762  80.1641230
  43.5184334  -4.7324805  79.4565369  43.9421428  -2.4354062  69.1962039
  43.8067103  -1.5902526  69.6246887  44.4831241  -2.2334784  68.4327973
  37.3950825  -4.9178624  69.7689964  37.9075346  -4.1235374  69.9195529
  38.0473538  -5.6152334  69.7023566  39.2045710  -1.8012868  71.8512717
  39.3812339  -0.8794903  71.6633701  40.0002544  -2.1154449  72.2807097
  45.5689904  -1.8130496  83.3262381  45.1253759  -2.5994117  83.0083286
  46.2307118  -1.6251345  82.6606272  40.3277026  -0.2834694  77.8523060
  40.8784451  -0.4117631  77.0800054  39.4888502   0.0160195  77.5017952
  47.6671143  -1.5327696  81.3543782  47.6489618  -0.7118815  80.8624052
  48.5891063  -1.6573620  81.5793923  44.1244197  -4.0183566  82.1967291
  44.6572533  -4.7795278  81.9666599  43.5958278  -4.3109914  82.9391445
  45.4896909  -4.8897574  69.7086103  44.9618271  -5.6244814  69.3959340
  44.9884412  -4.1122897  69.4626071  50.4689755  -6.6948553  74.8253149
  49.8113430  -6.0049292  74.9133278  51.2730155  -6.3052121  75.1687135
  43.6349510  -7.0717363  62.7121076  42.7276571  -7.3028110  62.9112225
  44.1320542  -7.8679744  62.8995057  46.5417588   1.6380144  65.6317762
  45.8679287   1.9411840  66.2402720  46.9283410   2.4409224  65.2823219
  44.8137743  -6.9704769  67.2345066  43.9048962  -7.2545736  67.3317536
  44.8432827  -6.5505690  66.3748373  50.0457010  -3.3598179  71.0036233
  49.5919338  -4.2007269  71.0601424  49.4150977  -2.7236781  71.3411014
  48.4889950  -1.5221682  71.9386052  48.7812924  -0.9616625  71.2198417
  48.9988570  -1.2293121  72.6939211  44.5113831  -5.4296025  64.5733144
  44.0733261  -6.1460166  64.1138782  45.2524272  -5.2019910  64.0118236
  43.4523575  -0.7441331  73.0279505  43.4099754  -0.5180485  72.0988037
  44.3686274  -0.9777957  73.1765306  52.6556325  -5.0862301  75.6420734
  53.0892832  -5.1787012  76.4903789  53.3687906  -5.1104800  75.0040750
  41.5689376  -3.8678302  72.8241467  42.3629974  -4.3627982  72.6224042
  40.8581068  -4.3960439  72.4609173  46.3884220  -1.4860207  77.1753835
  46.4421242  -0.9169270  77.9431551  45.5199001  -1.3158322  76.8107872
  53.5171875  -5.0438600  78.1753620  53.7107765  -4.1392790  78.4212895
  53.4172493  -5.5031181  79.0092205  48.5786983  -4.8931857  83.7494500
  48.4272490  -5.1221306  82.8324584  48.5691663  -3.9361256  83.7625846
  45.3472320  -7.3199945  78.7340767  46.2764380  -7.1688785  78.5609734
  44.9263350  -7.2315924  77.8789413  44.1460652  -3.2949280  76.5039305
  44.0071737  -3.6630496  77.3765243  43.3575248  -2.7801641  76.3323262
  44.7408804   1.8059816  67.8464841  44.9160559   1.3347859  68.6610464
  44.0541592   2.4325582  68.0746102  45.6965867  -3.9167678  73.8928142
  45.3615699  -3.9566908  74.7885792  45.1969812  -4.5822962  73.4198553
  39.6710111  -8.5100048  79.4180724  39.5329909  -9.2419809  80.0192263
  40.5815034  -8.5991147  79.1364911  48.6325058  -6.5711643  64.1665202
  48.0154229  -7.2964815  64.0698255  48.1641547  -5.8102283  63.8232276
  42.2992411  -8.7980088  78.9064403  43.0092030  -9.4386896  78.8651022
  42.2561720  -8.5467193  79.8290584  50.2879190  -1.8612735  81.8270982
  50.2291736  -2.5453515  81.1601565  50.6898708  -1.1193745  81.3751608
  39.3069889   4.9549179  74.6204701  39.5466487   5.5867703  75.2983720
  38.4639085   4.6037219  74.9070061  50.2896597  -3.8973151  80.0584962
  49.4023376  -4.2347229  80.1811361  50.8595148  -4.6290120  80.2953727
  43.8197751   0.7628301  77.0246205  43.7467922   1.5683273  77.5365510
  43.3775144   0.9620267  76.1994227  43.6087530   0.0000071  70.5349027
  42.8255052   0.5421752  70.6287251  44.3080276   0.5174051  70.9343268
  46.2796434   0.6615135  79.1804364  46.9924406   1.2962600  79.1080265
  45.7886463   0.7579001  78.3644366  48.0013961  -5.4333612  70.7521656
  47.0670240  -5.3132149  70.5826360  48.1790630  -6.3361145  70.4881665
  41.3308348  -1.5890421  80.0009935  42.0317807  -0.9553938  80.1539329
  40.8603463  -1.2475690  79.2405574  49.4562744  -3.2472471  68.2857842
  49.7322588  -3.3615877  69.1951716  48.5867242  -3.6454987  68.2470015
  46.0916808   1.0013879  71.9290655  46.2739202   0.1835535  72.3918408
  46.9149794   1.2181572  71.4915545  46.4258973  -0.0717935  69.1905704
  46.9546740  -0.5825481  68.5775866  46.6887193  -0.3875405  70.0551237
  45.1797207  -8.2926003  84.3128522  44.5037844  -8.3931873  84.9830897
  46.0024841  -8.4486789  84.7764519  36.9276066  -2.0554066  76.9341037
  37.5129503  -2.8010378  77.0668942  36.7300904  -1.7450109  77.8177701
  39.7814721   0.9797181  71.9503480  39.1125096   1.4643309  71.4667520
  39.6427591   1.2266402  72.8646858  43.9219990   3.0140925  78.5486138
  44.4738298   3.1772546  79.3135223  44.2626183   3.6045363  77.8766163
  48.7730864  -2.1597818  84.4034793  49.3170768  -1.5467859  83.9089747
  48.1917709  -1.6018239  84.9201806  47.0588377   0.9622900  75.5349820
  46.9339516   0.1612640  75.0260766  47.7167468   1.4569094  75.0463790
  49.1223285  -1.2368080  77.1629370  48.1753621  -1.3562728  77.0907697
  49.4706058  -2.1245582  77.2455632  46.1269719  -1.4415363  73.3633723
  45.9794681  -2.3698656  73.5441293  46.9523212  -1.4195273  72.8790798
  49.7303840  -0.6186805  74.4498595  50.6550388  -0.8243943  74.3123047
  49.5619144  -0.8670403  75.3587937  49.5199157  -0.1001137  69.8060687
  49.6936034  -0.6654715  69.0534539  50.0128048   0.6999758  69.6240177
  50.5074329  -0.7834373  66.9057585  51.2025234  -0.1627680  67.1244900
  50.8497479  -1.6339022  67.1809963  52.4065752  -3.3334667  68.4344916
  52.9317076  -2.9947394  67.7094236  52.3188105  -4.2687652  68.2508051
  44.0685801   0.5799406  80.5634793  44.3772927   0.3348553  81.4357492
  44.8661283   0.7846045  80.0753663  44.0906413   2.7337316  72.7940169
  43.6511403   2.2413695  73.4873026  44.8414530   2.1910284  72.5532244
  36.5698752  -1.0751143  72.7964797  37.3956772  -1.3747371  72.4163441
  36.2192804  -1.8443521  73.2454586  41.5380285  -1.7224675  74.8662471
  40.9160294  -2.3853970  74.5664699  42.2085152  -1.6963543  74.1836119
  34.7707357  -3.1564817  73.7553731  33.9339265  -3.5842642  73.5737732
  34.7431003  -2.9632373  74.6924522  52.0959658  -2.7001764  83.7396114
  51.3055202  -2.7177625  83.2000613  51.8593013  -2.1613470  84.4945150
  41.0993792  -3.1720752  68.3420931  41.2481912  -2.4885287  67.6887604
  41.9060236  -3.1915661  68.8570387  53.7175730  -3.4312356  81.2970864
  53.4260539  -3.0682375  82.1334325  53.1047862  -4.1445347  81.1184196
  38.8546425  -7.1455574  69.3482000  38.6092467  -8.0493244  69.5462210
  39.0242340  -7.1438423  68.4061478  44.5989198  -0.6772621  65.8132679
  44.0263165  -0.0582434  65.3603151  45.1721991  -0.1273259  66.3472601
  47.8186457  -0.3935471  66.9441261  48.7517131  -0.4589909  67.1474137
  47.7309670   0.4420796  66.4855794  50.4474474  -1.0769601  63.9045209
  50.3688106  -1.4109737  64.7980966  51.2684141  -0.5847833  63.9036681
  44.8674689  -5.2894062  84.6149388  45.7877698  -5.1115463  84.8089435
  44.8324272  -6.2338017  84.4629087  37.8636761  -7.3793028  77.2572169
  38.0822771  -6.4475920  77.2760203  38.2762535  -7.7385053  78.0426973
  42.5995897  -8.3762683  85.4639980  42.1162978  -7.5762323  85.6703869
  42.6856836  -8.3654738  84.5107424  35.8681856  -6.5434303  73.3861799
  35.8452544  -6.4446616  72.4343682  36.1782493  -5.6969152  73.7078965
  38.5269234  -4.4858148  77.5008414  39.4812488  -4.5174206  77.4338345
  38.3281758  -4.9467524  78.3158640  39.1168616  -5.9157032  80.0679211
  39.9361505  -5.4212954  80.0914049  39.3905424  -6.8325064  80.0396779
  36.8819463   1.0561471  74.5178612  36.7473931   0.2961872  73.9516610
  36.4651525   1.7802371  74.0507400  48.0178426  -3.7601605  63.5255187
  48.7214276  -3.5551603  64.1412842  47.2941075  -3.1924843  63.7904270
  40.0388589   1.9530788  74.7297054  39.9220973   2.8976221  74.6275744
  39.2181035   1.6504350  75.1182853  49.9265123  -3.3219076  65.5753647
  50.7610727  -3.7537878  65.3931122  49.7649466  -3.4937062  66.5030541
  49.5811015  -6.8186963  66.9409986  49.5259819  -6.9842691  65.9998430
  48.9557071  -6.1110930  67.0972176  46.8956923  -4.5138051  86.2663549
  47.7648082  -4.3397399  85.9050184  46.4163674  -3.6943634  86.1439278
  41.0643103   2.6059050  77.9452983  41.9670350   2.6382660  78.2619478
  40.8380473   1.6759501  77.9599318  42.8196705   1.3590037  74.6063061
  41.8692336   1.3591898  74.4927434  43.1229191   0.6122771  74.0899096
  58.5549398   7.1950575  75.6708824  59.1927808   7.0757322  74.9672164
  58.4370241   8.1431419  75.7296776  55.3639105   7.1478003  75.6070348
  55.0257616   7.0319068  74.7190883  56.2328873   6.7469168  75.5871354
  51.2225920   9.0013480  71.5967239  50.6590785   8.9103417  70.8283527
  51.1078315   8.1813384  72.0769732  55.8458888   8.3012855  81.5656554
  55.8347528   7.9065653  80.6937058  56.0079527   7.5678928  82.1590325
  48.7690352  10.4964671  74.4351460  49.5611644  10.1555496  74.0197759
  49.0087002  10.6059646  75.3553613  56.8025479  12.6684447  66.9081704
  56.1513459  13.2538528  66.5215718  57.5969842  13.1990642  66.9676742
  50.7281106   9.7573584  67.3068839  51.5011982   9.2102572  67.1681714
  51.0806505  10.6217834  67.5183300  52.5666149  11.0849967  80.5135738
  52.2756015  11.9895598  80.3982404  53.2023133  11.1266494  81.2279807
  53.4922356   8.4626815  77.1037098  54.0885928   8.2382838  76.3894060
  53.5497327   7.7211561  77.7062545  53.0647384   5.9166251  64.9387288
  53.3172905   5.3947772  64.1770751  52.1271943   5.7532396  65.0413972
  58.1090667   4.9202029  72.7462032  58.8953756   4.5021452  72.3952449
  58.3729371   5.8248121  72.9143680  58.2800744  10.3574879  67.4450689
  57.6446577  10.4309506  68.1571593  57.9498151  10.9468478  66.7669768
  63.5099094   4.8577262  73.6495010  64.2424266   4.2876479  73.8832840
  62.7538450   4.4698863  74.0901516  52.7843673   7.8194357  67.1411663
  52.6679931   7.1439260  67.8092748  52.8945933   7.3326730  66.3243816
  55.1275214   7.2804504  70.8458353  54.7633421   6.7535125  71.5571274
  55.9842330   6.8902973  70.6724838  61.0324514  -1.4301164  78.1089619
  60.7007839  -0.5605753  77.8850834  60.4370128  -1.7464880  78.7883649
  54.7680701   2.3094403  65.8419701  54.9355103   3.1774640  66.2090172
  54.5777870   2.4721685  64.9180990  57.5256034  10.7711382  77.5085532
  57.2256757  11.6736421  77.4001339  57.1807093  10.5043565  78.3606684
  50.9768515   7.2225179  73.5422236  50.0519012   7.0901393  73.7499928
  51.2252929   8.0019398  74.0392178  60.9253178   3.2893922  75.1882969
  60.0170055   3.2209331  74.8941730  60.8740773   3.7665867  76.0164794
  54.7469922   4.7652061  66.8266368  54.6269547   5.2109112  67.6651848
  54.0522510   5.1137379  66.2679906  48.3377326   6.8658453  74.3766025
  48.4669708   7.1192932  75.2905437  47.6574778   7.4586161  74.0570680
  52.5076814  17.5355703  70.4756499  52.4300843  18.4863528  70.5544980
  51.9038457  17.1901575  71.1331426  54.9994043   4.7083568  83.1317866
  54.2227377   5.2677488  83.1220731  55.6384606   5.1940351  83.6532736
  62.7914824   1.4910361  76.9660843  62.1489204   1.7842894  76.3200637
  62.2869753   1.3763281  77.7714039  60.4454988   5.2373534  67.6546702
  61.3572844   5.4700921  67.4794400  59.9364635   5.8210578  67.0921781
  53.2540416   7.5169021  82.6935833  53.9955100   8.0554065  82.4170657
  52.5477401   8.1435310  82.8507385  58.7295755   9.6598162  81.2907995
  59.1379111   9.2180572  80.5462627  58.0073017   9.0850789  81.5442188
  55.0826825   4.5970769  78.6641552  55.9288021   5.0210182  78.8076201
  55.0225463   3.9404393  79.3580115  59.0524570  10.2199352  75.0460284
  58.4233432  10.3845067  74.3436351  58.6650232  10.6340962  75.8171248
  62.9313802  11.1553790  72.4004647  62.2464840  11.5352692  71.8501681
  63.0157651  11.7649117  73.1336595  58.2326271   2.2575137  80.3222725
  57.9887203   3.0117198  79.7857001  58.5086201   2.6360485  81.1569972
  60.1864734   8.8013749  78.9999991  60.3981629   9.4445509  78.3234372
  60.1394482   7.9676066  78.5321921  57.7890962   1.4131570  75.9036563
  56.9275442   1.7112824  76.1953301  57.8153397   1.6301969  74.9717596
  54.6052532   9.9573761  72.3110369  55.0690877  10.2361464  71.5214991
  54.3409330   9.0557205  72.1283459  51.4976613   9.5045242  75.2490132
  52.0677970   9.9332510  74.6107616  52.0884725   9.2227827  75.9474318
  53.5421418   6.0796913  69.1199934  54.2445461   6.5317957  69.5873860
  53.2102046   5.4380732  69.7479827  51.9901779   4.6708670  83.4951143
  51.3600440   5.3524950  83.7286540  51.8837867   4.5591751  82.5504281
  47.2846752   4.3380466  74.4217067  46.4945806   4.5937994  73.9457178
  47.7757999   5.1528803  74.5269108  61.3010561  11.6785705  77.1722348
  62.1228005  11.2765892  76.8905030  61.2972964  11.5753939  78.1238464
  49.2361497   4.7025045  71.3800544  48.4392661   4.8143739  71.8984040
  49.0087090   5.0411697  70.5141435  55.0667165  11.2269748  79.3283059
  55.1311597  11.6890155  80.1641230  54.3578089  10.5967113  79.4565369
  45.5684455   4.5910956  76.8532058  45.8192493   5.4757966  77.1189634
  46.1044003   4.4115558  76.0807150  69.3916555   8.0224453  73.5207320
  68.6380263   7.4531851  73.3651324  69.5264096   7.9887118  74.4677954
  54.7815183  12.8937856  69.1962039  54.6460857  13.7389391  69.6246887
  55.3224995  13.0957133  68.4327973  51.2682522  -1.0270565  85.8576394
  50.8749468  -1.5804366  86.5324038  52.0848663  -0.7159986  86.2482912
  48.2344580  10.4113294  69.7689964  48.7469101  11.2056544  69.9195529
  48.8867293   9.7139584  69.7023566  50.0439465  13.5279050  71.8512717
  50.2206093  14.4497015  71.6633701  50.8396298  13.2137469  72.2807097
  54.1850483   0.3887314  83.4496651  54.9260197   0.9894468  83.3701113
  54.4168406  -0.3535048  82.8914693  49.3291821   5.5743682  81.7274880
  49.2145336   4.6728939  82.0281979  48.4736339   5.8207379  81.3759697
  56.4083659  13.5161422  83.3262381  55.9647513  12.7297801  83.0083286
  57.0700873  13.7040573  82.6606272  51.1670780  15.0457224  77.8523060
  51.7178205  14.9174287  77.0800054  50.3282256  15.3452113  77.5017952
  58.5064897  13.7964222  81.3543782  58.4883372  14.6173103  80.8624052
  59.4284817  13.6718297  81.5793923  54.9637951  11.3108351  82.1967291
  55.4966288  10.5496640  81.9666599  54.4352032  11.0182003  82.9391445
  58.1307646  -3.5831583  77.7260932  57.7871916  -2.6929941  77.6500043
  58.4986609  -3.7729925  76.8630517  46.1993497   8.7401948  70.5449535
  47.0368719   9.1498956  70.3283242  46.3771764   7.8001390  70.5149728
  58.0957929   6.4077029  66.2333368  57.5804552   7.1781633  66.4721755
  57.8235237   5.7342165  66.8566429  55.6805040   1.2526729  71.2918606
  54.8246636   0.8633580  71.1124245  56.0931992   1.3318690  70.4318391
  57.2104187  -1.2126927  75.6910166  56.7068982  -1.2496792  74.8777971
  57.5034793  -0.3034185  75.7506822  53.4547072  -1.1288198  74.6976347
  54.3200069  -1.3245389  74.3382237  53.5224581  -1.3577846  75.6245704
  63.0692203   9.1609383  68.1686541  62.2921646   8.8220543  67.7241703
  63.7483684   9.1662006  67.4941506  57.8844232   4.2804121  68.0593149
  57.5794368   4.5950270  68.9103292  58.8374674   4.3585541  68.1020482
  56.3290664  10.4394344  69.7086103  55.8012025   9.7047104  69.3959340
  55.8278167  11.2169020  69.4626071  61.3083510   8.6343364  74.8253149
  60.6507184   9.3242626  74.9133278  62.1123909   9.0239796  75.1687135
  51.0609391   1.1014010  72.0692714  51.6353143   0.8789192  71.3365907
  51.6480374   1.1702705  72.8221316  60.1188969   6.9887737  72.8757091
  60.6320850   7.6217729  73.3778800  60.7690193   6.3888933  72.5100451
  51.3878979   3.1318471  66.0888600  50.5516291   3.4693158  66.4097874
  51.2483748   2.9967451  65.1515736  53.3632059  -2.0244741  70.7967784
  52.7096472  -2.3395724  70.1724398  53.3212533  -2.6469000  71.5227607
  54.4743264   8.2574554  62.7121076  53.5670326   8.0263808  62.9112225
  54.9714296   7.4612173  62.8995057  57.3811343  16.9672061  65.6317762
  56.7073042  17.2703758  66.2402720  57.7677165  17.7701142  65.2823219
  56.5969800   4.4637193  75.1215431  55.6792361   4.6852140  74.9637119
  57.0129943   4.5383503  74.2627139  57.3804847   5.8628608  70.2518112
  58.1276666   6.3750006  69.9425234  57.6496437   5.5412661  71.1122505
  55.6531498   8.3587149  67.2345066  54.7442717   8.0746182  67.3317536
  55.6826581   8.7786228  66.3748373  60.8850765  11.9693739  71.0036233
  60.4313092  11.1284648  71.0601424  60.2544732  12.6055137  71.3411014
  59.8283684   2.8985725  72.2336901  59.0906441   2.3863111  72.5647143
  60.0810458   2.4586106  71.4220178  59.3283704  13.8070235  71.9386052
  59.6206679  14.3675292  71.2198417  59.8382325  14.0998796  72.6939211
  46.2219668   6.0792663  71.2160268  46.0244068   5.4862024  70.4911335
  45.6666332   5.7744873  71.9336207  54.2016392   5.9715770  73.3354861
  54.2565001   5.0189606  73.2597338  53.3907594   6.1275209  73.8196160
  55.3507585   9.8995893  64.5733144  54.9127015   9.1831752  64.1138782
  56.0918026  10.1272008  64.0118236  52.1408751   4.5892829  71.0945240
  51.3276617   4.8887000  71.5010432  52.6367746   4.1948518  71.8119722
  54.2917329  14.5850586  73.0279505  54.2493508  14.8111433  72.0988037
  55.2080028  14.3513961  73.1765306  57.7382963   5.0534654  79.9260134
  58.0932351   5.2806127  80.7854600  58.3855094   5.3853031  79.3037389
  63.4680700   8.1753090  70.6309463  63.3298599   8.3654686  69.7030652
  63.1116919   8.9372473  71.0877514  51.6322826   2.1611185  76.7106475
  52.2722206   2.0199944  76.0129438  50.8000357   1.8745698  76.3345077
  63.4950080  10.2429617  75.6420734  63.9286586  10.1504906  76.4903789
  64.2081660  10.2187117  75.0040750  52.4083130  11.4613615  72.8241467
  53.2023729  10.9663936  72.6224042  51.6974823  10.9331479  72.4609173
  57.2277975  13.8431711  77.1753835  57.2814997  14.4122647  77.9431551
  56.3592756  14.0133596  76.8107872  48.7165894   5.6056697  68.9001220
  47.7863482   5.5441153  69.1171182  48.8123366   5.0832650  68.1037861
  48.6351443   2.1311510  71.4879462  48.8958260   3.0456843  71.3788622
  49.4568615   1.6635953  71.6376075  50.1076368   3.5449267  78.6578286
  50.7799421   3.3366629  78.0090935  49.2806155   3.3471353  78.2183519
  64.3565629  10.2853317  78.1753620  64.5501519  11.1899128  78.4212895
  64.2566247   9.8260737  79.0092205  56.0101940   0.1711208  80.6743947
  55.3629855   0.8701158  80.5808424  56.7802955   0.6047352  81.0420195
  59.4180738  10.4360060  83.7494500  59.2666244  10.2070612  82.8324584
  59.4085417  11.3930662  83.7625846  56.1866074   8.0091973  78.7340767
  57.1158134   8.1603133  78.5609734  55.7657104   8.0975994  77.8789413
  54.9854406  12.0342637  76.5039305  54.8465492  11.6661422  77.3765243
  54.1969002  12.5490277  76.3323262  55.5802558  17.1351734  67.8464841
  55.7554314  16.6639777  68.6610464  54.8935346  17.7617500  68.0746102
  56.5359621  11.4124240  73.8928142  56.2009454  11.3725010  74.7885792
  56.0363567  10.7468956  73.4198553  50.5103865   6.8191870  79.4180724
  50.3723663   6.0872109  80.0192263  51.4208789   6.7300770  79.1364911
  59.4718813   8.7580274  64.1665202  58.8547984   8.0327103  64.0698255
  59.0035301   9.5189635  63.8232276  53.1386166   6.5311829  78.9064403
  53.8485784   5.8905022  78.8651022  53.0955474   6.7824724  79.8290584
  61.1272945  13.4679183  81.8270982  61.0685491  12.7838403  81.1601565
  61.5292463  14.2098173  81.3751608  51.8515100   3.5177047  80.7260043
  51.3152457   3.0667786  81.3781639  51.2631808   3.6522956  79.9830507
  50.1463643  20.2841097  74.6204701  50.3860242  20.9159621  75.2983720
  49.3032840  19.9329137  74.9070061  51.2617359   2.9765699  63.2886506
  50.3846825   2.8554499  62.9248753  51.7375112   2.1851777  63.0365395
  61.1290352  11.4318767  80.0584962  60.2417131  11.0944688  80.1811361
  61.6988903  10.7001798  80.2953727  42.7819499   7.7642858  73.3828013
  43.4690539   7.4504588  72.7949029  42.6267628   8.6684223  73.1095265
  47.5854221   2.6533055  77.8113037  47.5012410   2.0458725  77.0763447
  46.7636928   3.1442073  77.8122533  54.6591505  16.0920219  77.0246205
  54.5861677  16.8975191  77.5365510  54.2168898  16.2912185  76.1994227
  54.4481285  15.3291989  70.5349027  53.6648807  15.8713669  70.6287251
  55.1474030  15.8465969  70.9343268  57.7577935   1.1386619  73.1783232
  58.2546635   0.3856581  72.8584302  56.9864916   1.1750935  72.6126442
  65.6107692   6.8426984  74.8201524  65.5997569   7.7251699  74.4495457
  64.7425072   6.4898535  74.6256061  57.1190189  15.9907053  79.1804364
  57.8318161  16.6254518  79.1080265  56.6280217  16.0870919  78.3644366
  58.8407716   9.8958306  70.7521656  57.9063994  10.0159768  70.5826360
  59.0184384   8.9930773  70.4881665  54.3412904   3.2804002  72.9054917
  53.9710691   2.7275042  73.5935822  54.8371996   2.6762135  72.3529917
  62.2280267   5.7375625  71.2871690  62.6940719   6.5703617  71.2131992
  62.6787768   5.2720607  71.9916948  52.1702102  13.7401497  80.0009935
  52.8711562  14.3737980  80.1539329  51.6997217  14.0816228  79.2405574
  60.2956498  12.0819446  68.2857842  60.5716342  11.9676041  69.1951716
  59.4260997  11.6836931  68.2470015  60.1996930  -1.8943788  75.3262591
  59.2860010  -1.6639561  75.4944798  60.6290031  -1.8105344  76.1776623
  59.9703388   6.2946104  77.8262485  59.3174839   6.5422011  77.1714938
  60.3483768   5.4810242  77.4924962  56.9310562  16.3305797  71.9290655
  57.1132957  15.5127453  72.3918408  57.7543548  16.5473489  71.4915545
  57.2652728  15.2573982  69.1905704  57.7940494  14.7466437  68.5775866
  57.5280947  14.9416513  70.0551237  56.0190961   7.0365915  84.3128522
  55.3431598   6.9360044  84.9830897  56.8418595   6.8805129  84.7764519
  47.7669820  13.2737852  76.9341037  48.3523257  12.5281539  77.0668942
  47.5694659  13.5841808  77.8177701  50.6208476  16.3089099  71.9503480
  49.9518851  16.7935227  71.4667520  50.4821345  16.5558319  72.8646858
  42.3587475   5.8443452  75.6545481  42.3971575   5.3107042  76.4482599
  41.8527768   5.3178657  75.0356458  54.7613744  18.3432842  78.5486138
  55.3132052  18.5064464  79.3135223  55.1019938  18.9337280  77.8766163
  49.7378237   0.6907992  79.1508023  49.8019564   1.5522823  78.7385421
  49.6745358   0.0781994  78.4180381  49.2130510   2.7631125  82.7981057
  49.8402549   2.3808202  83.4118581  48.3558429   2.5445327  83.1636750
  59.6124618  13.1694100  84.4034793  60.1564522  13.7824058  83.9089747
  59.0311463  13.7273678  84.9201806  45.9896053   4.5707554  68.7299412
  46.2849494   3.6618232  68.6766466  45.0884088   4.5495293  68.4080414
  57.8982131  16.2914818  75.5349820  57.7733271  15.4904558  75.0260766
  58.5561223  16.7861011  75.0463790  49.5190300   2.6463551  74.7126961
  48.7976885   3.2599518  74.5734434  50.3083555   3.1821315  74.6343606
  59.9617040  14.0923838  77.1629370  59.0147375  13.9729189  77.0907697
  60.3099813  13.2046336  77.2455632  52.3216613  -0.0182023  80.9867612
  52.8451015   0.2280274  81.7493922  52.1028946   0.8138012  80.5670750
  47.7183894   2.2521652  68.8538737  47.3896600   1.3719031  68.6713843
  48.0723265   2.1969320  69.7415126  56.9663473  13.8876554  73.3633723
  56.8188436  12.9593262  73.5441293  57.7916967  13.9096645  72.8790798
  50.8325717   2.5394621  69.2214215  51.1721790   3.0680543  68.4992823
  51.2797838   2.8775028  69.9972781  60.5697595  14.7105113  74.4498595
  61.4944142  14.5047974  74.3123047  60.4012898  14.4621514  75.3587937
  53.5269158   0.9231672  78.6717283  53.1865979   0.1239485  79.0737963
  52.8208165   1.2233383  78.0994116  54.1785630  -1.9919015  77.1244606
  55.0011699  -2.4658537  77.0023496  54.4223694  -1.2128532  77.6243292
  52.8193865   1.0369243  67.4207508  53.5402227   1.4150496  66.9171224
  52.1959169   1.7558120  67.5242485  56.9624987   1.7414392  68.3565840
  57.1788602   2.6239030  68.0554668  56.4819055   1.3500605  67.6271482
  51.7024209   4.7000105  74.9336584  51.5568790   5.0140408  75.8260866
  51.2249412   5.3185006  74.3807483  53.5620592   1.6902653  74.9817474
  53.5482160   0.7943746  74.6449772  54.2793020   1.6973317  75.6155760
  55.4146722   2.1239993  77.0270601  55.1564500   3.0457064  77.0254932
  54.8831763   1.7270428  77.7171066  60.3592911  15.2290780  69.8060687
  60.5329789  14.6637203  69.0534539  60.8521802  16.0291675  69.6240177
  46.1769871   7.2405450  77.8724246  45.6323339   8.0165258  78.0044520
  47.0549221   7.5876254  77.7143367  52.9657488   0.5717033  70.2505044
  53.0873399  -0.3566320  70.4495932  52.6759530   0.5855719  69.3383360
  55.8348678  -1.7428056  73.3871764  55.8570375  -1.6788723  72.4323744
  56.2516737  -2.5823547  73.5812270  66.2132302   7.9927203  71.4250987
  66.6563448   7.2434529  71.0270110  65.3358813   7.9837340  71.0424719
  61.3468084  14.5457545  66.9057585  62.0418988  15.1664238  67.1244900
  61.6891234  13.6952896  67.1809963  46.9635893   6.3675346  80.7654403
  46.2217629   6.5157981  81.3519033  46.6428637   6.6283611  79.9021152
  63.2459507  11.9957250  68.4344916  63.7710831  12.3344523  67.7094236
  63.1581859  11.0604266  68.2508051  54.9079555  15.9091324  80.5634793
  55.2166682  15.6640471  81.4357492  55.7055038  16.1137963  80.0753663
  54.9300168  18.0629234  72.7940169  54.4905158  17.5705612  73.4873026
  55.6808284  17.5202201  72.5532244  47.4092507  14.2540775  72.7964797
  48.2350526  13.9544546  72.4163441  47.0586559  13.4848397  73.2454586
  52.3774040  13.6067243  74.8662471  51.7554049  12.9437948  74.5664699
  53.0478907  13.6328375  74.1836119  45.6101112  12.1727101  73.7553731
  44.7733020  11.7449275  73.5737732  45.5824757  12.3659544  74.6924522
  52.4498567   2.0849031  84.4594977  52.4986723   2.9611154  84.0772746
  52.9921081   1.5426424  83.8866620  62.9353413  12.6290154  83.7396114
  62.1448957  12.6114293  83.2000613  62.6986767  13.1678448  84.4945150
  63.0551288   9.4782620  81.0528842  63.1049293   9.3132628  81.9944365
  62.9465211   8.6109879  80.6626723  51.9387547  12.1571166  68.3420931
  52.0875667  12.8406631  67.6887604  52.7453990  12.1376256  68.8570387
  60.3455050   5.4613548  82.3688149  61.2464913   5.3220013  82.0772147
  60.4203025   5.6268003  83.3086327  54.6797856   2.8380403  81.2141335
  53.8101165   3.1313969  80.9423924  54.9157336   3.4220848  81.9348599
  64.5569485  11.8979562  81.2970864  64.2654293  12.2609543  82.1334325
  63.9441616  11.1846570  81.1184196  65.7565167   9.4632442  73.8173434
  66.5912058   9.9022246  73.9810995  65.8924296   8.9871095  72.9981680
  62.8056673   7.0212177  79.7650922  63.2810795   7.2139823  78.9569773
  61.8822238   7.0771362  79.5194306  49.6940180   8.1836344  69.3482000
  49.4486222   7.2798674  69.5462210  49.8636094   8.1853494  68.4061478
  57.3836889  -0.9439980  78.7306756  57.9018833  -0.2078953  78.4053244
  57.0292022  -0.6375987  79.5653515  48.9635827   3.9164701  66.8468162
  48.2705072   3.9909056  66.1908198  48.7187579   3.1525045  67.3689679
  55.4382952  14.6519297  65.8132679  54.8656919  15.2709484  65.3603151
  56.0115746  15.2018658  66.3472601  61.5058342   3.8977937  77.9979228
  62.4575765   3.9976034  78.0191452  61.3361792   3.1056205  78.5077312
  59.5272721   0.9833520  78.1838628  58.9322654   1.2638533  77.4885117
  59.2422418   1.4727421  78.9555370  58.6580212  14.9356447  66.9441261
  59.5910885  14.8702008  67.1474137  58.5703425  15.7712714  66.4855794
  61.2868229  14.2522317  63.9045209  61.2081860  13.9182181  64.7980966
  62.1077895  14.7444085  63.9036681  63.9846420   7.1184056  77.1121527
  63.9522740   6.1800057  77.2981211  64.5947043   7.1968093  76.3787352
  55.8229751   5.9880109  63.1548731  56.7688855   5.8586317  63.2237149
  55.4443996   5.2494771  63.6318159  64.1340908   3.9095100  77.1579810
  63.6179957   3.1253556  76.9709739  65.0180857   3.5813816  77.3226330
  61.7951635  -2.3463885  73.1175623  61.5976456  -2.6548796  74.0018955
  62.4051341  -1.6202246  73.2473553  69.8022970   8.1800063  76.2527564
  70.5326358   7.9185351  76.8135267  69.1929915   7.4428785  76.2929632
  67.8838267   6.3207926  76.8502015  67.1571430   6.1863891  76.2418507
  67.4685554   6.6284754  77.6558733  55.7068443  10.0397855  84.6149388
  56.6271453  10.2176454  84.8089435  55.6718026   9.0953901  84.4629087
  54.0072668   3.9130086  63.0903616  53.1004123   3.6163198  63.1666330
  54.2848649   3.6159904  62.2237903  44.9250608   5.2336449  73.5402663
  44.6053393   4.3801757  73.2477037  44.3784036   5.4485027  74.2960630
  48.7030516   7.9498890  77.2572169  48.9216525   8.8815998  77.2760203
  49.1156290   7.5906865  78.0426973  55.6234734  -1.5433025  69.2447858
  54.8135462  -1.8885940  69.6203104  56.3119150  -1.8525481  69.8335469
  57.5525282  -2.4654978  70.8672154  58.1056320  -2.0459524  71.5262177
  57.7895368  -3.3919230  70.9095110  53.5758381   3.5232096  86.6474918
  53.4755108   4.4726453  86.5787009  53.3579923   3.1950335  85.7750988
  52.7771452   0.7717021  63.2315596  53.6390616   1.0971919  63.4911413
  52.9621797  -0.0151483  62.7188661  44.7938868   8.8539361  75.5095784
  44.1002340   8.4393313  74.9965739  45.5411859   8.8959897  74.9129203
  60.9304089  -0.3554453  70.3750819  60.3502758   0.3030351  69.9928871
  60.6640022  -1.1777108  69.9638236  59.3807655  -0.9549395  72.5772139
  59.8807434  -0.8432860  71.7686458  60.0243263  -1.2588342  73.2172947
  53.4389651   6.9529235  85.4639980  52.9556733   7.7529595  85.6703869
  53.5250590   6.9637180  84.5107424  46.7075611   8.7857614  73.3861799
  46.6846299   8.8845302  72.4343682  47.0176247   9.6322765  73.7078965
  49.3662989  10.8433769  77.5008414  50.3206242  10.8117712  77.4338345
  49.1675512  10.3824393  78.3158640  49.9562371   9.4134885  80.0679211
  50.7755260   9.9078964  80.0914049  50.2299178   8.4966854  80.0396779
  59.7128967   1.8045638  69.4307167  58.8254822   2.0895288  69.2127362
  60.1282956   1.6439401  68.5834444  63.0643503   1.8292159  73.1461506
  63.8403893   2.3188611  73.4186123  62.3391637   2.2550213  73.6033376
  65.5016062   2.5419778  74.2035447  66.0960552   2.3015514  73.4928755
  65.5742645   1.8226909  74.8308983  47.7213217  16.3853389  74.5178612
  47.5867685  15.6253790  73.9516610  47.3045280  17.1094289  74.0507400
  58.8572180  11.5690312  63.5255187  59.5608030  11.7740315  64.1412842
  58.1334829  12.1367074  63.7904270  59.6869991   7.3200174  69.6457457
  59.6305192   7.7768725  68.8065089  60.2398333   6.5590858  69.4680300
  63.4974797   3.1089906  70.4707577  63.2411731   2.7086541  71.3015784
  62.8727665   3.8233700  70.3457716  67.8087134   5.8485979  72.9778868
  67.2486692   5.9179168  73.7510430  67.2030638   5.6726963  72.2578364
  50.8782343  17.2822706  74.7297054  50.7614727  18.2268138  74.6275744
  50.0574789  16.9796268  75.1182853  60.7658878  12.0072842  65.5753647
  61.6004482  11.5754040  65.3931122  60.6043221  11.8354855  66.5030541
  60.4204770   8.5104955  66.9409986  60.3653574   8.3449226  65.9998430
  59.7950825   9.2180988  67.0972176  45.2097285   3.7473019  80.7671408
  45.8556149   3.2371973  81.2558634  45.0014436   4.4841701  81.3414834
  57.7350677  10.8153867  86.2663549  58.6041837  10.9894519  85.9050184
  57.2557429  11.6348284  86.1439278  53.7300895  -1.9886936  66.5195305
  53.7179565  -1.0445096  66.6763575  54.6224317  -2.1716791  66.2254766
  51.9036857  17.9350968  77.9452983  52.8064104  17.9674578  78.2619478
  51.6774227  17.0051419  77.9599318  53.6590459  16.6881954  74.6063061
  52.7086090  16.6883816  74.4927434  53.9622946  15.9414689  74.0899096
  49.5494776   0.8940636  84.8646423  50.4126237   0.5377441  85.0749747
  48.9760187   0.5554531  85.5521827  69.3943153  22.5242493  75.6708824
  70.0321563  22.4049240  74.9672164  69.2763996  23.4723337  75.7296776
  66.2032859  22.4769921  75.6070348  65.8651371  22.3610986  74.7190883
  67.0722627  22.0761086  75.5871354  62.0619675  24.3305397  71.5967239
  61.4984540  24.2395334  70.8283527  61.9472070  23.5105302  72.0769732
  66.6852642  23.6304773  81.5656554  66.6741283  23.2357571  80.6937058
  66.8473282  22.8970845  82.1590325  59.6084107  25.8256589  74.4351460
  60.4005399  25.4847414  74.0197759  59.8480757  25.9351564  75.3553613
  67.6419234  27.9976365  66.9081704  66.9907213  28.5830445  66.5215718
  68.4363596  28.5282560  66.9676742  61.5674861  25.0865502  67.3068839
  62.3405737  24.5394489  67.1681714  61.9200260  25.9509751  67.5183300
  63.4059903  26.4141884  80.5135738  63.1149769  27.3187515  80.3982404
  64.0416888  26.4558412  81.2279807  64.3316110  23.7918733  77.1037098
  64.9279682  23.5674755  76.3894060  64.3891082  23.0503478  77.7062545
  63.9041139  21.2458168  64.9387288  64.1566659  20.7239690  64.1770751
  62.9665698  21.0824314  65.0413972  68.9484421  20.2493947  72.7462032
  69.7347511  19.8313370  72.3952449  69.2123126  21.1540039  72.9143680
  69.1194499  25.6866797  67.4450689  68.4840332  25.7601423  68.1571593
  68.7891905  26.2760396  66.7669768  74.3492848  20.1869180  73.6495010
  75.0818020  19.6168397  73.8832840  73.5932204  19.7990780  74.0901516
  63.6237427  23.1486274  67.1411663  63.5073685  22.4731178  67.8092748
  63.7339687  22.6618648  66.3243816  65.9668968  22.6096421  70.8458353
  65.6027175  22.0827042  71.5571274  66.8236084  22.2194890  70.6724838
  71.8718269  13.8990754  78.1089619  71.5401594  14.7686165  77.8850834
  71.2763882  13.5827038  78.7883649  65.6074455  17.6386321  65.8419701
  65.7748858  18.5066557  66.2090172  65.4171624  17.8013603  64.9180990
  68.3649788  26.1003300  77.5085532  68.0650511  27.0028339  77.4001339
  68.0200848  25.8335483  78.3606684  61.8162270  22.5517097  73.5422236
  60.8912766  22.4193311  73.7499928  62.0646683  23.3311316  74.0392178
  71.7646932  18.6185840  75.1882969  70.8563809  18.5501249  74.8941730
  71.7134528  19.0957785  76.0164794  65.5863676  20.0943979  66.8266368
  65.4663301  20.5401029  67.6651848  64.8916264  20.4429296  66.2679906
  59.1771081  22.1950370  74.3766025  59.3063462  22.4484849  75.2905437
  58.4968532  22.7878078  74.0570680  63.3470568  32.8647620  70.4756499
  63.2694598  33.8155445  70.5544980  62.7432212  32.5193493  71.1331426
  65.8387798  20.0375486  83.1317866  65.0621132  20.5969406  83.1220731
  66.4778361  20.5232269  83.6532736  73.6308579  16.8202279  76.9660843
  72.9882959  17.1134812  76.3200637  73.1263507  16.7055199  77.7714039
  71.2848742  20.5665452  67.6546702  72.1966598  20.7992838  67.4794400
  70.7758389  21.1502496  67.0921781  64.0934170  22.8460939  82.6935833
  64.8348855  23.3845983  82.4170657  63.3871156  23.4727228  82.8507385
  69.5689510  24.9890080  81.2907995  69.9772866  24.5472490  80.5462627
  68.8466771  24.4142707  81.5442188  65.9220580  19.9262686  78.6641552
  66.7681775  20.3502100  78.8076201  65.8619218  19.2696311  79.3580115
  69.8918325  25.5491270  75.0460284  69.2627187  25.7136984  74.3436351
  69.5043987  25.9632880  75.8171248  73.7707556  26.4845708  72.4004647
  73.0858595  26.8644609  71.8501681  73.8551406  27.0941035  73.1336595
  69.0720025  17.5867055  80.3222725  68.8280957  18.3409115  79.7857001
  69.3479956  17.9652402  81.1569972  71.0258488  24.1305667  78.9999991
  71.2375383  24.7737427  78.3234372  70.9788236  23.2967984  78.5321921
  68.6284717  16.7423488  75.9036563  67.7669196  17.0404741  76.1953301
  68.6547152  16.9593887  74.9717596  65.4446286  25.2865678  72.3110369
  65.9084632  25.5653381  71.5214991  65.1803085  24.3849123  72.1283459
  62.3370367  24.8337160  75.2490132  62.9071725  25.2624428  74.6107616
  62.9278479  24.5519744  75.9474318  64.3815172  21.4088831  69.1199934
  65.0839216  21.8609874  69.5873860  64.0495801  20.7672649  69.7479827
  62.8295534  20.0000587  83.4951143  62.1994195  20.6816868  83.7286540
  62.7231622  19.8883669  82.5504281  58.1240506  19.6672383  74.4217067
  57.3339560  19.9229912  73.9457178  58.6151754  20.4820721  74.5269108
  72.1404316  27.0077622  77.1722348  72.9621760  26.6057810  76.8905030
  72.1366719  26.9045857  78.1238464  60.0755252  20.0316963  71.3800544
  59.2786415  20.1435657  71.8984040  59.8480844  20.3703615  70.5141435
  65.9060919  26.5561666  79.3283059  65.9705352  27.0182073  80.1641230
  65.1971843  25.9259031  79.4565369  56.4078209  19.9202874  76.8532058
  56.6586248  20.8049884  77.1189634  56.9437758  19.7407475  76.0807150
  65.6208937  28.2229773  69.1962039  65.4854612  29.0681309  69.6246887
  66.1618750  28.4249051  68.4327973  62.1076277  14.3021353  85.8576394
  61.7143222  13.7487552  86.5324038  62.9242417  14.6131932  86.2482912
  59.0738334  25.7405211  69.7689964  59.5862855  26.5348462  69.9195529
  59.7261047  25.0431502  69.7023566  60.8833219  28.8570968  71.8512717
  61.0599848  29.7788932  71.6633701  61.6790053  28.5429387  72.2807097
  65.0244238  15.7179232  83.4496651  65.7653951  16.3186385  83.3701113
  65.2562161  14.9756870  82.8914693  60.1685576  20.9035599  81.7274880
  60.0539091  20.0020857  82.0281979  59.3130093  21.1499296  81.3759697
  67.2477413  28.8453340  83.3262381  66.8041268  28.0589718  83.0083286
  67.9094627  29.0332490  82.6606272  62.0064535  30.3749141  77.8523060
  62.5571960  30.2466205  77.0800054  61.1676011  30.6744030  77.5017952
  69.3458652  29.1256140  81.3543782  69.3277127  29.9465021  80.8624052
  70.2678572  29.0010215  81.5793923  65.8031706  26.6400269  82.1967291
  66.3360042  25.8788557  81.9666599  65.2745787  26.3473921  82.9391445
  68.9701401  11.7460335  77.7260932  68.6265670  12.6361977  77.6500043
  69.3380363  11.5561993  76.8630517  57.0387251  24.0693866  70.5449535
  57.8762473  24.4790874  70.3283242  57.2165519  23.1293308  70.5149728
  68.9351683  21.7368946  66.2333368  68.4198307  22.5073551  66.4721755
  68.6628992  21.0634082  66.8566429  66.5198794  16.5818647  71.2918606
  65.6640391  16.1925497  71.1124245  66.9325746  16.6610608  70.4318391
  68.0497941  14.1164990  75.6910166  67.5462737  14.0795125  74.8777971
  68.3428548  15.0257733  75.7506822  64.2940827  14.2003720  74.6976347
  65.1593824  14.0046529  74.3382237  64.3618336  13.9714072  75.6245704
  73.9085957  24.4901301  68.1686541  73.1315400  24.1512460  67.7241703
  74.5877438  24.4953924  67.4941506  68.7237987  19.6096038  68.0593149
  68.4188122  19.9242187  68.9103292  69.6768429  19.6877458  68.1020482
  67.1684418  25.7686262  69.7086103  66.6405780  25.0339021  69.3959340
  66.6671921  26.5460938  69.4626071  72.1477264  23.9635282  74.8253149
  71.4900939  24.6534544  74.9133278  72.9517664  24.3531714  75.1687135
  61.9003146  16.4305928  72.0692714  62.4746898  16.2081109  71.3365907
  62.4874128  16.4994622  72.8221316  70.9582723  22.3179655  72.8757091
  71.4714605  22.9509647  73.3778800  71.6083947  21.7180850  72.5100451
  62.2272733  18.4610389  66.0888600  61.3910045  18.7985075  66.4097874
  62.0877503  18.3259369  65.1515736  64.2025814  13.3047177  70.7967784
  63.5490226  12.9896194  70.1724398  64.1606288  12.6822917  71.5227607
  65.3137019  23.5866472  62.7121076  64.4064080  23.3555725  62.9112225
  65.8108051  22.7904091  62.8995057  68.2205097  32.2963979  65.6317762
  67.5466796  32.5995676  66.2402720  68.6070919  33.0993059  65.2823219
  67.4363554  19.7929110  75.1215431  66.5186115  20.0144057  74.9637119
  67.8523698  19.8675421  74.2627139  68.2198602  21.1920526  70.2518112
  68.9670421  21.7041923  69.9425234  68.4890191  20.8704579  71.1122505
  66.4925252  23.6879067  67.2345066  65.5836471  23.4038100  67.3317536
  66.5220336  24.1078145  66.3748373  71.7244519  27.2985656  71.0036233
  71.2706847  26.4576566  71.0601424  71.0938486  27.9347055  71.3411014
  70.6677439  18.2277642  72.2336901  69.9300196  17.7155029  72.5647143
  70.9204213  17.7878024  71.4220178  70.1677459  29.1362153  71.9386052
  70.4600433  29.6967210  71.2198417  70.6776079  29.4290714  72.6939211
  70.7689066  11.0053894  72.8278670  71.0747943  10.1451258  72.5404585
  71.4941671  11.5971514  72.6277664  57.0613422  21.4084581  71.2160268
  56.8637822  20.8153942  70.4911335  56.5060086  21.1036791  71.9336207
  65.0410146  21.3007687  73.3354861  65.0958756  20.3481524  73.2597338
  64.2301348  21.4567126  73.8196160  66.1901340  25.2287810  64.5733144
  65.7520770  24.5123669  64.1138782  66.9311781  25.4563925  64.0118236
  62.9802506  19.9184747  71.0945240  62.1670371  20.2178918  71.5010432
  63.4761500  19.5240436  71.8119722  65.1311084  29.9142504  73.0279505
  65.0887263  30.1403350  72.0988037  66.0473783  29.6805879  73.1765306
  68.5776718  20.3826572  79.9260134  68.9326105  20.6098045  80.7854600
  69.2248849  20.7144948  79.3037389  74.3074455  23.5045007  70.6309463
  74.1692353  23.6946603  69.7030652  73.9510673  24.2664390  71.0877514
  62.4716581  17.4903103  76.7106475  63.1115960  17.3491862  76.0129438
  61.6394111  17.2037616  76.3345077  74.3343834  25.5721534  75.6420734
  74.7680341  25.4796824  76.4903789  75.0475415  25.5479035  75.0040750
  63.2476885  26.7905533  72.8241467  64.0417483  26.2955853  72.6224042
  62.5368577  26.2623396  72.4609173  68.0671729  29.1723629  77.1753835
  68.1208751  29.7414565  77.9431551  67.1986510  29.3425514  76.8107872
  59.5559648  20.9348615  68.9001220  58.6257236  20.8733070  69.1171182
  59.6517120  20.4124568  68.1037861  59.4745197  17.4603428  71.4879462
  59.7352014  18.3748761  71.3788622  60.2962369  16.9927870  71.6376075
  60.9470122  18.8741185  78.6578286  61.6193176  18.6658547  78.0090935
  60.1199909  18.6763271  78.2183519  75.1959384  25.6145235  78.1753620
  75.3895274  26.5191046  78.4212895  75.0960002  25.1552654  79.0092205
  66.8495694  15.5003126  80.6743947  66.2023610  16.1993075  80.5808424
  67.6196710  15.9339270  81.0420195  70.2574492  25.7651978  83.7494500
  70.1059999  25.5362530  82.8324584  70.2479172  26.7222579  83.7625846
  67.0259829  23.3383891  78.7340767  67.9551889  23.4895050  78.5609734
  66.6050859  23.4267911  77.8789413  65.8248161  27.3634555  76.5039305
  65.6859246  26.9953339  77.3765243  65.0362757  27.8782194  76.3323262
  66.4196313  32.4643652  67.8464841  66.5948068  31.9931695  68.6610464
  65.7329101  33.0909418  68.0746102  67.3753376  26.7416158  73.8928142
  67.0403208  26.7016928  74.7885792  66.8757321  26.0760874  73.4198553
  61.3497620  22.1483788  79.4180724  61.2117418  21.4164027  80.0192263
  62.2602543  22.0592688  79.1364911  70.3112567  24.0872192  64.1665202
  69.6941738  23.3619020  64.0698255  69.8429056  24.8481552  63.8232276
  63.9779920  21.8603747  78.9064403  64.6879539  21.2196939  78.8651022
  63.9349229  22.1116642  79.8290584  71.9666699  28.7971100  81.8270982
  71.9079245  28.1130321  81.1601565  72.3686217  29.5390090  81.3751608
  62.6908854  18.8468965  80.7260043  62.1546211  18.3959703  81.3781639
  62.1025563  18.9814874  79.9830507  60.9857398  35.6133014  74.6204701
  61.2253996  36.2451538  75.2983720  60.1426594  35.2621054  74.9070061
  62.1011113  18.3057616  63.2886506  61.2240580  18.1846417  62.9248753
  62.5768866  17.5143695  63.0365395  71.9684106  26.7610684  80.0584962
  71.0810885  26.4236606  80.1811361  72.5382657  26.0293716  80.2953727
  53.6213253  23.0934776  73.3828013  54.3084293  22.7796506  72.7949029
  53.4661382  23.9976141  73.1095265  58.4247976  17.9824973  77.8113037
  58.3406164  17.3750642  77.0763447  57.6030682  18.4733991  77.8122533
  65.4985260  31.4212137  77.0246205  65.4255431  32.2267108  77.5365510
  65.0562653  31.6204103  76.1994227  65.2875039  30.6583907  70.5349027
  64.5042561  31.2005587  70.6287251  65.9867785  31.1757886  70.9343268
  68.5971689  16.4678536  73.1783232  69.0940389  15.7148499  72.8584302
  67.8258671  16.5042853  72.6126442  76.4501447  22.1718902  74.8201524
  76.4391323  23.0543617  74.4495457  75.5818826  21.8190453  74.6256061
  67.9583943  31.3198971  79.1804364  68.6711915  31.9546436  79.1080265
  67.4673972  31.4162837  78.3644366  69.6801470  25.2250223  70.7521656
  68.7457749  25.3451686  70.5826360  69.8578139  24.3222690  70.4881665
  65.1806658  18.6095919  72.9054917  64.8104446  18.0566960  73.5935822
  65.6765751  18.0054053  72.3529917  73.0674022  21.0667543  71.2871690
  73.5334474  21.8995534  71.2131992  73.5181522  20.6012524  71.9916948
  63.0095857  29.0693414  80.0009935  63.7105316  29.7029897  80.1539329
  62.5390972  29.4108146  79.2405574  71.1350253  27.4111364  68.2857842
  71.4110097  27.2967959  69.1951716  70.2654751  27.0128849  68.2470015
  71.0390684  13.4348130  75.3262591  70.1253764  13.6652357  75.4944798
  71.4683786  13.5186574  76.1776623  70.8097143  21.6238022  77.8262485
  70.1568593  21.8713929  77.1714938  71.1877523  20.8102160  77.4924962
  67.7704317  31.6597715  71.9290655  67.9526711  30.8419371  72.3918408
  68.5937303  31.8765407  71.4915545  68.1046482  30.5865900  69.1905704
  68.6334249  30.0758355  68.5775866  68.3674702  30.2708430  70.0551237
  66.8584716  22.3657833  84.3128522  66.1825353  22.2651962  84.9830897
  67.6812350  22.2097046  84.7764519  58.6063575  28.6029769  76.9341037
  59.1917012  27.8573457  77.0668942  58.4088413  28.9133726  77.8177701
  61.4602230  31.6381017  71.9503480  60.7912605  32.1227144  71.4667520
  61.3215100  31.8850237  72.8646858  53.1981230  21.1735369  75.6545481
  53.2365329  20.6398960  76.4482599  52.6921522  20.6470575  75.0356458
  65.6007499  33.6724760  78.5486138  66.1525807  33.8356382  79.3135223
  65.9413692  34.2629198  77.8766163  60.5771992  16.0199910  79.1508023
  60.6413318  16.8814741  78.7385421  60.5139112  15.4073912  78.4180381
  60.0524264  18.0923043  82.7981057  60.6796303  17.7100120  83.4118581
  59.1952183  17.8737244  83.1636750  70.4518373  28.4986018  84.4034793
  70.9958277  29.1115976  83.9089747  69.8705218  29.0565596  84.9201806
  56.8289807  19.8999472  68.7299412  57.1243248  18.9910150  68.6766466
  55.9277843  19.8787211  68.4080414  68.7375886  31.6206736  75.5349820
  68.6127025  30.8196476  75.0260766  69.3954977  32.1152929  75.0463790
  60.3584054  17.9755468  74.7126961  59.6370640  18.5891436  74.5734434
  61.1477310  18.5113233  74.6343606  70.8010794  29.4215756  77.1629370
  69.8541130  29.3021107  77.0907697  71.1493567  28.5338254  77.2455632
  63.1610368  15.3109895  80.9867612  63.6844770  15.5572191  81.7493922
  62.9422701  16.1429930  80.5670750  58.5577649  17.5813569  68.8538737
  58.2290355  16.7010948  68.6713843  58.9117019  17.5261238  69.7415126
  67.8057228  29.2168472  73.3633723  67.6582190  28.2885179  73.5441293
  68.6310721  29.2388563  72.8790798  61.6719472  17.8686539  69.2214215
  62.0115544  18.3972460  68.4992823  62.1191592  18.2066945  69.9972781
  71.4091349  30.0397031  74.4498595  72.3337897  29.8339892  74.3123047
  71.2406653  29.7913432  75.3587937  64.3662913  16.2523590  78.6717283
  64.0259733  15.4531403  79.0737963  63.6601919  16.5525301  78.0994116
  65.0179385  13.3372902  77.1244606  65.8405454  12.8633380  77.0023496
  65.2617448  14.1163386  77.6243292  63.6587619  16.3661161  67.4207508
  64.3795982  16.7442413  66.9171224  63.0352923  17.0850037  67.5242485
  67.8018742  17.0706310  68.3565840  68.0182356  17.9530948  68.0554668
  67.3212809  16.6792523  67.6271482  62.5417963  20.0292023  74.9336584
  62.3962544  20.3432326  75.8260866  62.0643167  20.6476923  74.3807483
  64.4014346  17.0194571  74.9817474  64.3875915  16.1235664  74.6449772
  65.1186774  17.0265235  75.6155760  66.2540477  17.4531911  77.0270601
  65.9958255  18.3748982  77.0254932  65.7225517  17.0562346  77.7171066
  71.1986666  30.5582698  69.8060687  71.3723543  29.9929121  69.0534539
  71.6915557  31.3583593  69.6240177  57.0163625  22.5697367  77.8724246
  56.4717094  23.3457175  78.0044520  57.8942975  22.9168172  77.7143367
  63.8051242  15.9008951  70.2505044  63.9267153  14.9725597  70.4495932
  63.5153284  15.9147637  69.3383360  66.6742433  13.5863862  73.3871764
  66.6964129  13.6503195  72.4323744  67.0910492  12.7468370  73.5812270
  77.0526057  23.3219121  71.4250987  77.4957203  22.5726446  71.0270110
  76.1752567  23.3129257  71.0424719  72.1861838  29.8749463  66.9057585
  72.8812743  30.4956155  67.1244900  72.5284988  29.0244814  67.1809963
  57.8029647  21.6967264  80.7654403  57.0611383  21.8449899  81.3519033
  57.4822392  21.9575529  79.9021152  74.0853261  27.3249168  68.4344916
  74.6104585  27.6636441  67.7094236  73.9975614  26.3896183  68.2508051
  65.7473310  31.2383242  80.5634793  66.0560436  30.9932389  81.4357492
  66.5448792  31.4429880  80.0753663  65.7693922  33.3921151  72.7940169
  65.3298912  32.8997530  73.4873026  66.5202039  32.8494119  72.5532244
  58.2486261  29.5832692  72.7964797  59.0744281  29.2836464  72.4163441
  57.8980313  28.8140315  73.2454586  63.2167794  28.9359160  74.8662471
  62.5947803  28.2729866  74.5664699  63.8872661  28.9620292  74.1836119
  56.4494866  27.5019019  73.7553731  55.6126774  27.0741193  73.5737732
  56.4218511  27.6951462  74.6924522  63.2892322  17.4140949  84.4594977
  63.3380477  18.2903071  84.0772746  63.8314836  16.8718342  83.8866620
  73.7747167  27.9582072  83.7396114  72.9842711  27.9406211  83.2000613
  73.5380522  28.4970365  84.4945150  73.8945042  24.8074538  81.0528842
  73.9443047  24.6424546  81.9944365  73.7858966  23.9401797  80.6626723
  62.7781301  27.4863084  68.3420931  62.9269421  28.1698548  67.6887604
  63.5847745  27.4668174  68.8570387  71.1848805  20.7905466  82.3688149
  72.0858668  20.6511931  82.0772147  71.2596779  20.9559921  83.3086327
  65.5191610  18.1672321  81.2141335  64.6494920  18.4605887  80.9423924
  65.7551090  18.7512766  81.9348599  75.3963239  27.2271480  81.2970864
  75.1048048  27.5901460  82.1334325  74.7835371  26.5138488  81.1184196
  76.5958922  24.7924359  73.8173434  77.4305813  25.2314163  73.9810995
  76.7318050  24.3163013  72.9981680  73.6450427  22.3504094  79.7650922
  74.1204549  22.5431741  78.9569773  72.7215993  22.4063280  79.5194306
  60.5333934  23.5128261  69.3482000  60.2879976  22.6090591  69.5462210
  60.7029849  23.5145412  68.4061478  68.2230644  14.3851938  78.7306756
  68.7412588  15.1212965  78.4053244  67.8685777  14.6915931  79.5653515
  59.8029582  19.2456619  66.8468162  59.1098827  19.3200974  66.1908198
  59.5581334  18.4816963  67.3689679  68.4743238  10.8052220  74.2507652
  68.7544992  10.1375409  74.8768079  69.2593845  10.9981316  73.7382316
  66.2776707  29.9811214  65.8132679  65.7050674  30.6001401  65.3603151
  66.8509500  30.5310576  66.3472601  72.3452096  19.2269854  77.9979228
  73.2969519  19.3267952  78.0191452  72.1755547  18.4348123  78.5077312
  70.3666476  16.3125438  78.1838628  69.7716408  16.5930450  77.4885117
  70.0816173  16.8019339  78.9555370  69.4973966  30.2648364  66.9441261
  70.4304640  30.1993926  67.1474137  69.4097179  31.1004631  66.4855794
  72.1261983  29.5814235  63.9045209  72.0475615  29.2474098  64.7980966
  72.9471650  30.0736003  63.9036681  74.8240174  22.4475974  77.1121527
  74.7916494  21.5091975  77.2981211  75.4340798  22.5260011  76.3787352
  66.6623505  21.3172027  63.1548731  67.6082610  21.1878235  63.2237149
  66.2837750  20.5786689  63.6318159  74.9734663  19.2387017  77.1579810
  74.4573711  18.4545474  76.9709739  75.8574611  18.9105734  77.3226330
  72.6345390  12.9828033  73.1175623  72.4370211  12.6743121  74.0018955
  73.2445095  13.7089672  73.2473553  80.6416724  23.5091981  76.2527564
  81.3720113  23.2477269  76.8135267  80.0323670  22.7720703  76.2929632
  78.7232021  21.6499843  76.8502015  77.9965185  21.5155808  76.2418507
  78.3079308  21.9576672  77.6558733  66.5462198  25.3689773  84.6149388
  67.4665207  25.5468372  84.8089435  66.5111781  24.4245819  84.4629087
  64.8466422  19.2422003  63.0903616  63.9397878  18.9455116  63.1666330
  65.1242403  18.9451821  62.2237903  55.7644363  20.5628367  73.5402663
  55.4447147  19.7093675  73.2477037  55.2177791  20.7776945  74.2960630
  59.5424270  23.2790808  77.2572169  59.7610280  24.2107916  77.2760203
  59.9550044  22.9198782  78.0426973  66.4628488  13.7858893  69.2447858
  65.6529216  13.4405978  69.6203104  67.1512905  13.4766437  69.8335469
  68.3919036  12.8636940  70.8672154  68.9450075  13.2832393  71.5262177
  68.6289123  11.9372688  70.9095110  64.4152136  18.8524014  86.6474918
  64.3148862  19.8018371  86.5787009  64.1973678  18.5242252  85.7750988
  63.6165207  16.1008939  63.2315596  64.4784371  16.4263837  63.4911413
  63.8015551  15.3140435  62.7188661  55.6332623  24.1831278  75.5095784
  54.9396094  23.7685231  74.9965739  56.3805614  24.2251815  74.9129203
  71.7697843  14.9737465  70.3750819  71.1896512  15.6322269  69.9928871
  71.5033776  14.1514810  69.9638236  70.2201410  14.3742523  72.5772139
  70.7201188  14.4859057  71.7686458  70.8637018  14.0703576  73.2172947
  64.2783406  22.2821152  85.4639980  63.7950487  23.0821513  85.6703869
  64.3644345  22.2929097  84.5107424  57.5469365  24.1149532  73.3861799
  57.5240053  24.2137219  72.4343682  57.8570002  24.9614683  73.7078965
  60.2056743  26.1725687  77.5008414  61.1599997  26.1409629  77.4338345
  60.0069267  25.7116311  78.3158640  60.7956125  24.7426803  80.0679211
  61.6149014  25.2370882  80.0914049  61.0692933  23.8258771  80.0396779
  70.5522721  17.1337555  69.4307167  69.6648576  17.4187206  69.2127362
  70.9676710  16.9731319  68.5834444  73.9037258  17.1584076  73.1461506
  74.6797648  17.6480529  73.4186123  73.1785392  17.5842131  73.6033376
  76.3409816  17.8711696  74.2035447  76.9354307  17.6307432  73.4928755
  76.4136400  17.1518826  74.8308983  58.5606972  31.7145307  74.5178612
  58.4261440  30.9545707  73.9516610  58.1439034  32.4386206  74.0507400
  69.6965935  26.8982230  63.5255187  70.4001785  27.1032233  64.1412842
  68.9728584  27.4658992  63.7904270  70.5263745  22.6492091  69.6457457
  70.4698947  23.1060643  68.8065089  71.0792088  21.8882776  69.4680300
  74.3368551  18.4381823  70.4707577  74.0805485  18.0378459  71.3015784
  73.7121419  19.1525617  70.3457716  78.6480889  21.1777897  72.9778868
  78.0880447  21.2471086  73.7510430  78.0424392  21.0018881  72.2578364
  61.7176098  32.6114624  74.7297054  61.6008482  33.5560056  74.6275744
  60.8968544  32.3088185  75.1182853  71.6052632  27.3364759  65.5753647
  72.4398236  26.9045958  65.3931122  71.4436975  27.1646773  66.5030541
  71.2598524  23.8396873  66.9409986  71.2047328  23.6741144  65.9998430
  70.6344580  24.5472906  67.0972176  56.0491039  19.0764937  80.7671408
  56.6949903  18.5663891  81.2558634  55.8408191  19.8133619  81.3414834
  68.5744432  26.1445785  86.2663549  69.4435591  26.3186437  85.9050184
  68.0951183  26.9640201  86.1439278  64.5694650  13.3404982  66.5195305
  64.5573320  14.2846822  66.6763575  65.4618072  13.1575127  66.2254766
  62.7430612  33.2642886  77.9452983  63.6457859  33.2966496  78.2619478
  62.5167982  32.3343336  77.9599318  64.4984214  32.0173872  74.6063061
  63.5479845  32.0175734  74.4927434  64.8016700  31.2706607  74.0899096
  68.3846769   9.9347758  70.7741241  67.6179165   9.3806245  70.9197924
  68.7957474  10.0069627  71.6355393  60.3888530  16.2232554  84.8646423
  61.2519992  15.8669359  85.0749747  59.8153941  15.8846449  85.5521827
  80.2336907  37.8534410  75.6708824  80.8715317  37.7341158  74.9672164
  80.1157750  38.8015254  75.7296776  77.0426614  37.8061839  75.6070348
  76.7045125  37.6902903  74.7190883  77.9116382  37.4053004  75.5871354
  72.9013429  39.6597315  71.5967239  72.3378294  39.5687252  70.8283527
  72.7865824  38.8397219  72.0769732  77.5246397  38.9596690  81.5656554
  77.5135037  38.5649489  80.6937058  77.6867036  38.2262763  82.1590325
  70.4477861  41.1548507  74.4351460  71.2399153  40.8139331  74.0197759
  70.6874511  41.2643482  75.3553613  78.4812988  43.3268283  66.9081704
  77.8300968  43.9122363  66.5215718  79.2757351  43.8574478  66.9676742
  72.4068615  40.4157420  67.3068839  73.1799491  39.8686407  67.1681714
  72.7594014  41.2801669  67.5183300  74.2453658  41.7433802  80.5135738
  73.9543524  42.6479433  80.3982404  74.8810642  41.7850330  81.2279807
  75.1709865  39.1210651  77.1037098  75.7673437  38.8966673  76.3894060
  75.2284836  38.3795396  77.7062545  74.7434893  36.5750086  64.9387288
  74.9960414  36.0531607  64.1770751  73.8059452  36.4116231  65.0413972
  79.7878176  35.5785864  72.7462032  80.5741265  35.1605287  72.3952449
  80.0516880  36.4831956  72.9143680  79.9588253  41.0158715  67.4450689
  79.3234086  41.0893341  68.1571593  79.6285660  41.6052313  66.7669768
  74.4631182  38.4778192  67.1411663  74.3467440  37.8023095  67.8092748
  74.5733442  37.9910566  66.3243816  82.7112023  29.2282672  78.1089619
  82.3795348  30.0978083  77.8850834  82.1157637  28.9118956  78.7883649
  76.4468210  32.9678239  65.8419701  76.6142612  33.8358475  66.2090172
  76.2565379  33.1305520  64.9180990  79.2043543  41.4295218  77.5085532
  78.9044266  42.3320256  77.4001339  78.8594602  41.1627401  78.3606684
  72.6556024  37.8809014  73.5422236  71.7306521  37.7485229  73.7499928
  72.9040438  38.6603234  74.0392178  76.4257431  35.4235896  66.8266368
  76.3057056  35.8692947  67.6651848  75.7310019  35.7721214  66.2679906
  70.0164835  37.5242288  74.3766025  70.1457217  37.7776767  75.2905437
  69.3362287  38.1169996  74.0570680  76.6781552  35.3667403  83.1317866
  75.9014886  35.9261324  83.1220731  77.3172115  35.8524186  83.6532736
  84.4702333  32.1494196  76.9660843  83.8276713  32.4426729  76.3200637
  83.9657262  32.0347117  77.7714039  82.1242497  35.8957369  67.6546702
  83.0360353  36.1284756  67.4794400  81.6152144  36.4794414  67.0921781
  74.9327925  38.1752857  82.6935833  75.6742609  38.7137901  82.4170657
  74.2264910  38.8019145  82.8507385  80.4083264  40.3181997  81.2907995
  80.8166620  39.8764408  80.5462627  79.6860526  39.7434625  81.5442188
  76.7614334  35.2554604  78.6641552  77.6075530  35.6794018  78.8076201
  76.7012972  34.5988228  79.3580115  80.7312079  40.8783188  75.0460284
  80.1020941  41.0428902  74.3436351  80.3437741  41.2924797  75.8171248
  79.9113780  32.9158972  80.3222725  79.6674712  33.6701033  79.7857001
  80.1873710  33.2944320  81.1569972  81.8652243  39.4597585  78.9999991
  82.0769138  40.1029345  78.3234372  81.8181991  38.6259901  78.5321921
  76.2840041  40.6157596  72.3110369  76.7478386  40.8945299  71.5214991
  76.0196839  39.7141040  72.1283459  73.1764122  40.1629077  75.2490132
  73.7465479  40.5916346  74.6107616  73.7672234  39.8811662  75.9474318
  75.2208927  36.7380748  69.1199934  75.9232970  37.1901792  69.5873860
  74.8889555  36.0964567  69.7479827  73.6689288  35.3292505  83.4951143
  73.0387949  36.0108786  83.7286540  73.5625376  35.2175587  82.5504281
  68.9634261  34.9964301  74.4217067  68.1733315  35.2521829  73.9457178
  69.4545508  35.8112639  74.5269108  82.9798070  42.3369540  77.1722348
  83.8015514  41.9349727  76.8905030  82.9760473  42.2337774  78.1238464
  70.9149006  35.3608880  71.3800544  70.1180170  35.4727574  71.8984040
  70.6874598  35.6995532  70.5141435  76.7454674  41.8853583  79.3283059
  76.8099106  42.3473991  80.1641230  76.0365598  41.2550948  79.4565369
  67.2471964  35.2494791  76.8532058  67.4980002  36.1341801  77.1189634
  67.7831512  35.0699393  76.0807150  76.4602692  43.5521691  69.1962039
  76.3248366  44.3973227  69.6246887  77.0012504  43.7540969  68.4327973
  72.9470031  29.6313271  85.8576394  72.5536977  29.0779469  86.5324038
  73.7636172  29.9423849  86.2482912  69.9132089  41.0697129  69.7689964
  70.4256610  41.8640379  69.9195529  70.5654802  40.3723419  69.7023566
  71.7226974  44.1862885  71.8512717  71.8993602  45.1080850  71.6633701
  72.5183807  43.8721304  72.2807097  75.8637992  31.0471150  83.4496651
  76.6047706  31.6478303  83.3701113  76.0955915  30.3048788  82.8914693
  71.0079330  36.2327517  81.7274880  70.8932845  35.3312774  82.0281979
  70.1523848  36.4791214  81.3759697  78.0871168  44.1745257  83.3262381
  77.6435022  43.3881636  83.0083286  78.7488382  44.3624408  82.6606272
  72.8458289  45.7041059  77.8523060  73.3965714  45.5758122  77.0800054
  72.0069765  46.0035948  77.5017952  80.1852406  44.4548057  81.3543782
  80.1670881  45.2756938  80.8624052  81.1072326  44.3302133  81.5793923
  76.6425460  41.9692187  82.1967291  77.1753797  41.2080475  81.9666599
  76.1139541  41.6765839  82.9391445  79.8095155  27.0752253  77.7260932
  79.4659425  27.9653894  77.6500043  80.1774118  26.8853910  76.8630517
  67.8781006  39.3985783  70.5449535  68.7156228  39.8082792  70.3283242
  68.0559273  38.4585225  70.5149728  79.7745438  37.0660864  66.2333368
  79.2592061  37.8365469  66.4721755  79.5022746  36.3926000  66.8566429
  77.3592549  31.9110565  71.2918606  76.5034145  31.5217415  71.1124245
  77.7719501  31.9902525  70.4318391  78.8891696  29.4456908  75.6910166
  78.3856491  29.4087043  74.8777971  79.1822302  30.3549651  75.7506822
  75.1334581  29.5295638  74.6976347  75.9987578  29.3338446  74.3382237
  75.2012090  29.3005989  75.6245704  84.7479712  39.8193219  68.1686541
  83.9709155  39.4804378  67.7241703  85.4271193  39.8245842  67.4941506
  79.5631741  34.9387956  68.0593149  79.2581877  35.2534105  68.9103292
  80.5162183  35.0169376  68.1020482  78.0078173  41.0978179  69.7086103
  77.4799534  40.3630939  69.3959340  77.5065676  41.8752856  69.4626071
  82.9871019  39.2927200  74.8253149  82.3294693  39.9826461  74.9133278
  83.7911418  39.6823632  75.1687135  72.7396900  31.7597846  72.0692714
  73.3140652  31.5373027  71.3365907  73.3267883  31.8286540  72.8221316
  81.7976478  37.6471572  72.8757091  82.3108359  38.2801564  73.3778800
  82.4477702  37.0472768  72.5100451  73.0666488  33.7902307  66.0888600
  72.2303800  34.1276993  66.4097874  72.9271257  33.6551286  65.1515736
  75.0419568  28.6339094  70.7967784  74.3883981  28.3188112  70.1724398
  75.0000042  28.0114835  71.5227607  76.1530773  38.9158390  62.7121076
  75.2457835  38.6847643  62.9112225  76.6501805  38.1196009  62.8995057
  79.0598852  47.6255897  65.6317762  78.3860551  47.9287594  66.2402720
  79.4464674  48.4284977  65.2823219  78.2757309  35.1221028  75.1215431
  77.3579870  35.3435975  74.9637119  78.6917452  35.1967339  74.2627139
  79.0592356  36.5212444  70.2518112  79.8064175  37.0333841  69.9425234
  79.3283946  36.1996496  71.1122505  77.3319006  39.0170984  67.2345066
  76.4230226  38.7330017  67.3317536  77.3614090  39.4370063  66.3748373
  82.5638274  42.6277574  71.0036233  82.1100601  41.7868484  71.0601424
  81.9332241  43.2638972  71.3411014  81.5071193  33.5569560  72.2336901
  80.7693950  33.0446946  72.5647143  81.7597967  33.1169942  71.4220178
  81.0071213  44.4654071  71.9386052  81.2994188  45.0259128  71.2198417
  81.5169834  44.7582632  72.6939211  81.6082821  26.3345812  72.8278670
  81.9141698  25.4743175  72.5404585  82.3335426  26.9263432  72.6277664
  67.9007177  36.7376499  71.2160268  67.7031577  36.1445859  70.4911335
  67.3453841  36.4328709  71.9336207  75.8803901  36.6299605  73.3354861
  75.9352510  35.6773441  73.2597338  75.0695103  36.7859044  73.8196160
  77.0295094  40.5579728  64.5733144  76.5914524  39.8415587  64.1138782
  77.7705535  40.7855843  64.0118236  73.8196260  35.2476665  71.0945240
  73.0064126  35.5470835  71.5010432  74.3155255  34.8532354  71.8119722
  75.9704838  45.2434422  73.0279505  75.9281017  45.4695268  72.0988037
  76.8867537  45.0097796  73.1765306  79.4170472  35.7118489  79.9260134
  79.7719860  35.9389962  80.7854600  80.0642603  36.0436866  79.3037389
  85.1468209  38.8336925  70.6309463  85.0086108  39.0238521  69.7030652
  84.7904428  39.5956308  71.0877514  73.3110335  32.8195020  76.7106475
  73.9509715  32.6783779  76.0129438  72.4787866  32.5329534  76.3345077
  74.0870639  42.1197451  72.8241467  74.8811238  41.6247771  72.6224042
  73.3762331  41.5915314  72.4609173  78.9065484  44.5015546  77.1753835
  78.9602506  45.0706483  77.9431551  78.0380265  44.6717431  76.8107872
  70.3953403  36.2640532  68.9001220  69.4650991  36.2024988  69.1171182
  70.4910875  35.7416485  68.1037861  70.3138952  32.7895345  71.4879462
  70.5745769  33.7040679  71.3788622  71.1356124  32.3219788  71.6376075
  71.7863877  34.2033102  78.6578286  72.4586930  33.9950465  78.0090935
  70.9593663  34.0055188  78.2183519  86.0353138  40.9437153  78.1753620
  86.2289028  41.8482963  78.4212895  85.9353756  40.4844572  79.0092205
  77.6889449  30.8295043  80.6743947  77.0417364  31.5284993  80.5808424
  78.4590464  31.2631187  81.0420195  81.0968247  41.0943896  83.7494500
  80.9453753  40.8654447  82.8324584  81.0872926  42.0514497  83.7625846
  77.8653583  38.6675808  78.7340767  78.7945643  38.8186968  78.5609734
  77.4444613  38.7559829  77.8789413  76.6641915  42.6926473  76.5039305
  76.5253001  42.3245257  77.3765243  75.8756511  43.2074112  76.3323262
  77.2590067  47.7935569  67.8464841  77.4341823  47.3223612  68.6610464
  76.5722855  48.4201335  68.0746102  78.2147130  42.0708075  73.8928142
  77.8796963  42.0308845  74.7885792  77.7151076  41.4052791  73.4198553
  72.1891374  37.4775705  79.4180724  72.0511172  36.7455944  80.0192263
  73.0996298  37.3884606  79.1364911  81.1506322  39.4164110  64.1665202
  80.5335493  38.6910938  64.0698255  80.6822810  40.1773470  63.8232276
  74.8173675  37.1895665  78.9064403  75.5273293  36.5488857  78.8651022
  74.7742983  37.4408560  79.8290584  82.8060454  44.1263018  81.8270982
  82.7473000  43.4422238  81.1601565  83.2079972  44.8682008  81.3751608
  73.5302609  34.1760883  80.7260043  72.9939966  33.7251621  81.3781639
  72.9419317  34.3106791  79.9830507  71.8251152  50.9424932  74.6204701
  72.0647751  51.5743456  75.2983720  70.9820349  50.5912972  74.9070061
  72.9404868  33.6349534  63.2886506  72.0634334  33.5138335  62.9248753
  73.4162621  32.8435612  63.0365395  82.8077861  42.0902602  80.0584962
  81.9204640  41.7528524  80.1811361  83.3776412  41.3585633  80.2953727
  64.4607008  38.4226694  73.3828013  65.1478048  38.1088424  72.7949029
  64.3055137  39.3268058  73.1095265  69.2641730  33.3116890  77.8113037
  69.1799919  32.7042560  77.0763447  68.4424436  33.8025909  77.8122533
  76.3379014  46.7504054  77.0246205  76.2649186  47.5559026  77.5365510
  75.8956407  46.9496020  76.1994227  76.1268794  45.9875824  70.5349027
  75.3436316  46.5297505  70.6287251  76.8261539  46.5049804  70.9343268
  79.4365444  31.7970454  73.1783232  79.9334144  31.0440416  72.8584302
  78.6652425  31.8334771  72.6126442  78.7977698  46.6490888  79.1804364
  79.5105670  47.2838353  79.1080265  78.3067726  46.7454754  78.3644366
  80.5195225  40.5542141  70.7521656  79.5851503  40.6743604  70.5826360
  80.6971893  39.6514608  70.4881665  83.9067776  36.3959460  71.2871690
  84.3728228  37.2287452  71.2131992  84.3575277  35.9304442  71.9916948
  73.8489611  44.3985332  80.0009935  74.5499071  45.0321815  80.1539329
  73.3784726  44.7400063  79.2405574  81.9744007  42.7403282  68.2857842
  82.2503851  42.6259876  69.1951716  81.1048506  42.3420767  68.2470015
  81.8784439  28.7640047  75.3262591  80.9647519  28.9944274  75.4944798
  82.3077540  28.8478491  76.1776623  81.6490897  36.9529939  77.8262485
  80.9962347  37.2005847  77.1714938  82.0271277  36.1394078  77.4924962
  78.6098071  46.9889633  71.9290655  78.7920466  46.1711288  72.3918408
  79.4331057  47.2057325  71.4915545  78.9440237  45.9157818  69.1905704
  79.4728003  45.4050272  68.5775866  79.2068456  45.6000348  70.0551237
  77.6978470  37.6949750  84.3128522  77.0219107  37.5943880  84.9830897
  78.5206104  37.5388964  84.7764519  69.4457329  43.9321687  76.9341037
  70.0310766  43.1865375  77.0668942  69.2482168  44.2425644  77.8177701
  72.2995985  46.9672934  71.9503480  71.6306360  47.4519062  71.4667520
  72.1608854  47.2142155  72.8646858  64.0374984  36.5027287  75.6545481
  64.0759084  35.9690878  76.4482599  63.5315277  35.9762493  75.0356458
  76.4401253  49.0016678  78.5486138  76.9919561  49.1648299  79.3135223
  76.7807447  49.5921116  77.8766163  71.4165746  31.3491828  79.1508023
  71.4807073  32.2106659  78.7385421  71.3532867  30.7365829  78.4180381
  70.8918019  33.4214960  82.7981057  71.5190058  33.0392038  83.4118581
  70.0345938  33.2029162  83.1636750  81.2912127  43.8277935  84.4034793
  81.8352031  44.4407894  83.9089747  80.7098972  44.3857514  84.9201806
  67.6683562  35.2291389  68.7299412  67.9637003  34.3202068  68.6766466
  66.7671597  35.2079129  68.4080414  79.5769640  46.9498653  75.5349820
  79.4520780  46.1488393  75.0260766  80.2348732  47.4444847  75.0463790
  71.1977809  33.3047386  74.7126961  70.4764394  33.9183354  74.5734434
  71.9871064  33.8405151  74.6343606  81.6404549  44.7507673  77.1629370
  80.6934884  44.6313025  77.0907697  81.9887322  43.8630172  77.2455632
  74.0004122  30.6401812  80.9867612  74.5238524  30.8864109  81.7493922
  73.7816455  31.4721847  80.5670750  69.3971403  32.9105487  68.8538737
  69.0684109  32.0302866  68.6713843  69.7510774  32.8553156  69.7415126
  78.6450982  44.5460390  73.3633723  78.4975945  43.6177097  73.5441293
  79.4704476  44.5680480  72.8790798  72.5113226  33.1978457  69.2214215
  72.8509299  33.7264378  68.4992823  72.9585347  33.5358863  69.9972781
  82.2485104  45.3688948  74.4498595  83.1731651  45.1631810  74.3123047
  82.0800407  45.1205350  75.3587937  75.2056667  31.5815507  78.6717283
  74.8653488  30.7823321  79.0737963  74.4995673  31.8817218  78.0994116
  75.8573139  28.6664820  77.1244606  76.6799208  28.1925298  77.0023496
  76.1011203  29.4455304  77.6243292  74.4981374  31.6953078  67.4207508
  75.2189736  32.0734331  66.9171224  73.8746678  32.4141955  67.5242485
  78.6412496  32.3998227  68.3565840  78.8576111  33.2822865  68.0554668
  78.1606564  32.0084441  67.6271482  73.3811718  35.3583941  74.9336584
  73.2356299  35.6724244  75.8260866  72.9036921  35.9768841  74.3807483
  75.2408101  32.3486489  74.9817474  75.2269669  31.4527582  74.6449772
  75.9580529  32.3557152  75.6155760  77.0934231  32.7823829  77.0270601
  76.8352009  33.7040899  77.0254932  76.5619272  32.3854263  77.7171066
  82.0380420  45.8874616  69.8060687  82.2117298  45.3221038  69.0534539
  82.5309311  46.6875511  69.6240177  67.8557380  37.8989285  77.8724246
  67.3110848  38.6749093  78.0044520  68.7336730  38.2460089  77.7143367
  74.6444997  31.2300869  70.2505044  74.7660908  30.3017515  70.4495932
  74.3547039  31.2439555  69.3383360  87.8919811  38.6511039  71.4250987
  88.3350957  37.9018364  71.0270110  87.0146322  38.6421175  71.0424719
  83.0255593  45.2041380  66.9057585  83.7206497  45.8248073  67.1244900
  83.3678743  44.3536731  67.1809963  68.6423402  37.0259181  80.7654403
  67.9005138  37.1741817  81.3519033  68.3216146  37.2867447  79.9021152
  84.9247016  42.6541086  68.4344916  85.4498340  42.9928359  67.7094236
  84.8369368  41.7188101  68.2508051  76.5867064  46.5675159  80.5634793
  76.8954191  46.3224306  81.4357492  77.3842546  46.7721798  80.0753663
  76.6087677  48.7213069  72.7940169  76.1692667  48.2289448  73.4873026
  77.3595793  48.1786037  72.5532244  69.0880015  44.9124610  72.7964797
  69.9138035  44.6128382  72.4163441  68.7374067  44.1432232  73.2454586
  74.0561549  44.2651078  74.8662471  73.4341558  43.6021783  74.5664699
  74.7266416  44.2912210  74.1836119  67.2888621  42.8310936  73.7553731
  66.4520529  42.4033111  73.5737732  67.2612266  43.0243380  74.6924522
  74.1286076  32.7432866  84.4594977  74.1774232  33.6194989  84.0772746
  74.6708590  32.2010259  83.8866620  84.6140922  43.2873989  83.7396114
  83.8236466  43.2698128  83.2000613  84.3774276  43.8262283  84.4945150
  84.7338797  40.1366456  81.0528842  84.7836802  39.9716463  81.9944365
  84.6252720  39.2693715  80.6626723  73.6175056  42.8155002  68.3420931
  73.7663176  43.4990466  67.6887604  74.4241499  42.7960092  68.8570387
  82.0242559  36.1197384  82.3688149  82.9252422  35.9803849  82.0772147
  82.0990534  36.2851839  83.3086327  76.3585365  33.4964239  81.2141335
  75.4888674  33.7897805  80.9423924  76.5944845  34.0804684  81.9348599
  86.2356994  42.5563397  81.2970864  85.9441802  42.9193378  82.1334325
  85.6229125  41.8430406  81.1184196  87.4352676  40.1216277  73.8173434
  88.2699567  40.5606081  73.9810995  87.5711805  39.6454930  72.9981680
  84.4844182  37.6796012  79.7650922  84.9598304  37.8723658  78.9569773
  83.5609747  37.7355198  79.5194306  71.3727689  38.8420179  69.3482000
  71.1273730  37.9382509  69.5462210  71.5423603  38.8437330  68.4061478
  79.0624398  29.7143856  78.7306756  79.5806342  30.4504882  78.4053244
  78.7079531  30.0207849  79.5653515  70.6423336  34.5748537  66.8468162
  69.9492581  34.6492892  66.1908198  70.3975088  33.8108880  67.3689679
  79.3136993  26.1344138  74.2507652  79.5938746  25.4667327  74.8768079
  80.0987600  26.3273234  73.7382316  77.1170461  45.3103132  65.8132679
  76.5444428  45.9293319  65.3603151  77.6903255  45.8602494  66.3472601
  83.1845851  34.5561772  77.9979228  84.1363274  34.6559870  78.0191452
  83.0149301  33.7640041  78.5077312  81.2060230  31.6417355  78.1838628
  80.6110163  31.9222368  77.4885117  80.9209927  32.1311256  78.9555370
  80.3367721  45.5940282  66.9441261  81.2698394  45.5285844  67.1474137
  80.2490934  46.4296549  66.4855794  82.9655738  44.9106152  63.9045209
  82.8869369  44.5766016  64.7980966  83.7865404  45.4027920  63.9036681
  85.6633929  37.7767892  77.1121527  85.6310249  36.8383892  77.2981211
  86.2734552  37.8551928  76.3787352  77.5017260  36.6463945  63.1548731
  78.4476364  36.5170153  63.2237149  77.1231505  35.9078607  63.6318159
  85.8128417  34.5678935  77.1579810  85.2967466  33.7837392  76.9709739
  86.6968366  34.2397652  77.3226330  83.4739144  28.3119951  73.1175623
  83.2763965  28.0035039  74.0018955  84.0838850  29.0381590  73.2473553
  91.4810479  38.8383899  76.2527564  92.2113867  38.5769187  76.8135267
  90.8717424  38.1012621  76.2929632  89.5625776  36.9791761  76.8502015
  88.8358939  36.8447726  76.2418507  89.1473063  37.2868590  77.6558733
  77.3855952  40.6981691  84.6149388  78.3058962  40.8760290  84.8089435
  77.3505535  39.7537736  84.4629087  75.6860177  34.5713921  63.0903616
  74.7791632  34.2747034  63.1666330  75.9636158  34.2743739  62.2237903
  66.6038117  35.8920285  73.5402663  66.2840901  35.0385593  73.2477037
  66.0571545  36.1068863  74.2960630  70.3818025  38.6082725  77.2572169
  70.6004034  39.5399833  77.2760203  70.7943799  38.2490700  78.0426973
  77.3022242  29.1150811  69.2447858  76.4922971  28.7697896  69.6203104
  77.9906659  28.8058355  69.8335469  79.2312791  28.1928858  70.8672154
  79.7843829  28.6124311  71.5262177  79.4682877  27.2664606  70.9095110
  75.2545890  34.1815931  86.6474918  75.1542617  35.1310288  86.5787009
  75.0367432  33.8534170  85.7750988  74.4558961  31.4300856  63.2315596
  75.3178125  31.7555755  63.4911413  74.6409306  30.6432352  62.7188661
  66.4726377  39.5123196  75.5095784  65.7789849  39.0977149  74.9965739
  67.2199368  39.5543733  74.9129203  82.6091598  30.3029383  70.3750819
  82.0290267  30.9614187  69.9928871  82.3427531  29.4806727  69.9638236
  75.1177160  37.6113070  85.4639980  74.6344242  38.4113430  85.6703869
  75.2038099  37.6221015  84.5107424  68.3863120  39.4441450  73.3861799
  68.3633808  39.5429137  72.4343682  68.6963756  40.2906601  73.7078965
  71.0450498  41.5017605  77.5008414  71.9993751  41.4701547  77.4338345
  70.8463021  41.0408229  78.3158640  71.6349880  40.0718721  80.0679211
  72.4542769  40.5662800  80.0914049  71.9086687  39.1550689  80.0396779
  81.3916476  32.4629473  69.4307167  80.5042331  32.7479124  69.2127362
  81.8070465  32.3023237  68.5834444  84.7431012  32.4875994  73.1461506
  85.5191402  32.9772447  73.4186123  84.0179146  32.9134048  73.6033376
  87.1803571  33.2003613  74.2035447  87.7748061  32.9599349  73.4928755
  87.2530154  32.4810744  74.8308983  69.4000726  47.0437224  74.5178612
  69.2655194  46.2837625  73.9516610  68.9832789  47.7678124  74.0507400
  80.5359689  42.2274148  63.5255187  81.2395539  42.4324150  64.1412842
  79.8122338  42.7950910  63.7904270  81.3657500  37.9784009  69.6457457
  81.3092701  38.4352561  68.8065089  81.9185842  37.2174694  69.4680300
  85.1762306  33.7673741  70.4707577  84.9199240  33.3670377  71.3015784
  84.5515174  34.4817535  70.3457716  89.4874643  36.5069814  72.9778868
  88.9274201  36.5763004  73.7510430  88.8818147  36.3310799  72.2578364
  72.5569852  47.9406541  74.7297054  72.4402236  48.8851974  74.6275744
  71.7362298  47.6380103  75.1182853  82.4446387  42.6656677  65.5753647
  83.2791991  42.2337876  65.3931122  82.2830730  42.4938691  66.5030541
  82.0992279  39.1688790  66.9409986  82.0441083  39.0033062  65.9998430
  81.4738334  39.8764823  67.0972176  66.8884794  34.4056855  80.7671408
  67.5343658  33.8955809  81.2558634  66.6801945  35.1425536  81.3414834
  79.4138186  41.4737702  86.2663549  80.2829346  41.6478354  85.9050184
  78.9344938  42.2932119  86.1439278  75.4088404  28.6696899  66.5195305
  75.3967074  29.6138739  66.6763575  76.3011826  28.4867045  66.2254766
  73.5824366  48.5934803  77.9452983  74.4851613  48.6258413  78.2619478
  73.3561736  47.6635254  77.9599318  75.3377968  47.3465790  74.6063061
  74.3873599  47.3467651  74.4927434  75.6410454  46.5998524  74.0899096
  71.2282285  31.5524472  84.8646423  72.0913746  31.1961277  85.0749747
  70.6547696  31.2138367  85.5521827  91.0730662  53.1826328  75.6708824
  91.7109072  53.0633075  74.9672164  90.9551505  54.1307172  75.7296776
  87.8820368  53.1353756  75.6070348  87.5438880  53.0194821  74.7190883
  88.7510136  52.7344921  75.5871354  83.7407184  54.9889233  71.5967239
  83.1772049  54.8979170  70.8283527  83.6259579  54.1689137  72.0769732
  88.3640151  54.2888608  81.5656554  88.3528792  53.8941406  80.6937058
  88.5260791  53.5554681  82.1590325  81.2871616  56.4840424  74.4351460
  82.0792908  56.1431249  74.0197759  81.5268266  56.5935399  75.3553613
  89.3206743  58.6560200  66.9081704  88.6694722  59.2414281  66.5215718
  90.1151105  59.1866395  66.9676742  83.2462370  55.7449338  67.3068839
  84.0193246  55.1978325  67.1681714  83.5987769  56.6093587  67.5183300
  85.0847412  57.0725720  80.5135738  84.7937278  57.9771351  80.3982404
  85.7204397  57.1142247  81.2279807  86.0103619  54.4502568  77.1037098
  86.6067191  54.2258591  76.3894060  86.0678591  53.7087314  77.7062545
  85.5828648  51.9042004  64.9387288  85.8354168  51.3823525  64.1770751
  84.6453207  51.7408149  65.0413972  90.6271930  50.9077782  72.7462032
  91.4135020  50.4897205  72.3952449  90.8910635  51.8123874  72.9143680
  90.7982008  56.3450632  67.4450689  90.1627841  56.4185259  68.1571593
  90.4679414  56.9344231  66.7669768  96.0280357  50.8453015  73.6495010
  96.7605529  50.2752232  73.8832840  95.2719713  50.4574616  74.0901516
  85.3024936  53.8070110  67.1411663  85.1861194  53.1315013  67.8092748
  85.4127196  53.3202484  66.3243816  87.6456477  53.2680257  70.8458353
  87.2814684  52.7410878  71.5571274  88.5023593  52.8778726  70.6724838
  93.5505778  44.5574589  78.1089619  93.2189103  45.4270000  77.8850834
  92.9551391  44.2410873  78.7883649  87.2861964  48.2970156  65.8419701
  87.4536367  49.1650393  66.2090172  87.0959133  48.4597438  64.9180990
  90.0437297  56.7587135  77.5085532  89.7438020  57.6612174  77.4001339
  89.6988357  56.4919318  78.3606684  83.4949779  53.2100932  73.5422236
  82.5700275  53.0777146  73.7499928  83.7434192  53.9895151  74.0392178
  93.4434441  49.2769675  75.1882969  92.5351318  49.2085084  74.8941730
  93.3922037  49.7541620  76.0164794  87.2651185  50.7527814  66.8266368
  87.1450810  51.1984865  67.6651848  86.5703773  51.1013132  66.2679906
  80.8558590  52.8534206  74.3766025  80.9850971  53.1068685  75.2905437
  80.1756041  53.4461914  74.0570680  85.0258077  63.5231456  70.4756499
  84.9482107  64.4739281  70.5544980  84.4219721  63.1777328  71.1331426
  95.3096088  47.4786114  76.9660843  94.6670468  47.7718647  76.3200637
  94.8051016  47.3639034  77.7714039  92.9636251  51.2249287  67.6546702
  93.8754107  51.4576674  67.4794400  92.4545898  51.8086331  67.0921781
  85.7721679  53.5044774  82.6935833  86.5136364  54.0429818  82.4170657
  85.0658665  54.1311063  82.8507385  91.2477019  55.6473915  81.2907995
  91.6560375  55.2056325  80.5462627  90.5254280  55.0726542  81.5442188
  87.6008089  50.5846522  78.6641552  88.4469284  51.0085935  78.8076201
  87.5406727  49.9280146  79.3580115  91.5705834  56.2075106  75.0460284
  90.9414696  56.3720820  74.3436351  91.1831496  56.6216715  75.8171248
  95.4495065  57.1429543  72.4004647  94.7646104  57.5228445  71.8501681
  95.5338915  57.7524870  73.1336595  90.7507534  48.2450890  80.3222725
  90.5068466  48.9992951  79.7857001  91.0267465  48.6236238  81.1569972
  92.7045997  54.7889502  78.9999991  92.9162892  55.4321262  78.3234372
  92.6575745  53.9551819  78.5321921  90.3072226  47.4007323  75.9036563
  89.4456705  47.6988577  76.1953301  90.3334661  47.6177722  74.9717596
  87.1233795  55.9449514  72.3110369  87.5872141  56.2237217  71.5214991
  86.8590593  55.0432958  72.1283459  84.0157876  55.4920995  75.2490132
  84.5859234  55.9208264  74.6107616  84.6065988  55.2103580  75.9474318
  86.0602681  52.0672666  69.1199934  86.7626725  52.5193710  69.5873860
  85.7283310  51.4256485  69.7479827  84.5083043  50.6584423  83.4951143
  83.8781704  51.3400703  83.7286540  84.4019131  50.5467504  82.5504281
  79.8028015  50.3256219  74.4217067  79.0127069  50.5813747  73.9457178
  80.2939263  51.1404556  74.5269108  93.8191825  57.6661458  77.1722348
  94.6409269  57.2641645  76.8905030  93.8154228  57.5629692  78.1238464
  81.7542761  50.6900798  71.3800544  80.9573924  50.8019492  71.8984040
  81.5268353  51.0287450  70.5141435  78.0865718  50.5786709  76.8532058
  78.3373757  51.4633719  77.1189634  78.6225267  50.3991311  76.0807150
 101.9097818  54.0100206  73.5207320 101.1561526  53.4407604  73.3651324
 102.0445359  53.9762871  74.4677954  87.2996446  58.8813609  69.1962039
  87.1642121  59.7265144  69.6246887  87.8406259  59.0832886  68.4327973
  83.7863786  44.9605188  85.8576394  83.3930731  44.4071387  86.5324038
  84.6029926  45.2715767  86.2482912  82.5620728  59.5154803  71.8512717
  82.7387356  60.4372768  71.6633701  83.3577562  59.2013222  72.2807097
  86.7031747  46.3763068  83.4496651  87.4441460  46.9770221  83.3701113
  86.9349670  45.6340705  82.8914693  81.8473085  51.5619435  81.7274880
  81.7326600  50.6604692  82.0281979  80.9917602  51.8083132  81.3759697
  88.9264922  59.5037175  83.3262381  88.4828777  58.7173554  83.0083286
  89.5882136  59.6916326  82.6606272  83.6852044  61.0332977  77.8523060
  84.2359469  60.9050040  77.0800054  82.8463520  61.3327866  77.5017952
  91.0246160  59.7839975  81.3543782  91.0064636  60.6048856  80.8624052
  91.9466081  59.6594050  81.5793923  87.4819215  57.2984105  82.1967291
  88.0147551  56.5372393  81.9666599  86.9533296  57.0057756  82.9391445
  90.6488910  42.4044170  77.7260932  90.3053179  43.2945812  77.6500043
  91.0167872  42.2145828  76.8630517  90.6139192  52.3952782  66.2333368
  90.0985816  53.1657386  66.4721755  90.3416501  51.7217918  66.8566429
  88.1986303  47.2402482  71.2918606  87.3427900  46.8509333  71.1124245
  88.6113255  47.3194443  70.4318391  89.7285450  44.7748826  75.6910166
  89.2250246  44.7378961  74.8777971  90.0216057  45.6841568  75.7506822
  85.9728336  44.8587555  74.6976347  86.8381333  44.6630364  74.3382237
  86.0405845  44.6297907  75.6245704  95.5873466  55.1485136  68.1686541
  94.8102909  54.8096296  67.7241703  96.2664947  55.1537759  67.4941506
  90.4025496  50.2679874  68.0593149  90.0975631  50.5826023  68.9103292
  91.3555938  50.3461294  68.1020482  88.8471927  56.4270097  69.7086103
  88.3193289  55.6922857  69.3959340  88.3459430  57.2044773  69.4626071
  93.8264773  54.6219117  74.8253149  93.1688448  55.3118379  74.9133278
  94.6305173  55.0115549  75.1687135  83.5790655  47.0889763  72.0692714
  84.1534407  46.8664945  71.3365907  84.1661637  47.1578458  72.8221316
  92.6370232  52.9763490  72.8757091  93.1502114  53.6093482  73.3778800
  93.2871456  52.3764686  72.5100451  83.9060242  49.1194224  66.0888600
  83.0697554  49.4568911  66.4097874  83.7665012  48.9843204  65.1515736
  85.8813323  43.9631012  70.7967784  85.2277735  43.6480029  70.1724398
  85.8393797  43.3406753  71.5227607  86.9924528  54.2450307  62.7121076
  86.0851589  54.0139561  62.9112225  87.4895560  53.4487927  62.8995057
  89.8992606  62.9547814  65.6317762  89.2254305  63.2579511  66.2402720
  90.2858428  63.7576895  65.2823219  89.1151063  50.4512946  75.1215431
  88.1973624  50.6727893  74.9637119  89.5311207  50.5259256  74.2627139
  89.8986111  51.8504361  70.2518112  90.6457930  52.3625759  69.9425234
  90.1677700  51.5288414  71.1122505  88.1712761  54.3462902  67.2345066
  87.2623980  54.0621935  67.3317536  88.2007845  54.7661981  66.3748373
  93.4032028  57.9569492  71.0036233  92.9494355  57.1160401  71.0601424
  92.7725995  58.5930890  71.3411014  92.3464948  48.8861478  72.2336901
  91.6087705  48.3738864  72.5647143  92.5991721  48.4461859  71.4220178
  91.8464968  59.7945988  71.9386052  92.1387942  60.3551045  71.2198417
  92.3563588  60.0874549  72.6939211  92.4476575  41.6637730  72.8278670
  92.7535452  40.8035093  72.5404585  93.1729180  42.2555350  72.6277664
  78.7400931  52.0668416  71.2160268  78.5425331  51.4737777  70.4911335
  78.1847595  51.7620626  71.9336207  86.7197655  51.9591523  73.3354861
  86.7746265  51.0065359  73.2597338  85.9088857  52.1150962  73.8196160
  87.8688849  55.8871646  64.5733144  87.4308279  55.1707505  64.1138782
  88.6099290  56.1147761  64.0118236  84.6590015  50.5768582  71.0945240
  83.8457880  50.8762753  71.5010432  85.1549009  50.1824271  71.8119722
  86.8098593  60.5726339  73.0279505  86.7674772  60.7987186  72.0988037
  87.7261292  60.3389714  73.1765306  90.2564227  51.0410407  79.9260134
  90.6113614  51.2681880  80.7854600  90.9036358  51.3728784  79.3037389
  95.9861964  54.1628843  70.6309463  95.8479862  54.3530439  69.7030652
  95.6298182  54.9248226  71.0877514  84.1504090  48.1486938  76.7106475
  84.7903469  48.0075697  76.0129438  83.3181620  47.8621451  76.3345077
  96.0131343  56.2305370  75.6420734  96.4467850  56.1380659  76.4903789
  96.7262924  56.2062870  75.0040750  84.9264394  57.4489368  72.8241467
  85.7204992  56.9539689  72.6224042  84.2156086  56.9207232  72.4609173
  89.7459238  59.8307464  77.1753835  89.7996260  60.3998400  77.9431551
  88.8774019  60.0009349  76.8107872  81.2347157  51.5932450  68.9001220
  80.3044745  51.5316906  69.1171182  81.3304629  51.0708403  68.1037861
  81.1532706  48.1187263  71.4879462  81.4139523  49.0332596  71.3788622
  81.9749878  47.6511706  71.6376075  82.6257631  49.5325020  78.6578286
  83.2980685  49.3242382  78.0090935  81.7987418  49.3347106  78.2183519
  96.8746893  56.2729070  78.1753620  97.0682783  57.1774881  78.4212895
  96.7747511  55.8136490  79.0092205  88.5283203  46.1586961  80.6743947
  87.8811119  46.8576911  80.5808424  89.2984219  46.5923105  81.0420195
  91.9362001  56.4235813  83.7494500  91.7847508  56.1946365  82.8324584
  91.9266681  57.3806415  83.7625846  88.7047338  53.9967726  78.7340767
  89.6339398  54.1478886  78.5609734  88.2838368  54.0851747  77.8789413
  87.5035670  58.0218390  76.5039305  87.3646755  57.6537175  77.3765243
  86.7150266  58.5366030  76.3323262  88.0983822  63.1227487  67.8464841
  88.2735577  62.6515530  68.6610464  87.4116610  63.7493253  68.0746102
  89.0540885  57.3999993  73.8928142  88.7190717  57.3600763  74.7885792
  88.5544830  56.7344709  73.4198553  83.0285129  52.8067623  79.4180724
  82.8904927  52.0747862  80.0192263  83.9390052  52.7176523  79.1364911
  91.9900076  54.7456027  64.1665202  91.3729247  54.0202856  64.0698255
  91.5216565  55.5065388  63.8232276  93.6454208  59.4554936  81.8270982
  93.5866754  58.7714156  81.1601565  94.0473726  60.1973926  81.3751608
  83.7798622  48.9641452  63.2886506  82.9028089  48.8430253  62.9248753
  84.2556375  48.1727530  63.0365395  93.6471615  57.4194520  80.0584962
  92.7598394  57.0820442  80.1811361  94.2170166  56.6877551  80.2953727
  80.1035485  48.6408808  77.8113037  80.0193673  48.0334478  77.0763447
  79.2818191  49.1317826  77.8122533  87.1772769  62.0795972  77.0246205
  87.1042940  62.8850944  77.5365510  86.7350162  62.2787938  76.1994227
  86.9662548  61.3167742  70.5349027  86.1830070  61.8589422  70.6287251
  87.6655294  61.8341722  70.9343268  90.2759198  47.1262372  73.1783232
  90.7727898  46.3732334  72.8584302  89.5046180  47.1626688  72.6126442
  98.1288956  52.8302737  74.8201524  98.1178832  53.7127453  74.4495457
  97.2606335  52.4774288  74.6256061  89.6371452  61.9782806  79.1804364
  90.3499424  62.6130271  79.1080265  89.1461481  62.0746672  78.3644366
  91.3588979  55.8834059  70.7521656  90.4245258  56.0035521  70.5826360
  91.5365648  54.9806526  70.4881665  86.8594167  49.2679755  72.9054917
  86.4891955  48.7150795  73.5935822  87.3553260  48.6637888  72.3529917
  94.7461530  51.7251378  71.2871690  95.2121983  52.5579370  71.2131992
  95.1969031  51.2596360  71.9916948  84.6883366  59.7277250  80.0009935
  85.3892825  60.3613733  80.1539329  84.2178481  60.0691981  79.2405574
  92.8137762  58.0695199  68.2857842  93.0897605  57.9551794  69.1951716
  91.9442260  57.6712684  68.2470015  92.7178193  44.0931965  75.3262591
  91.8041273  44.3236192  75.4944798  93.1471295  44.1770409  76.1776623
  92.4884652  52.2821857  77.8262485  91.8356102  52.5297764  77.1714938
  92.8665032  51.4685995  77.4924962  89.4491826  62.3181550  71.9290655
  89.6314220  61.5003206  72.3918408  90.2724812  62.5349242  71.4915545
  89.7833991  61.2449735  69.1905704  90.3121758  60.7342190  68.5775866
  90.0462211  60.9292266  70.0551237  80.2851084  59.2613605  76.9341037
  80.8704521  58.5157293  77.0668942  80.0875922  59.5717561  77.8177701
  83.1389739  62.2964852  71.9503480  82.4700114  62.7810980  71.4667520
  83.0002609  62.5434072  72.8646858  74.8768739  51.8319205  75.6545481
  74.9152838  51.2982796  76.4482599  74.3709031  51.3054410  75.0356458
  87.2795008  64.3308596  78.5486138  87.8313316  64.4940217  79.3135223
  87.6201201  64.9213033  77.8766163  82.2559501  46.6783745  79.1508023
  82.3200827  47.5398576  78.7385421  82.1926621  46.0657747  78.4180381
  81.7311773  48.7506878  82.7981057  82.3583812  48.3683955  83.4118581
  80.8739692  48.5321080  83.1636750  92.1305882  59.1569853  84.4034793
  92.6745786  59.7699811  83.9089747  91.5492727  59.7149431  84.9201806
  78.5077316  50.5583307  68.7299412  78.8030757  49.6493985  68.6766466
  77.6065352  50.5371046  68.4080414  90.4163395  62.2790571  75.5349820
  90.2914534  61.4780311  75.0260766  91.0742486  62.7736764  75.0463790
  82.0371563  48.6339304  74.7126961  81.3158149  49.2475271  74.5734434
  82.8264819  49.1697068  74.6343606  92.4798303  60.0799591  77.1629370
  91.5328639  59.9604942  77.0907697  92.8281076  59.1922089  77.2455632
  84.8397877  45.9693730  80.9867612  85.3632278  46.2156027  81.7493922
  84.6210210  46.8013765  80.5670750  80.2365158  48.2397405  68.8538737
  79.9077864  47.3594784  68.6713843  80.5904528  48.1845073  69.7415126
  89.4844737  59.8752307  73.3633723  89.3369699  58.9469015  73.5441293
  90.3098230  59.8972398  72.8790798  83.3506981  48.5270374  69.2214215
  83.6903053  49.0556296  68.4992823  83.7979101  48.8650781  69.9972781
  93.0878858  60.6980866  74.4498595  94.0125406  60.4923727  74.3123047
  92.9194162  60.4497267  75.3587937  86.6966894  43.9956738  77.1244606
  87.5192963  43.5217216  77.0023496  86.9404957  44.7747221  77.6243292
  85.3375128  47.0244996  67.4207508  86.0583491  47.4026249  66.9171224
  84.7140432  47.7433873  67.5242485  89.4806251  47.7290145  68.3565840
  89.6969865  48.6114783  68.0554668  89.0000318  47.3376358  67.6271482
  84.2205472  50.6875858  74.9336584  84.0750053  51.0016161  75.8260866
  83.7430676  51.3060759  74.3807483  86.0801855  47.6778406  74.9817474
  86.0663424  46.7819500  74.6449772  86.7974283  47.6849070  75.6155760
  92.8774175  61.2166534  69.8060687  93.0511052  60.6512956  69.0534539
  93.3703066  62.0167428  69.6240177  78.6951134  53.2281203  77.8724246
  78.1504603  54.0041011  78.0044520  79.5730484  53.5752007  77.7143367
  98.7313566  53.9802956  71.4250987  99.1744712  53.2310282  71.0270110
  97.8540076  53.9713093  71.0424719  93.8649347  60.5333298  66.9057585
  94.5600252  61.1539991  67.1244900  94.2072497  59.6828649  67.1809963
  79.4817156  52.3551099  80.7654403  78.7398892  52.5033734  81.3519033
  79.1609901  52.6159364  79.9021152  95.7640770  57.9833003  68.4344916
  96.2892094  58.3220276  67.7094236  95.6763123  57.0480019  68.2508051
  87.4260819  61.8967077  80.5634793  87.7347945  61.6516224  81.4357492
  88.2236301  62.1013716  80.0753663  87.4481431  64.0504987  72.7940169
  87.0086421  63.5581365  73.4873026  88.1989548  63.5077954  72.5532244
  79.9273770  60.2416528  72.7964797  80.7531790  59.9420299  72.4163441
  79.5767822  59.4724150  73.2454586  84.8955303  59.5942996  74.8662471
  84.2735312  58.9313701  74.5664699  85.5660170  59.6204128  74.1836119
  78.1282375  58.1602854  73.7553731  77.2914283  57.7325028  73.5737732
  78.1006020  58.3535297  74.6924522  84.9679831  48.0724784  84.4594977
  85.0167986  48.9486907  84.0772746  85.5102345  47.5302177  83.8866620
  95.4534676  58.6165907  83.7396114  94.6630220  58.5990046  83.2000613
  95.2168031  59.1554201  84.4945150  95.5732551  55.4658373  81.0528842
  95.6230556  55.3008381  81.9944365  95.4646475  54.5985633  80.6626723
  84.4568810  58.1446919  68.3420931  84.6056930  58.8282384  67.6887604
  85.2635254  58.1252009  68.8570387  92.8636314  51.4489302  82.3688149
  93.7646177  51.3095766  82.0772147  92.9384288  51.6143756  83.3086327
  87.1979119  48.8256156  81.2141335  86.3282428  49.1189722  80.9423924
  87.4338599  49.4096601  81.9348599  97.0750748  57.8855315  81.2970864
  96.7835557  58.2485296  82.1334325  96.4622879  57.1722323  81.1184196
  98.2746431  55.4508195  73.8173434  99.1093322  55.8897999  73.9810995
  98.4105559  54.9746848  72.9981680  95.3237936  53.0087930  79.7650922
  95.7992058  53.2015576  78.9569773  94.4003502  53.0647115  79.5194306
  82.2121443  54.1712097  69.3482000  81.9667485  53.2674427  69.5462210
  82.3817358  54.1729247  68.4061478  89.9018153  45.0435773  78.7306756
  90.4200097  45.7796800  78.4053244  89.5473286  45.3499766  79.5653515
  81.4817091  49.9040454  66.8468162  80.7886336  49.9784809  66.1908198
  81.2368842  49.1400798  67.3689679  90.1530747  41.4636056  74.2507652
  90.4332501  40.7959245  74.8768079  90.9381354  41.6565151  73.7382316
  87.9564216  60.6395050  65.8132679  87.3838183  61.2585237  65.3603151
  88.5297009  61.1894411  66.3472601  94.0239605  49.8853690  77.9979228
  94.9757028  49.9851787  78.0191452  93.8543056  49.0931958  78.5077312
  92.0453985  46.9709273  78.1838628  91.4503917  47.2514286  77.4885117
  91.7603682  47.4603174  78.9555370  91.1761475  60.9232200  66.9441261
  92.1092149  60.8577761  67.1474137  91.0884688  61.7588467  66.4855794
  93.8049492  60.2398070  63.9045209  93.7263124  59.9057934  64.7980966
  94.6259159  60.7319838  63.9036681  96.5027683  53.1059809  77.1121527
  96.4704003  52.1675810  77.2981211  97.1128307  53.1843846  76.3787352
  88.3411014  51.9755862  63.1548731  89.2870119  51.8462070  63.2237149
  87.9625259  51.2370524  63.6318159  96.6522172  49.8970853  77.1579810
  96.1361220  49.1129309  76.9709739  97.5362120  49.5689569  77.3226330
 102.3204233  54.1675816  76.2527564 103.0507622  53.9061104  76.8135267
 101.7111179  53.4304538  76.2929632 100.4019530  52.3083679  76.8502015
  99.6752694  52.1739644  76.2418507  99.9866817  52.6160507  77.6558733
  86.5253931  49.9005839  63.0903616  85.6185387  49.6038951  63.1666330
  86.8029912  49.6035657  62.2237903  77.4431872  51.2212202  73.5402663
  77.1234656  50.3677510  73.2477037  76.8965300  51.4360780  74.2960630
  81.2211779  53.9374643  77.2572169  81.4397789  54.8691751  77.2760203
  81.6337553  53.5782618  78.0426973  88.1415997  44.4442728  69.2447858
  87.3316725  44.0989813  69.6203104  88.8300414  44.1350272  69.8335469
  90.0706545  43.5220775  70.8672154  90.6237584  43.9416229  71.5262177
  90.3076632  42.5956523  70.9095110  86.0939644  49.5107849  86.6474918
  85.9936371  50.4602206  86.5787009  85.8761187  49.1826088  85.7750988
  85.2952716  46.7592774  63.2315596  86.1571880  47.0847672  63.4911413
  85.4803060  45.9724270  62.7188661  77.3120132  54.8415114  75.5095784
  76.6183603  54.4269066  74.9965739  78.0593123  54.8835650  74.9129203
  93.4485352  45.6321300  70.3750819  92.8684021  46.2906104  69.9928871
  93.1821285  44.8098645  69.9638236  91.8988919  45.0326358  72.5772139
  92.3988697  45.1442893  71.7686458  92.5424527  44.7287411  73.2172947
  85.9570915  52.9404988  85.4639980  85.4737996  53.7405348  85.6703869
  86.0431854  52.9512933  84.5107424  79.2256874  54.7733367  73.3861799
  79.2027562  54.8721055  72.4343682  79.5357511  55.6198518  73.7078965
  81.8844252  56.8309522  77.5008414  82.8387506  56.7993465  77.4338345
  81.6856776  56.3700146  78.3158640  82.4743634  55.4010639  80.0679211
  83.2936523  55.8954717  80.0914049  82.7480442  54.4842607  80.0396779
  92.2310230  47.7921391  69.4307167  91.3436085  48.0771041  69.2127362
  92.6464219  47.6315154  68.5834444  95.5824767  47.8167912  73.1461506
  96.3585157  48.3064364  73.4186123  94.8572901  48.2425966  73.6033376
  98.0197325  48.5295531  74.2035447  98.6141816  48.2891267  73.4928755
  98.0923909  47.8102662  74.8308983  80.2394481  62.3729142  74.5178612
  80.1048949  61.6129543  73.9516610  79.8226543  63.0970042  74.0507400
  91.3753444  57.5566065  63.5255187  92.0789294  57.7616068  64.1412842
  90.6516093  58.1242827  63.7904270  92.2051254  53.3075927  69.6457457
  92.1486456  53.7644478  68.8065089  92.7579597  52.5466611  69.4680300
  96.0156060  49.0965659  70.4707577  95.7592994  48.6962294  71.3015784
  95.3908928  49.8109453  70.3457716 100.3268398  51.8361732  72.9778868
  99.7667956  51.9054921  73.7510430  99.7211901  51.6602716  72.2578364
  83.3963607  63.2698459  74.7297054  83.2795991  64.2143891  74.6275744
  82.5756053  62.9672021  75.1182853  93.2840141  57.9948595  65.5753647
  94.1185745  57.5629793  65.3931122  93.1224484  57.8230608  66.5030541
  92.9386033  54.4980708  66.9409986  92.8834837  54.3324979  65.9998430
  92.3132089  55.2056741  67.0972176  77.7278548  49.7348772  80.7671408
  78.3737412  49.2247726  81.2558634  77.5195700  50.4717454  81.3414834
  90.2531941  56.8029620  86.2663549  91.1223100  56.9770272  85.9050184
  89.7738692  57.6224037  86.1439278  86.2482159  43.9988817  66.5195305
  86.2360829  44.9430657  66.6763575  87.1405581  43.8158962  66.2254766
  84.4218121  63.9226721  77.9452983  85.3245368  63.9550331  78.2619478
  84.1955491  62.9927172  77.9599318  86.1771723  62.6757707  74.6063061
  85.2267354  62.6759569  74.4927434  86.4804209  61.9290442  74.0899096
  90.0634278  40.5931594  70.7741241  89.2966674  40.0390080  70.9197924
  90.4744983  40.6653462  71.6355393  82.0676039  46.8816389  84.8646423
  82.9307501  46.5253194  85.0749747  81.4941450  46.5430284  85.5521827
 101.9124416  68.5118246  75.6708824 102.5502826  68.3924993  74.9672164
 101.7945259  69.4599090  75.7296776  98.7214123  68.4645674  75.6070348
  98.3832634  68.3486739  74.7190883  99.5903891  68.0636839  75.5871354
  94.5800938  70.3181150  71.5967239  94.0165803  70.2271087  70.8283527
  94.4653333  69.4981055  72.0769732  99.2033906  69.6180526  81.5656554
  99.1922546  69.2233324  80.6937058  99.3654545  68.8846598  82.1590325
  92.1265370  71.8132342  74.4351460  92.9186662  71.4723167  74.0197759
  92.3662020  71.9227317  75.3553613 100.1600497  73.9852118  66.9081704
  99.5088477  74.5706198  66.5215718 100.9544860  74.5158313  66.9676742
  94.0856124  71.0741255  67.3068839  94.8587000  70.5270242  67.1681714
  94.4381523  71.9385504  67.5183300  95.9241167  72.4017637  80.5135738
  95.6331033  73.3063268  80.3982404  96.5598151  72.4434165  81.2279807
  96.8497374  69.7794486  77.1037098  97.4460946  69.5550508  76.3894060
  96.9072345  69.0379231  77.7062545  96.4222402  67.2333921  64.9387288
  96.6747923  66.7115443  64.1770751  95.4846961  67.0700067  65.0413972
 101.4665685  66.2369700  72.7462032 102.2528774  65.8189123  72.3952449
 101.7304389  67.1415792  72.9143680 101.6375762  71.6742550  67.4450689
 101.0021595  71.7477176  68.1571593 101.3073169  72.2636149  66.7669768
 106.8674112  66.1744933  73.6495010 107.5999284  65.6044150  73.8832840
 106.1113468  65.7866533  74.0901516  96.1418691  69.1362027  67.1411663
  96.0254949  68.4606931  67.8092748  96.2520951  68.6494401  66.3243816
  98.4850232  68.5972174  70.8458353  98.1208439  68.0702795  71.5571274
  99.3417348  68.2070643  70.6724838 104.3899532  59.8866507  78.1089619
 104.0582857  60.7561918  77.8850834 103.7945146  59.5702791  78.7883649
  98.1255719  63.6262074  65.8419701  98.2930121  64.4942310  66.2090172
  97.9352888  63.7889356  64.9180990 100.8831052  72.0879053  77.5085532
 100.5831775  72.9904092  77.4001339 100.5382111  71.8211236  78.3606684
  94.3343533  68.5392850  73.5422236  93.4094030  68.4069064  73.7499928
  94.5827947  69.3187069  74.0392178 104.2828196  64.6061593  75.1882969
 103.3745073  64.5377002  74.8941730 104.2315791  65.0833538  76.0164794
  98.1044940  66.0819732  66.8266368  97.9844565  66.5276782  67.6651848
  97.4097528  66.4305049  66.2679906  91.6952344  68.1826123  74.3766025
  91.8244726  68.4360602  75.2905437  91.0149796  68.7753831  74.0570680
  95.8651832  78.8523373  70.4756499  95.7875861  79.8031198  70.5544980
  95.2613475  78.5069246  71.1331426  98.3569061  66.0251239  83.1317866
  97.5802395  66.5845159  83.1220731  98.9959624  66.5108022  83.6532736
 106.1489842  62.8078032  76.9660843 105.5064222  63.1010565  76.3200637
 105.6444771  62.6930952  77.7714039 103.8030006  66.5541205  67.6546702
 104.7147862  66.7868591  67.4794400 103.2939653  67.1378249  67.0921781
  96.6115434  68.8336692  82.6935833  97.3530118  69.3721736  82.4170657
  95.9052419  69.4602981  82.8507385 102.0870773  70.9765833  81.2907995
 102.4954129  70.5348243  80.5462627 101.3648035  70.4018460  81.5442188
  98.4401843  65.9138439  78.6641552  99.2863039  66.3377853  78.8076201
  98.3800481  65.2572064  79.3580115 102.4099588  71.5367023  75.0460284
 101.7808450  71.7012737  74.3436351 102.0225250  71.9508633  75.8171248
 106.2888820  72.4721461  72.4004647 105.6039858  72.8520362  71.8501681
 106.3732669  73.0816788  73.1336595 101.5901289  63.5742808  80.3222725
 101.3462221  64.3284868  79.7857001 101.8661219  63.9528155  81.1569972
 103.5439751  70.1181420  78.9999991 103.7556647  70.7613180  78.3234372
 103.4969500  69.2843737  78.5321921 101.1465980  62.7299241  75.9036563
 100.2850459  63.0280494  76.1953301 101.1728415  62.9469640  74.9717596
  97.9627550  71.2741431  72.3110369  98.4265895  71.5529134  71.5214991
  97.6984348  70.3724876  72.1283459  94.8551631  70.8212913  75.2490132
  95.4252988  71.2500181  74.6107616  95.4459743  70.5395498  75.9474318
  96.8996436  67.3964584  69.1199934  97.6020479  67.8485627  69.5873860
  96.5677064  66.7548403  69.7479827  95.3476797  65.9876340  83.4951143
  94.7175458  66.6692621  83.7286540  95.2412885  65.8759422  82.5504281
  90.6421770  65.6548136  74.4217067  89.8520824  65.9105665  73.9457178
  91.1333017  66.4696474  74.5269108 104.6585579  72.9953375  77.1722348
 105.4803023  72.5933563  76.8905030 104.6547982  72.8921610  78.1238464
  92.5936515  66.0192716  71.3800544  91.7967679  66.1311410  71.8984040
  92.3662107  66.3579368  70.5141435  98.4242183  72.5437419  79.3283059
  98.4886615  73.0057826  80.1641230  97.7153107  71.9134784  79.4565369
  88.9259473  65.9078627  76.8532058  89.1767511  66.7925637  77.1189634
  89.4619021  65.7283228  76.0807150 112.7491572  69.3392124  73.5207320
 111.9955281  68.7699522  73.3651324 112.8839114  69.3054788  74.4677954
  98.1390201  74.2105526  69.1962039  98.0035875  75.0557062  69.6246887
  98.6800013  74.4124804  68.4327973  94.6257540  60.2897106  85.8576394
  94.2324486  59.7363305  86.5324038  95.4423680  60.6007685  86.2482912
  91.5919598  71.7280964  69.7689964  92.1044118  72.5224215  69.9195529
  92.2442311  71.0307255  69.7023566  93.4014483  74.8446721  71.8512717
  93.5781111  75.7664685  71.6633701  94.1971316  74.5305140  72.2807097
  97.5425501  61.7054985  83.4496651  98.2835215  62.3062138  83.3701113
  97.7743424  60.9632623  82.8914693  92.6866839  66.8911352  81.7274880
  92.5720354  65.9896610  82.0281979  91.8311357  67.1375049  81.3759697
  99.7658677  74.8329093  83.3262381  99.3222531  74.0465471  83.0083286
 100.4275890  75.0208243  82.6606272  94.5245798  76.3624894  77.8523060
  95.0753223  76.2341958  77.0800054  93.6857274  76.6619783  77.5017952
 101.8639915  75.1131893  81.3543782 101.8458390  75.9340774  80.8624052
 102.7859835  74.9885968  81.5793923  98.3212969  72.6276022  82.1967291
  98.8541306  71.8664310  81.9666599  97.7927050  72.3349674  82.9391445
 101.4882664  57.7336088  77.7260932 101.1446934  58.6237730  77.6500043
 101.8561627  57.5437746  76.8630517  89.5568515  70.0569619  70.5449535
  90.3943737  70.4666627  70.3283242  89.7346782  69.1169061  70.5149728
 101.4532947  67.7244699  66.2333368 100.9379570  68.4949304  66.4721755
 101.1810255  67.0509835  66.8566429  99.0380058  62.5694400  71.2918606
  98.1821654  62.1801250  71.1124245  99.4507010  62.6486361  70.4318391
 100.5679204  60.1040743  75.6910166 100.0644000  60.0670878  74.8777971
 100.8609811  61.0133486  75.7506822  96.8122090  60.1879473  74.6976347
  97.6775087  59.9922282  74.3382237  96.8799599  59.9589825  75.6245704
 106.4267221  70.4777054  68.1686541 105.6496664  70.1388213  67.7241703
 107.1058702  70.4829677  67.4941506 101.2419250  65.5971791  68.0593149
 100.9369386  65.9117941  68.9103292 102.1949692  65.6753211  68.1020482
  99.6865682  71.7562015  69.7086103  99.1587043  71.0214774  69.3959340
  99.1853185  72.5336691  69.4626071 104.6658528  69.9511035  74.8253149
 104.0082202  70.6410297  74.9133278 105.4698927  70.3407467  75.1687135
  94.4184409  62.4181681  72.0692714  94.9928161  62.1956862  71.3365907
  95.0055392  62.4870375  72.8221316 103.4763987  68.3055408  72.8757091
 103.9895868  68.9385400  73.3778800 104.1265211  67.7056603  72.5100451
  94.7453997  64.4486142  66.0888600  93.9091309  64.7860829  66.4097874
  94.6058766  64.3135122  65.1515736  96.7207077  59.2922930  70.7967784
  96.0671490  58.9771947  70.1724398  96.6787551  58.6698670  71.5227607
  97.8318282  69.5742225  62.7121076  96.9245344  69.3431478  62.9112225
  98.3289314  68.7779844  62.8995057 100.7386361  78.2839732  65.6317762
 100.0648060  78.5871429  66.2402720 101.1252183  79.0868812  65.2823219
  99.9544818  65.7804863  75.1215431  99.0367379  66.0019810  74.9637119
 100.3704961  65.8551174  74.2627139 100.7379865  67.1796279  70.2518112
 101.4851684  67.6917676  69.9425234 101.0071455  66.8580332  71.1122505
  99.0106515  69.6754820  67.2345066  98.1017735  69.3913853  67.3317536
  99.0401599  70.0953898  66.3748373 104.2425783  73.2861409  71.0036233
 103.7888110  72.4452319  71.0601424 103.6119750  73.9222808  71.3411014
 103.1858702  64.2153395  72.2336901 102.4481459  63.7030782  72.5647143
 103.4385476  63.7753777  71.4220178 102.6858722  75.1237906  71.9386052
 102.9781696  75.6842963  71.2198417 103.1957343  75.4166467  72.6939211
 103.2870330  56.9929647  72.8278670 103.5929207  56.1327011  72.5404585
 104.0122935  57.5847268  72.6277664  89.5794686  67.3960334  71.2160268
  89.3819086  66.8029695  70.4911335  89.0241350  67.0912544  71.9336207
  97.5591410  67.2883440  73.3354861  97.6140019  66.3357277  73.2597338
  96.7482612  67.4442879  73.8196160  98.7082603  71.2163563  64.5733144
  98.2702033  70.4999422  64.1138782  99.4493044  71.4439678  64.0118236
  95.4983769  65.9060500  71.0945240  94.6851635  66.2054671  71.5010432
  95.9942764  65.5116189  71.8119722  97.6492347  75.9018257  73.0279505
  97.6068526  76.1279103  72.0988037  98.5655046  75.6681632  73.1765306
 101.0957981  66.3702325  79.9260134 101.4507369  66.5973798  80.7854600
 101.7430112  66.7020701  79.3037389 106.8255718  69.4920760  70.6309463
 106.6873617  69.6822356  69.7030652 106.4691937  70.2540143  71.0877514
  94.9897844  63.4778856  76.7106475  95.6297224  63.3367615  76.0129438
  94.1575375  63.1913369  76.3345077 106.8525098  71.5597288  75.6420734
 107.2861604  71.4672577  76.4903789 107.5656678  71.5354788  75.0040750
  95.7658148  72.7781286  72.8241467  96.5598747  72.2831606  72.6224042
  95.0549840  72.2499149  72.4609173 100.5852993  75.1599382  77.1753835
 100.6390015  75.7290318  77.9431551  99.7167774  75.3301267  76.8107872
  92.0740912  66.9224368  68.9001220  91.1438500  66.8608823  69.1171182
  92.1698384  66.4000321  68.1037861  91.9926461  63.4479181  71.4879462
  92.2533278  64.3624514  71.3788622  92.8143633  62.9803623  71.6376075
  93.4651386  64.8616938  78.6578286  94.1374439  64.6534300  78.0090935
  92.6381172  64.6639024  78.2183519 107.7140647  71.6020988  78.1753620
 107.9076537  72.5066799  78.4212895 107.6141265  71.1428407  79.0092205
  99.3676958  61.4878879  80.6743947  98.7204873  62.1868828  80.5808424
 100.1377973  61.9215023  81.0420195 102.7755756  71.7527731  83.7494500
 102.6241262  71.5238283  82.8324584 102.7660435  72.7098332  83.7625846
  99.5441092  69.3259644  78.7340767 100.4733152  69.4770803  78.5609734
  99.1232122  69.4143664  77.8789413  98.3429424  73.3510308  76.5039305
  98.2040510  72.9829092  77.3765243  97.5544020  73.8657947  76.3323262
  98.9377576  78.4519405  67.8464841  99.1129332  77.9807448  68.6610464
  98.2510364  79.0785171  68.0746102  99.8934639  72.7291911  73.8928142
  99.5584472  72.6892681  74.7885792  99.3938585  72.0636627  73.4198553
  93.8678883  68.1359541  79.4180724  93.7298681  67.4039780  80.0192263
  94.7783807  68.0468441  79.1364911 102.8293831  70.0747945  64.1665202
 102.2123002  69.3494773  64.0698255 102.3610319  70.8357305  63.8232276
  96.4961184  67.8479500  78.9064403  97.2060802  67.2072692  78.8651022
  96.4530492  68.0992395  79.8290584 104.4847963  74.7846853  81.8270982
 104.4260509  74.1006074  81.1601565 104.8867481  75.5265843  81.3751608
  95.2090118  64.8344718  80.7260043  94.6727475  64.3835456  81.3781639
  94.6206826  64.9690627  79.9830507  93.5038661  81.6008767  74.6204701
  93.7435260  82.2327291  75.2983720  92.6607858  81.2496807  74.9070061
  94.6192377  64.2933369  63.2886506  93.7421843  64.1722170  62.9248753
  95.0950130  63.5019448  63.0365395 104.4865370  72.7486437  80.0584962
 103.5992149  72.4112359  80.1811361 105.0563921  72.0169469  80.2953727
  86.1394517  69.0810529  73.3828013  86.8265557  68.7672259  72.7949029
  85.9842646  69.9851894  73.1095265  90.9429239  63.9700726  77.8113037
  90.8587428  63.3626395  77.0763447  90.1211945  64.4609744  77.8122533
  98.0166523  77.4087890  77.0246205  97.9436695  78.2142861  77.5365510
  97.5743916  77.6079856  76.1994227  97.8056303  76.6459660  70.5349027
  97.0223825  77.1881340  70.6287251  98.5049048  77.1633639  70.9343268
 101.1152953  62.4554289  73.1783232 101.6121652  61.7024252  72.8584302
 100.3439934  62.4918606  72.6126442 108.9682710  68.1594655  74.8201524
 108.9572587  69.0419370  74.4495457 108.1000090  67.8066206  74.6256061
 100.4765207  77.3074724  79.1804364 101.1893179  77.9422189  79.1080265
  99.9855235  77.4038590  78.3644366 102.1982734  71.2125976  70.7521656
 101.2639012  71.3327439  70.5826360 102.3759402  70.3098443  70.4881665
  97.6987922  64.5971672  72.9054917  97.3285709  64.0442713  73.5935822
  98.1947014  63.9929806  72.3529917 105.5855285  67.0543296  71.2871690
 106.0515737  67.8871287  71.2131992 106.0362785  66.5888277  71.9916948
  95.5277120  75.0569167  80.0009935  96.2286580  75.6905650  80.1539329
  95.0572235  75.3983899  79.2405574 103.6531516  73.3987117  68.2857842
 103.9291360  73.2843712  69.1951716 102.7836015  73.0004602  68.2470015
 103.5571948  59.4223883  75.3262591 102.6435028  59.6528110  75.4944798
 103.9865049  59.5062327  76.1776623 103.3278406  67.6113775  77.8262485
 102.6749856  67.8589682  77.1714938 103.7058786  66.7977913  77.4924962
 100.2885580  77.6473468  71.9290655 100.4707975  76.8295124  72.3918408
 101.1118566  77.8641160  71.4915545 100.6227746  76.5741653  69.1905704
 101.1515512  76.0634108  68.5775866 100.8855965  76.2584183  70.0551237
  99.3765979  68.3533586  84.3128522  98.7006616  68.2527715  84.9830897
 100.1993613  68.1972799  84.7764519  91.1244838  74.5905522  76.9341037
  91.7098275  73.8449210  77.0668942  90.9269677  74.9009479  77.8177701
  93.9783494  77.6256770  71.9503480  93.3093869  78.1102897  71.4667520
  93.8396363  77.8725990  72.8646858  85.7162493  67.1611123  75.6545481
  85.7546593  66.6274713  76.4482599  85.2102786  66.6346328  75.0356458
  98.1188762  79.6600513  78.5486138  98.6707070  79.8232135  79.3135223
  98.4594956  80.2504951  77.8766163  93.0953255  62.0075663  79.1508023
  93.1594582  62.8690494  78.7385421  93.0320376  61.3949665  78.4180381
  92.5705528  64.0798796  82.7981057  93.1977567  63.6975873  83.4118581
  91.7133447  63.8612997  83.1636750 102.9699636  74.4861771  84.4034793
 103.5139540  75.0991729  83.9089747 102.3886481  75.0441349  84.9201806
  89.3471071  65.8875225  68.7299412  89.6424512  64.9785903  68.6766466
  88.4459106  65.8662964  68.4080414 101.2557149  77.6082489  75.5349820
 101.1308289  76.8072229  75.0260766 101.9136241  78.1028682  75.0463790
  92.8765318  63.9631221  74.7126961  92.1551903  64.5767189  74.5734434
  93.6658573  64.4988986  74.6343606 103.3192058  75.4091509  77.1629370
 102.3722393  75.2896860  77.0907697 103.6674831  74.5214007  77.2455632
  95.6791631  61.2985648  80.9867612  96.2026033  61.5447944  81.7493922
  95.4603964  62.1305683  80.5670750  91.0758912  63.5689322  68.8538737
  90.7471618  62.6886701  68.6713843  91.4298283  63.5136991  69.7415126
 100.3238491  75.2044225  73.3633723 100.1763454  74.2760932  73.5441293
 101.1491985  75.2264316  72.8790798  94.1900735  63.8562292  69.2214215
  94.5296808  64.3848213  68.4992823  94.6372856  64.1942698  69.9972781
 103.9272613  76.0272784  74.4498595 104.8519160  75.8215645  74.3123047
 103.7587916  75.7789185  75.3587937  96.8844176  62.2399343  78.6717283
  96.5440997  61.4407156  79.0737963  96.1783182  62.5401054  78.0994116
  97.5360648  59.3248655  77.1244606  98.3586717  58.8509133  77.0023496
  97.7798712  60.1039139  77.6243292  96.1768883  62.3536914  67.4207508
  96.8977245  62.7318166  66.9171224  95.5534187  63.0725791  67.5242485
 100.3200005  63.0582063  68.3565840 100.5363620  63.9406701  68.0554668
  99.8394073  62.6668276  67.6271482  95.0599227  66.0167776  74.9336584
  94.9143808  66.3308079  75.8260866  94.5824430  66.6352676  74.3807483
  96.9195610  63.0070324  74.9817474  96.9057178  62.1111417  74.6449772
  97.6368038  63.0140988  75.6155760  98.7721740  63.4407664  77.0270601
  98.5139518  64.3624735  77.0254932  98.2406781  63.0438099  77.7171066
 103.7167929  76.5458451  69.8060687 103.8904807  75.9804874  69.0534539
 104.2096820  77.3459346  69.6240177  89.5344889  68.5573120  77.8724246
  88.9898357  69.3332928  78.0044520  90.4124239  68.9043925  77.7143367
  96.3232506  61.8884704  70.2505044  96.4448417  60.9601350  70.4495932
  96.0334548  61.9023390  69.3383360  99.1923696  59.5739615  73.3871764
  99.2145393  59.6378948  72.4323744  99.6091755  58.7344123  73.5812270
 109.5707320  69.3094874  71.4250987 110.0138466  68.5602199  71.0270110
 108.6933831  69.3005011  71.0424719 104.7043102  75.8625216  66.9057585
 105.3994006  76.4831908  67.1244900 105.0466252  75.0120567  67.1809963
  90.3210911  67.6843017  80.7654403  89.5792647  67.8325652  81.3519033
  90.0003655  67.9451282  79.9021152 106.6034525  73.3124921  68.4344916
 107.1285849  73.6512194  67.7094236 106.5156877  72.3771936  68.2508051
  98.2654573  77.2258995  80.5634793  98.5741700  76.9808142  81.4357492
  99.0630055  77.4305633  80.0753663  98.2875185  79.3796904  72.7940169
  97.8480176  78.8873283  73.4873026  99.0383302  78.8369872  72.5532244
  90.7667524  75.5708445  72.7964797  91.5925544  75.2712217  72.4163441
  90.4161576  74.8016068  73.2454586  95.7349058  74.9234914  74.8662471
  95.1129067  74.2605619  74.5664699  96.4053925  74.9496045  74.1836119
  88.9676130  73.4894772  73.7553731  88.1308038  73.0616946  73.5737732
  88.9399775  73.6827215  74.6924522  95.8073585  63.4016702  84.4594977
  95.8561741  64.2778824  84.0772746  96.3496099  62.8594095  83.8866620
 106.2928431  73.9457825  83.7396114 105.5023975  73.9281964  83.2000613
 106.0561785  74.4846118  84.4945150 106.4126306  70.7950291  81.0528842
 106.4624311  70.6300299  81.9944365 106.3040229  69.9277550  80.6626723
  95.2962565  73.4738837  68.3420931  95.4450685  74.1574301  67.6887604
  96.1029008  73.4543927  68.8570387 103.7030068  66.7781219  82.3688149
 104.6039931  66.6387684  82.0772147 103.7778043  66.9435674  83.3086327
  98.0372874  64.1548074  81.2141335  97.1676183  64.4481640  80.9423924
  98.2732354  64.7388519  81.9348599 107.9144503  73.2147233  81.2970864
 107.6229311  73.5777213  82.1334325 107.3016634  72.5014241  81.1184196
 109.1140185  70.7800112  73.8173434 109.9487076  71.2189917  73.9810995
 109.2499314  70.3038766  72.9981680 106.1631691  68.3379847  79.7650922
 106.6385813  68.5307494  78.9569773 105.2397256  68.3939033  79.5194306
  93.0515198  69.5004014  69.3482000  92.8061239  68.5966344  69.5462210
  93.2211112  69.5021165  68.4061478 100.7411907  60.3727691  78.7306756
 101.2593851  61.1088718  78.4053244 100.3867040  60.6791684  79.5653515
  92.3210845  65.2332372  66.8468162  91.6280090  65.3076727  66.1908198
  92.0762597  64.4692716  67.3689679 100.9924502  56.7927973  74.2507652
 101.2726255  56.1251162  74.8768079 101.7775109  56.9857069  73.7382316
  98.7957970  75.9686967  65.8132679  98.2231937  76.5877154  65.3603151
  99.3690764  76.5186329  66.3472601 104.8633360  65.2145607  77.9979228
 105.8150783  65.3143705  78.0191452 104.6936810  64.4223876  78.5077312
 102.8847739  62.3001191  78.1838628 102.2897672  62.5806203  77.4885117
 102.5997436  62.7895092  78.9555370 102.0155230  76.2524117  66.9441261
 102.9485903  76.1869679  67.1474137 101.9278443  77.0880384  66.4855794
 104.6443247  75.5689988  63.9045209 104.5656878  75.2349851  64.7980966
 105.4652913  76.0611756  63.9036681 107.3421438  68.4351727  77.1121527
 107.3097758  67.4967728  77.2981211 107.9522061  68.5135764  76.3787352
  99.1804769  67.3047780  63.1548731 100.1263873  67.1753988  63.2237149
  98.8019014  66.5662442  63.6318159 107.4915926  65.2262771  77.1579810
 106.9754975  64.4421227  76.9709739 108.3755875  64.8981487  77.3226330
 105.1526653  58.9703786  73.1175623 104.9551474  58.6618874  74.0018955
 105.7626359  59.6965425  73.2473553 113.1597988  69.4967734  76.2527564
 113.8901376  69.2353022  76.8135267 112.5504933  68.7596456  76.2929632
 111.2413285  67.6375597  76.8502015 110.5146448  67.5031561  76.2418507
 110.8260572  67.9452425  77.6558733  99.0643461  71.3565526  84.6149388
  99.9846471  71.5344125  84.8089435  99.0293044  70.4121572  84.4629087
  97.3647686  65.2297756  63.0903616  96.4579141  64.9330869  63.1666330
  97.6423667  64.9327575  62.2237903  88.2825626  66.5504120  73.5402663
  87.9628410  65.6969428  73.2477037  87.7359054  66.7652698  74.2960630
  92.0605534  69.2666561  77.2572169  92.2791543  70.1983669  77.2760203
  92.4731307  68.9074535  78.0426973  98.9809751  59.7734646  69.2447858
  98.1710480  59.4281731  69.6203104  99.6694168  59.4642190  69.8335469
 100.9100300  58.8512693  70.8672154 101.4631338  59.2708146  71.5262177
 101.1470386  57.9248441  70.9095110  96.9333399  64.8399767  86.6474918
  96.8330126  65.7894124  86.5787009  96.7154941  64.5118006  85.7750988
  96.1346470  62.0884692  63.2315596  96.9965634  62.4139590  63.4911413
  96.3196815  61.3016188  62.7188661  88.1513886  70.1707031  75.5095784
  87.4577358  69.7560984  74.9965739  88.8986877  70.2127568  74.9129203
 104.2879107  60.9613218  70.3750819 103.7077776  61.6198022  69.9928871
 104.0215040  60.1390563  69.9638236 102.7382673  60.3618276  72.5772139
 103.2382452  60.4734810  71.7686458 103.3818281  60.0579329  73.2172947
  96.7964669  68.2696905  85.4639980  96.3131751  69.0697266  85.6703869
  96.8825608  68.2804850  84.5107424  90.0650629  70.1025285  73.3861799
  90.0421317  70.2012972  72.4343682  90.3751265  70.9490436  73.7078965
  92.7238007  72.1601440  77.5008414  93.6781260  72.1285382  77.4338345
  92.5250530  71.6992064  78.3158640  93.3137389  70.7302556  80.0679211
  94.1330278  71.2246635  80.0914049  93.5874196  69.8134524  80.0396779
 103.0703985  63.1213309  69.4307167 102.1829840  63.4062959  69.2127362
 103.4857974  62.9607072  68.5834444 106.4218521  63.1459829  73.1461506
 107.1978911  63.6356282  73.4186123 105.6966655  63.5717884  73.6033376
 108.8591080  63.8587449  74.2035447 109.4535570  63.6183185  73.4928755
 108.9317663  63.1394579  74.8308983  91.0788235  77.7021060  74.5178612
  90.9442703  76.9421461  73.9516610  90.6620298  78.4261959  74.0507400
 102.2147198  72.8857983  63.5255187 102.9183048  73.0907986  64.1412842
 101.4909847  73.4534745  63.7904270 103.0445009  68.6367844  69.6457457
 102.9880210  69.0936396  68.8065089 103.5973351  67.8758529  69.4680300
 106.8549815  64.4257576  70.4707577 106.5986749  64.0254212  71.3015784
 106.2302683  65.1401370  70.3457716 111.1662152  67.1653650  72.9778868
 110.6061710  67.2346839  73.7510430 110.5605656  66.9894634  72.2578364
  94.2357361  78.5990377  74.7297054  94.1189745  79.5435809  74.6275744
  93.4149807  78.2963938  75.1182853 104.1233896  73.3240512  65.5753647
 104.9579500  72.8921711  65.3931122 103.9618239  73.1522526  66.5030541
 103.7779788  69.8272626  66.9409986 103.7228592  69.6616897  65.9998430
 103.1525843  70.5348659  67.0972176  88.5672303  65.0640690  80.7671408
  89.2131166  64.5539644  81.2558634  88.3589454  65.8009372  81.3414834
 101.0925695  72.1321538  86.2663549 101.9616855  72.3062190  85.9050184
 100.6132447  72.9515954  86.1439278  97.0875913  59.3280735  66.5195305
  97.0754583  60.2722575  66.6763575  97.9799335  59.1450880  66.2254766
  95.2611875  79.2518639  77.9452983  96.1639122  79.2842249  78.2619478
  95.0349245  78.3219090  77.9599318  97.0165477  78.0049625  74.6063061
  96.0661108  78.0051487  74.4927434  97.3197963  77.2582360  74.0899096
 100.9028033  55.9223511  70.7741241 100.1360429  55.3681998  70.9197924
 101.3138738  55.9945380  71.6355393  92.9069794  62.2108307  84.8646423
  93.7701255  61.8545112  85.0749747  92.3335205  61.8722202  85.5521827
 112.7518171  83.8410163  75.6708824 113.3896581  83.7216911  74.9672164
 112.6339014  84.7891007  75.7296776 109.5607877  83.7937592  75.6070348
 109.2226389  83.6778656  74.7190883 110.4297645  83.3928757  75.5871354
 105.4194693  85.6473068  71.5967239 104.8559558  85.5563005  70.8283527
 105.3047088  84.8272972  72.0769732 110.0427660  84.9472443  81.5656554
 110.0316301  84.5525242  80.6937058 110.2048300  84.2138516  82.1590325
 102.9659125  87.1424260  74.4351460 103.7580417  86.8015084  74.0197759
 103.2055775  87.2519235  75.3553613 110.9994252  89.3144036  66.9081704
 110.3482231  89.8998116  66.5215718 111.7938614  89.8450231  66.9676742
 104.9249879  86.4033173  67.3068839 105.6980755  85.8562160  67.1681714
 105.2775278  87.2677422  67.5183300 106.7634921  87.7309555  80.5135738
 106.4724787  88.6355186  80.3982404 107.3991906  87.7726083  81.2279807
 107.6891128  85.1086404  77.1037098 108.2854700  84.8842426  76.3894060
 107.7466100  84.3671149  77.7062545 107.2616156  82.5625839  64.9387288
 107.5141677  82.0407360  64.1770751 106.3240716  82.3991984  65.0413972
 112.3059439  81.5661617  72.7462032 113.0922529  81.1481041  72.3952449
 112.5698144  82.4707710  72.9143680 112.4769517  87.0034468  67.4450689
 111.8415350  87.0769094  68.1571593 112.1466923  87.5928066  66.7669768
 117.7067866  81.5036851  73.6495010 118.4393038  80.9336067  73.8832840
 116.9507222  81.1158451  74.0901516 106.9812445  84.4653945  67.1411663
 106.8648703  83.7898848  67.8092748 107.0914705  83.9786319  66.3243816
 109.3243986  83.9264092  70.8458353 108.9602193  83.3994713  71.5571274
 110.1811102  83.5362561  70.6724838 115.2293287  75.2158425  78.1089619
 114.8976612  76.0853836  77.8850834 114.6338900  74.8994709  78.7883649
 108.9649473  78.9553992  65.8419701 109.1323875  79.8234228  66.2090172
 108.7746642  79.1181273  64.9180990 111.7224806  87.4170971  77.5085532
 111.4225529  88.3196009  77.4001339 111.3775866  87.1503154  78.3606684
 105.1737288  83.8684767  73.5422236 104.2487784  83.7360982  73.7499928
 105.4221701  84.6478987  74.0392178 115.1221950  79.9353511  75.1882969
 114.2138827  79.8668919  74.8941730 115.0709546  80.4125456  76.0164794
 108.9438694  81.4111649  66.8266368 108.8238319  81.8568700  67.6651848
 108.2491282  81.7596967  66.2679906 102.5346099  83.5118041  74.3766025
 102.6638480  83.7652520  75.2905437 101.8543550  84.1045749  74.0570680
 106.7045586  94.1815291  70.4756499 106.6269616  95.1323116  70.5544980
 106.1007230  93.8361163  71.1331426 109.1962816  81.3543156  83.1317866
 108.4196150  81.9137077  83.1220731 109.8353379  81.8399939  83.6532736
 116.9883597  78.1369949  76.9660843 116.3457977  78.4302482  76.3200637
 116.4838525  78.0222870  77.7714039 114.6423760  81.8833122  67.6546702
 115.5541616  82.1160509  67.4794400 114.1333407  82.4670167  67.0921781
 107.4509188  84.1628610  82.6935833 108.1923873  84.7013654  82.4170657
 106.7446174  84.7894899  82.8507385 112.9264528  86.3057750  81.2907995
 113.3347884  85.8640161  80.5462627 112.2041789  85.7310378  81.5442188
 109.2795598  81.2430357  78.6641552 110.1256793  81.6669771  78.8076201
 109.2194236  80.5863981  79.3580115 113.2493342  86.8658941  75.0460284
 112.6202205  87.0304655  74.3436351 112.8619005  87.2800550  75.8171248
 117.1282574  87.8013379  72.4004647 116.4433613  88.1812280  71.8501681
 117.2126424  88.4108705  73.1336595 112.4295043  78.9034725  80.3222725
 112.1855975  79.6576786  79.7857001 112.7054974  79.2820073  81.1569972
 114.3833506  85.4473338  78.9999991 114.5950401  86.0905098  78.3234372
 114.3363254  84.6135654  78.5321921 111.9859735  78.0591158  75.9036563
 111.1244214  78.3572412  76.1953301 112.0122170  78.2761557  74.9717596
 108.8021304  86.6033349  72.3110369 109.2659650  86.8821052  71.5214991
 108.5378102  85.7016794  72.1283459 105.6945385  86.1504830  75.2490132
 106.2646742  86.5792099  74.6107616 106.2853497  85.8687415  75.9474318
 107.7390190  82.7256501  69.1199934 108.4414234  83.1777545  69.5873860
 107.4070819  82.0840320  69.7479827 106.1870552  81.3168258  83.4951143
 105.5569213  81.9984539  83.7286540 106.0806640  81.2051340  82.5504281
 101.4815524  80.9840054  74.4217067 100.6914578  81.2397583  73.9457178
 101.9726772  81.7988392  74.5269108 115.4979334  88.3245293  77.1722348
 116.3196778  87.9225480  76.8905030 115.4941737  88.2213527  78.1238464
 103.4330270  81.3484633  71.3800544 102.6361433  81.4603327  71.8984040
 103.2055862  81.6871285  70.5141435 109.2635937  87.8729336  79.3283059
 109.3280370  88.3349744  80.1641230 108.5546861  87.2426701  79.4565369
  99.7653227  81.2370544  76.8532058 100.0161266  82.1217554  77.1189634
 100.3012776  81.0575146  76.0807150 108.9783955  89.5397444  69.1962039
 108.8429630  90.3848980  69.6246887 109.5193768  89.7416722  68.4327973
 105.4651295  75.6189024  85.8576394 105.0718240  75.0655222  86.5324038
 106.2817435  75.9299602  86.2482912 102.4313352  87.0572882  69.7689964
 102.9437873  87.8516132  69.9195529 103.0836065  86.3599172  69.7023566
 104.2408237  90.1738638  71.8512717 104.4174865  91.0956603  71.6633701
 105.0365071  89.8597057  72.2807097 108.3819256  77.0346903  83.4496651
 109.1228969  77.6354056  83.3701113 108.6137178  76.2924541  82.8914693
 103.5260594  82.2203270  81.7274880 103.4114109  81.3188527  82.0281979
 102.6705111  82.4666967  81.3759697 110.6052431  90.1621010  83.3262381
 110.1616286  89.3757389  83.0083286 111.2669645  90.3500161  82.6606272
 105.3639553  91.6916812  77.8523060 105.9146978  91.5633875  77.0800054
 104.5251028  91.9911701  77.5017952 112.7033669  90.4423810  81.3543782
 112.6852145  91.2632691  80.8624052 113.6253590  90.3177886  81.5793923
 109.1606724  87.9567940  82.1967291 109.6935060  87.1956228  81.9666599
 108.6320805  87.6641592  82.9391445 112.3276419  73.0628006  77.7260932
 111.9840688  73.9529648  77.6500043 112.6955381  72.8729663  76.8630517
 100.3962269  85.3861536  70.5449535 101.2337491  85.7958545  70.3283242
 100.5740537  84.4460978  70.5149728 112.2926701  83.0536617  66.2333368
 111.7773325  83.8241222  66.4721755 112.0204010  82.3801753  66.8566429
 109.8773812  77.8986318  71.2918606 109.0215409  77.5093168  71.1124245
 110.2900764  77.9778279  70.4318391 111.4072959  75.4332661  75.6910166
 110.9037755  75.3962796  74.8777971 111.7003566  76.3425404  75.7506822
 107.6515845  75.5171391  74.6976347 108.5168842  75.3214199  74.3382237
 107.7193354  75.2881742  75.6245704 117.2660975  85.8068972  68.1686541
 116.4890418  85.4680131  67.7241703 117.9452456  85.8121595  67.4941506
 112.0813004  80.9263709  68.0593149 111.7763140  81.2409858  68.9103292
 113.0343447  81.0045129  68.1020482 110.5259436  87.0853932  69.7086103
 109.9980798  86.3506692  69.3959340 110.0246939  87.8628609  69.4626071
 115.5052282  85.2802953  74.8253149 114.8475957  85.9702214  74.9133278
 116.3092682  85.6699385  75.1687135 105.2578164  77.7473599  72.0692714
 105.8321916  77.5248780  71.3365907 105.8449146  77.8162293  72.8221316
 114.3157741  83.6347326  72.8757091 114.8289623  84.2677317  73.3778800
 114.9658965  83.0348521  72.5100451 105.5847751  79.7778060  66.0888600
 104.7485063  80.1152746  66.4097874 105.4452521  79.6427039  65.1515736
 107.5600832  74.6214848  70.7967784 106.9065244  74.3063865  70.1724398
 107.5181306  73.9990588  71.5227607 108.6712037  84.9034143  62.7121076
 107.7639098  84.6723396  62.9112225 109.1683068  84.1071762  62.8995057
 111.5780115  93.6131650  65.6317762 110.9041814  93.9163347  66.2402720
 111.9645937  94.4160730  65.2823219 110.7938572  81.1096781  75.1215431
 109.8761133  81.3311728  74.9637119 111.2098716  81.1843092  74.2627139
 111.5773620  82.5088197  70.2518112 112.3245439  83.0209594  69.9425234
 111.8465209  82.1872249  71.1122505 109.8500270  85.0046737  67.2345066
 108.9411489  84.7205770  67.3317536 109.8795354  85.4245816  66.3748373
 115.0819537  88.6153327  71.0036233 114.6281864  87.7744237  71.0601424
 114.4513504  89.2514725  71.3411014 114.0252457  79.5445313  72.2336901
 113.2875214  79.0322699  72.5647143 114.2779230  79.1045695  71.4220178
 113.5252477  90.4529824  71.9386052 113.8175451  91.0134881  71.2198417
 114.0351097  90.7458385  72.6939211 114.1264084  72.3221565  72.8278670
 114.4322961  71.4618928  72.5404585 114.8516689  72.9139185  72.6277664
 100.4188440  82.7252252  71.2160268 100.2212840  82.1321612  70.4911335
  99.8635104  82.4204462  71.9336207 108.3985164  82.6175358  73.3354861
 108.4533774  81.6649194  73.2597338 107.5876366  82.7734797  73.8196160
 109.5476358  86.5455481  64.5733144 109.1095788  85.8291340  64.1138782
 110.2886799  86.7731596  64.0118236 106.3377524  81.2352418  71.0945240
 105.5245389  81.5346588  71.5010432 106.8336518  80.8408107  71.8119722
 108.4886102  91.2310175  73.0279505 108.4462281  91.4571021  72.0988037
 109.4048801  90.9973549  73.1765306 111.9351736  81.6994242  79.9260134
 112.2901123  81.9265715  80.7854600 112.5823867  82.0312619  79.3037389
 117.6649473  84.8212678  70.6309463 117.5267371  85.0114274  69.7030652
 117.3085691  85.5832061  71.0877514 105.8291599  78.8070773  76.7106475
 106.4690978  78.6659532  76.0129438 104.9969129  78.5205287  76.3345077
 117.6918852  86.8889205  75.6420734 118.1255359  86.7964494  76.4903789
 118.4050433  86.8646706  75.0040750 106.6051903  88.1073204  72.8241467
 107.3992501  87.6123524  72.6224042 105.8943595  87.5791067  72.4609173
 111.4246747  90.4891299  77.1753835 111.4783769  91.0582236  77.9431551
 110.5561528  90.6593184  76.8107872 102.9134666  82.2516285  68.9001220
 101.9832254  82.1900741  69.1171182 103.0092138  81.7292238  68.1037861
 102.8320215  78.7771098  71.4879462 103.0927032  79.6916432  71.3788622
 103.6537387  78.3095541  71.6376075 104.3045140  80.1908856  78.6578286
 104.9768194  79.9826218  78.0090935 103.4774927  79.9930941  78.2183519
 118.5534402  86.9312906  78.1753620 118.7470292  87.8358716  78.4212895
 118.4535020  86.4720325  79.0092205 110.2070712  76.8170796  80.6743947
 109.5598627  77.5160746  80.5808424 110.9771728  77.2506940  81.0420195
 113.6149510  87.0819649  83.7494500 113.4635017  86.8530200  82.8324584
 113.6054190  88.0390250  83.7625846 110.3834847  84.6551561  78.7340767
 111.3126907  84.8062721  78.5609734 109.9625877  84.7435582  77.8789413
 109.1823179  88.6802226  76.5039305 109.0434264  88.3121010  77.3765243
 108.3937775  89.1949865  76.3323262 109.7771331  93.7811322  67.8464841
 109.9523086  93.3099365  68.6610464 109.0904119  94.4077088  68.0746102
 110.7328394  88.0583828  73.8928142 110.3978226  88.0184598  74.7885792
 110.2332339  87.3928544  73.4198553 104.7072638  83.4651458  79.4180724
 104.5692436  82.7331697  80.0192263 105.6177561  83.3760359  79.1364911
 113.6687585  85.4039863  64.1665202 113.0516756  84.6786691  64.0698255
 113.2004074  86.1649223  63.8232276 107.3354938  83.1771418  78.9064403
 108.0454557  82.5364610  78.8651022 107.2924247  83.4284313  79.8290584
 115.3241717  90.1138771  81.8270982 115.2654263  89.4297991  81.1601565
 115.7261235  90.8557761  81.3751608 106.0483872  80.1636636  80.7260043
 105.5121229  79.7127374  81.3781639 105.4600581  80.2982545  79.9830507
 104.3432416  96.9300685  74.6204701 104.5829014  97.5619209  75.2983720
 103.5001612  96.5788725  74.9070061 105.4586131  79.6225287  63.2886506
 104.5815598  79.5014088  62.9248753 105.9343884  78.8311365  63.0365395
 115.3259124  88.0778355  80.0584962 114.4385903  87.7404277  80.1811361
 115.8957675  87.3461386  80.2953727  96.9788271  84.4102447  73.3828013
  97.6659311  84.0964177  72.7949029  96.8236400  85.3143811  73.1095265
 101.7822994  79.2992643  77.8113037 101.6981182  78.6918313  77.0763447
 100.9605700  79.7901662  77.8122533 108.8560278  92.7379807  77.0246205
 108.7830449  93.5434779  77.5365510 108.4137671  92.9371773  76.1994227
 108.6450057  91.9751577  70.5349027 107.8617579  92.5173258  70.6287251
 109.3442802  92.4925557  70.9343268 111.9546707  77.7846207  73.1783232
 112.4515407  77.0316169  72.8584302 111.1833689  77.8210524  72.6126442
 119.8076465  83.4886572  74.8201524 119.7966341  84.3711288  74.4495457
 118.9393844  83.1358123  74.6256061 111.3158961  92.6366641  79.1804364
 112.0286933  93.2714106  79.1080265 110.8248990  92.7330507  78.3644366
 113.0376488  86.5417894  70.7521656 112.1032767  86.6619357  70.5826360
 113.2153157  85.6390361  70.4881665 108.5381676  79.9263590  72.9054917
 108.1679464  79.3734630  73.5935822 109.0340769  79.3221723  72.3529917
 116.4249039  82.3835213  71.2871690 116.8909492  83.2163205  71.2131992
 116.8756540  81.9180195  71.9916948 106.3670875  90.3861085  80.0009935
 107.0680334  91.0197568  80.1539329 105.8965990  90.7275816  79.2405574
 114.4925271  88.7279035  68.2857842 114.7685114  88.6135629  69.1951716
 113.6229769  88.3296520  68.2470015 114.3965702  74.7515800  75.3262591
 113.4828782  74.9820027  75.4944798 114.8258804  74.8354244  76.1776623
 114.1672161  82.9405692  77.8262485 113.5143611  83.1881600  77.1714938
 114.5452541  82.1269831  77.4924962 111.1279335  92.9765386  71.9290655
 111.3101729  92.1587041  72.3918408 111.9512321  93.1933078  71.4915545
 111.4621500  91.9033571  69.1905704 111.9909267  91.3926025  68.5775866
 111.7249720  91.5876101  70.0551237 110.2159734  83.6825503  84.3128522
 109.5400371  83.5819633  84.9830897 111.0387368  83.5264717  84.7764519
 101.9638593  89.9197440  76.9341037 102.5492030  89.1741128  77.0668942
 101.7663431  90.2301397  77.8177701 104.8177248  92.9548687  71.9503480
 104.1487623  93.4394815  71.4667520 104.6790118  93.2017908  72.8646858
  96.5556248  82.4903040  75.6545481  96.5940347  81.9566631  76.4482599
  96.0496540  81.9638246  75.0356458 108.9582517  94.9892431  78.5486138
 109.5100825  95.1524052  79.3135223 109.2988710  95.5796869  77.8766163
 103.9347010  77.3367581  79.1508023 103.9988336  78.1982412  78.7385421
 103.8714130  76.7241582  78.4180381 103.4099282  79.4090713  82.7981057
 104.0371321  79.0267791  83.4118581 102.5527201  79.1904915  83.1636750
 113.8093391  89.8153688  84.4034793 114.3533295  90.4283647  83.9089747
 113.2280236  90.3733267  84.9201806 100.1864825  81.2167142  68.7299412
 100.4818266  80.3077821  68.6766466  99.2852861  81.1954882  68.4080414
 112.0950904  92.9374406  75.5349820 111.9702043  92.1364146  75.0260766
 112.7529995  93.4320600  75.0463790 103.7159072  79.2923139  74.7126961
 102.9945658  79.9059107  74.5734434 104.5052328  79.8280904  74.6343606
 114.1585812  90.7383426  77.1629370 113.2116148  90.6188778  77.0907697
 114.5068585  89.8505925  77.2455632 106.5185386  76.6277565  80.9867612
 107.0419787  76.8739862  81.7493922 106.2997719  77.4597600  80.5670750
 101.9152667  78.8981240  68.8538737 101.5865373  78.0178619  68.6713843
 102.2692037  78.8428909  69.7415126 111.1632246  90.5336143  73.3633723
 111.0157208  89.6052850  73.5441293 111.9885739  90.5556233  72.8790798
 105.0294490  79.1854210  69.2214215 105.3690562  79.7140131  68.4992823
 105.4766610  79.5234616  69.9972781 114.7666367  91.3564701  74.4498595
 115.6912915  91.1507563  74.3123047 114.5981671  91.1081103  75.3587937
 107.7237931  77.5691261  78.6717283 107.3834751  76.7699074  79.0737963
 107.0176937  77.8692971  78.0994116 108.3754403  74.6540573  77.1244606
 109.1980472  74.1801051  77.0023496 108.6192466  75.4331057  77.6243292
 107.0162637  77.6828831  67.4207508 107.7371000  78.0610084  66.9171224
 106.3927941  78.4017708  67.5242485 111.1593760  78.3873980  68.3565840
 111.3757374  79.2698618  68.0554668 110.6787827  77.9960194  67.6271482
 105.8992981  81.3459694  74.9336584 105.7537562  81.6599997  75.8260866
 105.4218185  81.9644594  74.3807483 107.7589364  78.3362242  74.9817474
 107.7450933  77.4403335  74.6449772 108.4761792  78.3432905  75.6155760
 109.6115495  78.7699582  77.0270601 109.3533273  79.6916652  77.0254932
 109.0800535  78.3730016  77.7171066 114.5561684  91.8750369  69.8060687
 114.7298561  91.3096791  69.0534539 115.0490575  92.6751264  69.6240177
 100.3738643  83.8865038  77.8724246  99.8292112  84.6624846  78.0044520
 101.2517993  84.2335842  77.7143367 107.1626260  77.2176622  70.2505044
 107.2842171  76.2893268  70.4495932 106.8728302  77.2315308  69.3383360
 110.0317450  74.9031532  73.3871764 110.0539147  74.9670865  72.4323744
 110.4485509  74.0636041  73.5812270 120.4101075  84.6386792  71.4250987
 120.8532221  83.8894117  71.0270110 119.5327585  84.6296928  71.0424719
 115.5436856  91.1917133  66.9057585 116.2387761  91.8123826  67.1244900
 115.8860006  90.3412485  67.1809963 101.1604665  83.0134934  80.7654403
 100.4186401  83.1617570  81.3519033 100.8397410  83.2743200  79.9021152
 117.4428279  88.6416839  68.4344916 117.9679603  88.9804112  67.7094236
 117.3550632  87.7063854  68.2508051 109.1048328  92.5550912  80.5634793
 109.4135454  92.3100059  81.4357492 109.9023810  92.7597551  80.0753663
 109.1268940  94.7088822  72.7940169 108.6873930  94.2165201  73.4873026
 109.8777057  94.1661790  72.5532244 101.6061279  90.9000363  72.7964797
 102.4319299  90.6004135  72.4163441 101.2555331  90.1307985  73.2454586
 106.5742812  90.2526831  74.8662471 105.9522821  89.5897536  74.5664699
 107.2447679  90.2787963  74.1836119  99.8069884  88.8186689  73.7553731
  98.9701792  88.3908864  73.5737732  99.7793529  89.0119133  74.6924522
 106.6467340  78.7308619  84.4594977 106.6955495  79.6070742  84.0772746
 107.1889854  78.1886012  83.8866620 117.1322185  89.2749742  83.7396114
 116.3417729  89.2573881  83.2000613 116.8955540  89.8138036  84.4945150
 117.2520060  86.1242209  81.0528842 117.3018065  85.9592216  81.9944365
 117.1433984  85.2569468  80.6626723 106.1356319  88.8030755  68.3420931
 106.2844439  89.4866219  67.6887604 106.9422763  88.7835845  68.8570387
 114.5423823  82.1073137  82.3688149 115.4433686  81.9679602  82.0772147
 114.6171797  82.2727592  83.3086327 108.8766628  79.4839992  81.2141335
 108.0069937  79.7773558  80.9423924 109.1126108  80.0680437  81.9348599
 118.7538257  88.5439150  81.2970864 118.4623065  88.9069131  82.1334325
 118.1410388  87.8306159  81.1184196 119.9533939  86.1092030  73.8173434
 120.7880831  86.5481834  73.9810995 120.0893068  85.6330683  72.9981680
 117.0025445  83.6671765  79.7650922 117.4779567  83.8599411  78.9569773
 116.0791011  83.7230951  79.5194306 103.8908952  84.8295932  69.3482000
 103.6454994  83.9258262  69.5462210 104.0604867  84.8313083  68.4061478
 111.5805662  75.7019609  78.7306756 112.0987606  76.4380635  78.4053244
 111.2260795  76.0083602  79.5653515 103.1604600  80.5624290  66.8468162
 102.4673845  80.6368645  66.1908198 102.9156351  79.7984633  67.3689679
 111.8318256  72.1219891  74.2507652 112.1120010  71.4543080  74.8768079
 112.6168863  72.3148987  73.7382316 109.6351725  91.2978885  65.8132679
 109.0625692  91.9169072  65.3603151 110.2084518  91.8478247  66.3472601
 115.7027114  80.5437525  77.9979228 116.6544537  80.6435623  78.0191452
 115.5330565  79.7515794  78.5077312 113.7241494  77.6293108  78.1838628
 113.1291426  77.9098121  77.4885117 113.4391191  78.1187009  78.9555370
 112.8548984  91.5816035  66.9441261 113.7879658  91.5161597  67.1474137
 112.7672197  92.4172302  66.4855794 115.4837001  90.8981905  63.9045209
 115.4050633  90.5641769  64.7980966 116.3046668  91.3903673  63.9036681
 118.1815192  83.7643645  77.1121527 118.1491512  82.8259645  77.2981211
 118.7915816  83.8427681  76.3787352 110.0198523  82.6339698  63.1548731
 110.9657628  82.5045906  63.2237149 109.6412768  81.8954360  63.6318159
 118.3309681  80.5554688  77.1579810 117.8148729  79.7713145  76.9709739
 119.2149629  80.2273405  77.3226330 115.9920408  74.2995704  73.1175623
 115.7945229  73.9910792  74.0018955 116.6020113  75.0257343  73.2473553
 109.9037216  86.6857444  84.6149388 110.8240225  86.8636043  84.8089435
 109.8686799  85.7413489  84.4629087 108.2041440  80.5589674  63.0903616
 107.2972896  80.2622787  63.1666330 108.4817421  80.2619492  62.2237903
  99.1219381  81.8796038  73.5402663  98.8022165  81.0261346  73.2477037
  98.5752809  82.0944616  74.2960630 102.8999288  84.5958479  77.2572169
 103.1185298  85.5275586  77.2760203 103.3125062  84.2366453  78.0426973
 109.8203506  75.1026564  69.2447858 109.0104234  74.7573649  69.6203104
 110.5087923  74.7934108  69.8335469 111.7494054  74.1804611  70.8672154
 112.3025093  74.6000064  71.5262177 111.9864141  73.2540359  70.9095110
 107.7727153  80.1691684  86.6474918 107.6723880  81.1186041  86.5787009
 107.5548696  79.8409923  85.7750988 106.9740225  77.4176609  63.2315596
 107.8359389  77.7431508  63.4911413 107.1590569  76.6308105  62.7188661
  98.9907641  85.4998949  75.5095784  98.2971112  85.0852902  74.9965739
  99.7380632  85.5419486  74.9129203 115.1272861  76.2905136  70.3750819
 114.5471530  76.9489940  69.9928871 114.8608794  75.4682480  69.9638236
 113.5776428  75.6910194  72.5772139 114.0776206  75.8026728  71.7686458
 114.2212036  75.3871246  73.2172947 107.6358424  83.5988823  85.4639980
 107.1525505  84.3989183  85.6703869 107.7219363  83.6096768  84.5107424
 100.9044383  85.4317203  73.3861799 100.8815071  85.5304890  72.4343682
 101.2145020  86.2782354  73.7078965 103.5631761  87.4893358  77.5008414
 104.5175015  87.4577300  77.4338345 103.3644285  87.0283982  78.3158640
 104.1531143  86.0594474  80.0679211 104.9724032  86.5538553  80.0914049
 104.4267951  85.1426442  80.0396779 113.9097739  78.4505226  69.4307167
 113.0223594  78.7354877  69.2127362 114.3251728  78.2898990  68.5834444
 117.2612275  78.4751747  73.1461506 118.0372666  78.9648200  73.4186123
 116.5360410  78.9009801  73.6033376 119.6984834  79.1879366  74.2035447
 120.2929325  78.9475102  73.4928755 119.7711418  78.4686497  74.8308983
 101.9181990  93.0312977  74.5178612 101.7836458  92.2713378  73.9516610
 101.5014052  93.7553877  74.0507400 113.0540953  88.2149901  63.5255187
 113.7576803  88.4199903  64.1412842 112.3303602  88.7826663  63.7904270
 113.8838763  83.9659762  69.6457457 113.8273964  84.4228314  68.8065089
 114.4367106  83.2050447  69.4680300 117.6943569  79.7549494  70.4707577
 117.4380503  79.3546130  71.3015784 117.0696437  80.4693288  70.3457716
 105.0751116  93.9282294  74.7297054 104.9583500  94.8727727  74.6275744
 104.2543562  93.6255856  75.1182853 114.9627650  88.6532430  65.5753647
 115.7973254  88.2213629  65.3931122 114.8011993  88.4814444  66.5030541
 114.6173542  85.1564543  66.9409986 114.5622346  84.9908815  65.9998430
 113.9919598  85.8640576  67.0972176  99.4066057  80.3932608  80.7671408
 100.0524921  79.8831562  81.2558634  99.1983208  81.1301289  81.3414834
 111.9319450  87.4613455  86.2663549 112.8010609  87.6354108  85.9050184
 111.4526201  88.2807872  86.1439278 107.9269668  74.6572652  66.5195305
 107.9148338  75.6014492  66.6763575 108.8193090  74.4742798  66.2254766
 106.1005630  94.5810556  77.9452983 107.0032877  94.6134166  78.2619478
 105.8743000  93.6511007  77.9599318 107.8559232  93.3341543  74.6063061
 106.9054863  93.3343404  74.4927434 108.1591718  92.5874277  74.0899096
 111.7421787  71.2515429  70.7741241 110.9754183  70.6973916  70.9197924
 112.1532492  71.3237298  71.6355393 103.7463548  77.5400225  84.8646423
 104.6095010  77.1837030  85.0749747 103.1728959  77.2014120  85.5521827
 120.4001632  99.1229509  75.6070348 120.0620143  99.0070574  74.7190883
 121.2691400  98.7220674  75.5871354 116.2588447 100.9764986  71.5967239
 115.6953312 100.8854923  70.8283527 116.1440842 100.1564890  72.0769732
 120.8821415 100.2764361  81.5656554 120.8710055  99.8817159  80.6937058
 121.0442054  99.5430434  82.1590325 113.8052879 102.4716177  74.4351460
 114.5974171 102.1307002  74.0197759 114.0449529 102.5811152  75.3553613
 115.7643633 101.7325091  67.3068839 116.5374509 101.1854078  67.1681714
 116.1169032 102.5969340  67.5183300 117.6028676 103.0601473  80.5135738
 117.3118542 103.9647104  80.3982404 118.2385660 103.1018000  81.2279807
 118.5284883 100.4378321  77.1037098 119.1248455 100.2134344  76.3894060
 118.5859854  99.6963067  77.7062545 118.1009911  97.8917757  64.9387288
 118.3535432  97.3699278  64.1770751 117.1634470  97.7283902  65.0413972
 117.8206200  99.7945863  67.1411663 117.7042458  99.1190766  67.8092748
 117.9308460  99.3078237  66.3243816 120.1637741  99.2556010  70.8458353
 119.7995948  98.7286631  71.5571274 121.0204857  98.8654479  70.6724838
 119.8043228  94.2845909  65.8419701 119.9717630  95.1526146  66.2090172
 119.6140397  94.4473191  64.9180990 116.0131042  99.1976685  73.5422236
 115.0881539  99.0652899  73.7499928 116.2615455  99.9770904  74.0392178
 119.7832449  96.7403567  66.8266368 119.6632074  97.1860618  67.6651848
 119.0885037  97.0888885  66.2679906 113.3739853  98.8409959  74.3766025
 113.5032234  99.0944438  75.2905437 112.6937305  99.4337667  74.0570680
 120.0356570  96.6835074  83.1317866 119.2589904  97.2428994  83.1220731
 120.6747133  97.1691857  83.6532736 118.2902943  99.4920527  82.6935833
 119.0317627 100.0305571  82.4170657 117.5839928 100.1186816  82.8507385
 120.1189352  96.5722275  78.6641552 120.9650548  96.9961688  78.8076201
 120.0587990  95.9155899  79.3580115 119.6415059 101.9325267  72.3110369
 120.1053404 102.2112970  71.5214991 119.3771857 101.0308711  72.1283459
 116.5339140 101.4796748  75.2490132 117.1040497 101.9084017  74.6107616
 117.1247252 101.1979333  75.9474318 118.5783945  98.0548419  69.1199934
 119.2807988  98.5069463  69.5873860 118.2464573  97.4132238  69.7479827
 117.0264306  96.6460176  83.4951143 116.3962967  97.3276456  83.7286540
 116.9200394  96.5343257  82.5504281 112.3209279  96.3131972  74.4217067
 111.5308333  96.5689500  73.9457178 112.8120526  97.1280310  74.5269108
 114.2724024  96.6776551  71.3800544 113.4755188  96.7895245  71.8984040
 114.0449616  97.0163203  70.5141435 120.1029692 103.2021254  79.3283059
 120.1674124 103.6641661  80.1641230 119.3940616 102.5718619  79.4565369
 110.6046982  96.5662462  76.8532058 110.8555020  97.4509472  77.1189634
 111.1406530  96.3867064  76.0807150 116.3045049  90.9480941  85.8576394
 115.9111995  90.3947140  86.5324038 117.1211189  91.2591520  86.2482912
 113.2707107 102.3864800  69.7689964 113.7831627 103.1808050  69.9195529
 113.9229820 101.6891090  69.7023566 115.0801992 105.5030556  71.8512717
 115.2568620 106.4248521  71.6633701 115.8758825 105.1888975  72.2807097
 119.2213010  92.3638821  83.4496651 119.9622724  92.9645974  83.3701113
 119.4530933  91.6216458  82.8914693 114.3654348  97.5495188  81.7274880
 114.2507863  96.6480445  82.0281979 113.5098866  97.7958885  81.3759697
 116.2033307 107.0208730  77.8523060 116.7540732 106.8925793  77.0800054
 115.3644783 107.3203619  77.5017952 120.0000478 103.2859858  82.1967291
 120.5328815 102.5248146  81.9666599 119.4714559 102.9933509  82.9391445
 111.2356024 100.7153454  70.5449535 112.0731246 101.1250462  70.3283242
 111.4134291  99.7752896  70.5149728 120.7167567  93.2278235  71.2918606
 119.8609163  92.8385086  71.1124245 121.1294519  93.3070196  70.4318391
 118.4909599  90.8463308  74.6976347 119.3562596  90.6506117  74.3382237
 118.5587108  90.6173660  75.6245704 121.3653191 102.4145850  69.7086103
 120.8374552 101.6798610  69.3959340 120.8640694 103.1920526  69.4626071
 116.0971918  93.0765516  72.0692714 116.6715670  92.8540698  71.3365907
 116.6842901  93.1454211  72.8221316 116.4241506  95.1069977  66.0888600
 115.5878818  95.4444664  66.4097874 116.2846275  94.9718957  65.1515736
 118.3994586  89.9506765  70.7967784 117.7458998  89.6355782  70.1724398
 118.3575060  89.3282506  71.5227607 119.5105791 100.2326060  62.7121076
 118.6032853 100.0015314  62.9112225 120.0076823  99.4363680  62.8995057
 120.6894024 100.3338655  67.2345066 119.7805244 100.0497688  67.3317536
 120.7189108 100.7537734  66.3748373 111.2582195  98.0544169  71.2160268
 111.0606595  97.4613530  70.4911335 110.7028859  97.7496379  71.9336207
 119.2378918  97.9467276  73.3354861 119.2927528  96.9941112  73.2597338
 118.4270121  98.1026715  73.8196160 120.3870112 101.8747399  64.5733144
 119.9489542 101.1583258  64.1138782 121.1280553 102.1023514  64.0118236
 117.1771278  96.5644335  71.0945240 116.3639144  96.8638506  71.5010432
 117.6730273  96.1700024  71.8119722 116.6685353  94.1362691  76.7106475
 117.3084732  93.9951450  76.0129438 115.8362884  93.8497204  76.3345077
 117.4445657 103.4365121  72.8241467 118.2386256 102.9415442  72.6224042
 116.7337349 102.9082985  72.4609173 113.7528421  97.5808203  68.9001220
 112.8226009  97.5192659  69.1171182 113.8485893  97.0584156  68.1037861
 113.6713970  94.1063016  71.4879462 113.9320787  95.0208349  71.3788622
 114.4931142  93.6387459  71.6376075 115.1438895  95.5200773  78.6578286
 115.8161948  95.3118135  78.0090935 114.3168681  95.3222859  78.2183519
 120.0216933 104.0094143  76.5039305 119.8828019 103.6412928  77.3765243
 119.2331529 104.5241783  76.3323262 121.5722148 103.3875746  73.8928142
 121.2371981 103.3476516  74.7885792 121.0726094 102.7220462  73.4198553
 115.5466392  98.7943376  79.4180724 115.4086190  98.0623615  80.0192263
 116.4571316  98.7052276  79.1364911 118.1748693  98.5063335  78.9064403
 118.8848311  97.8656528  78.8651022 118.1318001  98.7576230  79.8290584
 116.8877627  95.4928553  80.7260043 116.3514984  95.0419292  81.3781639
 116.2994335  95.6274462  79.9830507 116.2979886  94.9517205  63.2886506
 115.4209352  94.8306006  62.9248753 116.7737639  94.1603283  63.0365395
 107.8182026  99.7394364  73.3828013 108.5053066  99.4256095  72.7949029
 107.6630155 100.6435729  73.1095265 112.6216748  94.6284561  77.8113037
 112.5374937  94.0210231  77.0763447 111.7999454  95.1193579  77.8122533
 119.3775431  95.2555508  72.9054917 119.0073218  94.7026548  73.5935822
 119.8734523  94.6513641  72.3529917 117.2064629 105.7153003  80.0009935
 117.9074089 106.3489486  80.1539329 116.7359744 106.0567734  79.2405574
 112.8032347 105.2489358  76.9341037 113.3885784 104.5033046  77.0668942
 112.6057186 105.5593314  77.8177701 107.3950002  97.8194958  75.6545481
 107.4334102  97.2858549  76.4482599 106.8890295  97.2930163  75.0356458
 114.7740764  92.6659498  79.1508023 114.8382091  93.5274329  78.7385421
 114.7107885  92.0533500  78.4180381 114.2493037  94.7382631  82.7981057
 114.8765076  94.3559708  83.4118581 113.3920956  94.5196833  83.1636750
 111.0258580  96.5459060  68.7299412 111.3212021  95.6369738  68.6766466
 110.1246615  96.5246799  68.4080414 114.5552827  94.6215057  74.7126961
 113.8339412  95.2351024  74.5734434 115.3446082  95.1572821  74.6343606
 117.3579140  91.9569483  80.9867612 117.8813542  92.2031780  81.7493922
 117.1391473  92.7889518  80.5670750 112.7546421  94.2273158  68.8538737
 112.4259127  93.3470537  68.6713843 113.1085792  94.1720826  69.7415126
 115.8688244  94.5146127  69.2214215 116.2084317  95.0432049  68.4992823
 116.3160365  94.8526534  69.9972781 118.5631685  92.8983178  78.6717283
 118.2228506  92.0990991  79.0737963 117.8570691  93.1984889  78.0994116
 119.2148157  89.9832491  77.1244606 120.0374226  89.5092969  77.0023496
 119.4586221  90.7622974  77.6243292 117.8556391  93.0120749  67.4207508
 118.5764754  93.3902002  66.9171224 117.2321696  93.7309626  67.5242485
 116.7386736  96.6751611  74.9336584 116.5931316  96.9891914  75.8260866
 116.2611939  97.2936512  74.3807483 118.5983119  93.6654159  74.9817474
 118.5844687  92.7695253  74.6449772 119.3155547  93.6724823  75.6155760
 120.4509249  94.0991499  77.0270601 120.1927027  95.0208570  77.0254932
 119.9194290  93.7021934  77.7171066 111.2132398  99.2156956  77.8724246
 110.6685866  99.9916764  78.0044520 112.0911748  99.5627760  77.7143367
 118.0020015  92.5468540  70.2505044 118.1235926  91.6185186  70.4495932
 117.7122057  92.5607225  69.3383360 120.8711205  90.2323450  73.3871764
 120.8932902  90.2962783  72.4323744 121.2879264  89.3927959  73.5812270
 111.9998420  98.3426852  80.7654403 111.2580156  98.4909487  81.3519033
 111.6791164  98.6035118  79.9021152 112.4455033 106.2292281  72.7964797
 113.2713053 105.9296053  72.4163441 112.0949085 105.4599903  73.2454586
 117.4136567 105.5818749  74.8662471 116.7916576 104.9189454  74.5664699
 118.0841434 105.6079881  74.1836119 110.6463639 104.1478607  73.7553731
 109.8095547 103.7200781  73.5737732 110.6187284 104.3411050  74.6924522
 117.4861094  94.0600537  84.4594977 117.5349250  94.9362660  84.0772746
 118.0283608  93.5177930  83.8866620 116.9750074 104.1322672  68.3420931
 117.1238194 104.8158137  67.6887604 117.7816517 104.1127762  68.8570387
 119.7160383  94.8131909  81.2141335 118.8463692  95.1065475  80.9423924
 119.9519863  95.3972354  81.9348599 114.7302707 100.1587850  69.3482000
 114.4848748  99.2550180  69.5462210 114.8998621 100.1605000  68.4061478
 113.9998354  95.8916207  66.8468162 113.3067599  95.9660562  66.1908198
 113.7550106  95.1276551  67.3689679 119.0435195  95.8881592  63.0903616
 118.1366650  95.5914705  63.1666330 119.3211176  95.5911410  62.2237903
 109.9613135  97.2087955  73.5402663 109.6415919  96.3553263  73.2477037
 109.4146563  97.4236533  74.2960630 113.7393043  99.9250396  77.2572169
 113.9579052 100.8567504  77.2760203 114.1518816  99.5658371  78.0426973
 120.6597260  90.4318482  69.2447858 119.8497989  90.0865566  69.6203104
 121.3481677  90.1226025  69.8335469 118.6120908  95.4983602  86.6474918
 118.5117635  96.4477959  86.5787009 118.3942450  95.1701841  85.7750988
 117.8133979  92.7468527  63.2315596 118.6753143  93.0723425  63.4911413
 117.9984323  91.9600023  62.7188661 109.8301395 100.8290867  75.5095784
 109.1364867 100.4144819  74.9965739 110.5774386 100.8711403  74.9129203
 118.4752178  98.9280741  85.4639980 117.9919260  99.7281101  85.6703869
 118.5613117  98.9388686  84.5107424 111.7438138 100.7609120  73.3861799
 111.7208826 100.8596808  72.4343682 112.0538774 101.6074271  73.7078965
 114.4025516 102.8185275  77.5008414 115.3568769 102.7869218  77.4338345
 114.2038039 102.3575899  78.3158640 114.9924898 101.3886392  80.0679211
 115.8117787 101.8830470  80.0914049 115.2661705 100.4718360  80.0396779
 112.7575744 108.3604895  74.5178612 112.6230212 107.6005296  73.9516610
 112.3407807 109.0845795  74.0507400 110.2459812  95.7224525  80.7671408
 110.8918675  95.2123479  81.2558634 110.0376963  96.4593207  81.3414834
 118.7663422  89.9864570  66.5195305 118.7542092  90.9306410  66.6763575
 119.6586844  89.8034715  66.2254766 114.5857303  92.8692142  84.8646423
 115.4488764  92.5128947  85.0749747 114.0122714  92.5306037  85.5521827
  52.5076815  -5.4582175  57.2001806  52.4300845  -4.5074350  57.2790286
  51.9038459  -5.8036302  57.8576732  50.1463645  -2.7096781  61.3450008
  50.3860243  -2.0778257  62.0229026  49.3032841  -3.0608741  61.6315367
  50.6208477  -6.6848778  58.6748786  49.9518852  -6.2002651  58.1912826
  50.4821347  -6.4379558  59.5892165  54.7613745  -4.6505035  65.2731445
  55.3132053  -4.4873413  66.0380530  55.1019939  -4.0600597  64.6011470
  47.7213219  -6.6084488  61.2423918  47.5867687  -7.3684088  60.6761916
  47.3045281  -5.8843589  60.7752707  50.8782344  -5.7115171  61.4542361
  50.7614729  -4.7669739  61.3521051  50.0574791  -6.0141610  61.8428160
  51.9036859  -5.0586910  64.6698289  52.8064105  -5.0263299  64.9864784
  51.6774229  -5.9886459  64.6844625  66.2032860  -0.5167957  62.3315655
  65.8651372  -0.6326892  61.4436190  67.0722629  -0.9176791  62.3116661
  62.0619676   1.3367520  58.3212546  61.4984541   1.2457457  57.5528834
  61.9472071   0.5167424  58.8015038  66.6852643   0.6366895  68.2901861
  66.6741284   0.2419693  67.4182364  66.8473283  -0.0967032  68.8835632
  59.6084108   2.8318711  61.1596766  60.4005400   2.4909536  60.7443066
  59.8480758   2.9413687  62.0798920  67.6419235   5.0038488  53.6327011
  66.9907215   5.5892568  53.2461025  68.4363598   5.5344683  53.6922048
  61.5674862   2.0927625  54.0314145  62.3405738   1.5456612  53.8927021
  61.9200261   2.9571874  54.2428607  63.4059905   3.4204007  67.2381045
  63.1149771   4.3249638  67.1227711  64.0416889   3.4620535  67.9525114
  64.3316111   0.7980856  63.8282404  64.9279684   0.5736878  63.1139367
  64.3891083   0.0565601  64.4307852  69.1194500   2.6928920  54.1695995
  68.4840333   2.7663546  54.8816900  68.7891906   3.2822518  53.4915074
  63.6237429   0.1548397  53.8656970  63.5073687  -0.5206700  54.5338054
  63.7339688  -0.3319229  53.0489123  65.9668969  -0.3841456  57.5703659
  65.6027177  -0.9110835  58.2816581  66.8236085  -0.7742987  57.3970145
  68.3649790   3.1065423  64.2330838  68.0650513   4.0090461  64.1246645
  68.0200849   2.8397606  65.0851991  61.8162271  -0.4420781  60.2667543
  60.8912768  -0.5744567  60.4745234  62.0646684   0.3373439  60.7637485
  59.1771082  -0.7987507  61.1011332  59.3063463  -0.5453028  62.0150743
  58.4968533  -0.2059799  60.7815987  63.3470569   9.8709743  57.2001806
  63.2694599  10.8217568  57.2790286  62.7432213   9.5255615  57.8576732
  64.0934171  -0.1476938  69.4181140  64.8348856   0.3908106  69.1415963
  63.3871157   0.4789350  69.5752692  69.5689511   1.9952202  68.0153301
  69.9772867   1.5534613  67.2707934  68.8466773   1.4204830  68.2687494
  69.8918326   2.5553393  61.7705590  69.2627188   2.7199107  61.0681658
  69.5043988   2.9695002  62.5416554  73.7707558   3.4907831  59.1249954
  73.0858596   3.8706732  58.5746987  73.8551407   4.1003157  59.8581902
  71.0258489   1.1367790  65.7245297  71.2375385   1.7799550  65.0479679
  70.9788238   0.3030106  65.2567228  65.4446288   2.2927801  59.0355675
  65.9084633   2.5715504  58.2460298  65.1803086   1.3911245  58.8528766
  62.3370369   1.8399282  61.9735439  62.9071726   2.2686551  61.3352923
  62.9278481   1.5581867  62.6719624  58.1240508  -3.3265494  61.1462374
  57.3339562  -3.0707966  60.6702485  58.6151755  -2.5117156  61.2514415
  72.1404317   4.0139745  63.8967655  72.9621761   3.6119932  63.6150336
  72.1366720   3.9107979  64.8483771  60.0755253  -2.9620915  58.1045851
  59.2786416  -2.8502221  58.6229346  59.8480845  -2.6234263  57.2386741
  65.9060921   3.5623788  66.0528365  65.9705353   4.0244196  66.8886537
  65.1971845   2.9321153  66.1810675  56.4078211  -3.0735004  63.5777365
  56.6586249  -2.1887994  63.8434941  56.9437759  -3.2530402  62.8052457
  65.6208938   5.2291896  55.9207346  65.4854613   6.0743432  56.3492193
  66.1618751   5.4311173  55.1573279  59.0738336   2.7467334  56.4935271
  59.5862856   3.5410584  56.6440835  59.7261049   2.0493624  56.4268872
  60.8833220   5.8633090  58.5758024  61.0599849   6.7851055  58.3879008
  61.6790054   5.5491509  59.0052404  60.1685577  -2.0902278  68.4520187
  60.0539092  -2.9917021  68.7527286  59.3130095  -1.8438581  68.1005004
  67.2477415   5.8515462  70.0507688  66.8041269   5.0651841  69.7328592
  67.9094628   6.0394613  69.3851578  62.0064536   7.3811264  64.5768366
  62.5571961   7.2528327  63.8045360  61.1676012   7.6806153  64.2263259
  69.3458653   6.1318262  68.0789089  69.3277128   6.9527143  67.5869358
  70.2678573   6.0072337  68.3039230  65.8031707   3.6462392  68.9212597
  66.3360044   2.8850680  68.6911905  65.2745788   3.3536044  69.6636752
  57.0387253   1.0755988  57.2694841  57.8762475   1.4852997  57.0528549
  57.2165520   0.1355430  57.2395035  67.1684420   2.7748384  56.4331409
  66.6405781   2.0401144  56.1204647  66.6671922   3.5523061  56.1871378
  72.1477266   0.9697405  61.5498456  71.4900940   1.6596666  61.6378584
  72.9517665   1.3593837  61.8932442  65.3137020   0.5928594  49.4366382
  64.4064082   0.3617848  49.6357531  65.8108052  -0.2033786  49.6240364
  68.2205099   9.3026102  52.3563069  67.5466797   9.6057798  52.9648026
  68.6070921  10.1055182  52.0068526  66.4925253   0.6941189  53.9590372
  65.5836473   0.4100222  54.0562842  66.5220337   1.1140268  53.0993679
  71.7244521   4.3047779  57.7281540  71.2706848   3.4638689  57.7846731
  71.0938487   4.9409177  58.0656320  70.1677460   6.1424276  58.6631358
  70.4600434   6.7029333  57.9443724  70.6776080   6.4352837  59.4184517
  57.0613424  -1.5853297  57.9405575  56.8637823  -2.1783936  57.2156641
  56.5060088  -1.8901086  58.6581513  66.1901341   2.2349933  51.2978451
  65.7520771   1.5185792  50.8384088  66.9311782   2.4626048  50.7363542
  65.1311085   6.9204627  59.7524811  65.0887264   7.1465473  58.8233343
  66.0473784   6.6868001  59.9010613  74.3343835   2.5783657  62.3666041
  74.7680342   2.4858946  63.2149095  75.0475416   2.5541158  61.7286057
  63.2476886   3.7967656  59.5486774  64.0417484   3.3017976  59.3469349
  62.5368578   3.2685519  59.1854480  68.0671730   6.1785751  63.8999142
  68.1208753   6.7476687  64.6676858  67.1986512   6.3487636  63.5353179
  59.5559649  -2.0589263  55.6246527  58.6257237  -2.1204807  55.8416489
  59.6517121  -2.5813310  54.8283168  75.1959385   2.6207358  64.8998927
  75.3895275   3.5253168  65.1458201  75.0960003   2.1614777  65.7337512
  70.2574494   2.7714100  70.4739807  70.1060000   2.5424652  69.5569891
  70.2479173   3.7284702  70.4871152  67.0259830   0.3446013  65.4586074
  67.9551890   0.4957173  65.2855041  66.6050860   0.4330034  64.6034720
  65.8248162   4.3696678  63.2284611  65.6859248   4.0015462  64.1010549
  65.0362758   4.8844317  63.0568569  66.4196314   9.4705774  54.5710148
  66.5948070   8.9993817  55.3855770  65.7329102  10.0971540  54.7991408
  67.3753377   3.7478280  60.6173449  67.0403210   3.7079050  61.5131099
  66.8757323   3.0822996  60.1443859  61.3497621  -0.8454090  66.1426030
  61.2117419  -1.5773851  66.7437569  62.2602544  -0.9345190  65.8610218
  70.3112569   1.0934315  50.8910509  69.6941739   0.3681143  50.7943561
  69.8429057   1.8543675  50.5477583  63.9779922  -1.1334130  65.6309710
  64.6879540  -1.7740938  65.5896328  63.9349230  -0.8821235  66.5535891
  71.9666700   5.8033223  68.5516289  71.9079246   5.1192443  67.8846872
  72.3686219   6.5452213  68.0996915  60.9857399  12.6195137  61.3450008
  61.2253997  13.2513661  62.0229026  60.1426596  12.2683177  61.6315367
  71.9684108   3.7672807  66.7830269  71.0810886   3.4298729  66.9056668
  72.5382659   3.0355838  67.0199034  53.6213255   0.0996899  60.1073320
  54.3084295  -0.2141371  59.5194335  53.4661383   1.0038263  59.8340571
  65.4985261   8.4274259  63.7491512  65.4255432   9.2329231  64.2610816
  65.0562654   8.6266225  62.9239533  65.2875041   7.6646029  57.2594333
  64.5042563   8.2067710  57.3532558  65.9867786   8.1820009  57.6588575
  67.9583945   8.3261093  65.9049671  68.6711917   8.9608558  65.8325572
  67.4673973   8.4224959  65.0889672  69.6801471   2.2312346  57.4766962
  68.7457750   2.3513808  57.3071667  69.8578140   1.3284813  57.2126972
  63.0095858   6.0755537  66.7255241  63.7105318   6.7092020  66.8784636
  62.5390973   6.4170268  65.9650881  71.1350254   4.4173487  55.0103148
  71.4110098   4.3030081  55.9197022  70.2654753   4.0190971  54.9715321
  67.7704318   8.6659837  58.6535962  67.9526712   7.8481493  59.1163714
  68.5937304   8.8827530  58.2160852  68.1046483   7.5928023  55.9151010
  68.6334250   7.0820477  55.3021173  68.3674703   7.2770553  56.7796544
  66.8584717  -0.6280045  71.0373829  66.1825354  -0.7285915  71.7076204
  67.6812351  -0.7840831  71.5009826  58.6063576   5.6091892  63.6586344
  59.1917013   4.8635580  63.7914248  58.4088415   5.9195849  64.5423008
  61.4602231   8.6443139  58.6748786  60.7912607   9.1289267  58.1912826
  61.3215101   8.8912360  59.5892165  53.1981231  -1.8202508  62.3790787
  53.2365330  -2.3538917  63.1727905  52.6921524  -2.3467302  61.7601764
  65.6007500  10.6786883  65.2731445  66.1525808  10.8418504  66.0380530
  65.9413693  11.2691321  64.6011470  70.4518374   5.5048140  71.1280099
  70.9958278   6.1178099  70.6335054  69.8705219   6.0627719  71.6447112
  56.8289808  -3.0938406  55.4544719  57.1243250  -4.0027727  55.4011772
  55.9277844  -3.1150666  55.1325721  68.7375887   8.6268858  62.2595127
  68.6127027   7.8258598  61.7506072  69.3954978   9.1215052  61.7709097
  70.8010796   6.4277878  63.8874677  69.8541131   6.3083230  63.8153004
  71.1493569   5.5400376  63.9700938  67.8057229   6.2230595  60.0879029
  67.6582191   5.2947302  60.2686599  68.6310722   6.2450685  59.6036105
  71.4091351   7.0459153  61.1743902  72.3337898   6.8402015  61.0368353
  71.2406654   6.7975554  62.0833244  71.1986667   7.5644821  56.5305993
  71.3723544   6.9991243  55.7779846  71.6915558   8.3645716  56.3485483
  57.0163627  -0.4240510  64.5969552  56.4717095   0.3519298  64.7289827
  57.8942977  -0.0769706  64.4388674  72.1861839   6.8811585  53.6302892
  72.8812744   7.5018278  53.8490206  72.5284990   6.0306936  53.9055270
  57.8029649  -1.2970614  67.4899709  57.0611385  -1.1487979  68.0764340
  57.4822393  -1.0362348  66.6266459  74.0853263   4.3311291  55.1590223
  74.6104587   4.6698563  54.4339543  73.9975615   3.3958306  54.9753357
  65.7473311   8.2445364  67.2880099  66.0560438   7.9994511  68.1602799
  66.5448793   8.4492003  66.7998969  65.7693923  10.3983274  59.5185476
  65.3298914   9.9059653  60.2118332  66.5202040   9.8556242  59.2777551
  58.2486262   6.5894815  59.5210104  59.0744282   6.2898587  59.1408747
  57.8980314   5.8202437  59.9699892  63.2167795   5.9421283  61.5907777
  62.5947805   5.2791988  61.2910005  63.8872662   5.9682415  60.9081425
  56.4494867   4.5081141  60.4799037  55.6126776   4.0803316  60.2983039
  56.4218513   4.7013585  61.4169829  73.7747169   4.9644194  70.4641420
  72.9842712   4.9468333  69.9245920  73.5380523   5.5032488  71.2190457
  62.7781302   4.4925206  55.0666238  62.9269423   5.1760671  54.4132911
  63.5847746   4.4730296  55.5815694  75.3963240   4.2333602  68.0216171
  75.1048049   4.5963583  68.8579632  74.7835372   3.5200611  67.8429503
  60.5333935   0.5190384  56.0727307  60.2879977  -0.3847286  56.2707517
  60.7029850   0.5207534  55.1306785  66.2776708   6.9873337  52.5377985
  65.7050675   7.6063524  52.0848457  66.8509502   7.5372699  53.0717907
  69.4973968   7.2710487  53.6686568  70.4304641   7.2056049  53.8719443
  69.4097180   8.1066754  53.2101100  72.1261984   6.5876357  50.6290515
  72.0475616   6.2536221  51.5226273  72.9471651   7.0798125  50.6281988
  66.5462199   2.3751896  71.3394695  67.4665208   2.5530495  71.5334741
  66.5111782   1.4307941  71.1874394  55.7644364  -2.4309511  60.2647969
  55.4447148  -3.2844202  59.9722343  55.2177792  -2.2160932  61.0205937
  59.5424271   0.2852930  63.9817476  59.7610281   1.2170038  64.0005510
  59.9550045  -0.0739095  64.7672280  55.6332624   1.1893401  62.2341091
  54.9396095   0.7747354  61.7211045  56.3805615   1.2313937  61.6374510
  64.2783407  -0.7116725  72.1885287  63.7950489   0.0883635  72.3949176
  64.3644346  -0.7008780  71.2352731  57.5469366   1.1211655  60.1107106
  57.5240055   1.2199342  59.1588989  57.8570003   1.9676805  60.4324272
  60.2056744   3.1787810  64.2253720  61.1599998   3.1471752  64.1583652
  60.0069268   2.7178433  65.0403946  60.7956126   1.7488926  66.7924518
  61.6149015   2.2433004  66.8159355  61.0692934   0.8320894  66.7642086
  58.5606973   8.7207429  61.2423918  58.4261441   7.9607830  60.6761916
  58.1439035   9.4448329  60.7752707  69.6965936   3.9044353  50.2500494
  70.4001786   4.1094355  50.8658149  68.9728585   4.4721115  50.5149577
  61.7176099   9.6176746  61.4542361  61.6008483  10.5622179  61.3521051
  60.8968545   9.3150308  61.8428160  71.6052634   4.3426882  52.2998954
  72.4398237   3.9108080  52.1176428  71.4436976   4.1708896  53.2275848
  71.2598526   0.8458995  53.6655293  71.2047329   0.6803267  52.7243737
  70.6344581   1.5535028  53.8217483  56.0491041  -3.9172940  67.4916715
  56.6949904  -4.4273986  67.9803940  55.8408192  -3.1804259  68.0660140
  68.5744433   3.1507907  72.9908856  69.4435593   3.3248559  72.6295491
  68.0951184   3.9702324  72.8684585  62.7430613  10.2705008  64.6698289
  63.6457860  10.3028618  64.9864784  62.5167983   9.3405459  64.6844625
  64.4984215   9.0235995  61.3308368  63.5479846   9.0237856  61.2172740
  64.8016701   8.2768729  60.8144403  80.2336909  14.8596533  62.3954130
  80.8715319  14.7403280  61.6917470  80.1157752  15.8077377  62.4542082
  77.0426615  14.8123961  62.3315655  76.7045126  14.6965026  61.4436190
  77.9116383  14.4115126  62.3116661  72.9013431  16.6659438  58.3212546
  72.3378296  16.5749375  57.5528834  72.7865826  15.8459342  58.8015038
  77.5246398  15.9658813  68.2901861  77.5135039  15.5711611  67.4182364
  77.6867037  15.2324885  68.8835632  70.4477863  18.1610629  61.1596766
  71.2399154  17.8201454  60.7443066  70.6874513  18.2705604  62.0798920
  78.4812989  20.3330405  53.6327011  77.8300969  20.9184486  53.2461025
  79.2757352  20.8636600  53.6922048  72.4068616  17.4219542  54.0314145
  73.1799492  16.8748530  53.8927021  72.7594015  18.2863792  54.2428607
  74.2453659  18.7495925  67.2381045  73.9543525  19.6541556  67.1227711
  74.8810643  18.7912452  67.9525114  75.1709866  16.1272773  63.8282404
  75.7673438  15.9028796  63.1139367  75.2284837  15.3857519  64.4307852
  74.7434894  13.5812209  51.6632595  74.9960415  13.0593730  50.9016058
  73.8059453  13.4178354  51.7659279  79.7878177  12.5847987  59.4707338
  80.5741266  12.1667410  59.1197755  80.0516881  13.4894079  59.6388987
  79.9588254  18.0220837  54.1695995  79.3234087  18.0955464  54.8816900
  79.6285661  18.6114436  53.4915074  85.1886604  12.5223220  60.3740317
  85.9211776  11.9522437  60.6078146  84.4325960  12.1344821  60.8146822
  74.4631183  15.4840314  53.8656970  74.3467441  14.8085218  54.5338054
  74.5733443  14.9972688  53.0489123  76.8062724  14.9450462  57.5703659
  76.4420931  14.4181083  58.2816581  77.6629840  14.5548931  57.3970145
  82.7112025   6.2344794  64.8334925  82.3795349   7.1040205  64.6096140
  82.1157638   5.9181078  65.5128956  76.4468211   9.9740361  52.5665008
  76.6142613  10.8420598  52.9335479  76.2565380  10.1367643  51.6426297
  79.2043544  18.4357340  64.2330838  78.9044267  19.3382379  64.1246645
  78.8594604  18.1689523  65.0851991  72.6556026  14.8871137  60.2667543
  71.7306522  14.7547351  60.4745234  72.9040439  15.6665356  60.7637485
  82.6040688  10.9539880  61.9128276  81.6957565  10.8855289  61.6187036
  82.5528284  11.4311825  62.7410101  76.4257432  12.4298019  53.5511675
  76.3057057  12.8755070  54.3897155  75.7310020  12.7783336  52.9925213
  70.0164837  14.5304411  61.1011332  70.1457218  14.7838890  62.0150743
  69.3362288  15.1232119  60.7815987  74.1864324  25.2001661  57.2001806
  74.1088354  26.1509486  57.2790286  73.5825967  24.8547533  57.8576732
  76.6781554  12.3729526  69.8563173  75.9014888  12.9323446  69.8466037
  77.3172117  12.8586309  70.3778043  84.4702334   9.1556319  63.6906149
  83.8276715   9.4488852  63.0445944  83.9657263   9.0409239  64.4959346
  82.1242498  12.9019492  54.3792009  83.0360354  13.1346879  54.2039706
  81.6152145  13.4856536  53.8167087  74.9327926  15.1814979  69.4181140
  75.6742610  15.7200023  69.1415963  74.2264911  15.8081268  69.5752692
  80.4083266  17.3244120  68.0153301  80.8166622  16.8826530  67.2707934
  79.6860527  16.7496747  68.2687494  76.7614336  12.2616727  65.3886858
  77.6075531  12.6856140  65.5321507  76.7012973  11.6050351  66.0825421
  80.7312080  17.8845310  61.7705590  80.1020943  18.0491025  61.0681658
  80.3437742  18.2986920  62.5416554  84.6101312  18.8199748  59.1249954
  83.9252350  19.1998650  58.5746987  84.6945161  19.4295075  59.8581902
  79.9113781   9.9221095  67.0468032  79.6674713  10.6763155  66.5102308
  80.1873712  10.3006443  67.8815279  81.8652244  16.4659707  65.7245297
  82.0769139  17.1091467  65.0479679  81.8181992  15.6322024  65.2567228
  79.4678473   9.0777528  62.6281870  78.6062952   9.3758782  62.9198607
  79.4940907   9.2947927  61.6962902  76.2840042  17.6219719  59.0355675
  76.7478388  17.9007422  58.2460298  76.0196840  16.7203163  58.8528766
  73.1764123  17.1691200  61.9735439  73.7465480  17.5978468  61.3352923
  73.7672235  16.8873785  62.6719624  75.2208928  13.7442871  55.8445240
  75.9232972  14.1963915  56.3119167  74.8889557  13.1026690  56.4725134
  73.6689290  12.3354628  70.2196450  73.0387950  13.0170908  70.4531847
  73.5625378  12.2237709  69.2749588  68.9634262  12.0026424  61.1462374
  68.1733316  12.2583952  60.6702485  69.4545510  12.8174761  61.2514415
  82.9798072  19.3431663  63.8967655  83.8015515  18.9411850  63.6150336
  82.9760475  19.2399897  64.8483771  70.9149008  12.3671003  58.1045851
  70.1180171  12.4789697  58.6229346  70.6874600  12.7057655  57.2386741
  76.7454675  18.8915706  66.0528365  76.8099108  19.3536113  66.8886537
  76.0365599  18.2613071  66.1810675  67.2471965  12.2556914  63.5777365
  67.4980004  13.1403924  63.8434941  67.7831514  12.0761516  62.8052457
  91.0704065  15.6870411  60.2452626  90.3167773  15.1177809  60.0896631
  91.2051606  15.6533076  61.1923261  76.4602693  20.5583814  55.9207346
  76.3248368  21.4035349  56.3492193  77.0012505  20.7603091  55.1573279
  72.9470032   6.6375393  72.5821701  72.5536978   6.0841592  73.2569345
  73.7636173   6.9485972  72.9728218  69.9132090  18.0759252  56.4935271
  70.4256611  18.8702502  56.6440835  70.5654803  17.3785542  56.4268872
  71.7226975  21.1925008  58.5758024  71.8993603  22.1142973  58.3879008
  72.5183808  20.8783427  59.0052404  75.8637993   8.0533272  70.1741957
  76.6047707   8.6540426  70.0946420  76.0955916   7.3110910  69.6160000
  71.0079331  13.2389640  68.4520187  70.8932847  12.3374897  68.7527286
  70.1523849  13.4853336  68.1005004  72.8458290  22.7103182  64.5768366
  73.3965715  22.5820245  63.8045360  72.0069766  23.0098071  64.2263259
  80.1852407  21.4610180  68.0789089  80.1670883  22.2819061  67.5869358
  81.1072327  21.3364255  68.3039230  76.6425461  18.9754309  68.9212597
  77.1753798  18.2142598  68.6911905  76.1139543  18.6827961  69.6636752
  79.8095156   4.0814375  64.4506239  79.4659426   4.9716017  64.3745350
  80.1774119   3.8916033  63.5875824  67.8781007  16.4047906  57.2694841
  68.7156229  16.8144914  57.0528549  68.0559275  15.4647348  57.2395035
  79.7745439  14.0722986  52.9578674  79.2592063  14.8427591  53.1967062
  79.5022748  13.3988123  53.5811736  77.3592550   8.9172687  58.0163913
  76.5034146   8.5279538  57.8369551  77.7719502   8.9964648  57.1563698
  78.8891697   6.4519031  62.4155472  78.3856492   6.4149166  61.6023278
  79.1822304   7.3611773  62.4752129  75.1334583   6.5357760  61.4221654
  75.9987579   6.3400569  61.0627544  75.2012092   6.3068112  62.3491011
  84.7479713  16.8255341  54.8931848  83.9709156  16.4866501  54.4487010
  85.4271194  16.8307964  54.2186813  79.5631742  11.9450079  54.7838455
  79.2581878  12.2596228  55.6348599  80.5162184  12.0231498  54.8265788
  78.0078174  18.1040302  56.4331409  77.4799536  17.3693061  56.1204647
  77.5065677  18.8814978  56.1871378  82.9871020  16.2989322  61.5498456
  82.3294695  16.9888584  61.6378584  83.7911419  16.6885754  61.8932442
  72.7396902   8.7659968  58.7938021  73.3140654   8.5435150  58.0611214
  73.3267884   8.8348663  59.5466622  81.7976479  14.6533695  59.6002397
  82.3108361  15.2863687  60.1024107  82.4477703  14.0534891  59.2345757
  73.0666489  10.7964429  52.8133906  72.2303801  11.1339116  53.1343181
  72.9271258  10.6613409  51.8761043  75.0419569   5.6401217  57.5213090
  74.3883982   5.3250234  56.8969705  75.0000044   5.0176958  58.2472913
  76.1530774  15.9220512  49.4366382  75.2457836  15.6909766  49.6357531
  76.6501806  15.1258131  49.6240364  79.0598853  24.6318019  52.3563069
  78.3860552  24.9349716  52.9648026  79.4464675  25.4347100  52.0068526
  78.2757310  12.1283151  61.8460738  77.3579871  12.3498098  61.6882426
  78.6917453  12.2029461  60.9872445  79.0592358  13.5274566  56.9763418
  79.8064177  14.0395964  56.6670540  79.3283947  13.2058619  57.8367812
  77.3319008  16.0233107  53.9590372  76.4230227  15.7392140  54.0562842
  77.3614092  16.4432186  53.0993679  82.5638275  19.6339697  57.7281540
  82.1100602  18.7930606  57.7846731  81.9332242  20.2701095  58.0656320
  81.5071195  10.5631683  58.9582207  80.7693952  10.0509069  59.2892450
  81.7597968  10.1232064  58.1465484  81.0071214  21.4716193  58.6631358
  81.2994189  22.0321250  57.9443724  81.5169835  21.7644754  59.4184517
  67.9007178  13.7438621  57.9405575  67.7031578  13.1507982  57.2156641
  67.3453842  13.4390831  58.6581513  75.8803902  13.6361728  60.0600168
  75.9352512  12.6835564  59.9842644  75.0695104  13.7921167  60.5441466
  77.0295096  17.5641851  51.2978451  76.5914525  16.8477710  50.8384088
  77.7705536  17.7917966  50.7363542  73.8196262  12.2538787  57.8190547
  73.0064127  12.5532958  58.2255739  74.3155256  11.8594476  58.5365029
  75.9704840  22.2496544  59.7524811  75.9281018  22.4757391  58.8233343
  76.8867538  22.0159919  59.9010613  79.4170473  12.7180612  66.6505441
  79.7719861  12.9452085  67.5099906  80.0642605  13.0498989  66.0282696
  85.1468210  15.8399048  57.3554770  85.0086109  16.0300644  56.4275959
  84.7904429  16.6018431  57.8122821  73.3110336   9.8257143  63.4351782
  73.9509716   9.6845902  62.7374745  72.4787867   9.5391656  63.0590384
  85.1737590  17.9075575  62.3666041  85.6074097  17.8150864  63.2149095
  85.8869171  17.8833075  61.7286057  74.0870640  19.1259573  59.5486774
  74.8811239  18.6309893  59.3469349  73.3762333  18.5977436  59.1854480
  78.9065485  21.5077669  63.8999142  78.9602507  22.0768605  64.6676858
  78.0380266  21.6779554  63.5353179  70.3953404  13.2702655  55.6246527
  69.4650992  13.2087111  55.8416489  70.4910876  12.7478608  54.8283168
  70.3138953   9.7957468  58.2124768  70.5745770  10.7102801  58.1033929
  71.1356125   9.3281910  58.3621381  71.7863878  11.2095225  65.3823593
  72.4586932  11.0012587  64.7336242  70.9593665  11.0117311  64.9428825
  86.0353140  17.9499275  64.8998927  86.2289030  18.8545086  65.1458201
  85.9353758  17.4906694  65.7337512  77.6889450   7.8357166  67.3989254
  77.0417365   8.5347116  67.3053730  78.4590466   8.2693310  67.7665502
  81.0968248  18.1006018  70.4739807  80.9453755  17.8716570  69.5569891
  81.0872928  19.0576620  70.4871152  77.8653585  15.6737931  65.4586074
  78.7945645  15.8249091  65.2855041  77.4444615  15.7621952  64.6034720
  76.6641916  19.6988595  63.2284611  76.5253002  19.3307380  64.1010549
  75.8756513  20.2136235  63.0568569  77.2590068  24.7997692  54.5710148
  77.4341824  24.3285735  55.3855770  76.5722856  25.4263458  54.7991408
  78.2147132  19.0770198  60.6173449  77.8796964  19.0370968  61.5131099
  77.7151077  18.4114914  60.1443859  72.1891375  14.4837828  66.1426030
  72.0511173  13.7518067  66.7437569  73.0996299  14.3946728  65.8610218
  81.1506323  16.4226232  50.8910509  80.5335494  15.6973061  50.7943561
  80.6822812  17.1835593  50.5477583  74.8173676  14.1957787  65.6309710
  75.5273295  13.5550980  65.5896328  74.7742984  14.4470682  66.5535891
  73.5302610  11.1823005  67.4505349  72.9939967  10.7313744  68.1026946
  72.9419319  11.3168914  66.7075814  71.8251154  27.9487055  61.3450008
  72.0647752  28.5805579  62.0229026  70.9820350  27.5975095  61.6315367
  72.9404869  10.6411657  50.0131813  72.0634335  10.5200457  49.6494060
  73.4162622   9.8497735  49.7610702  82.8077862  19.0964725  66.7830269
  81.9204641  18.7590646  66.9056668  83.3776413  18.3647756  67.0199034
  64.4607009  15.4288816  60.1073320  65.1478049  15.1150546  59.5194335
  64.3055138  16.3330181  59.8340571  69.2641731  10.3179013  64.5358344
  69.1799920   9.7104683  63.8008754  68.4424438  10.8088031  64.5367840
  76.3379015  23.7566177  63.7491512  76.2649187  24.5621148  64.2610816
  75.8956409  23.9558143  62.9239533  76.1268795  22.9937947  57.2594333
  75.3436317  23.5359627  57.3532558  76.8261540  23.5111927  57.6588575
  79.4365445   8.8032576  59.9028539  79.9334145   8.0502539  59.5829609
  78.6652427   8.8396893  59.3371748  87.2895203  14.5072942  61.5446830
  87.2785079  15.3897657  61.1740763  86.4212582  14.1544493  61.3501367
  78.7977699  23.6553011  65.9049671  79.5105671  24.2900476  65.8325572
  78.3067728  23.7516877  65.0889672  80.5195226  17.5604264  57.4766962
  79.5851505  17.6805726  57.3071667  80.6971894  16.6576730  57.2126972
  76.0200414  10.9449959  59.6300223  75.6498201  10.3921000  60.3181129
  76.5159506  10.3408093  59.0775223  83.9067777  13.4021583  58.0116996
  84.3728229  14.2349575  57.9377299  84.3575278  12.9366565  58.7162255
  73.8489613  21.4047454  66.7255241  74.5499072  22.0383937  66.8784636
  73.3784728  21.7462186  65.9650881  81.9744008  19.7465404  55.0103148
  82.2503852  19.6321999  55.9197022  81.1048507  19.3482889  54.9715321
  81.8784440   5.7702170  62.0507898  80.9647520   6.0006397  62.2190105
  82.3077541   5.8540614  62.9021930  81.6490899  13.9592062  64.5507792
  80.9962349  14.2067969  63.8960244  82.0271278  13.1456200  64.2170269
  78.6098072  23.9951755  58.6535962  78.7920467  23.1773411  59.1163714
  79.4331058  24.2119447  58.2160852  78.9440238  22.9219940  55.9151010
  79.4728004  22.4112395  55.3021173  79.2068457  22.6062470  56.7796544
  77.6978472  14.7011873  71.0373829  77.0219109  14.6006002  71.7076204
  78.5206105  14.5451087  71.5009826  69.4457331  20.9383810  63.6586344
  70.0310767  20.1927497  63.7914248  69.2482169  21.2487766  64.5423008
  72.2995986  23.9735057  58.6748786  71.6306361  24.4581185  58.1912826
  72.1608856  24.2204277  59.5892165  64.0374985  13.5089410  62.3790787
  64.0759085  12.9753000  63.1727905  63.5315278  12.9824615  61.7601764
  76.4401254  26.0078800  65.2731445  76.9919562  26.1710422  66.0380530
  76.7807448  26.5983238  64.6011470  71.4165748   8.3553950  65.8753329
  71.4807074   9.2168781  65.4630727  71.3532868   7.7427952  65.1425688
  70.8918020  10.4277083  69.5226364  71.5190059  10.0454160  70.1363888
  70.0345939  10.2091285  69.8882056  81.2912129  20.8340058  71.1280099
  81.8352033  21.4470016  70.6335054  80.7098974  21.3919636  71.6447112
  67.6683563  12.2353512  55.4544719  67.9637004  11.3264190  55.4011772
  66.7671599  12.2141251  55.1325721  79.5769642  23.9560776  62.2595127
  79.4520781  23.1550516  61.7506072  80.2348733  24.4506969  61.7709097
  71.1977810  10.3109508  61.4372267  70.4764396  10.9245476  61.2979740
  71.9871066  10.8467273  61.3588913  81.6404550  21.7569796  63.8874677
  80.6934886  21.6375147  63.8153004  81.9887323  20.8692294  63.9700938
  74.0004123   7.6463935  67.7112919  74.5238525   7.8926232  68.4739228
  73.7816457   8.4783970  67.2916056  69.3971405   9.9167610  55.5784044
  69.0684111   9.0364988  55.3959150  69.7510775   9.8615278  56.4660433
  78.6450983  21.5522512  60.0879029  78.4975946  20.6239220  60.2686599
  79.4704477  21.5742603  59.6036105  72.5113228  10.2040579  55.9459521
  72.8509300  10.7326501  55.2238130  72.9585348  10.5420985  56.7218088
  82.2485105  22.3751071  61.1743902  83.1731653  22.1693932  61.0368353
  82.0800409  22.1267472  62.0833244  75.2056668   8.5877630  65.3962589
  74.8653489   7.7885443  65.7983269  74.4995675   8.8879341  64.8239423
  75.8573140   5.6726942  63.8489912  76.6799210   5.1987421  63.7268803
  76.1011204   6.4517426  64.3488599  74.4981375   8.7015201  54.1452814
  75.2189737   9.0796454  53.6416531  73.8746679   9.4204078  54.2487792
  78.6412498   9.4060350  55.0811147  78.8576112  10.2884988  54.7799975
  78.1606565   9.0146563  54.3516788  73.3811719  12.3646063  61.6581891
  73.2356300  12.6786366  62.5506173  72.9036923  12.9830963  61.1052790
  75.2408102   9.3548611  61.7062781  75.2269671   8.4589704  61.3695079
  75.9580530   9.3619275  62.3401067  77.0934233   9.7885951  63.7515908
  76.8352010  10.7103022  63.7500239  76.5619273   9.3916386  64.4416372
  82.0380421  22.8936738  56.5305993  82.2117299  22.3283161  55.7779846
  82.5309313  23.6937633  56.3485483  67.8557381  14.9051408  64.5969552
  67.3110849  15.6811215  64.7289827  68.7336731  15.2522212  64.4388674
  74.6444998   8.2362991  56.9750351  74.7660909   7.3079638  57.1741238
  74.3547040   8.2501677  56.0628666  77.5136188   5.9217902  60.1117071
  77.5357885   5.9857235  59.1569050  77.9304247   5.0822410  60.3057577
  87.8919813  15.6573161  58.1496293  88.3350959  14.9080487  57.7515416
  87.0146323  15.6483298  57.7670025  83.0255594  22.2103503  53.6302892
  83.7206499  22.8310196  53.8490206  83.3678744  21.3598854  53.9055270
  68.6423403  14.0321304  67.4899709  67.9005139  14.1803939  68.0764340
  68.3216147  14.2929569  66.6266459  84.9247017  19.6603208  55.1590223
  85.4498341  19.9990481  54.4339543  84.8369370  18.7250224  54.9753357
  76.5867066  23.5737282  67.2880099  76.8954192  23.3286429  68.1602799
  77.3842548  23.7783920  66.7998969  76.6087678  25.7275192  59.5185476
  76.1692668  25.2351570  60.2118332  77.3595795  25.1848159  59.2777551
  69.0880017  21.9186733  59.5210104  69.9138037  21.6190504  59.1408747
  68.7374069  21.1494355  59.9699892  74.0561550  21.2713201  61.5907777
  73.4341559  20.6083906  61.2910005  74.7266417  21.2974333  60.9081425
  67.2888622  19.8373059  60.4799037  66.4520530  19.4095233  60.2983039
  67.2612267  20.0305502  61.4169829  74.1286077   9.7494989  71.1840283
  74.1774233  10.6257112  70.8018053  74.6708592   9.2072382  70.6111927
  84.6140923  20.2936112  70.4641420  83.8236467  20.2760251  69.9245920
  84.3774278  20.8324406  71.2190457  73.6175057  19.8217124  55.0666238
  73.7663177  20.5052588  54.4132911  74.4241500  19.8022214  55.5815694
  76.3585366  10.5026361  67.9386642  75.4888675  10.7959927  67.6669231
  76.5944846  11.0866806  68.6593906  86.2356995  19.5625520  68.0216171
  85.9441803  19.9255500  68.8579632  85.6229126  18.8492528  67.8429503
  87.4352677  17.1278400  60.5418741  88.2699569  17.5668204  60.7056301
  87.5711806  16.6517053  59.7226987  84.4844183  14.6858135  66.4896229
  84.9598305  14.8785781  65.6815080  83.5609749  14.7417320  66.2439612
  71.3727690  15.8482302  56.0727307  71.1273732  14.9444632  56.2707517
  71.5423604  15.8499452  55.1306785  79.0624400   6.7205978  65.4552062
  79.5806344   7.4567005  65.1298551  78.7079532   7.0269971  66.2898822
  70.6423337  11.5810659  53.5713468  69.9492582  11.6555014  52.9153504
  70.3975089  10.8171003  54.0934985  77.1170462  22.3165255  52.5377985
  76.5444429  22.9355442  52.0848457  77.6903256  22.8664616  53.0717907
  83.1845852  11.5623895  64.7224534  84.1363275  11.6621992  64.7436758
  83.0149303  10.7702163  65.2322619  81.2060232   8.6479478  64.9083935
  80.6110164   8.9284491  64.2130424  80.9209928   9.1373379  65.6800676
  80.3367722  22.6002405  53.6686568  81.2698395  22.5347966  53.8719443
  80.2490935  23.4358672  53.2101100  82.9655739  21.9168275  50.6290515
  82.8869370  21.5828139  51.5226273  83.7865406  22.4090043  50.6281988
  85.6633930  14.7830014  63.8366834  85.6310250  13.8446015  64.0226518
  86.2734554  14.8614051  63.1032659  77.5017261  13.6526067  49.8794038
  78.4476366  13.5232275  49.9482456  77.1231506  12.9140729  50.3563466
  85.8128418  11.5741058  63.8825117  85.2967467  10.7899514  63.6955046
  86.6968367  11.2459774  64.0471636  83.4739145   5.3182073  59.8420930
  83.2763967   5.0097162  60.7264262  84.0838851   6.0443712  59.9718860
  91.4810480  15.8446021  62.9772871  92.2113868  15.5831309  63.5380574
  90.8717425  15.1074743  63.0174939  89.5625777  13.9853884  63.5747322
  88.8358941  13.8509849  62.9663813  89.1473064  14.2930712  64.3804040
  77.3855953  17.7043813  71.3394695  78.3058963  17.8822412  71.5334741
  77.3505536  16.7599859  71.1874394  75.6860178  11.5776044  49.8148923
  74.7791633  11.2809156  49.8911637  75.9636159  11.2805862  48.9483209
  66.6038118  12.8982407  60.2647969  66.2840903  12.0447715  59.9722343
  66.0571547  13.1130985  61.0205937  70.3818026  15.6144848  63.9817476
  70.6004036  16.5461956  64.0005510  70.7943800  15.2552822  64.7672280
  77.3022244   6.1212933  55.9693164  76.4922972   5.7760018  56.3448410
  77.9906661   5.8120477  56.5580776  79.2312792   5.1990980  57.5917461
  79.7843831   5.6186434  58.2507484  79.4682878   4.2726728  57.6340417
  75.2545891  11.1878054  73.3720225  75.1542618  12.1372411  73.3032316
  75.0367433  10.8596293  72.4996295  74.4558963   8.4362979  49.9560902
  75.3178127   8.7617877  50.2156720  74.6409307   7.6494475  49.4433968
  66.4726378  16.5185319  62.2341091  65.7789850  16.1039271  61.7211045
  67.2199369  16.5605855  61.6374510  82.6091599   7.3091505  57.0996125
  82.0290268   7.9676309  56.7174178  82.3427532   6.4868850  56.6883543
  81.0595165   6.7096563  59.3017446  81.5594944   6.8213098  58.4931764
  81.7030773   6.4057616  59.9418254  75.1177161  14.6175193  72.1885287
  74.6344243  15.4175553  72.3949176  75.2038100  14.6283138  71.2352731
  68.3863121  16.4503572  60.1107106  68.3633809  16.5491260  59.1588989
  68.6963757  17.2968723  60.4324272  71.0450499  18.5079727  64.2253720
  71.9993752  18.4763670  64.1583652  70.8463022  18.0470351  65.0403946
  71.6349881  17.0780843  66.7924518  72.4542770  17.5724922  66.8159355
  71.9086689  16.1612812  66.7642086  81.3916477   9.4691596  56.1552474
  80.5042332   9.7541246  55.9372668  81.8070466   9.3085359  55.3079750
  84.7431013   9.4938117  59.8706813  85.5191403   9.9834569  60.1431430
  84.0179147   9.9196171  60.3278682  87.1803572  10.2065736  60.9280753
  87.7748063   9.9661472  60.2174062  87.2530156   9.4872867  61.5554290
  69.4000728  24.0499347  61.2423918  69.2655196  23.2899748  60.6761916
  68.9832790  24.7740247  60.7752707  80.5359691  19.2336270  50.2500494
  81.2395541  19.4386273  50.8658149  79.8122339  19.8013032  50.5149577
  81.3657501  14.9846132  56.3702764  81.3092702  15.4414683  55.5310396
  81.9185843  14.2236816  56.1925606  85.1762307  10.7735864  57.1952883
  84.9199241  10.3732499  58.0261091  84.5515175  11.4879657  57.0703022
  89.4874645  13.5131937  59.7024175  88.9274203  13.5825126  60.4755737
  88.8818148  13.3372921  58.9823671  72.5569853  24.9468664  61.4542361
  72.4402238  25.8914096  61.3521051  71.7362300  24.6442225  61.8428160
  82.4446388  19.6718800  52.2998954  83.2791992  19.2399998  52.1176428
  82.2830731  19.5000813  53.2275848  82.0992280  16.1750913  53.6655293
  82.0441084  16.0095184  52.7243737  81.4738335  16.8826946  53.8217483
  66.8884795  11.4118977  67.4916715  67.5343659  10.9017931  67.9803940
  66.6801946  12.1487659  68.0660140  79.4138187  18.4799825  72.9908856
  80.2829347  18.6540477  72.6295491  78.9344939  19.2994242  72.8684585
  75.4088406   5.6759022  53.2440611  75.3967075   6.6200862  53.4008882
  76.3011828   5.4929167  52.9500072  73.5824368  25.5996926  64.6698289
  74.4851614  25.6320536  64.9864784  73.3561738  24.6697377  64.6844625
  75.3377970  24.3527912  61.3308368  74.3873601  24.3529774  61.2172740
  75.6410456  23.6060647  60.8144403  71.2282286   8.5586594  71.5891729
  72.0913748   8.2023399  71.7995054  70.6547697   8.2200489  72.2767134
  91.0730663  30.1888451  62.3954130  91.7109073  30.0695198  61.6917470
  90.9551506  31.1369295  62.4542082  87.8820369  30.1415879  62.3315655
  87.5438881  30.0256944  61.4436190  88.7510138  29.7407044  62.3116661
  88.3640152  31.2950731  68.2901861  88.3528793  30.9003529  67.4182364
  88.5260792  30.5616803  68.8835632  85.0847414  34.0787842  67.2381045
  84.7937279  34.9833473  67.1227711  85.7204398  34.1204370  67.9525114
  86.0103620  31.4564691  63.8282404  86.6067193  31.2320713  63.1139367
  86.0678592  30.7149436  64.4307852  96.0280359  27.8515138  60.3740317
  96.7605531  27.2814355  60.6078146  95.2719714  27.4636738  60.8146822
  93.5505779  21.5636712  64.8334925  93.2189104  22.4332123  64.6096140
  92.9551392  21.2472996  65.5128956  90.0437299  33.7649258  64.2330838
  89.7438022  34.6674297  64.1246645  89.6988358  33.4981441  65.0851991
  93.4434442  26.2831798  61.9128276  92.5351320  26.2147206  61.6187036
  93.3922038  26.7603743  62.7410101  80.8558591  29.8596328  61.1011332
  80.9850972  30.1130807  62.0150743  80.1756042  30.4524036  60.7815987
  87.5175308  27.7021444  69.8563173  86.7408642  28.2615364  69.8466037
  88.1565871  28.1878227  70.3778043  95.3096089  24.4848236  63.6906149
  94.6670469  24.7780770  63.0445944  94.8051017  24.3701157  64.4959346
  85.7721680  30.5106897  69.4181140  86.5136365  31.0491941  69.1415963
  85.0658666  31.1373186  69.5752692  91.2477020  32.6536037  68.0153301
  91.6560376  32.2118448  67.2707934  90.5254282  32.0788665  68.2687494
  87.6008090  27.5908644  65.3886858  88.4469285  28.0148058  65.5321507
  87.5406728  26.9342269  66.0825421  90.7507535  25.2513013  67.0468032
  90.5068467  26.0055073  66.5102308  91.0267466  25.6298360  67.8815279
  92.7045998  31.7951625  65.7245297  92.9162894  32.4383385  65.0479679
  92.6575747  30.9613942  65.2567228  90.3072227  24.4069446  62.6281870
  89.4456706  24.7050699  62.9198607  90.3334662  24.6239845  61.6962902
  84.0157878  32.4983118  61.9735439  84.5859235  32.9270386  61.3352923
  84.6065990  32.2165702  62.6719624  84.5083044  27.6646545  70.2196450
  83.8781705  28.3462826  70.4531847  84.4019132  27.5529627  69.2749588
  79.8028017  27.3318341  61.1462374  79.0127071  27.5875870  60.6702485
  80.2939264  28.1466679  61.2514415  93.8191826  34.6723580  63.8967655
  94.6409270  34.2703768  63.6150336  93.8154229  34.5691815  64.8483771
  81.7542762  27.6962920  58.1045851  80.9573925  27.8081615  58.6229346
  81.5268354  28.0349573  57.2386741  87.5848430  34.2207624  66.0528365
  87.6492862  34.6828031  66.8886537  86.8759354  33.5904989  66.1810675
  78.0865720  27.5848832  63.5777365  78.3373758  28.4695842  63.8434941
  78.6225268  27.4053433  62.8052457 101.9097819  31.0162329  60.2452626
 101.1561528  30.4469727  60.0896631 102.0445360  30.9824993  61.1923261
  86.7031748  23.3825190  70.1741957  87.4441461  23.9832343  70.0946420
  86.9349671  22.6402828  69.6160000  81.8473086  28.5681557  68.4520187
  81.7326601  27.6666815  68.7527286  80.9917604  28.8145254  68.1005004
  88.9264924  36.5099298  70.0507688  88.4828778  35.7235676  69.7328592
  89.5882137  36.6978448  69.3851578  83.6852045  38.0395099  64.5768366
  84.2359470  37.9112163  63.8045360  82.8463521  38.3389988  64.2263259
  91.0246162  36.7902098  68.0789089  91.0064637  37.6110979  67.5869358
  91.9466082  36.6656173  68.3039230  87.4819216  34.3046227  68.9212597
  88.0147553  33.5434515  68.6911905  86.9533297  34.0119879  69.6636752
  90.6488911  19.4106293  64.4506239  90.3053180  20.3007935  64.3745350
  91.0167873  19.2207951  63.5875824  89.7285451  21.7810948  62.4155472
  89.2250247  21.7441083  61.6023278  90.0216058  22.6903691  62.4752129
  85.9728337  21.8649678  61.4221654  86.8381334  21.6692487  61.0627544
  86.0405846  21.6360030  62.3491011  83.5790656  24.0951886  58.7938021
  84.1534408  23.8727067  58.0611214  84.1661639  24.1640580  59.5466622
  85.8813324  20.9693135  57.5213090  85.2277736  20.6542152  56.8969705
  85.8393798  20.3468875  58.2472913  89.1151064  27.4575068  61.8460738
  88.1973626  27.6790015  61.6882426  89.5311208  27.5321379  60.9872445
  92.4476577  18.6699852  59.5523977  92.7535453  17.8097216  59.2649892
  93.1729181  19.2617472  59.3522971  78.7400933  29.0730539  57.9405575
  78.5425332  28.4799900  57.2156641  78.1847597  28.7682749  58.6581513
  90.2564228  28.0472530  66.6505441  90.6113616  28.2744003  67.5099906
  90.9036359  28.3790906  66.0282696  84.1504091  25.1549061  63.4351782
  84.7903470  25.0137820  62.7374745  83.3181622  24.8683574  63.0590384
  89.7459239  36.8369587  63.8999142  89.7996262  37.4060523  64.6676858
  88.8774021  37.0071472  63.5353179  81.1532707  25.1249386  58.2124768
  81.4139525  26.0394719  58.1033929  81.9749880  24.6573828  58.3621381
  82.6257633  26.5387143  65.3823593  83.2980686  26.3304505  64.7336242
  81.7987419  26.3409229  64.9428825  96.8746894  33.2791193  64.8998927
  97.0682784  34.1837004  65.1458201  96.7747512  32.8198612  65.7337512
  88.5283205  23.1649084  67.3989254  87.8811120  23.8639033  67.3053730
  89.2984220  23.5985228  67.7665502  91.9362003  33.4297936  70.4739807
  91.7847509  33.2008488  69.5569891  91.9266682  34.3868537  70.4871152
  88.7047339  31.0029849  65.4586074  89.6339399  31.1541008  65.2855041
  88.2838369  31.0913869  64.6034720  87.5035671  35.0280513  63.2284611
  87.3646757  34.6599297  64.1010549  86.7150267  35.5428152  63.0568569
  83.0285130  29.8129746  66.1426030  82.8904928  29.0809985  66.7437569
  83.9390053  29.7238646  65.8610218  85.6567431  29.5249705  65.6309710
  86.3667049  28.8842897  65.5896328  85.6136739  29.7762600  66.5535891
  93.6454209  36.4617058  68.5516289  93.5866755  35.7776279  67.8846872
  94.0473728  37.2036048  68.0996915  84.3696365  26.5114923  67.4505349
  83.8333722  26.0605661  68.1026946  83.7813073  26.6460832  66.7075814
  82.6644908  43.2778972  61.3450008  82.9041506  43.9097496  62.0229026
  81.8214105  42.9267012  61.6315367  93.6471617  34.4256642  66.7830269
  92.7598395  34.0882564  66.9056668  94.2170168  33.6939674  67.0199034
  75.3000764  30.7580734  60.1073320  75.9871804  30.4442464  59.5194335
  75.1448892  31.6622099  59.8340571  80.1035486  25.6470931  64.5358344
  80.0193675  25.0396600  63.8008754  79.2818192  26.1379949  64.5367840
  87.1772770  39.0858095  63.7491512  87.1042941  39.8913066  64.2610816
  86.7350163  39.2850060  62.9239533  90.2759200  24.1324494  59.9028539
  90.7727899  23.3794456  59.5829609  89.5046181  24.1688811  59.3371748
  98.1288957  29.8364860  61.5446830  98.1178833  30.7189575  61.1740763
  97.2606337  29.4836411  61.3501367  89.6371453  38.9844929  65.9049671
  90.3499426  39.6192394  65.8325572  89.1461482  39.0808795  65.0889672
  84.6883367  36.7339372  66.7255241  85.3892827  37.3675855  66.8784636
  84.2178482  37.0754104  65.9650881  92.7178194  21.0994088  62.0507898
  91.8041274  21.3298314  62.2190105  93.1471296  21.1832532  62.9021930
  92.4884653  29.2883980  64.5507792  91.8356103  29.5359887  63.8960244
  92.8665033  28.4748118  64.2170269  88.5372226  30.0303791  71.0373829
  87.8612863  29.9297920  71.7076204  89.3599860  29.8743004  71.5009826
  80.2851085  36.2675727  63.6586344  80.8704522  35.5219415  63.7914248
  80.0875924  36.5779684  64.5423008  74.8768740  28.8381327  62.3790787
  74.9152839  28.3044918  63.1727905  74.3709033  28.3116533  61.7601764
  87.2795009  41.3370718  65.2731445  87.8313317  41.5002340  66.0380530
  87.6201202  41.9275156  64.6011470  82.2559502  23.6845868  65.8753329
  82.3200829  24.5460699  65.4630727  82.1926622  23.0719870  65.1425688
  92.1305883  36.1631976  71.1280099  92.6745787  36.7761934  70.6335054
  91.5492728  36.7211554  71.6447112  78.5077317  27.5645430  55.4544719
  78.8030758  26.6556108  55.4011772  77.6065353  27.5433169  55.1325721
  90.4163396  39.2852694  62.2595127  90.2914536  38.4842433  61.7506072
  91.0742487  39.7798887  61.7709097  82.0371564  25.6401426  61.4372267
  81.3158150  26.2537394  61.2979740  82.8264820  26.1759191  61.3588913
  92.4798305  37.0861714  63.8874677  91.5328640  36.9667065  63.8153004
  92.8281078  36.1984212  63.9700938  84.8397878  22.9755853  67.7112919
  85.3632280  23.2218149  68.4739228  84.6210211  23.8075887  67.2916056
  86.0450423  23.9169548  65.3962589  85.7047243  23.1177361  65.7983269
  85.3389429  24.2171259  64.8239423  86.6966895  21.0018860  63.8489912
  87.5192964  20.5279338  63.7268803  86.9404958  21.7809344  64.3488599
  84.2205474  27.6937981  61.6581891  84.0750054  28.0078284  62.5506173
  83.7430677  28.3122881  61.1052790  86.0801856  24.6840529  61.7062781
  86.0663425  23.7881622  61.3695079  86.7974285  24.6911193  62.3401067
  87.9327987  25.1177869  63.7515908  87.6745765  26.0394940  63.7500239
  87.4013028  24.7208304  64.4416372  78.6951136  30.2343325  64.5969552
  78.1504604  31.0103133  64.7289827  79.5730486  30.5814130  64.4388674
  85.4838752  23.5654909  56.9750351  85.6054664  22.6371555  57.1741238
  85.1940795  23.5793595  56.0628666  88.3529943  21.2509820  60.1117071
  88.3751640  21.3149153  59.1569050  88.7698002  20.4114328  60.3057577
  79.4817158  29.3613221  67.4899709  78.7398894  29.5095857  68.0764340
  79.1609902  29.6221487  66.6266459  87.4260820  38.9029200  67.2880099
  87.7347947  38.6578346  68.1602799  88.2236302  39.1075838  66.7998969
  78.1282376  35.1664977  60.4799037  77.2914285  34.7387151  60.2983039
  78.1006022  35.3597420  61.4169829  95.4534678  35.6228030  70.4641420
  94.6630221  35.6052169  69.9245920  95.2168032  36.1616323  71.2190457
  95.5732553  32.4720496  67.7774149  95.6230558  32.3070504  68.7189672
  95.4646476  31.6047755  67.3872030  92.8636315  28.4551424  69.0933456
  93.7646178  28.3157889  68.8017454  92.9384290  28.6205879  70.0331633
  87.1979120  25.8318279  67.9386642  86.3282430  26.1251845  67.6669231
  87.4338601  26.4158724  68.6593906  97.0750749  34.8917438  68.0216171
  96.7835558  35.2547418  68.8579632  96.4622881  34.1784446  67.8429503
  95.3237938  30.0150052  66.4896229  95.7992059  30.2077699  65.6815080
  94.4003503  30.0709238  66.2439612  89.9018154  22.0497896  65.4552062
  90.4200098  22.7858923  65.1298551  89.5473287  22.3561889  66.2898822
  90.1530748  18.4698178  60.9752959  90.4332502  17.8021367  61.6013386
  90.9381355  18.6627274  60.4627623  94.0239607  26.8915812  64.7224534
  94.9757030  26.9913910  64.7436758  93.8543057  26.0994081  65.2322619
  92.0453986  23.9771396  64.9083935  91.4503918  24.2576408  64.2130424
  91.7603683  24.4665296  65.6800676  96.5027684  30.1121932  63.8366834
  96.4704005  29.1737933  64.0226518  97.1128308  30.1905969  63.1032659
  96.6522173  26.9032975  63.8825117  96.1361222  26.1191432  63.6955046
  97.5362121  26.5751692  64.0471636  94.3132900  20.6473991  59.8420930
  94.1157721  20.3389079  60.7264262  94.9232605  21.3735630  59.9718860
 102.3204234  31.1737939  62.9772871 103.0507623  30.9123227  63.5380574
 101.7111180  30.4366661  63.0174939 100.4019531  29.3145801  63.5747322
  99.6752695  29.1801766  62.9663813  99.9866818  29.6222630  64.3804040
  88.2249708  33.0335731  71.3394695  89.1452717  33.2114330  71.5334741
  88.1899291  32.0891776  71.1874394  77.4431873  28.2274325  60.2647969
  77.1234657  27.3739633  59.9722343  76.8965301  28.4422903  61.0205937
  81.2211780  30.9436766  63.9817476  81.4397790  31.8753874  64.0005510
  81.6337554  30.5844740  64.7672280  88.1415998  21.4504851  55.9693164
  87.3316727  21.1051936  56.3448410  88.8300415  21.1412395  56.5580776
  90.0706547  20.5282898  57.5917461  90.6237585  20.9478351  58.2507484
  90.3076633  19.6018646  57.6340417  86.0939646  26.5169972  73.3720225
  85.9936373  27.4664328  73.3032316  85.8761188  26.1888210  72.4996295
  77.3120133  31.8477236  62.2341091  76.6183604  31.4331189  61.7211045
  78.0593124  31.8897773  61.6374510  93.4485354  22.6383423  57.0996125
  92.8684023  23.2968227  56.7174178  93.1821286  21.8160768  56.6883543
  91.8988920  22.0388481  59.3017446  92.3988698  22.1505015  58.4931764
  92.5424528  21.7349534  59.9418254  79.2256875  31.7795490  60.1107106
  79.2027564  31.8783177  59.1588989  79.5357512  32.6260641  60.4324272
  81.8844253  33.8371645  64.2253720  82.8387507  33.8055587  64.1583652
  81.6856777  33.3762269  65.0403946  82.4743635  32.4072761  66.7924518
  83.2936524  32.9016840  66.8159355  82.7480443  31.4904729  66.7642086
  95.5824768  24.8230034  59.8706813  96.3585158  25.3126487  60.1431430
  94.8572902  25.2488089  60.3278682  98.0197326  25.5357654  60.9280753
  98.6141817  25.2953390  60.2174062  98.0923910  24.8164784  61.5554290
  80.2394482  39.3791265  61.2423918  80.1048950  38.6191665  60.6761916
  79.8226544  40.1032164  60.7752707  96.0156061  26.1027781  57.1952883
  95.7592996  25.7024417  58.0261091  95.3908929  26.8171575  57.0703022
 100.3268399  28.8423854  59.7024175  99.7667957  28.9117044  60.4755737
  99.7211903  28.6664839  58.9823671  83.3963608  40.2760582  61.4542361
  83.2795992  41.2206014  61.3521051  82.5756054  39.9734143  61.8428160
  77.7278550  26.7410895  67.4916715  78.3737413  26.2309849  67.9803940
  77.5195701  27.4779577  68.0660140  86.2482160  21.0050940  53.2440611
  86.2360830  21.9492780  53.4008882  87.1405582  20.8221085  52.9500072
  84.4218122  40.9288843  64.6698289  85.3245369  40.9612454  64.9864784
  84.1955492  39.9989294  64.6844625  90.0634280  17.5993716  57.4986548
  89.2966675  17.0452203  57.6443230  90.4744985  17.6715585  58.3600700
  82.0676041  23.8878512  71.5891729  82.9307502  23.5315317  71.7995054
  81.4941451  23.5492407  72.2767134 101.9124418  45.5180368  62.3954130
 102.5502828  45.3987116  61.6917470 101.7945260  46.4661212  62.4542082
  98.7214124  45.4707797  62.3315655  98.3832635  45.3548861  61.4436190
  99.5903892  45.0698962  62.3116661  94.5800940  47.3243273  58.3212546
  94.0165805  47.2333210  57.5528834  94.4653335  46.5043177  58.8015038
  99.2033907  46.6242648  68.2901861  99.1922548  46.2295447  67.4182364
  99.3654546  45.8908721  68.8835632  92.1265371  48.8194465  61.1596766
  92.9186663  48.4785289  60.7443066  92.3662022  48.9289440  62.0798920
 100.1600498  50.9914241  53.6327011  99.5088478  51.5768321  53.2461025
 100.9544861  51.5220436  53.6922048  94.0856125  48.0803378  54.0314145
  94.8587001  47.5332365  53.8927021  94.4381524  48.9447627  54.2428607
  95.9241168  49.4079760  67.2381045  95.6331034  50.3125391  67.1227711
  96.5598152  49.4496288  67.9525114  96.8497375  46.7856609  63.8282404
  97.4460947  46.5612631  63.1139367  96.9072346  46.0441354  64.4307852
  96.4222403  44.2396044  51.6632595  96.6747924  43.7177565  50.9016058
  95.4846962  44.0762189  51.7659279 101.4665686  43.2431822  59.4707338
 102.2528775  42.8251245  59.1197755 101.7304390  44.1477914  59.6388987
 101.6375763  48.6804673  54.1695995 101.0021596  48.7539299  54.8816900
 101.3073170  49.2698271  53.4915074 106.8674113  43.1807055  60.3740317
 107.5999285  42.6106272  60.6078146 106.1113469  42.7928656  60.8146822
  96.1418692  46.1424150  53.8656970  96.0254950  45.4669053  54.5338054
  96.2520952  45.6556524  53.0489123  98.4850233  45.6034297  57.5703659
  98.1208440  45.0764918  58.2816581  99.3417349  45.2132766  57.3970145
 104.3899534  36.8928630  64.8334925 104.0582858  37.7624041  64.6096140
 103.7945147  36.5764914  65.5128956 100.8831053  49.0941176  64.2330838
 100.5831776  49.9966214  64.1246645 100.5382113  48.8273359  65.0851991
  94.3343535  45.5454972  60.2667543  93.4094031  45.4131187  60.4745234
  94.5827948  46.3249192  60.7637485 104.2828197  41.6123716  61.9128276
 103.3745074  41.5439124  61.6187036 104.2315793  42.0895661  62.7410101
  98.1044941  43.0881854  53.5511675  97.9844566  43.5338905  54.3897155
  97.4097529  43.4367172  52.9925213  91.6952346  45.1888246  61.1011332
  91.8244727  45.4422725  62.0150743  91.0149797  45.7815954  60.7815987
  95.8651833  55.8585496  57.2001806  95.7875863  56.8093321  57.2790286
  95.2613476  55.5131368  57.8576732 106.1489843  39.8140154  63.6906149
 105.5064224  40.1072687  63.0445944 105.6444772  39.6993074  64.4959346
 103.8030007  43.5603327  54.3792009 104.7147863  43.7930714  54.2039706
 103.2939654  44.1440372  53.8167087  96.6115435  45.8398815  69.4181140
  97.3530119  46.3783859  69.1415963  95.9052420  46.4665103  69.5752692
 102.0870775  47.9827955  68.0153301 102.4954131  47.5410366  67.2707934
 101.3648036  47.4080583  68.2687494  98.4401845  42.9200562  65.3886858
  99.2863040  43.3439975  65.5321507  98.3800482  42.2634186  66.0825421
 102.4099589  48.5429146  61.7705590 101.7808452  48.7074860  61.0681658
 102.0225251  48.9570755  62.5416554 106.2888821  49.4783584  59.1249954
 105.6039859  49.8582485  58.5746987 106.3732670  50.0878910  59.8581902
 101.5901290  40.5804930  67.0468032 101.3462222  41.3346991  66.5102308
 101.8661220  40.9590278  67.8815279 103.5439753  47.1243543  65.7245297
 103.7556648  47.7675303  65.0479679 103.4969501  46.2905859  65.2567228
 101.1465982  39.7361363  62.6281870 100.2850461  40.0342617  62.9198607
 101.1728416  39.9531762  61.6962902  97.9627551  48.2803554  59.0355675
  98.4265897  48.5591257  58.2460298  97.6984349  47.3786998  58.8528766
  94.8551632  47.8275035  61.9735439  95.4252989  48.2562304  61.3352923
  95.4459744  47.5457620  62.6719624  95.3476799  42.9938463  70.2196450
  94.7175459  43.6754744  70.4531847  95.2412887  42.8821544  69.2749588
  90.6421771  42.6610259  61.1462374  89.8520825  42.9167787  60.6702485
  91.1333019  43.4758597  61.2514415 104.6585581  50.0015498  63.8967655
 105.4803024  49.5995685  63.6150336 104.6547984  49.8983732  64.8483771
  98.4242184  49.5499541  66.0528365  98.4886617  50.0119949  66.8886537
  97.7153108  48.9196906  66.1810675  88.9259474  42.9140749  63.5777365
  89.1767513  43.7987759  63.8434941  89.4619023  42.7345351  62.8052457
 112.7491574  46.3454247  60.2452626 111.9955282  45.7761645  60.0896631
 112.8839115  46.3116911  61.1923261  98.1390202  51.2167649  55.9207346
  98.0035877  52.0619185  56.3492193  98.6800014  51.4186927  55.1573279
  91.5919599  48.7343087  56.4935271  92.1044120  49.5286337  56.6440835
  92.2442312  48.0369377  56.4268872  93.4014484  51.8508843  58.5758024
  93.5781112  52.7726808  58.3879008  94.1971317  51.5367262  59.0052404
  97.5425502  38.7117108  70.1741957  98.2835216  39.3124261  70.0946420
  97.7743425  37.9694746  69.6160000  92.6866840  43.8973475  68.4520187
  92.5720356  42.9958732  68.7527286  91.8311358  44.1437172  68.1005004
  99.7658678  51.8391215  70.0507688  99.3222532  51.0527594  69.7328592
 100.4275892  52.0270366  69.3851578  94.5245799  53.3687017  64.5768366
  95.0753224  53.2404080  63.8045360  93.6857275  53.6681906  64.2263259
 101.8639916  52.1194015  68.0789089 101.8458392  52.9402896  67.5869358
 102.7859836  51.9948091  68.3039230  98.3212970  49.6338145  68.9212597
  98.8541307  48.8726433  68.6911905  97.7927051  49.3411797  69.6636752
 101.4882665  34.7398211  64.4506239 101.1446935  35.6299852  64.3745350
 101.8561628  34.5499868  63.5875824  89.5568516  47.0631741  57.2694841
  90.3943738  47.4728750  57.0528549  89.7346784  46.1231183  57.2395035
 101.4532948  44.7306822  52.9578674 100.9379572  45.5011426  53.1967062
 101.1810257  44.0571958  53.5811736 100.5679206  37.1102866  62.4155472
 100.0644001  37.0733001  61.6023278 100.8609813  38.0195609  62.4752129
 106.4267222  47.4839176  54.8931848 105.6496665  47.1450336  54.4487010
 107.1058703  47.4891800  54.2186813  99.6865683  48.7624137  56.4331409
  99.1587045  48.0276897  56.1204647  99.1853186  49.5398814  56.1871378
 104.6658529  46.9573158  61.5498456 104.0082204  47.6472419  61.6378584
 105.4698928  47.3469590  61.8932442 103.4763988  45.3117530  59.6002397
 103.9895870  45.9447522  60.1024107 104.1265212  44.7118726  59.2345757
  97.8318283  46.5804348  49.4366382  96.9245345  46.3493601  49.6357531
  98.3289315  45.7841967  49.6240364 100.7386362  55.2901855  52.3563069
 100.0648061  55.5933551  52.9648026 101.1252184  56.0930935  52.0068526
  99.9544819  42.7866986  61.8460738  99.0367380  43.0081933  61.6882426
 100.3704962  42.8613296  60.9872445 100.7379867  44.1858402  56.9763418
 101.4851685  44.6979799  56.6670540 101.0071456  43.8642454  57.8367812
  99.0106517  46.6816942  53.9590372  98.1017736  46.3975975  54.0562842
  99.0401601  47.1016021  53.0993679 104.2425784  50.2923532  57.7281540
 103.7888111  49.4514442  57.7846731 103.6119751  50.9284930  58.0656320
 103.1858704  41.2215518  58.9582207 102.4481460  40.7092904  59.2892450
 103.4385477  40.7815900  58.1465484 102.6858723  52.1300029  58.6631358
 102.9781698  52.6905086  57.9443724 103.1957344  52.4228590  59.4184517
 103.2870331  33.9991770  59.5523977 103.5929208  33.1389133  59.2649892
 104.0122936  34.5909390  59.3522971  97.5591411  44.2945563  60.0600168
  97.6140021  43.3419399  59.9842644  96.7482613  44.4505002  60.5441466
  98.7082605  48.2225686  51.2978451  98.2702034  47.5061545  50.8384088
  99.4493045  48.4501801  50.7363542  97.6492349  52.9080380  59.7524811
  97.6068527  53.1341226  58.8233343  98.5655047  52.6743754  59.9010613
 101.0957982  43.3764447  66.6505441 101.4507370  43.6035920  67.5099906
 101.7430114  43.7082824  66.0282696 106.8255719  46.4982883  57.3554770
 106.6873618  46.6884479  56.4275959 106.4691938  47.2602266  57.8122821
  94.9897845  40.4840978  63.4351782  95.6297225  40.3429737  62.7374745
  94.1575376  40.1975492  63.0590384 106.8525099  48.5659410  62.3666041
 107.2861606  48.4734699  63.2149095 107.5656680  48.5416911  61.7286057
  95.7658149  49.7843409  59.5486774  96.5598748  49.2893729  59.3469349
  95.0549842  49.2561272  59.1854480 100.5852994  52.1661504  63.8999142
 100.6390016  52.7352441  64.6676858  99.7167775  52.3363389  63.5353179
  93.4651387  41.8679060  65.3823593  94.1374441  41.6596423  64.7336242
  92.6381174  41.6701146  64.9428825 107.7140648  48.6083111  64.8998927
 107.9076539  49.5128921  65.1458201 107.6141267  48.1490530  65.7337512
  99.3676959  38.4941001  67.3989254  98.7204874  39.1930951  67.3053730
 100.1377975  38.9277145  67.7665502 102.7755757  48.7589854  70.4739807
 102.6241264  48.5300405  69.5569891 102.7660437  49.7160455  70.4871152
  99.5441094  46.3321766  65.4586074 100.4733154  46.4832926  65.2855041
  99.1232124  46.4205787  64.6034720  98.3429425  50.3572431  63.2284611
  98.2040511  49.9891215  64.1010549  97.5544022  50.8720070  63.0568569
  98.9377577  55.4581527  54.5710148  99.1129333  54.9869570  55.3855770
  98.2510365  56.0847293  54.7991408  99.8934640  49.7354033  60.6173449
  99.5584473  49.6954803  61.5131099  99.3938586  49.0698749  60.1443859
  93.8678884  45.1421663  66.1426030  93.7298682  44.4101902  66.7437569
  94.7783808  45.0530563  65.8610218 102.8293832  47.0810068  50.8910509
 102.2123003  46.3556896  50.7943561 102.3610321  47.8419428  50.5477583
  96.4961185  44.8541623  65.6309710  97.2060804  44.2134815  65.5896328
  96.4530493  45.1054518  66.5535891 104.4847964  51.7908976  68.5516289
 104.4260510  51.1068196  67.8846872 104.8867482  52.5327966  68.0996915
  95.2090119  41.8406841  67.4505349  94.6727476  41.3897579  68.1026946
  94.6206828  41.9752749  66.7075814  93.5038663  58.6070890  61.3450008
  93.7435261  59.2389414  62.0229026  92.6607859  58.2558930  61.6315367
 104.4865371  49.7548560  66.7830269 103.5992150  49.4174482  66.9056668
 105.0563922  49.0231591  67.0199034  86.1394518  46.0872652  60.1073320
  86.8265558  45.7734382  59.5194335  85.9842647  46.9914016  59.8340571
  90.9429240  40.9762848  64.5358344  90.8587429  40.3688518  63.8008754
  90.1211947  41.4671867  64.5367840  98.0166524  54.4150012  63.7491512
  97.9436696  55.2204984  64.2610816  97.5743918  54.6141978  62.9239533
  97.8056304  53.6521782  57.2594333  97.0223826  54.1943463  57.3532558
  98.5049049  54.1695762  57.6588575 108.9682712  45.1656777  61.5446830
 108.9572588  46.0481493  61.1740763 108.1000091  44.8128328  61.3501367
 100.4765208  54.3136846  65.9049671 101.1893180  54.9484311  65.8325572
  99.9855237  54.4100712  65.0889672 102.1982735  48.2188099  57.4766962
 101.2639014  48.3389562  57.3071667 102.3759403  47.3160566  57.2126972
 105.5855286  44.0605418  58.0116996 106.0515738  44.8933410  57.9377299
 106.0362787  43.5950400  58.7162255  95.5277122  52.0631290  66.7255241
  96.2286581  52.6967773  66.8784636  95.0572237  52.4046021  65.9650881
 103.6531517  50.4049240  55.0103148 103.9291361  50.2905834  55.9197022
 102.7836016  50.0066724  54.9715321 103.5571949  36.4286005  62.0507898
 102.6435029  36.6590232  62.2190105 103.9865050  36.5124449  62.9021930
 103.3278407  44.6175897  64.5507792 102.6749858  44.8651805  63.8960244
 103.7058787  43.8040035  64.2170269 100.2885581  54.6535590  58.6535962
 100.4707976  53.8357246  59.1163714 101.1118567  54.8703283  58.2160852
 100.6227747  53.5803776  55.9151010 101.1515513  53.0696230  55.3021173
 100.8855966  53.2646306  56.7796544  99.3765981  45.3595708  71.0373829
  98.7006618  45.2589838  71.7076204 100.1993614  45.2034922  71.5009826
  91.1244840  51.5967645  63.6586344  91.7098276  50.8511333  63.7914248
  90.9269678  51.9071602  64.5423008  93.9783495  54.6318892  58.6748786
  93.3093870  55.1165020  58.1912826  93.8396364  54.8788113  59.5892165
  85.7162494  44.1673245  62.3790787  85.7546594  43.6336836  63.1727905
  85.2102787  43.6408451  61.7601764  98.1188763  56.6662636  65.2731445
  98.6707071  56.8294257  66.0380530  98.4594957  57.2567074  64.6011470
  93.0953257  39.0137786  65.8753329  93.1594583  39.8752617  65.4630727
  93.0320377  38.4011787  65.1425688  92.5705529  41.0860918  69.5226364
  93.1977568  40.7037995  70.1363888  91.7133448  40.8675120  69.8882056
 102.9699638  51.4923893  71.1280099 103.5139542  52.1053852  70.6335054
 102.3886483  52.0503472  71.6447112 101.2557151  54.6144611  62.2595127
 101.1308290  53.8134351  61.7506072 101.9136242  55.1090805  61.7709097
  92.8765319  40.9693344  61.4372267  92.1551905  41.5829312  61.2979740
  93.6658575  41.5051109  61.3588913 103.3192059  52.4153631  63.8874677
 102.3722395  52.2958983  63.8153004 103.6674832  51.5276129  63.9700938
  95.6791632  38.3047770  67.7112919  96.2026034  38.5510067  68.4739228
  95.4603966  39.1367805  67.2916056 100.3238492  52.2106348  60.0879029
 100.1763455  51.2823055  60.2686599 101.1491986  52.2326438  59.6036105
 103.9272614  53.0334906  61.1743902 104.8519162  52.8277768  61.0368353
 103.7587918  52.7851308  62.0833244  96.8844177  39.2461465  65.3962589
  96.5440998  38.4469278  65.7983269  96.1783184  39.5463176  64.8239423
  97.5360649  36.3310778  63.8489912  98.3586719  35.8571256  63.7268803
  97.7798713  37.1101262  64.3488599  95.0599228  43.0229898  61.6581891
  94.9143809  43.3370202  62.5506173  94.5824432  43.6414799  61.1052790
  96.9195611  40.0132446  61.7062781  96.9057180  39.1173540  61.3695079
  97.6368039  40.0203110  62.3401067  98.7721742  40.4469787  63.7515908
  98.5139519  41.3686857  63.7500239  98.2406782  40.0500221  64.4416372
 103.7167930  53.5520574  56.5305993 103.8904808  52.9866996  55.7779846
 104.2096822  54.3521469  56.3485483  89.5344890  45.5635243  64.5969552
  88.9898358  46.3395051  64.7289827  90.4124240  45.9106047  64.4388674
 109.5707322  46.3156997  58.1496293 110.0138468  45.5664322  57.7515416
 108.6933832  46.3067133  57.7670025 104.7043103  52.8687338  53.6302892
 105.3994008  53.4894031  53.8490206 105.0466253  52.0182689  53.9055270
  90.3210912  44.6905139  67.4899709  89.5792648  44.8387775  68.0764340
  90.0003656  44.9513405  66.6266459 106.6034526  50.3187044  55.1590223
 107.1285850  50.6574317  54.4339543 106.5156879  49.3834059  54.9753357
  98.2654575  54.2321117  67.2880099  98.5741701  53.9870264  68.1602799
  99.0630057  54.4367756  66.7998969  98.2875187  56.3859027  59.5185476
  97.8480177  55.8935406  60.2118332  99.0383304  55.8431995  59.2777551
  90.7667526  52.5770568  59.5210104  91.5925546  52.2774340  59.1408747
  90.4161578  51.8078190  59.9699892  95.7349059  51.9297036  61.5907777
  95.1129068  51.2667741  61.2910005  96.4053926  51.9558168  60.9081425
  88.9676131  50.4956894  60.4799037  88.1308039  50.0679069  60.2983039
  88.9399776  50.6889338  61.4169829  95.8073586  40.4078824  71.1840283
  95.8561742  41.2840947  70.8018053  96.3496101  39.8656217  70.6111927
 106.2928432  50.9519947  70.4641420 105.5023976  50.9344086  69.9245920
 106.0561787  51.4908241  71.2190457 106.4126307  47.8012414  67.7774149
 106.4624312  47.6362421  68.7189672 106.3040230  46.9339673  67.3872030
  95.2962566  50.4800959  55.0666238  95.4450686  51.1636424  54.4132911
  96.1029009  50.4606050  55.5815694 103.7030070  43.7843342  69.0933456
 104.6039932  43.6449807  68.8017454 103.7778044  43.9497797  70.0331633
  98.0372875  41.1610197  67.9386642  97.1676184  41.4543763  67.6669231
  98.2732355  41.7450642  68.6593906 107.9144504  50.2209355  68.0216171
 107.6229312  50.5839336  68.8579632 107.3016635  49.5076364  67.8429503
 109.1140186  47.7862235  60.5418741 109.9487078  48.2252039  60.7056301
 109.2499315  47.3100888  59.7226987 106.1631692  45.3441970  66.4896229
 106.6385814  45.5369616  65.6815080 105.2397258  45.4001156  66.2439612
  93.0515199  46.5066137  56.0727307  92.8061241  45.6028467  56.2707517
  93.2211113  46.5083288  55.1306785 100.7411909  37.3789813  65.4552062
 101.2593853  38.1150840  65.1298551 100.3867041  37.6853807  66.2898822
 100.9924503  33.7990096  60.9752959 101.2726257  33.1313285  61.6013386
 101.7775110  33.9919192  60.4627623  98.7957971  52.9749090  52.5377985
  98.2231938  53.5939277  52.0848457  99.3690765  53.5248452  53.0717907
 104.8633361  42.2207730  64.7224534 105.8150784  42.3205828  64.7436758
 104.6936812  41.4285999  65.2322619 102.8847741  39.3063313  64.9083935
 102.2897673  39.5868326  64.2130424 102.5997437  39.7957214  65.6800676
 102.0155231  53.2586240  53.6686568 102.9485904  53.1931802  53.8719443
 101.9278444  54.0942507  53.2101100 104.6443248  52.5752110  50.6290515
 104.5656879  52.2411974  51.5226273 105.4652915  53.0673878  50.6281988
 107.3421439  45.4413850  63.8366834 107.3097759  44.5029850  64.0226518
 107.9522063  45.5197886  63.1032659 107.4915927  42.2324893  63.8825117
 106.9754976  41.4483350  63.6955046 108.3755876  41.9043610  64.0471636
 105.1526654  35.9765909  59.8420930 104.9551476  35.6680997  60.7264262
 105.7626360  36.7027548  59.9718860 113.1597989  46.5029857  62.9772871
 113.8901377  46.2415145  63.5380574 112.5504934  45.7658578  63.0174939
 111.2413286  44.6437719  63.5747322 110.5146450  44.5093684  62.9663813
 110.8260573  44.9514548  64.3804040  99.0643462  48.3627649  71.3394695
  99.9846472  48.5406248  71.5334741  99.0293045  47.4183694  71.1874394
  88.2825627  43.5566242  60.2647969  87.9628412  42.7031551  59.9722343
  87.7359056  43.7714821  61.0205937  92.0605535  46.2728683  63.9817476
  92.2791545  47.2045791  64.0005510  92.4731309  45.9136658  64.7672280
 100.9100301  35.8574816  57.5917461 101.4631340  36.2770269  58.2507484
 101.1470387  34.9310564  57.6340417  96.9333400  41.8461889  73.3720225
  96.8330127  42.7956246  73.3032316  96.7154942  41.5180128  72.4996295
  88.1513887  47.1769154  62.2341091  87.4577359  46.7623107  61.7211045
  88.8986878  47.2189690  61.6374510 104.2879108  37.9675341  57.0996125
 103.7077777  38.6260145  56.7174178 104.0215041  37.1452685  56.6883543
 102.7382674  37.3680398  59.3017446 103.2382453  37.4796933  58.4931764
 103.3818282  37.0641451  59.9418254  96.7964670  45.2759028  72.1885287
  96.3131752  46.0759388  72.3949176  96.8825609  45.2866973  71.2352731
  90.0650630  47.1087408  60.1107106  90.0421318  47.2075095  59.1588989
  90.3751266  47.9552559  60.4324272  92.7238008  49.1663563  64.2253720
  93.6781261  49.1347505  64.1583652  92.5250531  48.7054186  65.0403946
  93.3137390  47.7364679  66.7924518  94.1330279  48.2308757  66.8159355
  93.5874198  46.8196647  66.7642086 106.4218522  40.1521952  59.8706813
 107.1978912  40.6418405  60.1431430 105.6966656  40.5780006  60.3278682
 108.8591081  40.8649571  60.9280753 109.4535572  40.6245307  60.2174062
 108.9317665  40.1456702  61.5554290  91.0788237  54.7083182  61.2423918
  90.9442705  53.9483583  60.6761916  90.6620299  55.4324082  60.7752707
 102.2147200  49.8920106  50.2500494 102.9183050  50.0970108  50.8658149
 101.4909848  50.4596868  50.5149577 103.0445010  45.6429967  56.3702764
 102.9880211  46.0998518  55.5310396 103.5973352  44.8820652  56.1925606
 106.8549816  41.4319699  57.1952883 106.5986750  41.0316335  58.0261091
 106.2302684  42.1463493  57.0703022 111.1662154  44.1715772  59.7024175
 110.6061712  44.2408961  60.4755737 110.5605657  43.9956757  58.9823671
  94.2357362  55.6052499  61.4542361  94.1189747  56.5497932  61.3521051
  93.4149809  55.3026061  61.8428160 104.1233897  50.3302635  52.2998954
 104.9579501  49.8983833  52.1176428 103.9618240  50.1584649  53.2275848
 103.7779789  46.8334748  53.6655293 103.7228593  46.6679020  52.7243737
 103.1525844  47.5410781  53.8217483  88.5672304  42.0702813  67.4916715
  89.2131168  41.5601767  67.9803940  88.3589455  42.8071494  68.0660140
 101.0925696  49.1383660  72.9908856 101.9616856  49.3124312  72.6295491
 100.6132448  49.9578077  72.8684585  95.2611877  56.2580761  64.6698289
  96.1639123  56.2904371  64.9864784  95.0349247  55.3281212  64.6844625
  97.0165479  55.0111748  61.3308368  96.0661110  55.0113609  61.2172740
  97.3197965  54.2644482  60.8144403 100.9028034  32.9285634  57.4986548
 100.1360430  32.3744121  57.6443230 101.3138739  33.0007503  58.3600700
  92.9069795  39.2170430  71.5891729  93.7701257  38.8607235  71.7995054
  92.3335206  38.8784325  72.2767134 112.7518172  60.8472286  62.3954130
 113.3896582  60.7279033  61.6917470 112.6339015  61.7953130  62.4542082
 109.5607878  60.7999714  62.3315655 109.2226390  60.6840779  61.4436190
 110.4297647  60.3990879  62.3116661 105.4194694  62.6535191  58.3212546
 104.8559559  62.5625128  57.5528834 105.3047089  61.8335095  58.8015038
 110.0427661  61.9534566  68.2901861 110.0316302  61.5587364  67.4182364
 110.2048301  61.2200639  68.8835632 102.9659126  64.1486382  61.1596766
 103.7580418  63.8077207  60.7443066 103.2055776  64.2581357  62.0798920
 110.9994253  66.3206158  53.6327011 110.3482233  66.9060239  53.2461025
 111.7938616  66.8512353  53.6922048 104.9249880  63.4095295  54.0314145
 105.6980756  62.8624283  53.8927021 105.2775279  64.2739545  54.2428607
 106.7634922  64.7371678  67.2381045 106.4724788  65.6417309  67.1227711
 107.3991907  64.7788205  67.9525114 107.6891129  62.1148526  63.8282404
 108.2854702  61.8904549  63.1139367 107.7466101  61.3733272  64.4307852
 107.2616158  59.5687962  51.6632595 107.5141678  59.0469483  50.9016058
 106.3240717  59.4054107  51.7659279 112.3059441  58.5723740  59.4707338
 113.0922530  58.1543163  59.1197755 112.5698145  59.4769832  59.6388987
 112.4769518  64.0096590  54.1695995 111.8415351  64.0831217  54.8816900
 112.1466924  64.5990189  53.4915074 117.7067868  58.5098973  60.3740317
 118.4393040  57.9398190  60.6078146 116.9507223  58.1220574  60.8146822
 106.9812446  61.4716068  53.8656970 106.8648705  60.7960971  54.5338054
 107.0914706  60.9848441  53.0489123 109.3243987  60.9326215  57.5703659
 108.9602195  60.4056836  58.2816581 110.1811103  60.5424684  57.3970145
 115.2293288  52.2220547  64.8334925 114.8976613  53.0915958  64.6096140
 114.6338901  51.9056831  65.5128956 108.9649474  55.9616114  52.5665008
 109.1323877  56.8296351  52.9335479 108.7746643  56.1243396  51.6426297
 111.7224808  64.4233093  64.2330838 111.4225531  65.3258132  64.1246645
 111.3775867  64.1565276  65.0851991 105.1737289  60.8746890  60.2667543
 104.2487786  60.7423104  60.4745234 105.4221702  61.6541109  60.7637485
 115.1221951  56.9415633  61.9128276 114.2138829  56.8731042  61.6187036
 115.0709547  57.4187578  62.7410101 108.9438695  58.4173772  53.5511675
 108.8238320  58.8630823  54.3897155 108.2491284  58.7659090  52.9925213
 102.5346100  60.5180164  61.1011332 102.6638481  60.7714643  62.0150743
 101.8543551  61.1107872  60.7815987 106.7045587  71.1877414  57.2001806
 106.6269617  72.1385239  57.2790286 106.1007231  70.8423286  57.8576732
 109.1962817  58.3605279  69.8563173 108.4196151  58.9199199  69.8466037
 109.8353380  58.8462062  70.3778043 116.9883598  55.1432072  63.6906149
 116.3457978  55.4364605  63.0445944 116.4838526  55.0284992  64.4959346
 114.6423761  58.8895245  54.3792009 115.5541618  59.1222632  54.2039706
 114.1333408  59.4732289  53.8167087 107.4509189  61.1690732  69.4181140
 108.1923874  61.7075776  69.1415963 106.7446175  61.7957021  69.5752692
 112.9264529  63.3119873  68.0153301 113.3347885  62.8702283  67.2707934
 112.2041791  62.7372500  68.2687494 109.2795599  58.2492480  65.3886858
 110.1256794  58.6731893  65.5321507 109.2194237  57.5926104  66.0825421
 113.2493344  63.8721063  61.7705590 112.6202206  64.0366778  61.0681658
 112.8619006  64.2862673  62.5416554 117.1282576  64.8075501  59.1249954
 116.4433614  65.1874403  58.5746987 117.2126425  65.4170828  59.8581902
 112.4295044  55.9096848  67.0468032 112.1855976  56.6638908  66.5102308
 112.7054975  56.2882196  67.8815279 114.3833507  62.4535460  65.7245297
 114.5950402  63.0967220  65.0479679 114.3363255  61.6197777  65.2567228
 111.9859736  55.0653281  62.6281870 111.1244215  55.3634535  62.9198607
 112.0122171  55.2823680  61.6962902 108.8021306  63.6095472  59.0355675
 109.2659651  63.8883175  58.2460298 108.5378104  62.7078916  58.8528766
 105.6945387  63.1566953  61.9735439 106.2646744  63.5854221  61.3352923
 106.2853499  62.8749538  62.6719624 107.7390192  59.7318624  55.8445240
 108.4414235  60.1839668  56.3119167 107.4070820  59.0902443  56.4725134
 106.1870553  58.3230381  70.2196450 105.5569214  59.0046661  70.4531847
 106.0806641  58.2113462  69.2749588 101.4815526  57.9902177  61.1462374
 100.6914580  58.2459705  60.6702485 101.9726773  58.8050514  61.2514415
 115.4979335  65.3307416  63.8967655 116.3196779  64.9287603  63.6150336
 115.4941738  65.2275650  64.8483771 103.4330271  58.3546756  58.1045851
 102.6361434  58.4665450  58.6229346 103.2055863  58.6933408  57.2386741
 109.2635939  64.8791459  66.0528365 109.3280371  65.3411866  66.8886537
 108.5546863  64.2488824  66.1810675  99.7653229  58.2432667  63.5777365
 100.0161267  59.1279677  63.8434941 100.3012777  58.0637269  62.8052457
 108.9783956  66.5459567  55.9207346 108.8429631  67.3911102  56.3492193
 109.5193769  66.7478844  55.1573279 105.4651296  52.6251146  72.5821701
 105.0718241  52.0717345  73.2569345 106.2817436  52.9361725  72.9728218
 102.4313354  64.0635005  56.4935271 102.9437874  64.8578255  56.6440835
 103.0836067  63.3661295  56.4268872 104.2408238  67.1800761  58.5758024
 104.4174867  68.1018726  58.3879008 105.0365072  66.8659180  59.0052404
 108.3819257  54.0409025  70.1741957 109.1228970  54.6416179  70.0946420
 108.6137180  53.2986663  69.6160000 103.5260595  59.2265393  68.4520187
 103.4114110  58.3250650  68.7527286 102.6705113  59.4729090  68.1005004
 110.6052433  67.1683133  70.0507688 110.1616287  66.3819512  69.7328592
 111.2669646  67.3562284  69.3851578 105.3639554  68.6978935  64.5768366
 105.9146979  68.5695998  63.8045360 104.5251030  68.9973824  64.2263259
 112.7033671  67.4485933  68.0789089 112.6852146  68.2694814  67.5869358
 113.6253591  67.3240008  68.3039230 109.1606725  64.9630062  68.9212597
 109.6935062  64.2018351  68.6911905 108.6320806  64.6703714  69.6636752
 100.3962270  62.3923659  57.2694841 101.2337492  62.8020667  57.0528549
 100.5740538  61.4523101  57.2395035 112.2926703  60.0598740  52.9578674
 111.7773326  60.8303344  53.1967062 112.0204011  59.3863876  53.5811736
 109.8773814  54.9048440  58.0163913 109.0215410  54.5155291  57.8369551
 110.2900765  54.9840401  57.1563698 111.4072960  52.4394784  62.4155472
 110.9037756  52.4024919  61.6023278 111.7003567  53.3487526  62.4752129
 107.6515846  52.5233513  61.4221654 108.5168843  52.3276322  61.0627544
 107.7193355  52.2943865  62.3491011 117.2660977  62.8131094  54.8931848
 116.4890419  62.4742254  54.4487010 117.9452458  62.8183717  54.2186813
 112.0813006  57.9325832  54.7838455 111.7763141  58.2471981  55.6348599
 113.0343448  58.0107252  54.8265788 110.5259438  64.0916055  56.4331409
 109.9980799  63.3568815  56.1204647 110.0246940  64.8690731  56.1871378
 115.5052284  62.2865075  61.5498456 114.8475958  62.9764337  61.6378584
 116.3092683  62.6761507  61.8932442 105.2578165  54.7535721  58.7938021
 105.8321917  54.5310903  58.0611214 105.8449148  54.8224416  59.5466622
 114.3157742  60.6409448  59.6002397 114.8289624  61.2739440  60.1024107
 114.9658966  60.0410644  59.2345757 105.5847752  56.7840182  52.8133906
 104.7485065  57.1214869  53.1343181 105.4452522  56.6489162  51.8761043
 107.5600833  51.6276970  57.5213090 106.9065245  51.3125987  56.8969705
 107.5181307  51.0052711  58.2472913 108.6712038  61.9096265  49.4366382
 107.7639100  61.6785519  49.6357531 109.1683070  61.1133884  49.6240364
 111.5780117  70.6193772  52.3563069 110.9041815  70.9225469  52.9648026
 111.9645939  71.4222853  52.0068526 110.7938573  58.1158904  61.8460738
 109.8761135  58.3373851  61.6882426 111.2098717  58.1905214  60.9872445
 111.5773621  59.5150319  56.9763418 112.3245440  60.0271717  56.6670540
 111.8465211  59.1934372  57.8367812 109.8500271  62.0108860  53.9590372
 108.9411490  61.7267893  54.0562842 109.8795355  62.4307939  53.0993679
 115.0819539  65.6215450  57.7281540 114.6281866  64.7806359  57.7846731
 114.4513505  66.2576848  58.0656320 114.0252458  56.5507436  58.9582207
 113.2875215  56.0384822  59.2892450 114.2779232  56.1107817  58.1465484
 113.5252478  67.4591946  58.6631358 113.8175452  68.0197003  57.9443724
 114.0351098  67.7520507  59.4184517 114.1264086  49.3283688  59.5523977
 114.4322962  48.4681051  59.2649892 114.8516690  49.9201308  59.3522971
 100.4188442  59.7314374  57.9405575 100.2212841  59.1383735  57.2156641
  99.8635106  59.4266584  58.6581513 108.3985165  59.6237481  60.0600168
 108.4533775  58.6711317  59.9842644 107.5876367  59.7796920  60.5441466
 109.5476359  63.5517604  51.2978451 109.1095789  62.8353463  50.8384088
 110.2886800  63.7793719  50.7363542 106.3377525  58.2414540  57.8190547
 105.5245391  58.5408711  58.2255739 106.8336519  57.8470229  58.5365029
 108.4886103  68.2372297  59.7524811 108.4462282  68.4633144  58.8233343
 109.4048802  68.0035672  59.9010613 111.9351737  58.7056365  66.6505441
 112.2901125  58.9327838  67.5099906 112.5823868  59.0374742  66.0282696
 117.6649474  61.8274801  57.3554770 117.5267372  62.0176397  56.4275959
 117.3085693  62.5894184  57.8122821 105.8291600  55.8132896  63.4351782
 106.4690979  55.6721655  62.7374745 104.9969130  55.5267409  63.0590384
 117.6918853  63.8951328  62.3666041 118.1255360  63.8026617  63.2149095
 118.4050434  63.8708828  61.7286057 106.6051904  65.1135326  59.5486774
 107.3992502  64.6185646  59.3469349 105.8943596  64.5853189  59.1854480
 111.4246748  67.4953422  63.8999142 111.4783771  68.0644358  64.6676858
 110.5561530  67.6655307  63.5353179 102.9134667  59.2578408  55.6246527
 101.9832255  59.1962864  55.8416489 103.0092139  58.7354361  54.8283168
 102.8320216  55.7833221  58.2124768 103.0927034  56.6978554  58.1033929
 103.6537389  55.3157663  58.3621381 104.3045142  57.1970978  65.3823593
 104.9768195  56.9888340  64.7336242 103.4774928  56.9993064  64.9428825
 118.5534403  63.9375028  64.8998927 118.7470293  64.8420839  65.1458201
 118.4535021  63.4782448  65.7337512 110.2070714  53.8232919  67.3989254
 109.5598629  54.5222869  67.3053730 110.9771729  54.2569063  67.7665502
 113.6149512  64.0881771  70.4739807 113.4635018  63.8592323  69.5569891
 113.6054191  65.0452373  70.4871152 110.3834848  61.6613684  65.4586074
 111.3126908  61.8124844  65.2855041 109.9625878  61.7497705  64.6034720
 109.1823180  65.6864348  63.2284611 109.0434266  65.3183133  64.1010549
 108.3937776  66.2011988  63.0568569 109.7771332  70.7873445  54.5710148
 109.9523087  70.3161488  55.3855770 109.0904120  71.4139211  54.7991408
 110.7328395  65.0645951  60.6173449 110.3978228  65.0246721  61.5131099
 110.2332341  64.3990667  60.1443859 104.7072639  60.4713581  66.1426030
 104.5692437  59.7393820  66.7437569 105.6177562  60.3822481  65.8610218
 113.6687587  62.4101985  50.8910509 113.0516757  61.6848814  50.7943561
 113.2004075  63.1711346  50.5477583 107.3354940  60.1833540  65.6309710
 108.0454558  59.5426733  65.5896328 107.2924248  60.4346435  66.5535891
 115.3241718  67.1200894  68.5516289 115.2654264  66.4360114  67.8846872
 115.7261237  67.8619884  68.0996915 106.0483874  57.1698758  67.4505349
 105.5121231  56.7189497  68.1026946 105.4600582  57.3044667  66.7075814
 104.3432417  73.9362808  61.3450008 104.5829015  74.5681332  62.0229026
 103.5001614  73.5850848  61.6315367 105.4586133  56.6287410  50.0131813
 104.5815599  56.5076210  49.6494060 105.9343886  55.8373488  49.7610702
 115.3259126  65.0840478  66.7830269 114.4385904  64.7466399  66.9056668
 115.8957677  64.3523509  67.0199034  96.9788273  61.4164569  60.1073320
  97.6659313  61.1026299  59.5194335  96.8236401  62.3205934  59.8340571
 101.7822995  56.3054766  64.5358344 101.6981184  55.6980436  63.8008754
 100.9605701  56.7963784  64.5367840 108.8560279  69.7441930  63.7491512
 108.7830450  70.5496902  64.2610816 108.4137672  69.9433896  62.9239533
 108.6450059  68.9813700  57.2594333 107.8617580  69.5235380  57.3532558
 109.3442804  69.4987680  57.6588575 111.9546709  54.7908330  59.9028539
 112.4515408  54.0378292  59.5829609 111.1833690  54.8272646  59.3371748
 119.8076466  60.4948695  61.5446830 119.7966342  61.3773410  61.1740763
 118.9393846  60.1420246  61.3501367 111.3158962  69.6428764  65.9049671
 112.0286935  70.2776229  65.8325572 110.8248991  69.7392630  65.0889672
 113.0376489  63.5480017  57.4766962 112.1032768  63.6681479  57.3071667
 113.2153158  62.6452484  57.2126972 108.5381677  56.9325713  59.6300223
 108.1679465  56.3796753  60.3181129 109.0340770  56.3283846  59.0775223
 116.4249041  59.3897336  58.0116996 116.8909493  60.2225328  57.9377299
 116.8756541  58.9242318  58.7162255 106.3670876  67.3923208  66.7255241
 107.0680335  68.0259690  66.8784636 105.8965991  67.7337939  65.9650881
 114.4925272  65.7341157  55.0103148 114.7685116  65.6197752  55.9197022
 113.6229771  65.3358642  54.9715321 114.3965703  51.7577923  62.0507898
 113.4828783  51.9882150  62.2190105 114.8258805  51.8416367  62.9021930
 114.1672162  59.9467815  64.5507792 113.5143612  60.1943722  63.8960244
 114.5452542  59.1331953  64.2170269 111.1279336  69.9827508  58.6535962
 111.3101730  69.1649164  59.1163714 111.9512322  70.1995200  58.2160852
 111.4621501  68.9095693  55.9151010 111.9909268  68.3988148  55.3021173
 111.7249721  68.5938223  56.7796544 110.2159735  60.6887626  71.0373829
 109.5400372  60.5881755  71.7076204 111.0387369  60.5326840  71.5009826
 101.9638594  66.9259563  63.6586344 102.5492031  66.1803250  63.7914248
 101.7663433  67.2363519  64.5423008 104.8177249  69.9610810  58.6748786
 104.1487625  70.4456938  58.1912826 104.6790119  70.2080030  59.5892165
  96.5556249  59.4965163  62.3790787  96.5940348  58.9628753  63.1727905
  96.0496542  58.9700368  61.7601764 108.9582518  71.9954553  65.2731445
 109.5100826  72.1586175  66.0380530 109.2988711  72.5858991  64.6011470
 103.9347011  54.3429703  65.8753329 103.9988338  55.2044534  65.4630727
 103.8714131  53.7303705  65.1425688 103.4099284  56.4152836  69.5226364
 104.0371322  56.0329913  70.1363888 102.5527202  56.1967038  69.8882056
 113.8093392  66.8215811  71.1280099 114.3533296  67.4345769  70.6335054
 113.2280237  67.3795389  71.6447112 100.1864826  58.2229265  55.4544719
 100.4818267  57.3139943  55.4011772  99.2852862  58.2017004  55.1325721
 112.0950905  69.9436529  62.2595127 111.9702045  69.1426269  61.7506072
 112.7529996  70.4382722  61.7709097 103.7159073  56.2985261  61.4372267
 102.9945659  56.9121229  61.2979740 104.5052329  56.8343026  61.3588913
 114.1585814  67.7445549  63.8874677 113.2116149  67.6250900  63.8153004
 114.5068587  66.8568047  63.9700938 106.5185387  53.6339688  67.7112919
 107.0419789  53.8801985  68.4739228 106.2997720  54.4659723  67.2916056
 101.9152668  55.9043363  55.5784044 101.5865374  55.0240742  55.3959150
 102.2692039  55.8491031  56.4660433 111.1632247  67.5398265  60.0879029
 111.0157209  66.6114973  60.2686599 111.9885740  67.5618356  59.6036105
 105.0294491  56.1916332  55.9459521 105.3690564  56.7202254  55.2238130
 105.4766612  56.5296739  56.7218088 114.7666369  68.3626824  61.1743902
 115.6912916  68.1569685  61.0368353 114.5981672  68.1143225  62.0833244
 107.7237932  54.5753383  65.3962589 107.3834752  53.7761196  65.7983269
 107.0176938  54.8755094  64.8239423 108.3754404  51.6602696  63.8489912
 109.1980473  51.1863174  63.7268803 108.6192467  52.4393179  64.3488599
 107.0162638  54.6890954  54.1452814 107.7371001  55.0672207  53.6416531
 106.3927942  55.4079831  54.2487792 111.1593761  55.3936103  55.0811147
 111.3757376  56.2760741  54.7799975 110.6787828  55.0022316  54.3516788
 105.8992983  58.3521816  61.6581891 105.7537563  58.6662119  62.5506173
 105.4218186  58.9706717  61.1052790 107.7589365  55.3424364  61.7062781
 107.7450934  54.4465457  61.3695079 108.4761794  55.3495028  62.3401067
 109.6115496  55.7761704  63.7515908 109.3533274  56.6978775  63.7500239
 109.0800537  55.3792139  64.4416372 114.5561685  68.8812491  56.5305993
 114.7298562  68.3158914  55.7779846 115.0490576  69.6813386  56.3485483
 100.3738645  60.8927161  64.5969552  99.8292113  61.6686969  64.7289827
 101.2517995  61.2397965  64.4388674 107.1626261  54.2238744  56.9750351
 107.2842173  53.2955391  57.1741238 106.8728304  54.2377430  56.0628666
 110.0317452  51.9093655  60.1117071 110.0539149  51.9732988  59.1569050
 110.4485511  51.0698164  60.3057577 120.4101076  61.6448914  58.1496293
 120.8532222  60.8956240  57.7515416 119.5327586  61.6359051  57.7670025
 115.5436857  68.1979256  53.6302892 116.2387762  68.8185949  53.8490206
 115.8860008  67.3474607  53.9055270 101.1604667  60.0197057  67.4899709
 100.4186403  60.1679692  68.0764340 100.8397411  60.2805322  66.6266459
 117.4428281  65.6478961  55.1590223 117.9679605  65.9866234  54.4339543
 117.3550633  64.7125977  54.9753357 109.1048329  69.5613035  67.2880099
 109.4135456  69.3162182  68.1602799 109.9023811  69.7659674  66.7998969
 109.1268941  71.7150945  59.5185476 108.6873932  71.2227323  60.2118332
 109.8777058  71.1723912  59.2777551 101.6061280  67.9062486  59.5210104
 102.4319300  67.6066257  59.1408747 101.2555332  67.1370108  59.9699892
 106.5742813  67.2588954  61.5907777 105.9522823  66.5959659  61.2910005
 107.2447680  67.2850086  60.9081425  99.8069885  65.8248812  60.4799037
  98.9701794  65.3970986  60.2983039  99.7793531  66.0181255  61.4169829
 106.6467341  55.7370742  71.1840283 106.6955496  56.6132865  70.8018053
 107.1889855  55.1948135  70.6111927 117.1322187  66.2811865  70.4641420
 116.3417730  66.2636004  69.9245920 116.8955541  66.8200159  71.2190457
 117.2520062  63.1304331  67.7774149 117.3018067  62.9654339  68.7189672
 117.1433985  62.2631590  67.3872030 106.1356320  65.8092877  55.0666238
 106.2844441  66.4928342  54.4132911 106.9422764  65.7897967  55.5815694
 114.5423824  59.1135259  69.0933456 115.4433687  58.9741724  68.8017454
 114.6171799  59.2789714  70.0331633 108.8766629  56.4902114  67.9386642
 108.0069939  56.7835680  67.6669231 109.1126110  57.0742559  68.6593906
 118.7538258  65.5501273  68.0216171 118.4623067  65.9131253  68.8579632
 118.1410390  64.8368281  67.8429503 119.9533941  63.1154153  60.5418741
 120.7880832  63.5543957  60.7056301 120.0893070  62.6392806  59.7226987
 117.0025447  60.6733888  66.4896229 117.4779568  60.8661534  65.6815080
 116.0791012  60.7293073  66.2439612 103.8908953  61.8358055  56.0727307
 103.6454995  60.9320385  56.2707517 104.0604868  61.8375205  55.1306785
 111.5805663  52.7081731  65.4552062 112.0987607  53.4442758  65.1298551
 111.2260796  53.0145724  66.2898822 103.1604601  57.5686412  53.5713468
 102.4673846  57.6430767  52.9153504 102.9156353  56.8046756  54.0934985
 111.8318257  49.1282014  60.9752959 112.1120011  48.4605203  61.6013386
 112.6168864  49.3211109  60.4627623 109.6351726  68.3041008  52.5377985
 109.0625693  68.9231195  52.0848457 110.2084520  68.8540369  53.0717907
 115.7027116  57.5499648  64.7224534 116.6544539  57.6497745  64.7436758
 115.5330566  56.7577916  65.2322619 113.7241495  54.6355231  64.9083935
 113.1291427  54.9160244  64.2130424 113.4391192  55.1249132  65.6800676
 112.8548986  68.5878158  53.6686568 113.7879659  68.5223719  53.8719443
 112.7672198  69.4234425  53.2101100 115.4837002  67.9044028  50.6290515
 115.4050634  67.5703892  51.5226273 116.3046669  68.3965796  50.6281988
 118.1815193  60.7705767  63.8366834 118.1491514  59.8321768  64.0226518
 118.7915817  60.8489804  63.1032659 110.0198524  59.6401820  49.8794038
 110.9657629  59.5108028  49.9482456 109.6412769  58.9016482  50.3563466
 118.3309682  57.5616811  63.8825117 117.8148731  56.7775267  63.6955046
 119.2149630  57.2335527  64.0471636 115.9920409  51.3057826  59.8420930
 115.7945230  50.9972915  60.7264262 116.6020114  52.0319465  59.9718860
 109.9037217  63.6919566  71.3394695 110.8240226  63.8698165  71.5334741
 109.8686800  62.7475612  71.1874394 108.2041441  57.5651797  49.8148923
 107.2972897  57.2684909  49.8911637 108.4817422  57.2681615  48.9483209
  99.1219382  58.8858160  60.2647969  98.8022166  58.0323468  59.9722343
  98.5752810  59.1006738  61.0205937 102.8999289  61.6020601  63.9817476
 103.1185299  62.5337709  64.0005510 103.3125063  61.2428576  64.7672280
 109.8203507  52.1088686  55.9693164 109.0104236  51.7635771  56.3448410
 110.5087924  51.7996230  56.5580776 111.7494055  51.1866733  57.5917461
 112.3025094  51.6062187  58.2507484 111.9864142  50.2602481  57.6340417
 107.7727155  57.1753807  73.3720225 107.6723882  58.1248164  73.3032316
 107.5548697  56.8472046  72.4996295 106.9740226  54.4238732  49.9560902
 107.8359390  54.7493630  50.2156720 107.1590570  53.6370228  49.4433968
  98.9907642  62.5061072  62.2341091  98.2971113  62.0915024  61.7211045
  99.7380633  62.5481608  61.6374510 115.1272863  53.2967258  57.0996125
 114.5471532  53.9552062  56.7174178 114.8608795  52.4744603  56.6883543
 113.5776429  52.6972316  59.3017446 114.0776207  52.8088851  58.4931764
 114.2212037  52.3933369  59.9418254 107.6358425  60.6050946  72.1885287
 107.1525506  61.4051306  72.3949176 107.7219364  60.6158891  71.2352731
 100.9044384  62.4379325  60.1107106 100.8815073  62.5367013  59.1588989
 101.2145021  63.2844476  60.4324272 103.5631762  64.4955480  64.2253720
 104.5175016  64.4639423  64.1583652 103.3644286  64.0346104  65.0403946
 104.1531144  63.0656596  66.7924518 104.9724033  63.5600675  66.8159355
 104.4267952  62.1488565  66.7642086 113.9097741  55.4567349  56.1552474
 113.0223596  55.7416999  55.9372668 114.3251730  55.2961112  55.3079750
 117.2612277  55.4813870  59.8706813 118.0372667  55.9710322  60.1431430
 116.5360411  55.9071924  60.3278682 119.6984835  56.1941489  60.9280753
 120.2929326  55.9537225  60.2174062 119.7711419  55.4748620  61.5554290
 101.9181991  70.0375100  61.2423918 101.7836459  69.2775501  60.6761916
 101.5014053  70.7616000  60.7752707 113.0540954  65.2212023  50.2500494
 113.7576804  65.4262026  50.8658149 112.3303603  65.7888785  50.5149577
 113.8838764  60.9721885  56.3702764 113.8273966  61.4290436  55.5310396
 114.4367107  60.2112569  56.1925606 117.6943570  56.7611617  57.1952883
 117.4380504  56.3608252  58.0261091 117.0696438  57.4755411  57.0703022
 105.0751117  70.9344417  61.4542361 104.9583501  71.8789849  61.3521051
 104.2543563  70.6317978  61.8428160 114.9627651  65.6594553  52.2998954
 115.7973255  65.2275751  52.1176428 114.8011994  65.4876566  53.2275848
 114.6173544  62.1626666  53.6655293 114.5622347  61.9970937  52.7243737
 113.9919599  62.8702699  53.8217483  99.4066059  57.3994730  67.4916715
 100.0524922  56.8893684  67.9803940  99.1983210  58.1363412  68.0660140
 111.9319451  64.4675578  72.9908856 112.8010610  64.6416230  72.6295491
 111.4526202  65.2869995  72.8684585 107.9269669  51.6634775  53.2440611
 107.9148339  52.6076615  53.4008882 108.8193091  51.4804920  52.9500072
 106.1005631  71.5872679  64.6698289 107.0032878  71.6196289  64.9864784
 105.8743001  70.6573130  64.6844625 107.8559233  70.3403665  61.3308368
 106.9054864  70.3405527  61.2172740 108.1591719  69.5936400  60.8144403
 111.7421789  48.2577552  57.4986548 110.9754184  47.7036038  57.6443230
 112.1532494  48.3299420  58.3600700 103.7463550  54.5462347  71.5891729
 104.6095011  54.1899152  71.7995054 103.1728960  54.2076242  72.2767134
 120.4001633  76.1291632  62.3315655 120.0620144  76.0132697  61.4436190
 121.2691401  75.7282797  62.3116661 116.2588449  77.9827108  58.3212546
 115.6953314  77.8917045  57.5528834 116.1440844  77.1627013  58.8015038
 120.8821416  77.2826484  68.2901861 120.8710057  76.8879282  67.4182364
 121.0442055  76.5492556  68.8835632 113.8052880  79.4778300  61.1596766
 114.5974172  79.1369125  60.7443066 114.0449531  79.5873275  62.0798920
 115.7643634  78.7387213  54.0314145 116.5374510  78.1916200  53.8927021
 116.1169033  79.6031462  54.2428607 117.6028677  80.0663595  67.2381045
 117.3118543  80.9709226  67.1227711 118.2385661  80.1080123  67.9525114
 118.5284884  77.4440444  63.8282404 119.1248456  77.2196466  63.1139367
 118.5859855  76.7025189  64.4307852 118.1009912  74.8979879  51.6632595
 118.3535433  74.3761401  50.9016058 117.1634471  74.7346025  51.7659279
 117.8206201  76.8007985  53.8656970 117.7042459  76.1252889  54.5338054
 117.9308461  76.3140359  53.0489123 120.1637742  76.2618132  57.5703659
 119.7995949  75.7348753  58.2816581 121.0204858  75.8716601  57.3970145
 119.8043229  71.2908032  52.5665008 119.9717631  72.1588268  52.9335479
 119.6140398  71.4535314  51.6426297 116.0131044  76.2038808  60.2667543
 115.0881540  76.0715022  60.4745234 116.2615457  76.9833027  60.7637485
 119.7832450  73.7465689  53.5511675 119.6632075  74.1922740  54.3897155
 119.0885038  74.0951007  52.9925213 113.3739855  75.8472081  61.1011332
 113.5032236  76.1006560  62.0150743 112.6937306  76.4399789  60.7815987
 117.5439342  86.5169331  57.2001806 117.4663372  87.4677156  57.2790286
 116.9400985  86.1715204  57.8576732 120.0356572  73.6897197  69.8563173
 119.2589906  74.2491117  69.8466037 120.6747135  74.1753980  70.3778043
 118.2902944  76.4982650  69.4181140 119.0317628  77.0367694  69.1415963
 117.5839929  77.1248939  69.5752692 120.1189354  73.5784397  65.3886858
 120.9650549  74.0023811  65.5321507 120.0587991  72.9218022  66.0825421
 119.6415060  78.9387389  59.0355675 120.1053406  79.2175092  58.2460298
 119.3771858  78.0370834  58.8528766 116.5339141  78.4858871  61.9735439
 117.1040498  78.9146139  61.3352923 117.1247253  78.2041455  62.6719624
 118.5783946  75.0610542  55.8445240 119.2807989  75.5131585  56.3119167
 118.2464575  74.4194360  56.4725134 117.0264308  73.6522298  70.2196450
 116.3962968  74.3338579  70.4531847 116.9200396  73.5405380  69.2749588
 112.3209280  73.3194094  61.1462374 111.5308334  73.5751623  60.6702485
 112.8120527  74.1342432  61.2514415 114.2724025  73.6838674  58.1045851
 113.4755189  73.7957368  58.6229346 114.0449618  74.0225326  57.2386741
 120.1029693  80.2083377  66.0528365 120.1674126  80.6703784  66.8886537
 119.3940617  79.5780742  66.1810675 110.6046983  73.5724585  63.5777365
 110.8555022  74.4571595  63.8434941 111.1406531  73.3929186  62.8052457
 119.8177711  81.8751484  55.9207346 119.6823386  82.7203020  56.3492193
 120.3587523  82.0770762  55.1573279 116.3045050  67.9543064  72.5821701
 115.9111996  67.4009263  73.2569345 117.1211191  68.2653643  72.9728218
 113.2707108  79.3926922  56.4935271 113.7831629  80.1870173  56.6440835
 113.9229821  78.6953213  56.4268872 115.0801993  82.5092679  58.5758024
 115.2568621  83.4310643  58.3879008 115.8758826  82.1951098  59.0052404
 119.2213011  69.3700943  70.1741957 119.9622725  69.9708096  70.0946420
 119.4530934  68.6278581  69.6160000 114.3654349  74.5557310  68.4520187
 114.2507865  73.6542568  68.7527286 113.5098867  74.8021007  68.1005004
 116.2033308  84.0270852  64.5768366 116.7540733  83.8987916  63.8045360
 115.3644784  84.3265741  64.2263259 120.0000479  80.2921980  68.9212597
 120.5328816  79.5310268  68.6911905 119.4714560  79.9995632  69.6636752
 111.2356025  77.7215577  57.2694841 112.0731247  78.1312585  57.0528549
 111.4134293  76.7815019  57.2395035 120.7167568  70.2340358  58.0163913
 119.8609164  69.8447208  57.8369551 121.1294520  70.3132319  57.1563698
 118.4909601  67.8525431  61.4221654 119.3562597  67.6568240  61.0627544
 118.5587110  67.6235783  62.3491011 121.3653192  79.4207973  56.4331409
 120.8374554  78.6860732  56.1204647 120.8640695  80.1982649  56.1871378
 116.0971920  70.0827639  58.7938021 116.6715672  69.8602820  58.0611214
 116.6842902  70.1516333  59.5466622 116.4241507  72.1132100  52.8133906
 115.5878819  72.4506786  53.1343181 116.2846276  71.9781080  51.8761043
 118.3994587  66.9568888  57.5213090 117.7459000  66.6417905  56.8969705
 118.3575062  66.3344628  58.2472913 119.5105792  77.2388183  49.4366382
 118.6032854  77.0077436  49.6357531 120.0076824  76.4425802  49.6240364
 120.6894026  77.3400778  53.9590372 119.7805245  77.0559811  54.0562842
 120.7189110  77.7599856  53.0993679 111.2582196  75.0606292  57.9405575
 111.0606596  74.4675653  57.2156641 110.7028860  74.7558502  58.6581513
 119.2378920  74.9529398  60.0600168 119.2927530  74.0003235  59.9842644
 118.4270122  75.1088837  60.5441466 120.3870114  78.8809521  51.2978451
 119.9489543  78.1645380  50.8384088 121.1280554  79.1085636  50.7363542
 117.1771280  73.5706458  57.8190547 116.3639145  73.8700629  58.2255739
 117.6730274  73.1762147  58.5365029 119.3279858  83.5664215  59.7524811
 119.2856036  83.7925061  58.8233343 120.2442556  83.3327590  59.9010613
 116.6685354  71.1424814  63.4351782 117.3084734  71.0013573  62.7374745
 115.8362885  70.8559327  63.0590384 117.4445658  80.4427244  59.5486774
 118.2386257  79.9477564  59.3469349 116.7337351  79.9145107  59.1854480
 113.7528422  74.5870326  55.6246527 112.8226010  74.5254781  55.8416489
 113.8485894  74.0646279  54.8283168 113.6713971  71.1125139  58.2124768
 113.9320788  72.0270472  58.1033929 114.4931143  70.6449581  58.3621381
 115.1438896  72.5262896  65.3823593 115.8161950  72.3180258  64.7336242
 114.3168683  72.3284982  64.9428825 120.0216934  81.0156266  63.2284611
 119.8828020  80.6475050  64.1010549 119.2331531  81.5303905  63.0568569
 120.6165086  86.1165362  54.5710148 120.7916842  85.6453406  55.3855770
 119.9297874  86.7431129  54.7991408 121.5722149  80.3937869  60.6173449
 121.2371982  80.3538639  61.5131099 121.0726095  79.7282585  60.1443859
 115.5466393  75.8005499  66.1426030 115.4086191  75.0685738  66.7437569
 116.4571317  75.7114399  65.8610218 118.1748694  75.5125458  65.6309710
 118.8848313  74.8718650  65.5896328 118.1318002  75.7638353  66.5535891
 116.8877628  72.4990676  67.4505349 116.3514985  72.0481414  68.1026946
 116.2994337  72.6336585  66.7075814 115.1826172  89.2654725  61.3450008
 115.4222770  89.8973249  62.0229026 114.3395368  88.9142765  61.6315367
 116.2979887  71.9579327  50.0131813 115.4209353  71.8368128  49.6494060
 116.7737640  71.1665406  49.7610702 107.8182027  76.7456487  60.1073320
 108.5053067  76.4318217  59.5194335 107.6630156  77.6497852  59.8340571
 112.6216749  71.6346684  64.5358344 112.5374938  71.0272353  63.8008754
 111.7999456  72.1255702  64.5367840 119.6954033  85.0733848  63.7491512
 119.6224205  85.8788819  64.2610816 119.2531427  85.2725814  62.9239533
 119.4843813  84.3105618  57.2594333 118.7011335  84.8527298  57.3532558
 120.1836558  84.8279597  57.6588575 119.3775432  72.2617630  59.6300223
 119.0073219  71.7088671  60.3181129 119.8734524  71.6575764  59.0775223
 117.2064630  82.7215125  66.7255241 117.9074090  83.3551608  66.8784636
 116.7359745  83.0629857  65.9650881 112.8032349  82.2551480  63.6586344
 113.3885785  81.5095168  63.7914248 112.6057187  82.5655437  64.5423008
 115.6571004  85.2902728  58.6748786 114.9881379  85.7748855  58.1912826
 115.5183873  85.5371948  59.5892165 107.3950003  74.8257080  62.3790787
 107.4334103  74.2920671  63.1727905 106.8890296  74.2992286  61.7601764
 119.7976272  87.3246471  65.2731445 120.3494580  87.4878093  66.0380530
 120.1382466  87.9150909  64.6011470 114.7740766  69.6721621  65.8753329
 114.8382092  70.5336452  65.4630727 114.7107886  69.0595623  65.1425688
 114.2493038  71.7444753  69.5226364 114.8765077  71.3621831  70.1363888
 113.3920957  71.5258955  69.8882056 111.0258581  73.5521183  55.4544719
 111.3212022  72.6431861  55.4011772 110.1246617  73.5308922  55.1325721
 114.5552828  71.6277179  61.4372267 113.8339414  72.2413147  61.2979740
 115.3446084  72.1634944  61.3588913 117.3579141  68.9631606  67.7112919
 117.8813543  69.2093902  68.4739228 117.1391475  69.7951640  67.2916056
 112.7546422  71.2335280  55.5784044 112.4259129  70.3532659  55.3959150
 113.1085793  71.1782949  56.4660433 115.8688246  71.5208250  55.9459521
 116.2084318  72.0494171  55.2238130 116.3160366  71.8588656  56.7218088
 118.5631686  69.9045301  65.3962589 118.2228507  69.1053114  65.7983269
 117.8570693  70.2047012  64.8239423 119.2148158  66.9894613  63.8489912
 120.0374228  66.5155091  63.7268803 119.4586222  67.7685097  64.3488599
 117.8556393  70.0182872  54.1452814 118.5764755  70.3964124  53.6416531
 117.2321697  70.7371748  54.2487792 116.7386737  73.6813734  61.6581891
 116.5931318  73.9954037  62.5506173 116.2611941  74.2998634  61.1052790
 118.5983120  70.6716282  61.7062781 118.5844689  69.7757375  61.3695079
 119.3155548  70.6786946  62.3401067 120.4509251  71.1053622  63.7515908
 120.1927028  72.0270693  63.7500239 119.9194291  70.7084057  64.4416372
 111.2132399  76.2219078  64.5969552 110.6685867  76.9978886  64.7289827
 112.0911749  76.5689883  64.4388674 118.0020016  69.5530662  56.9750351
 118.1235927  68.6247308  57.1741238 117.7122058  69.5669348  56.0628666
 120.8711206  67.2385573  60.1117071 120.8932903  67.3024906  59.1569050
 121.2879265  66.3990081  60.3057577 111.9998421  75.3488975  67.4899709
 111.2580157  75.4971610  68.0764340 111.6791165  75.6097240  66.6266459
 119.9442084  84.8904953  67.2880099 120.2529210  84.6454100  68.1602799
 120.7417566  85.0951591  66.7998969 119.9662696  87.0442862  59.5185476
 119.5267686  86.5519241  60.2118332 120.7170813  86.5015830  59.2777551
 112.4455035  83.2354403  59.5210104 113.2713055  82.9358175  59.1408747
 112.0949087  82.4662026  59.9699892 117.4136568  82.5880871  61.5907777
 116.7916577  81.9251576  61.2910005 118.0841435  82.6142003  60.9081425
 110.6463640  81.1540730  60.4799037 109.8095548  80.7262904  60.2983039
 110.6187285  81.3473173  61.4169829 117.4861095  71.0662659  71.1840283
 117.5349251  71.9424782  70.8018053 118.0283610  70.5240053  70.6111927
 116.9750075  81.1384795  55.0666238 117.1238195  81.8220259  54.4132911
 117.7816518  81.1189885  55.5815694 119.7160384  71.8194032  67.9386642
 118.8463693  72.1127598  67.6669231 119.9519864  72.4034477  68.6593906
 114.7302708  77.1649972  56.0727307 114.4848750  76.2612302  56.2707517
 114.8998622  77.1667123  55.1306785 113.9998355  72.8978330  53.5713468
 113.3067600  72.9722685  52.9153504 113.7550107  72.1338674  54.0934985
 120.4745480  83.6332925  52.5377985 119.9019447  84.2523112  52.0848457
 121.0478274  84.1832287  53.0717907 119.0435196  72.8943714  49.8148923
 118.1366651  72.5976827  49.8911637 119.3211177  72.5973532  48.9483209
 109.9613136  74.2150078  60.2647969 109.6415921  73.3615386  59.9722343
 109.4146565  74.4298656  61.0205937 113.7393044  76.9312519  63.9817476
 113.9579054  77.8629627  64.0005510 114.1518818  76.5720493  64.7672280
 120.6597262  67.4380604  55.9693164 119.8497990  67.0927689  56.3448410
 121.3481679  67.1288148  56.5580776 118.6120909  72.5045725  73.3720225
 118.5117636  73.4540082  73.3032316 118.3942451  72.1763963  72.4996295
 117.8133981  69.7530650  49.9560902 118.6753145  70.0785548  50.2156720
 117.9984325  68.9662146  49.4433968 109.8301396  77.8352989  62.2341091
 109.1364868  77.4206942  61.7211045 110.5774387  77.8773526  61.6374510
 118.4752179  75.9342863  72.1885287 117.9919261  76.7343224  72.3949176
 118.5613118  75.9450808  71.2352731 111.7438139  77.7671243  60.1107106
 111.7208827  77.8658930  59.1588989 112.0538775  78.6136394  60.4324272
 114.4025517  79.8247398  64.2253720 115.3568770  79.7931340  64.1583652
 114.2038040  79.3638022  65.0403946 114.9924899  78.3948514  66.7924518
 115.8117788  78.8892593  66.8159355 115.2661707  77.4780482  66.7642086
 112.7575746  85.3667018  61.2423918 112.6230213  84.6067418  60.6761916
 112.3407808  86.0907917  60.7752707 115.9144871  86.2636335  61.4542361
 115.7977256  87.2081767  61.3521051 115.0937318  85.9609896  61.8428160
 110.2459813  72.7286648  67.4916715 110.8918677  72.2185602  67.9803940
 110.0376964  73.4655330  68.0660140 118.7663424  66.9926693  53.2440611
 118.7542093  67.9368533  53.4008882 119.6586845  66.8096838  52.9500072
 116.9399386  86.9164596  64.6698289 117.8426632  86.9488207  64.9864784
 116.7136756  85.9865047  64.6844625 118.6952988  85.6695583  61.3308368
 117.7448619  85.6697445  61.2172740 118.9985474  84.9228318  60.8144403
 114.5857304  69.8754265  71.5891729 115.4488766  69.5191070  71.7995054
 114.0122715  69.5368160  72.2767134 118.6575782  92.0748405  60.1073320
 119.3446821  91.7610135  59.5194335 118.5023910  92.9789769  59.8340571
 118.2343758  90.1548998  62.3790787 118.2727857  89.6212589  63.1727905
 117.7284051  89.6284204  61.7601764 121.4857394  96.4832647  60.4799037
 120.6489303  96.0554822  60.2983039 121.4581040  96.6765091  61.4169829
 120.8006891  89.5441995  60.2647969 120.4809675  88.6907304  59.9722343
 120.2540319  89.7590574  61.0205937 120.6695151  93.1644907  62.2341091
 119.9758622  92.7498860  61.7211045 121.4168142  93.2065443  61.6374510
  74.1864325   2.2063783  43.9247113  74.1088355   3.1571608  44.0035593
  73.5825969   1.8609656  44.5822039  71.8251155   4.9549177  48.0695315
  72.0647753   5.5867701  48.7474333  70.9820351   4.6037217  48.3560674
  72.2995987   0.9797180  45.3994093  71.6306362   1.4643307  44.9158133
  72.1608857   1.2266400  46.3137472  76.4401256   3.0140923  51.9976751
  76.9919564   3.1772545  52.7625837  76.7807449   3.6045361  51.3256776
  69.4000729   1.0561469  47.9669225  69.2655197   0.2961870  47.4007223
  68.9832791   1.7802369  47.4998014  72.5569855   1.9530787  48.1787668
  72.4402239   2.8976219  48.0766358  71.7362301   1.6504348  48.5673467
  73.5824369   2.6059048  51.3943596  74.4851616   2.6382659  51.7110091
  73.3561739   1.6759499  51.4089932  87.8820371   7.1478001  49.0560962
  87.5438882   7.0319066  48.1681497  88.7510139   6.7469167  49.0361968
  83.7407186   9.0013478  45.0457853  83.1772051   8.9103415  44.2774140
  83.6259581   8.1813382  45.5260345  88.3640154   8.3012853  55.0147167
  88.3528794   7.9065651  54.1427671  88.5260793   7.5678926  55.6080939
  81.2871618  10.4964669  47.8842073  82.0792910  10.1555494  47.4688372
  81.5268268  10.6059644  48.8044226  89.3206745  12.6684446  40.3572318
  88.6694725  13.2538526  39.9706331  90.1151108  13.1990640  40.4167355
  83.2462372   9.7573583  40.7559452  84.0193248   9.2102570  40.6172328
  83.5987771  10.6217832  40.9673913  85.0847415  11.0849965  53.9626351
  84.7937281  11.9895596  53.8473017  85.7204399  11.1266493  54.6770421
  86.0103622   8.4626813  50.5527711  86.6067194   8.2382836  49.8384674
  86.0678593   7.7211559  51.1553159  90.7982010  10.3574877  40.8941302
  90.1627843  10.4309504  41.6062206  90.4679417  10.9468476  40.2160381
  85.3024939   7.8194355  40.5902277  85.1861197   7.1439258  41.2583361
  85.4127199   7.3326729  39.7734430  87.6456480   7.2804502  44.2948966
  87.2814687   6.7535123  45.0061887  88.5023596   6.8902971  44.1215451
  90.0437300  10.7711380  50.9576145  89.7438023  11.6736419  50.8491952
  89.6988359  10.5043564  51.8097298  83.4949781   7.2225177  46.9912849
  82.5700278   7.0901391  47.1990541  83.7434195   8.0019397  47.4882792
  80.8558592   6.8658451  47.8256638  80.9850974   7.1192930  48.7396050
  80.1756044   7.4586159  47.5061293  85.0258080  17.5355701  43.9247113
  84.9482109  18.4863526  44.0035593  84.4219723  17.1901573  44.5822039
  85.7721682   7.5169020  56.1426446  86.5136366   8.0554064  55.8661270
  85.0658667   8.1435308  56.2997998  91.2477021   9.6598160  54.7398608
  91.6560377   9.2180571  53.9953240  90.5254283   9.0850788  54.9932801
  91.5705836  10.2199351  48.4950897  90.9414698  10.3845065  47.7926965
  91.1831498  10.6340960  49.2661861  95.4495068  11.1553789  45.8495261
  94.7646106  11.5352690  45.2992294  95.5338917  11.7649115  46.5827208
  92.7046000   8.8013748  52.4490604  92.9162895   9.4445507  51.7724985
  92.6575748   7.9676064  51.9812534  87.1233798   9.9573759  45.7600982
  87.5872143  10.2361462  44.9705604  86.8590596   9.0557203  45.5774073
  84.0157879   9.5045240  48.6980745  84.5859236   9.9332509  48.0598230
  84.6065991   9.2227825  49.3964931  79.8028018   4.3380464  47.8707681
  79.0127072   4.5937992  47.3947791  80.2939265   5.1528802  47.9759721
  93.8191827  11.6785703  50.6212961  94.6409271  11.2765890  50.3395643
  93.8154230  11.5753937  51.5729077  81.7542763   4.7025043  44.8291157
  80.9573927   4.8143737  45.3474653  81.5268355   5.0411695  43.9632048
  87.5848431  11.2269746  52.7773672  87.6492863  11.6890154  53.6131844
  86.8759355  10.5967111  52.9055982  78.0865721   4.5910954  50.3022671
  78.3373759   5.4757964  50.5680247  78.6225269   4.4115556  49.5297763
  87.2996449  12.8937854  42.6452652  87.1642123  13.7389390  43.0737500
  87.8406261  13.0957131  41.8818586  80.7525846  10.4113292  43.2180577
  81.2650367  11.2056542  43.3686142  81.4048559   9.7139582  43.1514179
  82.5620731  13.5279048  45.3003331  82.7387359  14.4497013  45.1124314
  83.3577564  13.2137467  45.7297710  81.8473087   5.5743680  55.1765494
  81.7326602   4.6728937  55.4772593  80.9917605   5.8207377  54.8250310
  88.9264925  13.5161420  56.7752994  88.4828779  12.7297799  56.4573899
  89.5882139  13.7040571  56.1096885  83.6852046  15.0457222  51.3013673
  84.2359471  14.9174285  50.5290667  82.8463522  15.3452111  50.9508566
  91.0246163  13.7964220  54.8034396  91.0064638  14.6173101  54.3114665
  91.9466083  13.6718295  55.0284537  87.4819217  11.3108350  55.6457904
  88.0147554  10.5496638  55.4157212  86.9533298  11.0182002  56.3882058
  78.7174763   8.7401946  43.9940148  79.5549985   9.1498954  43.7773856
  78.8953030   7.8001388  43.9640342  88.8471930  10.4394342  43.1576716
  88.3193291   9.7047102  42.8449953  88.3459433  11.2169019  42.9116684
  93.8264776   8.6343363  48.2743762  93.1688450   9.3242624  48.3623891
  94.6305175   9.0239795  48.6177749  86.9924530   8.2574552  36.1611689
  86.0851592   8.0263806  36.3602838  87.4895562   7.4612172  36.3485671
  89.8992609  16.9672060  39.0808375  89.2254308  17.2703756  39.6893333
  90.2858431  17.7701140  38.7313832  88.1712763   8.3587147  40.6835679
  87.2623983   8.0746180  40.7808149  88.2007847   8.7786226  39.8238986
  93.4032031  11.9693737  44.4526847  92.9494358  11.1284647  44.5092037
  92.7725998  12.6055135  44.7901627  91.8464970  13.8070234  45.3876665
  92.1387945  14.3675291  44.6689030  92.3563591  14.0998794  46.1429824
  78.7400934   6.0792661  44.6650881  78.5425334   5.4862022  43.9401948
  78.1847598   5.7744872  45.3826820  87.8688851   9.8995891  38.0223758
  87.4308281   9.1831750  37.5629395  88.6099292  10.1272006  37.4608849
  86.8098595  14.5850585  46.4770118  86.7674774  14.8111431  45.5478650
  87.7261294  14.3513959  46.6255919  96.0131346  10.2429615  49.0911348
  96.4467852  10.1504904  49.9394402  96.7262926  10.2187115  48.4531364
  84.9264396  11.4613614  46.2732081  85.7204995  10.9663934  46.0714656
  84.2156089  10.9331477  45.9099786  89.7459241  13.8431709  50.6244448
  89.7996263  14.4122645  51.3922164  88.8774022  14.0133594  50.2598486
  81.2347160   5.6056695  42.3491833  80.3044748   5.5441151  42.5661796
  81.3304632   5.0832648  41.5528475  96.8746895  10.2853316  51.6244233
  97.0682785  11.1899126  51.8703508  96.7747513   9.8260735  52.4582818
  91.9362004  10.4360058  57.1985114  91.7847510  10.2070610  56.2815197
  91.9266683  11.3930660  57.2116459  88.7047340   8.0091971  52.1831380
  89.6339400   8.1603131  52.0100348  88.2838370   8.0975992  51.3280027
  87.5035672  12.0342636  49.9529918  87.3646758  11.6661420  50.8255856
  86.7150268  12.5490275  49.7813876  88.0983824  17.1351732  41.2955454
  88.2735580  16.6639775  42.1101077  87.4116612  17.7617498  41.5236715
  89.0540887  11.4124238  47.3418756  88.7190720  11.3725008  48.2376406
  88.5544833  10.7468954  46.8689166  83.0285131   6.8191868  52.8671337
  82.8904929   6.0872107  53.4682876  83.9390055   6.7300768  52.5855525
  91.9900079   8.7580273  37.6155815  91.3729250   8.0327101  37.5188868
  91.5216567   9.5189633  37.2722890  85.6567432   6.5311828  52.3555016
  86.3667050   5.8905020  52.3141635  85.6136740   6.7824722  53.2781197
  93.6454211  13.4679181  55.2761596  93.5866757  12.7838401  54.6092179
  94.0473729  14.2098171  54.8242222  82.6644909  20.2841095  48.0695315
  82.9041508  20.9159619  48.7474333  81.8214106  19.9329135  48.3560674
  93.6471618  11.4318765  53.5075575  92.7598397  11.0944687  53.6301974
  94.2170169  10.7001796  53.7444341  75.3000765   7.7642857  46.8318627
  75.9871805   7.4504587  46.2439642  75.1448894   8.6684221  46.5585878
  87.1772771  16.0920217  50.4736819  87.1042943  16.8975189  50.9856123
  86.7350164  16.2912183  49.6484840  86.9662551  15.3291987  43.9839640
  86.1830073  15.8713667  44.0777865  87.6655296  15.8465967  44.3833881
  89.6371455  15.9907051  52.6294977  90.3499427  16.6254516  52.5570879
  89.1461483  16.0870917  51.8134979  91.3588982   9.8958304  44.2012269
  90.4245260  10.0159766  44.0316973  91.5365650   8.9930771  43.9372279
  84.6883368  13.7401495  53.4500548  85.3892828  14.3737978  53.6029942
  84.2178483  14.0816226  52.6896187  92.8137764  12.0819445  41.7348455
  93.0897608  11.9676039  42.6442329  91.9442263  11.6836929  41.6960628
  89.4491828  16.3305795  45.3781269  89.6314223  15.5127451  45.8409021
  90.2724814  16.5473488  44.9406159  89.7833994  15.2573981  42.6396317
  90.3121760  14.7466435  42.0266479  90.0462213  14.9416511  43.5041850
  88.5372227   7.0365913  57.7619135  87.8612864   6.9360043  58.4321511
  89.3599861   6.8805127  58.2255133  80.2851086  13.2737850  50.3831651
  80.8704523  12.5281538  50.5159555  80.0875925  13.5841807  51.2668315
  83.1389742  16.3089097  45.3994093  82.4700117  16.7935225  44.9158133
  83.0002611  16.5558318  46.3137472  74.8768741   5.8443450  49.1036094
  74.9152841   5.3107041  49.8973212  74.3709034   5.3178656  48.4847071
  87.2795010  18.3432841  51.9976751  87.8313318  18.5064462  52.7625837
  87.6201204  18.9337279  51.3256776  92.1305884  13.1694098  57.8525406
  92.6745788  13.7824057  57.3580361  91.5492729  13.7273677  58.3692419
  78.5077319   4.5707552  42.1790025  78.8030760   3.6618231  42.1257079
  77.6065354   4.5495292  41.8571028  90.4163397  16.2914816  48.9840434
  90.2914537  15.4904556  48.4751379  91.0742489  16.7861010  48.4954404
  92.4798306  14.0923836  50.6119984  91.5328641  13.9729188  50.5398310
  92.8281079  13.2046334  50.6946245  89.4844739  13.8876553  46.8124336
  89.3369702  12.9593260  46.9931906  90.3098233  13.9096643  46.3281411
  93.0878861  14.7105111  47.8989209  94.0125408  14.5047973  47.7613660
  92.9194164  14.4621512  48.8078550  92.8774177  15.2290779  43.2551300
  93.0511055  14.6637201  42.5025153  93.3703068  16.0291674  43.0730790
  78.6951137   7.2405448  51.3214859  78.1504605   8.0165256  51.4535133
  79.5730487   7.5876252  51.1633980  93.8649350  14.5457543  40.3548198
  94.5600254  15.1664236  40.5735513  94.2072500  13.6952894  40.6300576
  79.4817159   6.3675344  54.2145016  78.7398895   6.5157979  54.8009646
  79.1609903   6.6283610  53.3511765  95.7640773  11.9957249  41.8835529
  96.2892097  12.3344521  41.1584849  95.6763125  11.0604264  41.6998664
  87.4260821  15.9091322  54.0125406  87.7347948  15.6640469  54.8848105
  88.2236303  16.1137961  53.5244276  87.4481434  18.0629232  46.2430782
  87.0086424  17.5705611  46.9363639  88.1989550  17.5202200  46.0022858
  79.9273773  14.2540773  46.2455410  80.7531792  13.9544545  45.8654054
  79.5767824  13.4848395  46.6945199  84.8955306  13.6067241  48.3153084
  84.2735315  12.9437946  48.0155312  85.5660173  13.6328373  47.6326732
  78.1282378  12.1727099  47.2044344  77.2914286  11.7449274  47.0228345
  78.1006023  12.3659543  48.1415135  95.4534679  12.6290152  57.1886727
  94.6630223  12.6114291  56.6491227  95.2168033  13.1678446  57.9435764
  84.4568813  12.1571164  41.7911545  84.6056933  12.8406629  41.1378217
  85.2635256  12.1376254  42.3061000  97.0750751  11.8979560  54.7461477
  96.7835559  12.2609541  55.5824938  96.4622882  11.1846568  54.5674809
  82.2121446   8.1836342  42.7972613  81.9667488   7.2798672  42.9952824
  82.3817360   8.1853492  41.8552091  87.9564218  14.6519295  39.2623292
  87.3838185  15.2709482  38.8093764  88.5297012  15.2018657  39.7963214
  91.1761478  14.9356445  40.3931874  92.1092151  14.8702007  40.5964750
  91.0884691  15.7712712  39.9346407  93.8049495  14.2522315  37.3535822
  93.7263126  13.9182179  38.2471580  94.6259161  14.7444083  37.3527294
  88.2249709  10.0397854  58.0640001  89.1452719  10.2176453  58.2580048
  88.1899292   9.0953899  57.9119701  77.4431874   5.2336447  46.9893276
  77.1234658   4.3801756  46.6967650  76.8965302   5.4485026  47.7451243
  81.2211782   7.9498888  50.7062783  81.4397791   8.8815996  50.7250816
  81.6337556   7.5906863  51.4917586  77.3120134   8.8539359  48.9586398
  76.6183606   8.4393312  48.4456352  78.0593125   8.8959895  48.3619817
  85.9570917   6.9529233  58.9130593  85.4737999   7.7529593  59.1194482
  86.0431856   6.9637178  57.9598037  79.2256877   8.7857613  46.8352413
  79.2027565   8.8845300  45.8834296  79.5357513   9.6322763  47.1569579
  81.8844255  10.8433768  50.9499027  82.8387508  10.8117710  50.8828959
  81.6856778  10.3824391  51.7649253  82.4743637   9.4134884  53.5169825
  83.2936526   9.9078962  53.5404662  82.7480444   8.4966852  53.4887392
  80.2394483  16.3853387  47.9669225  80.1048951  15.6253788  47.4007223
  79.8226546  17.1094287  47.4998014  91.3753446  11.5690311  36.9745800
  92.0789296  11.7740313  37.5903456  90.6516095  12.1367073  37.2394884
  83.3963609  17.2822704  48.1787668  83.2795993  18.2268137  48.0766358
  82.5756055  16.9796266  48.5673467  93.2840144  12.0072840  39.0244260
  94.1185748  11.5754038  38.8421735  93.1224487  11.8354854  39.9521155
  92.9386036   8.5104953  40.3900600  92.8834840   8.3449225  39.4489044
  92.3132091   9.2180986  40.5462789  77.7278551   3.7473018  54.2162022
  78.3737415   3.2371972  54.7049247  77.5195702   4.4841699  54.7905447
  90.2531943  10.8153865  59.7154162  91.1223103  10.9894517  59.3540797
  89.7738695  11.6348282  59.5929892  84.4218123  17.9350966  51.3943596
  85.3245370  17.9674576  51.7110091  84.1955493  17.0051417  51.4089932
  86.1771725  16.6881953  48.0553675  85.2267356  16.6883814  47.9418047
  86.4804212  15.9414687  47.5389709 101.9124419  22.5242491  49.1199437
 102.5502829  22.4049238  48.4162777 101.7945262  23.4723335  49.1787389
  98.7214125  22.4769919  49.0560962  98.3832637  22.3610984  48.1681497
  99.5903893  22.0761084  49.0361968  99.2033908  23.6304771  55.0147167
  99.1922549  23.2357569  54.1427671  99.3654548  22.8970843  55.6080939
  96.4222405  21.2458166  38.3877902  96.6747925  20.7239688  37.6261365
  95.4846964  21.0824312  38.4904585 101.4665687  20.2493945  46.1952645
 102.2528777  19.8313368  45.8443062 101.7304392  21.1540037  46.3634293
 101.6375765  25.6866795  40.8941302 101.0021598  25.7601422  41.6062206
 101.3073171  26.2760394  40.2160381 106.8674114  20.1869178  47.0985624
 107.5999286  19.6168395  47.3323453 106.1113470  19.7990778  47.5392129
  96.1418693  23.1486272  40.5902277  96.0254951  22.4731176  41.2583361
  96.2520953  22.6618646  39.7734430  98.4850234  22.6096420  44.2948966
  98.1208441  22.0827041  45.0061887  99.3417350  22.2194889  44.1215451
 104.3899535  13.8990752  51.5580232 104.0582860  14.7686163  51.3341447
 103.7945148  13.5827036  52.2374263  98.1255721  17.6386319  39.2910314
  98.2930124  18.5066556  39.6580786  97.9352890  17.8013601  38.3671604
 100.8831054  26.1003298  50.9576145 100.5831777  27.0028337  50.8491952
 100.5382114  25.8335481  51.8097298  94.3343536  22.5517095  46.9912849
  93.4094032  22.4193309  47.1990541  94.5827949  23.3311314  47.4882792
 104.2828198  18.6185838  48.6373582 103.3745075  18.5501247  48.3432343
 104.2315794  19.0957783  49.4655408  98.1044942  20.0943977  40.2756981
  97.9844567  20.5401028  41.1142462  97.4097530  20.4429294  39.7170519
  91.6952347  22.1950369  47.8256638  91.8244728  22.4484847  48.7396050
  91.0149798  22.7878077  47.5061293  98.3569064  20.0375484  56.5808479
  97.5802398  20.5969404  56.5711344  98.9959627  20.5232267  57.1023350
 106.1489845  16.8202277  50.4151456 105.5064225  17.1134810  49.7691251
 105.6444773  16.7055197  51.2204653 103.8030008  20.5665450  41.1037315
 104.7147864  20.7992837  40.9285013 103.2939655  21.1502494  40.5412394
  96.6115436  22.8460937  56.1426446  97.3530121  23.3845981  55.8661270
  95.9052422  23.4727226  56.2997998 102.0870776  24.9890078  54.7398608
 102.4954132  24.5472488  53.9953240 101.3648037  24.4142705  54.9932801
  98.4401846  19.9262685  52.1132165  99.2863041  20.3502098  52.2566814
  98.3800484  19.2696309  52.8070728 102.4099591  25.5491268  48.4950897
 101.7808453  25.7136983  47.7926965 102.0225253  25.9632878  49.2661861
 106.2888822  26.4845706  45.8495261 105.6039861  26.8644608  45.2992294
 106.3732672  27.0941033  46.5827208 101.5901291  17.5867053  53.7713339
 101.3462223  18.3409113  53.2347614 101.8661222  17.9652400  54.6060586
 103.5439754  24.1305665  52.4490604 103.7556649  24.7737425  51.7724985
 103.4969502  23.2967982  51.9812534 101.1465983  16.7423486  49.3527176
 100.2850462  17.0404739  49.6443914 101.1728418  16.9593885  48.4208209
  96.8996438  21.4088829  42.5690547  97.6020482  21.8609872  43.0364473
  96.5677067  20.7672648  43.1970440  95.3476800  20.0000585  56.9441756
  94.7175461  20.6816866  57.1777153  95.2412888  19.8883667  55.9994895
  90.6421772  19.6672381  47.8707681  89.8520826  19.9229910  47.3947791
  91.1333020  20.4820719  47.9759721 104.6585582  27.0077621  50.6212961
 105.4803026  26.6057808  50.3395643 104.6547985  26.9045855  51.5729077
  92.5936518  20.0316961  44.8291157  91.7967681  20.1435655  45.3474653
  92.3662110  20.3703613  43.9632048  98.4242185  26.5561664  52.7773672
  98.4886618  27.0182071  53.6131844  97.7153109  25.9259029  52.9055982
  88.9259475  19.9202872  50.3022671  89.1767514  20.8049882  50.5680247
  89.4619024  19.7407473  49.5297763 112.7491575  23.3516369  46.9697933
 111.9955283  22.7823767  46.8141937 112.8839116  23.3179034  47.9168568
  94.6257543  14.3021351  59.3067007  94.2324488  13.7487550  59.9814652
  95.4423683  14.6131930  59.6973525  97.5425504  15.7179230  56.8987264
  98.2835217  16.3186384  56.8191727  97.7743427  14.9756868  56.3405307
  92.6866842  20.9035598  55.1765494  92.5720357  20.0020855  55.4772593
  91.8311359  21.1499294  54.8250310  99.7658679  28.8453338  56.7752994
  99.3222534  28.0589717  56.4573899 100.4275893  29.0332488  56.1096885
 101.8639918  29.1256138  54.8034396 101.8458393  29.9465019  54.3114665
 102.7859838  29.0010213  55.0284537  98.3212972  26.6400267  55.6457904
  98.8541308  25.8788556  55.4157212  97.7927053  26.3473919  56.3882058
 101.4882667  11.7460333  51.1751546 101.1446936  12.6361975  51.0990656
 101.8561629  11.5561991  50.3121131 101.4532949  21.7368944  39.6823981
 100.9379573  22.5073549  39.9212368 101.1810258  21.0634081  40.3057042
  99.0380060  16.5818645  44.7409219  98.1821657  16.1925496  44.5614858
  99.4507012  16.6610606  43.8809005 100.5679207  14.1164988  49.1400779
 100.0644003  14.0795124  48.3268584 100.8609814  15.0257731  49.1997436
  96.8122093  14.2003718  48.1466961  97.6775090  14.0046527  47.7872850
  96.8799602  13.9714070  49.0736317 106.4267223  24.4901299  41.6177154
 105.6496666  24.1512459  41.1732316 107.1058704  24.4953922  40.9432119
 101.2419253  19.6096037  41.5083762 100.9369388  19.9242186  42.3593905
 102.1949695  19.6877456  41.5511095 104.6658530  23.9635280  48.2743762
 104.0082205  24.6534542  48.3623891 105.4698930  24.3531712  48.6177749
  94.4184412  16.4305926  45.5183328  94.9928164  16.2081108  44.7856520
  95.0055394  16.4994621  46.2711929 103.4763989  22.3179653  46.3247704
 103.9895871  22.9509645  46.8269414 104.1265213  21.7180849  45.9591064
  94.7453999  18.4610387  39.5379213  93.9091311  18.7985074  39.8588488
  94.6058769  18.3259367  38.6006350  96.7207080  13.3047175  44.2458397
  96.0671492  12.9896192  43.6215012  96.6787554  12.6822916  44.9718220
  97.8318285  23.5866470  36.1611689  96.9245346  23.3555724  36.3602838
  98.3289317  22.7904089  36.3485671  99.9544820  19.7929109  48.5706045
  99.0367381  20.0144056  48.4127733 100.3704964  19.8675419  47.7117752
 100.7379868  21.1920524  43.7008725 101.4851687  21.7041921  43.3915847
 101.0071457  20.8704577  44.5613118  99.0106518  23.6879065  40.6835679
  98.1017737  23.4038098  40.7808149  99.0401602  24.1078144  39.8238986
 104.2425785  27.2985654  44.4526847 103.7888112  26.4576564  44.5092037
 103.6119752  27.9347053  44.7901627 103.1858705  18.2277641  45.6827514
 102.4481462  17.7155027  46.0137757 103.4385478  17.7878022  44.8710791
  97.5591412  21.3007686  46.7845474  97.6140022  20.3481522  46.7087951
  96.7482614  21.4567125  47.2686773  98.7082606  25.2287809  38.0223758
  98.2702036  24.5123668  37.5629395  99.4493047  25.4563923  37.4608849
  95.4983772  19.9184745  44.5435853  94.6851637  20.2178916  44.9501045
  95.9942766  19.5240434  45.2610336 101.0957984  20.3826570  53.3750747
 101.4507371  20.6098043  54.2345213 101.7430115  20.7144947  52.7528003
 106.8255721  23.5045006  44.0800076 106.6873619  23.6946602  43.1521265
 106.4691939  24.2664389  44.5368127  94.9897847  17.4903101  50.1597088
  95.6297226  17.3491860  49.4620052  94.1575377  17.2037614  49.7835690
 106.8525100  25.5721533  49.0911348 107.2861607  25.4796822  49.9394402
 107.5656681  25.5479033  48.4531364 100.5852995  29.1723627  50.6244448
 100.6390017  29.7414563  51.3922164  99.7167776  29.3425512  50.2598486
  91.9926463  17.4603426  44.9370075  92.2533280  18.3748759  44.8279236
  92.8143635  16.9927868  45.0866688  93.4651388  18.8741183  52.1068900
  94.1374442  18.6658545  51.4581549  92.6381175  18.6763269  51.6674132
 107.7140650  25.6145233  51.6244233 107.9076540  26.5191044  51.8703508
 107.6141268  25.1552652  52.4582818  99.3676960  15.5003124  54.1234561
  98.7204876  16.1993074  54.0299037 100.1377976  15.9339268  54.4910809
 102.7755758  25.7651976  57.1985114 102.6241265  25.5362528  56.2815197
 102.7660438  26.7222578  57.2116459  99.5441095  23.3383889  52.1831380
 100.4733155  23.4895048  52.0100348  99.1232125  23.4267910  51.3280027
  98.3429427  27.3634553  49.9529918  98.2040512  26.9953338  50.8255856
  97.5544023  27.8782193  49.7813876 102.8293833  24.0872190  37.6155815
 102.2123004  23.3619018  37.5188868 102.3610322  24.8481551  37.2722890
  96.4961186  21.8603745  52.3555016  97.2060805  21.2196938  52.3141635
  96.4530495  22.1116640  53.2781197 104.4847965  28.7971099  55.2761596
 104.4260511  28.1130319  54.6092179 104.8867483  29.5390089  54.8242222
  95.2090120  18.8468963  54.1750656  94.6727477  18.3959702  54.8272252
  94.6206829  18.9814872  53.4321120  94.6192379  18.3057615  36.7377120
  93.7421846  18.1846415  36.3739366  95.0950132  17.5143693  36.4856008
 104.4865372  26.7610683  53.5075575 103.5992151  26.4236604  53.6301974
 105.0563923  26.0293714  53.7444341  90.9429242  17.9824971  51.2603650
  90.8587430  17.3750640  50.5254060  90.1211948  18.4733989  51.2613147
 101.1152955  16.4678534  46.6273845 101.6121655  15.7148497  46.3074916
 100.3439937  16.5042851  46.0617055 108.9682713  22.1718900  48.2692137
 108.9572589  23.0543615  47.8986070 108.1000092  21.8190451  48.0746674
 100.4765209  31.3198969  52.6294977 101.1893181  31.9546434  52.5570879
  99.9855238  31.4162835  51.8134979 102.1982736  25.2250222  44.2012269
 101.2639015  25.3451684  44.0316973 102.3759405  24.3222688  43.9372279
  97.6987924  18.6095917  46.3545530  97.3285712  18.0566958  47.0426436
  98.1947017  18.0054051  45.8020530 105.5855287  21.0667541  44.7362303
 106.0515740  21.8995533  44.6622606 106.0362788  20.6012523  45.4407561
 103.6531519  27.4111362  41.7348455 103.9291363  27.2967957  42.6442329
 102.7836017  27.0128847  41.6960628 103.5571950  13.4348128  48.7753204
 102.6435030  13.6652355  48.9435411 103.9865052  13.5186572  49.6267237
 103.3278409  21.6238020  51.2753098 102.6749859  21.8713927  50.6205551
 103.7058789  20.8102158  50.9415576  99.3765982  22.3657831  57.7619135
  98.7006619  22.2651960  58.4321511 100.1993616  22.2097045  58.2255133
  85.7162496  21.1735368  49.1036094  85.7546595  20.6398958  49.8973212
  85.2102788  20.6470573  48.4847071  93.0953258  16.0199908  52.5998636
  93.1594584  16.8814739  52.1876034  93.0320378  15.4073910  51.8670995
  92.5705530  18.0923041  56.2471670  93.1977569  17.7100118  56.8609195
  91.7133449  17.8737243  56.6127363 102.9699639  28.4986016  57.8525406
 103.5139543  29.1115974  57.3580361 102.3886484  29.0565594  58.3692419
  89.3471073  19.8999470  42.1790025  89.6424514  18.9910148  42.1257079
  88.4459109  19.8787209  41.8571028 101.2557152  31.6206734  48.9840434
 101.1308291  30.8196474  48.4751379 101.9136243  32.1152927  48.4954404
  92.8765320  17.9755466  48.1617574  92.1551906  18.5891434  48.0225047
  93.6658576  18.5113231  48.0834220 103.3192060  29.4215754  50.6119984
 102.3722396  29.3021105  50.5398310 103.6674833  28.5338252  50.6946245
  95.6791634  15.3109893  54.4358226  96.2026035  15.5572189  55.1984535
  95.4603967  16.1429928  54.0161363  91.0758915  17.5813568  42.3029350
  90.7471621  16.7010946  42.1204456  91.4298285  17.5261236  43.1905740
  94.1900738  17.8686537  42.6704828  94.5296810  18.3972459  41.9483436
  94.6372858  18.2066943  43.4463395 103.9272615  30.0397029  47.8989209
 104.8519163  29.8339890  47.7613660 103.7587919  29.7913430  48.8078550
  96.8844179  16.2523588  52.1207896  96.5440999  15.4531401  52.5228576
  96.1783185  16.5525299  51.5484729  97.5360651  13.3372900  50.5735219
  98.3586720  12.8633379  50.4514109  97.7798714  14.1163384  51.0733905
  96.1768885  16.3661159  40.8698121  96.8977248  16.7442412  40.3661838
  95.5534189  17.0850036  40.9733099 100.3200008  17.0706308  41.8056453
 100.5363622  17.9530946  41.5045281  99.8394075  16.6792521  41.0762095
  95.0599229  20.0292021  48.3827198  94.9143810  20.3432324  49.2751479
  94.5824433  20.6476921  47.8298096  96.9195612  17.0194569  48.4308087
  96.9057181  16.1235662  48.0940385  97.6368040  17.0265233  49.0646373
  98.7721743  17.4531909  50.4761215  98.5139521  18.3748980  50.4745545
  98.2406783  17.0562344  51.1661679  96.3232508  15.9008949  43.6995657
  96.4448419  14.9725596  43.8986545  96.0334550  15.9147635  42.7873973
  99.1923699  13.5863860  46.8362377  99.2145395  13.6503193  45.8814357
  99.6091758  12.7468368  47.0302883 109.5707323  23.3219119  44.8741600
 110.0138469  22.5726445  44.4760723 108.6933833  23.3129256  44.4915332
 104.7043104  29.8749461  40.3548198 105.3994009  30.4956153  40.5735513
 105.0466254  29.0244812  40.6300576  90.3210913  21.6967262  54.2145016
  89.5792649  21.8449897  54.8009646  90.0003658  21.9575527  53.3511765
 106.6034527  27.3249166  41.8835529 107.1285851  27.6636439  41.1584849
 106.5156880  26.3896182  41.6998664  95.8073588  17.4140947  57.9085590
  95.8561743  18.2903070  57.5263360  96.3496102  16.8718340  57.3357233
 106.2928433  27.9582070  57.1886727 105.5023977  27.9406209  56.6491227
 106.0561788  28.4970364  57.9435764 106.4126308  24.8074536  54.5019456
 106.4624313  24.6424544  55.4434978 106.3040232  23.9401795  54.1117336
 103.7030071  20.7905464  55.8178762 104.6039934  20.6511929  55.5262760
 103.7778045  20.9559919  56.7576940  98.0372876  18.1672319  54.6631949
  97.1676186  18.4605885  54.3914537  98.2732356  18.7512764  55.3839212
 107.9144505  27.2271478  54.7461477 107.6229314  27.5901458  55.5824938
 107.3016636  26.5138486  54.5674809 109.1140188  24.7924358  47.2664047
 109.9487079  25.2314162  47.4301608 109.2499316  24.3163011  46.4472293
 106.1631693  22.3504092  53.2141535 106.6385815  22.5431739  52.4060387
 105.2397259  22.4063278  52.9684919 100.7411910  14.3851936  52.1797369
 101.2593854  15.1212963  51.8543858 100.3867043  14.6915929  53.0144128
 104.8633362  19.2269853  51.4469841 105.8150785  19.3267950  51.4682065
 104.6936813  18.4348121  51.9567925 102.8847742  16.3125436  51.6329242
 102.2897674  16.5930449  50.9375730 102.5997439  16.8019337  52.4045983
 104.6443249  29.5814233  37.3535822 104.5656881  29.2474097  38.2471580
 105.4652916  30.0736001  37.3527294 107.3421440  22.4475972  50.5612140
 107.3097760  21.5091973  50.7471824 107.9522064  22.5260009  49.8277965
  99.1804771  21.3172025  36.6039344 100.1263876  21.1878233  36.6727763
  98.8019016  20.5786687  37.0808773 107.4915929  19.2387016  50.6070424
 106.9754977  18.4545472  50.4200352 108.3755877  18.9105732  50.7716943
 105.1526656  12.9828031  46.5666236 104.9551477  12.6743119  47.4509568
 105.7626361  13.7089670  46.6964166 113.1597990  23.5091979  49.7018177
 113.8901379  23.2477267  50.2625881 112.5504936  22.7720701  49.7420245
 111.2413287  21.6499842  50.2992628 110.5146451  21.5155807  49.6909120
 110.8260574  21.9576670  51.1049346  99.0643464  25.3689771  58.0640001
  99.9846473  25.5468370  58.2580048  99.0293047  24.4245817  57.9119701
  97.3647688  19.2422002  36.5394230  96.4579144  18.9455114  36.6156943
  97.6423669  18.9451820  35.6728516  98.9809754  13.7858891  42.6938471
  98.1710482  13.4405976  43.0693717  99.6694171  13.4766435  43.2826083
 100.9100302  12.8636938  44.3162768 101.4631341  13.2832392  44.9752791
 101.1470389  11.9372686  44.3585724  96.9333401  18.8524012  60.0965532
  96.8330128  19.8018369  60.0277623  96.7154944  18.5242251  59.2241602
  96.1346473  16.1008937  36.6806209  96.9965637  16.4263835  36.9402026
  96.3196817  15.3140433  36.1679275 104.2879109  14.9737463  43.8241432
 103.7077778  15.6322267  43.4419484 104.0215042  14.1514808  43.4128849
 102.7382676  14.3742521  46.0262752 103.2382454  14.4859056  45.2177071
 103.3818284  14.0703574  46.6663561  96.7964672  22.2821151  58.9130593
  96.3131753  23.0821511  59.1194482  96.8825611  22.2929096  57.9598037
 103.0703987  17.1337554  42.8797780 102.1829842  17.4187204  42.6617975
 103.4857976  16.9731317  42.0325057 106.4218524  17.1584075  46.5952119
 107.1978914  17.6480527  46.8676736 105.6966658  17.5842129  47.0523989
 108.8591082  17.8711694  47.6526060 109.4535573  17.6307430  46.9419368
 108.9317666  17.1518824  48.2799596 102.2147201  26.8982228  36.9745800
 102.9183051  27.1032231  37.5903456 101.4909850  27.4658990  37.2394884
 103.0445011  22.6492090  43.0948070 102.9880213  23.1060641  42.2555703
 103.5973354  21.8882774  42.9170913 106.8549817  18.4381821  43.9198190
 106.5986751  18.0378457  44.7506398 106.2302685  19.1525615  43.7948329
 111.1662155  21.1777895  46.4269481 110.6061713  21.2471084  47.2001043
 110.5605658  21.0018879  45.7068977 104.1233898  27.3364758  39.0244260
 104.9579502  26.9045956  38.8421735 103.9618241  27.1646771  39.9521155
 103.7779790  23.8396871  40.3900600 103.7228594  23.6741142  39.4489044
 103.1525846  24.5472904  40.5462789  88.5672305  19.0764935  54.2162022
  89.2131169  18.5663889  54.7049247  88.3589457  19.8133617  54.7905447
 101.0925698  26.1445783  59.7154162 101.9616857  26.3186435  59.3540797
 100.6132449  26.9640200  59.5929892  97.0875916  13.3404980  39.9685918
  97.0754586  14.2846820  40.1254189  97.9799338  13.1575125  39.6745379
  92.9069796  16.2232552  58.3137036  93.7701258  15.8669357  58.5240361
  92.3335207  15.8846447  59.0012440 112.7518173  37.8534409  49.1199437
 113.3896583  37.7341156  48.4162777 112.6339016  38.8015253  49.1787389
 109.5607880  37.8061837  49.0560962 109.2226391  37.6902901  48.1681497
 110.4297648  37.4053002  49.0361968 105.4194695  39.6597313  45.0457853
 104.8559560  39.5687250  44.2774140 105.3047090  38.8397218  45.5260345
 110.0427663  38.9596689  55.0147167 110.0316303  38.5649487  54.1427671
 110.2048302  38.2262761  55.6080939 102.9659127  41.1548505  47.8842073
 103.7580419  40.8139329  47.4688372 103.2055777  41.2643480  48.8044226
 110.9994254  43.3268281  40.3572318 110.3482234  43.9122361  39.9706331
 111.7938617  43.8574476  40.4167355 104.9249881  40.4157418  40.7559452
 105.6980757  39.8686405  40.6172328 105.2775280  41.2801667  40.9673913
 106.7634924  41.7433800  53.9626351 106.4724790  42.6479431  53.8473017
 107.3991908  41.7850328  54.6770421 107.6891131  39.1210649  50.5527711
 108.2854703  38.8966671  49.8384674 107.7466102  38.3795394  51.1553159
 107.2616159  36.5750084  38.3877902 107.5141680  36.0531605  37.6261365
 106.3240718  36.4116230  38.4904585 112.3059442  35.5785863  46.1952645
 113.0922531  35.1605286  45.8443062 112.5698146  36.4831955  46.3634293
 112.4769519  41.0158713  40.8941302 111.8415352  41.0893339  41.6062206
 112.1466926  41.6052312  40.2160381 117.7067869  35.5161096  47.0985624
 118.4393041  34.9460313  47.3323453 116.9507225  35.1282696  47.5392129
 106.9812448  38.4778190  40.5902277 106.8648706  37.8023094  41.2583361
 107.0914708  37.9910564  39.7734430 109.3243989  37.9388337  44.2948966
 108.9602196  37.4118958  45.0061887 110.1811105  37.5486806  44.1215451
 108.9649476  32.9678237  39.2910314 109.1323878  33.8358473  39.6580786
 108.7746645  33.1305519  38.3671604 111.7224809  41.4295216  50.9576145
 111.4225532  42.3320255  50.8491952 111.3775868  41.1627399  51.8097298
 105.1737290  37.8809013  46.9912849 104.2487787  37.7485227  47.1990541
 105.4221704  38.6603232  47.4882792 108.9438697  35.4235894  40.2756981
 108.8238322  35.8692945  41.1142462 108.2491285  35.7721212  39.7170519
 102.5346101  37.5242286  47.8256638 102.6638483  37.7776765  48.7396050
 101.8543553  38.1169994  47.5061293 106.7045589  48.1939536  43.9247113
 106.6269618  49.1447361  44.0035593 106.1007232  47.8485409  44.5822039
 109.1962818  35.3667402  56.5808479 108.4196152  35.9261322  56.5711344
 109.8353381  35.8524185  57.1023350 107.4509191  38.1752855  56.1426446
 108.1923875  38.7137899  55.8661270 106.7446176  38.8019144  56.2997998
 112.9264530  40.3181995  54.7398608 113.3347886  39.8764406  53.9953240
 112.2041792  39.7434623  54.9932801 109.2795600  35.2554602  52.1132165
 110.1256796  35.6794016  52.2566814 109.2194238  34.5988227  52.8070728
 113.2493345  40.8783186  48.4950897 112.6202207  41.0428900  47.7926965
 112.8619007  41.2924796  49.2661861 117.1282577  41.8137624  45.8495261
 116.4433615  42.1936525  45.2992294 117.2126426  42.4232951  46.5827208
 112.4295046  32.9158971  53.7713339 112.1855978  33.6701031  53.2347614
 112.7054976  33.2944318  54.6060586 114.3833508  39.4597583  52.4490604
 114.5950404  40.1029343  51.7724985 114.3363257  38.6259899  51.9812534
 111.9859737  32.0715404  49.3527176 111.1244216  32.3696657  49.6443914
 112.0122172  32.2885802  48.4208209 108.8021307  40.6157594  45.7600982
 109.2659652  40.8945297  44.9705604 108.5378105  39.7141039  45.5774073
 105.6945388  40.1629076  48.6980745 106.2646745  40.5916344  48.0598230
 106.2853500  39.8811660  49.3964931 107.7390193  36.7380747  42.5690547
 108.4414236  37.1901790  43.0364473 107.4070821  36.0964565  43.1970440
 106.1870554  35.3292503  56.9441756 105.5569215  36.0108784  57.1777153
 106.0806642  35.2175585  55.9994895 115.4979336  42.3369538  50.6212961
 116.3196780  41.9349726  50.3395643 115.4941739  42.2337773  51.5729077
 109.2635940  41.8853582  52.7773672 109.3280372  42.3473989  53.6131844
 108.5546864  41.2550947  52.9055982 108.9783958  43.5521689  42.6452652
 108.8429632  44.3973225  43.0737500 109.5193770  43.7540967  41.8818586
 105.4651297  29.6313269  59.3067007 105.0718243  29.0779468  59.9814652
 106.2817438  29.9423847  59.6973525 104.2408240  44.1862883  45.3003331
 104.4174868  45.1080848  45.1124314 105.0365073  43.8721303  45.7297710
 108.3819258  31.0471148  56.8987264 109.1228972  31.6478301  56.8191727
 108.6137181  30.3048786  56.3405307 103.5260596  36.2327515  55.1765494
 103.4114111  35.3312773  55.4772593 102.6705114  36.4791212  54.8250310
 110.6052434  44.1745256  56.7752994 110.1616288  43.3881634  56.4573899
 111.2669648  44.3624406  56.1096885 105.3639555  45.7041057  51.3013673
 105.9146980  45.5758121  50.5290667 104.5251031  46.0035946  50.9508566
 112.7033672  44.4548056  54.8034396 112.6852147  45.2756937  54.3114665
 113.6253592  44.3302131  55.0284537 109.1606726  41.9692185  55.6457904
 109.6935063  41.2080473  55.4157212 108.6320807  41.6765837  56.3882058
 112.3276421  27.0752251  51.1751546 111.9840691  27.9653893  51.0990656
 112.6955384  26.8853909  50.3121131 112.2926704  37.0660862  39.6823981
 111.7773327  37.8365467  39.9212368 112.0204012  36.3925998  40.3057042
 109.8773815  31.9110563  44.7409219 109.0215411  31.5217413  44.5614858
 110.2900767  31.9902524  43.8809005 111.4072962  29.4456906  49.1400779
 110.9037757  29.4087041  48.3268584 111.7003568  30.3549649  49.1997436
 107.6515847  29.5295636  48.1466961 108.5168844  29.3338445  47.7872850
 107.7193356  29.3005988  49.0736317 117.2660978  39.8193217  41.6177154
 116.4890421  39.4804376  41.1732316 117.9452459  39.8245840  40.9432119
 112.0813007  34.9387954  41.5083762 111.7763143  35.2534103  42.3593905
 113.0343449  35.0169374  41.5511095 110.5259439  41.0978178  43.1576716
 109.9980800  40.3630937  42.8449953 110.0246942  41.8752854  42.9116684
 115.5052285  39.2927198  48.2743762 114.8475959  39.9826459  48.3623891
 116.3092684  39.6823630  48.6177749 105.2578166  31.7597844  45.5183328
 105.8321918  31.5373025  44.7856520 105.8449149  31.8286538  46.2711929
 114.3157744  37.6471571  46.3247704 114.8289625  38.2801563  46.8269414
 114.9658968  37.0472766  45.9591064 105.5847754  33.7902305  39.5379213
 104.7485066  34.1276991  39.8588488 105.4452523  33.6551285  38.6006350
 107.5600834  28.6339093  44.2458397 106.9065247  28.3188110  43.6215012
 107.5181308  28.0114833  44.9718220 108.6712039  38.9158388  36.1611689
 107.7639101  38.6847641  36.3602838 109.1683071  38.1196007  36.3485671
 111.5780118  47.6255895  39.0808375 110.9041817  47.9287592  39.6893333
 111.9645940  48.4284975  38.7313832 110.7938575  35.1221026  48.5706045
 109.8761136  35.3435973  48.4127733 111.2098718  35.1967337  47.7117752
 111.5773622  36.5212442  43.7008725 112.3245441  37.0333839  43.3915847
 111.8465212  36.1996495  44.5613118 109.8500272  39.0170983  40.6835679
 108.9411492  38.7330015  40.7808149 109.8795356  39.4370061  39.8238986
 115.0819540  42.6277572  44.4526847 114.6281867  41.7868482  44.5092037
 114.4513507  43.2638971  44.7901627 114.0252459  33.5569558  45.6827514
 113.2875216  33.0446944  46.0137757 114.2779233  33.1169940  44.8710791
 113.5252479  44.4654069  45.3876665 113.8175454  45.0259126  44.6689030
 114.0351100  44.7582630  46.1429824 114.1264087  26.3345810  46.2769283
 114.4322964  25.4743174  45.9895198 114.8516692  26.9263430  46.0768277
 108.3985167  36.6299603  46.7845474 108.4533776  35.6773440  46.7087951
 107.5876369  36.7859042  47.2686773 109.5476360  40.5579726  38.0223758
 109.1095790  39.8415585  37.5629395 110.2886801  40.7855841  37.4608849
 106.3377526  35.2476663  44.5435853 105.5245392  35.5470834  44.9501045
 106.8336521  34.8532352  45.2610336 108.4886104  45.2434420  46.4770118
 108.4462283  45.4695266  45.5478650 109.4048803  45.0097795  46.6255919
 111.9351738  35.7118487  53.3750747 112.2901126  35.9389961  54.2345213
 112.5823869  36.0436864  52.7528003 105.8291601  32.8195019  50.1597088
 106.4690981  32.6783778  49.4620052 104.9969132  32.5329532  49.7835690
 117.6918855  40.9013450  49.0911348 118.1255361  40.8088739  49.9394402
 118.4050435  40.8770951  48.4531364 106.6051905  42.1197449  46.2732081
 107.3992504  41.6247769  46.0714656 105.8943597  41.5915312  45.9099786
 111.4246750  44.5015544  50.6244448 111.4783772  45.0706481  51.3922164
 110.5561531  44.6717430  50.2598486 104.3045143  34.2033101  52.1068900
 104.9768196  33.9950463  51.4581549 103.4774929  34.0055187  51.6674132
 118.5534404  40.9437151  51.6244233 118.7470294  41.8482962  51.8703508
 118.4535022  40.4844570  52.4582818 110.2070715  30.8295042  54.1234561
 109.5598630  31.5284991  54.0299037 110.9771730  31.2631186  54.4910809
 113.6149513  41.0943894  57.1985114 113.4635019  40.8654445  56.2815197
 113.6054192  42.0514495  57.2116459 110.3834849  38.6675807  52.1831380
 111.3126909  38.8186966  52.0100348 109.9625879  38.7559827  51.3280027
 109.1823181  42.6926471  49.9529918 109.0434267  42.3245255  50.8255856
 108.3937777  43.2074110  49.7813876 109.7771333  47.7935567  41.2955454
 109.9523089  47.3223611  42.1101077 109.0904121  48.4201334  41.5236715
 110.7328396  42.0708074  47.3418756 110.3978229  42.0308844  48.2376406
 110.2332342  41.4052790  46.8689166 104.7072640  37.4775704  52.8671337
 104.5692438  36.7455942  53.4682876 105.6177564  37.3884604  52.5855525
 113.6687588  39.4164108  37.6155815 113.0516759  38.6910936  37.5188868
 113.2004076  40.1773468  37.2722890 107.3354941  37.1895663  52.3555016
 108.0454559  36.5488855  52.3141635 107.2924249  37.4408558  53.2781197
 115.3241720  44.1263016  55.2761596 115.2654266  43.4422236  54.6092179
 115.7261238  44.8682006  54.8242222 106.0483875  34.1760881  54.1750656
 105.5121232  33.7251619  54.8272252 105.4600583  34.3106790  53.4321120
 104.3432418  50.9424930  48.0695315 104.5829017  51.5743454  48.7474333
 103.5001615  50.5912970  48.3560674 105.4586134  33.6349532  36.7377120
 104.5815600  33.5138333  36.3739366 105.9343887  32.8435611  36.4856008
 115.3259127  42.0902600  53.5075575 114.4385906  41.7528522  53.6301974
 115.8957678  41.3585631  53.7444341 101.7822996  33.3116889  51.2603650
 101.6981185  32.7042558  50.5254060 100.9605702  33.8025907  51.2613147
 108.8560280  46.7504053  50.4736819 108.7830452  47.5559024  50.9856123
 108.4137673  46.9496018  49.6484840 108.6450060  45.9875823  43.9839640
 107.8617582  46.5297503  44.0777865 109.3442805  46.5049802  44.3833881
 111.9546710  31.7970452  46.6273845 112.4515409  31.0440414  46.3074916
 111.1833691  31.8334769  46.0617055 119.8076467  37.5010818  48.2692137
 119.7966344  38.3835533  47.8986070 118.9393847  37.1482368  48.0746674
 111.3158964  46.6490887  52.6294977 112.0286936  47.2838351  52.5570879
 110.8248992  46.7454753  51.8134979 113.0376491  40.5542139  44.2012269
 112.1032769  40.6743602  44.0316973 113.2153159  39.6514606  43.9372279
 108.5381679  33.9387835  46.3545530 108.1679466  33.3858875  47.0426436
 109.0340771  33.3345969  45.8020530 116.4249042  36.3959459  44.7362303
 116.8909494  37.2287450  44.6622606 116.8756542  35.9304440  45.4407561
 106.3670877  44.3985330  53.4500548 107.0680337  45.0321813  53.6029942
 105.8965992  44.7400062  52.6896187 114.4925273  42.7403280  41.7348455
 114.7685117  42.6259874  42.6442329 113.6229772  42.3420765  41.6960628
 114.3965705  28.7640046  48.7753204 113.4828785  28.9944272  48.9435411
 114.8258806  28.8478490  49.6267237 114.1672163  36.9529938  51.2753098
 113.5143613  37.2005845  50.6205551 114.5452543  36.1394076  50.9415576
 111.1279337  46.9889631  45.3781269 111.3101732  46.1711287  45.8409021
 111.9512323  47.2057323  44.9406159 111.4621503  45.9157816  42.6396317
 111.9909269  45.4050270  42.0266479 111.7249722  45.6000346  43.5041850
 110.2159736  37.6949749  57.7619135 109.5400373  37.5943878  58.4321511
 111.0387370  37.5388962  58.2255133 101.9638595  43.9321685  50.3831651
 102.5492032  43.1865373  50.5159555 101.7663434  44.2425642  51.2668315
 104.8177251  46.9672933  45.3994093 104.1487626  47.4519060  44.9158133
 104.6790120  47.2142153  46.3137472 108.9582519  49.0016676  51.9976751
 109.5100827  49.1648298  52.7625837 109.2988713  49.5921114  51.3256776
 103.9347012  31.3491826  52.5998636 103.9988339  32.2106657  52.1876034
 103.8714133  30.7365828  51.8670995 103.4099285  33.4214958  56.2471670
 104.0371324  33.0392036  56.8609195 102.5527204  33.2029160  56.6127363
 113.8093393  43.8277934  57.8525406 114.3533297  44.4407892  57.3580361
 113.2280238  44.3857512  58.3692419 112.0950906  46.9498652  48.9840434
 111.9702046  46.1488391  48.4751379 112.7529998  47.4444845  48.4954404
 103.7159075  33.3047384  48.1617574 102.9945660  33.9183352  48.0225047
 104.5052330  33.8405149  48.0834220 114.1585815  44.7507672  50.6119984
 113.2116150  44.6313023  50.5398310 114.5068588  43.8630170  50.6946245
 106.5185388  30.6401811  54.4358226 107.0419790  30.8864107  55.1984535
 106.2997721  31.4721845  54.0161363 111.1632248  44.5460388  46.8124336
 111.0157211  43.6177095  46.9931906 111.9885742  44.5680479  46.3281411
 105.0294492  33.1978455  42.6704828 105.3690565  33.7264376  41.9483436
 105.4766613  33.5358861  43.4463395 114.7666370  45.3688947  47.8989209
 115.6912917  45.1631808  47.7613660 114.5981673  45.1205348  48.8078550
 107.7237933  31.5815506  52.1207896 107.3834754  30.7823319  52.5228576
 107.0176939  31.8817217  51.5484729 108.3754405  28.6664818  50.5735219
 109.1980474  28.1925296  50.4514109 108.6192469  29.4455302  51.0733905
 107.0162640  31.6953077  40.8698121 107.7371002  32.0734329  40.3661838
 106.3927944  32.4141953  40.9733099 111.1593762  32.3998226  41.8056453
 111.3757377  33.2822863  41.5045281 110.6787830  32.0084439  41.0762095
 105.8992984  35.3583939  48.3827198 105.7537565  35.6724242  49.2751479
 105.4218187  35.9768839  47.8298096 107.7589367  32.3486487  48.4308087
 107.7450935  31.4527580  48.0940385 108.4761795  32.3557150  49.0646373
 109.6115497  32.7823827  50.4761215 109.3533275  33.7040898  50.4745545
 109.0800538  32.3854261  51.1661679 114.5561686  45.8874614  43.2551300
 114.7298564  45.3221037  42.5025153 115.0490577  46.6875509  43.0730790
 107.1626263  31.2300867  43.6995657 107.2842174  30.3017513  43.8986545
 106.8728305  31.2439553  42.7873973 110.0317453  28.9155777  46.8362377
 110.0539150  28.9795111  45.8814357 110.4485512  28.0760286  47.0302883
 120.4101077  38.6511037  44.8741600 120.8532223  37.9018362  44.4760723
 119.5327588  38.6421173  44.4915332 115.5436859  45.2041378  40.3548198
 116.2387763  45.8248071  40.5735513 115.8860009  44.3536730  40.6300576
 101.1604668  37.0259179  54.2145016 100.4186404  37.1741815  54.8009646
 100.8397412  37.2867445  53.3511765 117.4428282  42.6541084  41.8835529
 117.9679606  42.9928357  41.1584849 117.3550634  41.7188099  41.6998664
 109.1048330  46.5675158  54.0125406 109.4135457  46.3224304  54.8848105
 109.9023812  46.7721796  53.5244276 109.1268943  48.7213067  46.2430782
 108.6873933  48.2289446  46.9363639 109.8777059  48.1786035  46.0022858
 101.6061281  44.9124608  46.2455410 102.4319301  44.6128380  45.8654054
 101.2555333  44.1432231  46.6945199 106.5742815  44.2651076  48.3153084
 105.9522824  43.6021781  48.0155312 107.2447682  44.2912208  47.6326732
 106.6467342  32.7432864  57.9085590 106.6955498  33.6194987  57.5263360
 107.1889856  32.2010257  57.3357233 117.1322188  43.2873988  57.1886727
 116.3417732  43.2698127  56.6491227 116.8955542  43.8262281  57.9435764
 117.2520063  40.1366454  54.5019456 117.3018068  39.9716461  55.4434978
 117.1433986  39.2693713  54.1117336 106.1356322  42.8155000  41.7911545
 106.2844442  43.4990464  41.1378217 106.9422765  42.7960090  42.3061000
 114.5423825  36.1197382  55.8178762 115.4433688  35.9803847  55.5262760
 114.6171800  36.2851837  56.7576940 108.8766631  33.4964237  54.6631949
 108.0069940  33.7897803  54.3914537 109.1126111  34.0804682  55.3839212
 118.7538260  42.5563396  54.7461477 118.4623068  42.9193376  55.5824938
 118.1410391  41.8430404  54.5674809 119.9533942  40.1216275  47.2664047
 120.7880833  40.5606079  47.4301608 120.0893071  39.6454929  46.4472293
 117.0025448  37.6796010  53.2141535 117.4779570  37.8723656  52.4060387
 116.0791013  37.7355196  52.9684919 111.5805664  29.7143854  52.1797369
 112.0987608  30.4504881  51.8543858 111.2260797  30.0207847  53.0144128
 111.8318259  26.1344136  47.6998266 112.1120012  25.4667325  48.3258692
 112.6168866  26.3273232  47.1872930 109.6351727  45.3103130  39.2623292
 109.0625694  45.9293317  38.8093764 110.2084521  45.8602492  39.7963214
 115.7027117  34.5561770  51.4469841 116.6544540  34.6559868  51.4682065
 115.5330567  33.7640039  51.9567925 113.7241496  31.6417353  51.6329242
 113.1291429  31.9222366  50.9375730 113.4391193  32.1311254  52.4045983
 112.8548987  45.5940280  40.3931874 113.7879660  45.5285842  40.5964750
 112.7672200  46.4296547  39.9346407 115.4837004  44.9106151  37.3535822
 115.4050635  44.5766014  38.2471580 116.3046670  45.4027919  37.3527294
 118.1815195  37.7767890  50.5612140 118.1491515  36.8383891  50.7471824
 118.7915818  37.8551927  49.8277965 110.0198526  36.6463943  36.6039344
 110.9657630  36.5170151  36.6727763 109.6412771  35.9078605  37.0808773
 118.3309683  34.5678933  50.6070424 117.8148732  33.7837390  50.4200352
 119.2149632  34.2397650  50.7716943 115.9920410  28.3119949  46.5666236
 115.7945231  28.0035037  47.4509568 116.6020116  29.0381588  46.6964166
 109.9037218  40.6981689  58.0640001 110.8240228  40.8760288  58.2580048
 109.8686801  39.7537734  57.9119701 108.2041443  34.5713919  36.5394230
 107.2972898  34.2747032  36.6156943 108.4817424  34.2743737  35.6728516
 102.8999291  38.6082724  50.7062783 103.1185300  39.5399832  50.7250816
 103.3125064  38.2490698  51.4917586 109.8203508  29.1150809  42.6938471
 109.0104237  28.7697894  43.0693717 110.5087925  28.8058353  43.2826083
 111.7494057  28.1928856  44.3162768 112.3025095  28.6124309  44.9752791
 111.9864143  27.2664604  44.3585724 107.7727156  34.1815929  60.0965532
 107.6723883  35.1310286  60.0277623 107.5548698  33.8534168  59.2241602
 106.9740227  31.4300855  36.6806209 107.8359391  31.7555753  36.9402026
 107.1590572  30.6432350  36.1679275 115.1272864  30.3029381  43.8241432
 114.5471533  30.9614185  43.4419484 114.8608797  29.4806726  43.4128849
 113.5776430  29.7034439  46.0262752 114.0776209  29.8150973  45.2177071
 114.2212038  29.3995492  46.6663561 107.6358426  37.6113068  58.9130593
 107.1525508  38.4113428  59.1194482 107.7219365  37.6221013  57.9598037
 103.5631764  41.5017603  50.9499027 104.5175017  41.4701545  50.8828959
 103.3644287  41.0408227  51.7649253 104.1531146  40.0718719  53.5169825
 104.9724035  40.5662798  53.5404662 104.4267953  39.1550687  53.4887392
 113.9097742  32.4629471  42.8797780 113.0223597  32.7479122  42.6617975
 114.3251731  32.3023235  42.0325057 117.2612278  32.4875992  46.5952119
 118.0372668  32.9772445  46.8676736 116.5360412  32.9134047  47.0523989
 119.6984837  33.2003612  47.6526060 120.2929327  32.9599348  46.9419368
 119.7711420  32.4810742  48.2799596 101.9181992  47.0437223  47.9669225
 101.7836460  46.2837623  47.4007223 101.5014055  47.7678122  47.4998014
 113.0540955  42.2274146  36.9745800 113.7576805  42.4324149  37.5903456
 112.3303604  42.7950908  37.2394884 113.8838766  37.9784007  43.0948070
 113.8273967  38.4352559  42.2555703 114.4367108  37.2174692  42.9170913
 105.0751118  47.9406540  48.1787668 104.9583502  48.8851972  48.0766358
 104.2543564  47.6380101  48.5673467 114.9627653  42.6656675  39.0244260
 115.7973257  42.2337874  38.8421735 114.8011996  42.4938689  39.9521155
 114.6173545  39.1688789  40.3900600 114.5622349  39.0033060  39.4489044
 113.9919600  39.8764821  40.5462789 111.9319452  41.4737700  59.7154162
 112.8010612  41.6478353  59.3540797 111.4526204  42.2932117  59.5929892
 107.9269670  28.6696898  39.9685918 107.9148340  29.6138737  40.1254189
 108.8193092  28.4867043  39.6745379 106.1005632  48.5934801  51.3943596
 107.0032879  48.6258412  51.7110091 105.8743002  47.6635252  51.4089932
 107.8559234  47.3465788  48.0553675 106.9054865  47.3467650  47.9418047
 108.1591720  46.5998523  47.5389709 111.7421790  25.2639674  44.2231855
 110.9754186  24.7098161  44.3688537 112.1532495  25.3361543  45.0846006
 103.7463551  31.5524470  58.3137036 104.6095012  31.1961275  58.5240361
 103.1728962  31.2138365  59.0012440 120.4001634  53.1353754  49.0560962
 120.0620146  53.0194819  48.1681497 121.2691402  52.7344920  49.0361968
 116.2588450  54.9889231  45.0457853 115.6953315  54.8979168  44.2774140
 116.1440845  54.1689135  45.5260345 120.8821417  54.2888606  55.0147167
 120.8710058  53.8941404  54.1427671 121.0442057  53.5554679  55.6080939
 113.8052882  56.4840422  47.8842073 114.5974174  56.1431247  47.4688372
 114.0449532  56.5935398  48.8044226 115.7643636  55.7449336  40.7559452
 116.5374512  55.1978323  40.6172328 116.1169035  56.6093585  40.9673913
 117.6028678  57.0725718  53.9626351 117.3118544  57.9771349  53.8473017
 118.2385663  57.1142246  54.6770421 118.5284885  54.4502567  50.5527711
 119.1248457  54.2258589  49.8384674 118.5859857  53.7087312  51.1553159
 118.1009914  51.9042002  38.3877902 118.3535434  51.3823523  37.6261365
 117.1634473  51.7408147  38.4904585 117.8206202  53.8070108  40.5902277
 117.7042460  53.1315011  41.2583361 117.9308462  53.3202482  39.7734430
 120.1637743  53.2680255  44.2948966 119.7995950  52.7410876  45.0061887
 121.0204859  52.8778724  44.1215451 119.8043230  48.2970155  39.2910314
 119.9717632  49.1650391  39.6580786 119.6140399  48.4597436  38.3671604
 116.0131045  53.2100930  46.9912849 115.0881541  53.0777144  47.1990541
 116.2615458  53.9895150  47.4882792 119.7832451  50.7527812  40.2756981
 119.6632076  51.1984863  41.1142462 119.0885039  51.1013130  39.7170519
 113.3739856  52.8534204  47.8256638 113.5032237  53.1068683  48.7396050
 112.6937307  53.4461912  47.5061293 117.5439343  63.5231454  43.9247113
 117.4663373  64.4739279  44.0035593 116.9400987  63.1777326  44.5822039
 120.0356573  50.6959319  56.5808479 119.2589907  51.2553239  56.5711344
 120.6747136  51.1816102  57.1023350 118.2902945  53.5044773  56.1426446
 119.0317630  54.0429817  55.8661270 117.5839931  54.1311061  56.2997998
 120.1189355  50.5846520  52.1132165 120.9650550  51.0085933  52.2566814
 120.0587993  49.9280144  52.8070728 119.6415061  55.9449512  45.7600982
 120.1053407  56.2237215  44.9705604 119.3771859  55.0432956  45.5774073
 116.5339142  55.4920993  48.6980745 117.1040499  55.9208262  48.0598230
 117.1247254  55.2103578  49.3964931 118.5783947  52.0672664  42.5690547
 119.2807991  52.5193708  43.0364473 118.2464576  51.4256483  43.1970440
 117.0264309  50.6584421  56.9441756 116.3962970  51.3400702  57.1777153
 116.9200397  50.5467502  55.9994895 112.3209281  50.3256217  47.8707681
 111.5308335  50.5813745  47.3947791 112.8120529  51.1404555  47.9759721
 114.2724027  50.6900796  44.8291157 113.4755190  50.8019490  45.3474653
 114.0449619  51.0287448  43.9632048 120.1029694  57.2145499  52.7773672
 120.1674127  57.6765907  53.6131844 119.3940618  56.5842864  52.9055982
 110.6046984  50.5786707  50.3022671 110.8555023  51.4633717  50.5680247
 111.1406533  50.3991309  49.5297763 119.8177712  58.8813607  42.6452652
 119.6823387  59.7265143  43.0737500 120.3587525  59.0832884  41.8818586
 116.3045052  44.9605187  59.3067007 115.9111997  44.4071385  59.9814652
 117.1211192  45.2715765  59.6973525 113.2707109  56.3989045  43.2180577
 113.7831630  57.1932295  43.3686142 113.9229822  55.7015335  43.1514179
 115.0801994  59.5154801  45.3003331 115.2568622  60.4372766  45.1124314
 115.8758828  59.2013220  45.7297710 119.2213013  46.3763066  56.8987264
 119.9622726  46.9770219  56.8191727 119.4530935  45.6340704  56.3405307
 114.3654351  51.5619433  55.1765494 114.2507866  50.6604690  55.4772593
 113.5098868  51.8083130  54.8250310 116.2033310  61.0332975  51.3013673
 116.7540735  60.9050038  50.5290667 115.3644785  61.3327864  50.9508566
 120.0000481  57.2984103  55.6457904 120.5328817  56.5372391  55.4157212
 119.4714562  57.0057755  56.3882058 111.2356026  54.7277699  43.9940148
 112.0731248  55.1374708  43.7773856 111.4134294  53.7877141  43.9640342
 120.7167569  47.2402481  44.7409219 119.8609166  46.8509331  44.5614858
 121.1294521  47.3194441  43.8809005 118.4909602  44.8587554  48.1466961
 119.3562599  44.6630362  47.7872850 118.5587111  44.6297905  49.0736317
 121.3653193  56.4270095  43.1576716 120.8374555  55.6922855  42.8449953
 120.8640696  57.2044772  42.9116684 116.0971921  47.0889761  45.5183328
 116.6715673  46.8664943  44.7856520 116.6842903  47.1578456  46.2711929
 116.4241508  49.1194223  39.5379213 115.5878820  49.4568909  39.8588488
 116.2846278  48.9843202  38.6006350 118.3994589  43.9631010  44.2458397
 117.7459001  43.6480028  43.6215012 118.3575063  43.3406751  44.9718220
 119.5105794  54.2450305  36.1611689 118.6032855  54.0139559  36.3602838
 120.0076826  53.4487925  36.3485671 120.6894027  54.3462900  40.6835679
 119.7805246  54.0621933  40.7808149 120.7189111  54.7661979  39.8238986
 111.2582197  52.0668414  44.6650881 111.0606597  51.4737775  43.9401948
 110.7028861  51.7620625  45.3826820 119.2378921  51.9591521  46.7845474
 119.2927531  51.0065357  46.7087951 118.4270123  52.1150960  47.2686773
 120.3870115  55.8871644  38.0223758 119.9489545  55.1707503  37.5629395
 121.1280556  56.1147759  37.4608849 117.1771281  50.5768581  44.5435853
 116.3639146  50.8762751  44.9501045 117.6730275  50.1824269  45.2610336
 119.3279859  60.5726338  46.4770118 119.2856038  60.7987184  45.5478650
 120.2442558  60.3389712  46.6255919 116.6685356  48.1486936  50.1597088
 117.3084735  48.0075695  49.4620052 115.8362886  47.8621450  49.7835690
 117.4445660  57.4489367  46.2732081 118.2386258  56.9539687  46.0714656
 116.7337352  56.9207230  45.9099786 113.7528423  51.5932448  42.3491833
 112.8226011  51.5316904  42.5661796 113.8485895  51.0708401  41.5528475
 113.6713972  48.1187261  44.9370075 113.9320789  49.0332594  44.8279236
 114.4931144  47.6511704  45.0866688 115.1438897  49.5325018  52.1068900
 115.8161951  49.3242380  51.4581549 114.3168684  49.3347104  51.6674132
 120.0216936  58.0218389  49.9529918 119.8828021  57.6537173  50.8255856
 119.2331532  58.5366028  49.7813876 120.6165088  63.1227485  41.2955454
 120.7916843  62.6515528  42.1101077 119.9297876  63.7493251  41.5236715
 121.5722151  57.3999991  47.3418756 121.2371983  57.3600761  48.2376406
 121.0726096  56.7344707  46.8689166 115.5466395  52.8067621  52.8671337
 115.4086193  52.0747860  53.4682876 116.4571318  52.7176521  52.5855525
 118.1748695  52.5187581  52.3555016 118.8848314  51.8780773  52.3141635
 118.1318004  52.7700476  53.2781197 116.8877629  49.5052799  54.1750656
 116.3514986  49.0543537  54.8272252 116.2994338  49.6398707  53.4321120
 115.1826173  66.2716848  48.0695315 115.4222771  66.9035372  48.7474333
 114.3395369  65.9204888  48.3560674 116.2979888  48.9641450  36.7377120
 115.4209355  48.8430251  36.3739366 116.7737641  48.1727528  36.4856008
 107.8182028  53.7518610  46.8318627 108.5053068  53.4380340  46.2439642
 107.6630157  54.6559974  46.5585878 112.6216751  48.6408806  51.2603650
 112.5374939  48.0334476  50.5254060 111.7999457  49.1317825  51.2613147
 119.6954035  62.0795970  50.4736819 119.6224206  62.8850942  50.9856123
 119.2531428  62.2787936  49.6484840 119.4843814  61.3167740  43.9839640
 118.7011336  61.8589421  44.0777865 120.1836559  61.8341720  44.3833881
 119.3775433  49.2679753  46.3545530 119.0073221  48.7150793  47.0426436
 119.8734526  48.6637886  45.8020530 117.2064632  59.7277248  53.4500548
 117.9074091  60.3613731  53.6029942 116.7359747  60.0691979  52.6896187
 112.8032350  59.2613603  50.3831651 113.3885787  58.5157291  50.5159555
 112.6057188  59.5717560  51.2668315 115.6571005  62.2964850  45.3994093
 114.9881380  62.7810978  44.9158133 115.5183875  62.5434071  46.3137472
 107.3950005  51.8319203  49.1036094 107.4334104  51.2982794  49.8973212
 106.8890297  51.3054409  48.4847071 119.7976274  64.3308594  51.9976751
 120.3494582  64.4940215  52.7625837 120.1382467  64.9213032  51.3256776
 114.7740767  46.6783744  52.5998636 114.8382093  47.5398574  52.1876034
 114.7107887  46.0657745  51.8670995 114.2493039  48.7506876  56.2471670
 114.8765078  48.3683953  56.8609195 113.3920958  48.5321078  56.6127363
 111.0258582  50.5583305  42.1790025 111.3212023  49.6493984  42.1257079
 110.1246618  50.5371045  41.8571028 114.5552829  48.6339302  48.1617574
 113.8339415  49.2475269  48.0225047 115.3446085  49.1697067  48.0834220
 117.3579143  45.9693728  54.4358226 117.8813544  46.2156025  55.1984535
 117.1391476  46.8013763  54.0161363 112.7546424  48.2397403  42.3029350
 112.4259130  47.3594782  42.1204456 113.1085794  48.1845072  43.1905740
 115.8688247  48.5270373  42.6704828 116.2084319  49.0556294  41.9483436
 116.3160367  48.8650779  43.4463395 118.5631688  46.9107423  52.1207896
 118.2228508  46.1115236  52.5228576 117.8570694  47.2109134  51.5484729
 119.2148160  43.9956736  50.5735219 120.0374229  43.5217214  50.4514109
 119.4586223  44.7747220  51.0733905 117.8556394  47.0244994  40.8698121
 118.5764757  47.4026247  40.3661838 117.2321698  47.7433871  40.9733099
 116.7386738  50.6875856  48.3827198 116.5931319  51.0016160  49.2751479
 116.2611942  51.3060757  47.8298096 118.5983121  47.6778404  48.4308087
 118.5844690  46.7819498  48.0940385 119.3155549  47.6849068  49.0646373
 120.4509252  48.1115745  50.4761215 120.1927030  49.0332815  50.4745545
 119.9194292  47.7146179  51.1661679 111.2132400  53.2281201  51.3214859
 110.6685869  54.0041009  51.4535133 112.0911750  53.5752005  51.1633980
 118.0020017  46.5592785  43.6995657 118.1235928  45.6309431  43.8986545
 117.7122059  46.5731471  42.7873973 120.8711207  44.2447695  46.8362377
 120.8932904  44.3087028  45.8814357 121.2879266  43.4052204  47.0302883
 111.9998422  52.3551097  54.2145016 111.2580158  52.5033732  54.8009646
 111.6791167  52.6159363  53.3511765 119.9442085  61.8967075  54.0125406
 120.2529211  61.6516222  54.8848105 120.7417567  62.1013714  53.5244276
 119.9662697  64.0504985  46.2430782 119.5267687  63.5581364  46.9363639
 120.7170814  63.5077953  46.0022858 112.4455036  60.2416526  46.2455410
 113.2713056  59.9420298  45.8654054 112.0949088  59.4724148  46.6945199
 117.4136569  59.5942994  48.3153084 116.7916578  58.9313699  48.0155312
 118.0841436  59.6204126  47.6326732 110.6463641  58.1602852  47.2044344
 109.8095549  57.7325027  47.0228345 110.6187286  58.3535296  48.1415135
 117.4861097  48.0724782  57.9085590 117.5349252  48.9486905  57.5263360
 118.0283611  47.5302175  57.3357233 116.9750076  58.1446917  41.7911545
 117.1238196  58.8282382  41.1378217 117.7816520  58.1252007  42.3061000
 119.7160385  48.8256154  54.6631949 118.8463694  49.1189721  54.3914537
 119.9519865  49.4096599  55.3839212 114.7302709  54.1712095  42.7972613
 114.4848751  53.2674425  42.9952824 114.8998624  54.1729245  41.8552091
 113.9998357  49.9040453  40.2958775 113.3067602  49.9784808  39.6398811
 113.7550108  49.1400796  40.8180292 120.4745482  60.6395048  39.2623292
 119.9019449  61.2585235  38.8093764 121.0478275  61.1894410  39.7963214
 119.0435197  49.9005837  36.5394230 118.1366653  49.6038950  36.6156943
 119.3211178  49.6035655  35.6728516 109.9613138  51.2212200  46.9893276
 109.6415922  50.3677509  46.6967650 109.4146566  51.4360779  47.7451243
 113.7393045  53.9374641  50.7062783 113.9579055  54.8691749  50.7250816
 114.1518819  53.5782616  51.4917586 120.6597263  44.4442727  42.6938471
 119.8497991  44.0989812  43.0693717 121.3481680  44.1350270  43.2826083
 118.6120910  49.5107847  60.0965532 118.5117637  50.4602204  60.0277623
 118.3942453  49.1826086  59.2241602 117.8133982  46.7592772  36.6806209
 118.6753146  47.0847671  36.9402026 117.9984326  45.9724268  36.1679275
 109.8301398  54.8415112  48.9586398 109.1364869  54.4269065  48.4456352
 110.5774389  54.8835648  48.3619817 118.4752181  52.9404986  58.9130593
 117.9919262  53.7405346  59.1194482 118.5613120  52.9512931  57.9598037
 111.7438140  54.7733366  46.8352413 111.7208828  54.8721053  45.8834296
 112.0538777  55.6198516  47.1569579 114.4025518  56.8309521  50.9499027
 115.3568772  56.7993463  50.8828959 114.2038042  56.3700144  51.7649253
 114.9924900  55.4010637  53.5169825 115.8117789  55.8954715  53.5404662
 115.2661708  54.4842605  53.4887392 112.7575747  62.3729140  47.9669225
 112.6230215  61.6129541  47.4007223 112.3407809  63.0970040  47.4998014
 115.9144873  63.2698457  48.1787668 115.7977257  64.2143890  48.0766358
 115.0937319  62.9672019  48.5673467 110.2459814  49.7348771  54.2162022
 110.8918678  49.2247725  54.7049247 110.0376966  50.4717452  54.7905447
 118.7663425  43.9988815  39.9685918 118.7542095  44.9430655  40.1254189
 119.6586847  43.8158961  39.6745379 116.9399387  63.9226719  51.3943596
 117.8426634  63.9550329  51.7110091 116.7136757  62.9927170  51.4089932
 118.6952989  62.6757706  48.0553675 117.7448620  62.6759567  47.9418047
 118.9985475  61.9290440  47.5389709 114.5857305  46.8816388  58.3137036
 115.4488767  46.5253193  58.5240361 114.0122716  46.5430283  59.0012440
 118.6575783  69.0810527  46.8318627 119.3446823  68.7672257  46.2439642
 118.5023912  69.9851892  46.5585878 118.2343759  67.1611121  49.1036094
 118.2727859  66.6274711  49.8973212 117.7284052  66.6346326  48.4847071
 121.4857396  73.4894770  47.2044344 120.6489304  73.0616944  47.0228345
 121.4581041  73.6827213  48.1415135 120.8006892  66.5504118  46.9893276
 120.4809676  65.6969426  46.6967650 120.2540320  66.7652696  47.7451243
 120.6695152  70.1707030  48.9586398 119.9758624  69.7560982  48.4456352
 121.4168143  70.2127566  48.3619817  95.8651835   9.8709741  30.6492419
  95.7875865  10.8217566  30.7280900  95.2613479   9.5255614  31.3067345
  93.5038665  12.6195135  34.7940621  93.7435263  13.2513659  35.4719640
  92.6607862  12.2683175  35.0805980  93.9783497   8.6443137  32.1239400
  93.3093873   9.1289265  31.6403440  93.8396367   8.8912358  33.0382778
  98.1188766  10.6786881  38.7222058  98.6707074  10.8418502  39.4871143
  98.4594959  11.2691319  38.0502083  91.0788239   8.7207427  34.6914531
  90.9442707   7.9607828  34.1252530  90.6620301   9.4448327  34.2243320
  94.2357365   9.6176744  34.9032974  94.1189749  10.5622177  34.8011664
  93.4149811   9.3150306  35.2918773  95.2611879  10.2705006  38.1188903
  96.1639126  10.3028617  38.4355398  95.0349249   9.3405457  38.1335238
 109.5607881  14.8123959  35.7806268 109.2226392  14.6965024  34.8926803
 110.4297649  14.4115124  35.7607274 105.4194697  16.6659436  31.7703159
 104.8559562  16.5749373  31.0019447 105.3047092  15.8459340  32.2505652
 110.0427664  15.9658811  41.7392474 110.0316305  15.5711609  40.8672977
 110.2048303  15.2324884  42.3326245 102.9659129  18.1610627  34.6087380
 103.7580420  17.8201452  34.1933679 103.2055779  18.2705602  35.5289533
 110.9994255  20.3330403  27.0817624 110.3482235  20.9184484  26.6951638
 111.7938618  20.8636598  27.1412662 104.9249882  17.4219541  27.4804758
 105.6980758  16.8748528  27.3417634 105.2775281  18.2863790  27.6919220
 106.7634925  18.7495923  40.6871658 106.4724791  19.6541554  40.5718324
 107.3991909  18.7912451  41.4015727 107.6891132  16.1272771  37.2773017
 108.2854704  15.9028794  36.5629980 107.7466103  15.3857517  37.8798465
 106.9812449  15.4840313  27.3147583 106.8648707  14.8085216  27.9828668
 107.0914709  14.9972687  26.4979736 109.3243990  14.9450460  31.0194273
 108.9602197  14.4181081  31.7307194 110.1811106  14.5548929  30.8460758
 111.7224810  18.4357338  37.6821451 111.4225533  19.3382377  37.5737259
 111.3775870  18.1689522  38.5342604 105.1737292  14.8871135  33.7158156
 104.2487788  14.7547349  33.9235848 105.4221705  15.6665355  34.2128098
 102.5346103  14.5304409  34.5501945 102.6638484  14.7838888  35.4641357
 101.8543554  15.1232117  34.2306600 106.7045590  25.2001659  30.6492419
 106.6269620  26.1509484  30.7280900 106.1007233  24.8547531  31.3067345
 107.4509192  15.1814978  42.8671753 108.1923876  15.7200022  42.5906577
 106.7446177  15.8081266  43.0243305 112.9264532  17.3244118  41.4643915
 113.3347888  16.8826529  40.7198547 112.2041793  16.7496746  41.7178107
 113.2493346  17.8845309  35.2196203 112.6202209  18.0491023  34.5172271
 112.8619008  18.2986918  35.9907167 117.1282578  18.8199746  32.5740567
 116.4433616  19.1998648  32.0237601 117.2126427  19.4295073  33.3072515
 114.3833510  16.4659706  39.1735911 114.5950405  17.1091465  38.4970292
 114.3363258  15.6322022  38.7057841 108.8021308  17.6219717  32.4846289
 109.2659654  17.9007420  31.6950911 108.5378106  16.7203161  32.3019379
 105.6945389  17.1691198  35.4226052 106.2646746  17.5978467  34.7843536
 106.2853501  16.8873783  36.1210237 101.4815528  12.0026422  34.5952987
 100.6914582  12.2583950  34.1193098 101.9726776  12.8174760  34.7005028
 115.4979338  19.3431661  37.3458268 116.3196781  18.9411848  37.0640950
 115.4941741  19.2399895  38.2974384 103.4330274  12.3671001  31.5536464
 102.6361437  12.4789695  32.0719960 103.2055866  12.7057653  30.6877354
 109.2635941  18.8915704  39.5018979 109.3280374  19.3536111  40.3377150
 108.5546865  18.2613069  39.6301288  99.7653231  12.2556912  37.0267978
 100.0161270  13.1403922  37.2925554 100.3012780  12.0761514  36.2543070
 108.9783959  20.5583812  29.3697959 108.8429634  21.4035347  29.7982807
 109.5193771  20.7603089  28.6063893 102.4313356  18.0759250  29.9425884
 102.9437877  18.8702500  30.0931449 103.0836069  17.3785540  29.8759485
 104.2408241  21.1925006  32.0248637 104.4174869  22.1142971  31.8369621
 105.0365074  20.8783425  32.4543017 103.5260597  13.2389638  41.9010800
 103.4114113  12.3374895  42.2017899 102.6705115  13.4853335  41.5495617
 110.6052435  21.1807378  43.4998301 110.1616289  20.3943757  43.1819205
 111.2669649  21.3686529  42.8342192 105.3639556  22.7103180  38.0258979
 105.9146981  22.5820243  37.2535973 104.5251032  23.0098069  37.6753872
 112.7033673  21.4610178  41.5279702 112.6852149  22.2819059  41.0359971
 113.6253593  21.3364253  41.7529843 109.1606727  18.9754308  42.3703211
 109.6935064  18.2142596  42.1402519 108.6320809  18.6827959  43.1127365
 100.3962273  16.4047904  30.7185455 101.2337495  16.8144912  30.5019162
 100.5740541  15.4647346  30.6885648 110.5259440  18.1040300  29.8822023
 109.9980802  17.3693060  29.5695260 110.0246943  18.8814976  29.6361991
 115.5052286  16.2989321  34.9989069 114.8475961  16.9888582  35.0869198
 116.3092685  16.6885753  35.3423055 111.5780119  24.6318018  25.8053682
 110.9041818  24.9349714  26.4138640 111.9645941  25.4347098  25.4559139
 115.0819541  19.6339695  31.1772153 114.6281868  18.7930605  31.2337344
 114.4513508  20.2701093  31.5146933 113.5252480  21.4716191  32.1121971
 113.8175455  22.0321249  31.3934337 114.0351101  21.7644752  32.8675131
 100.4188444  13.7438619  31.3896188 100.2212844  13.1507980  30.6647255
  99.8635108  13.4390830  32.1072127 108.4886106  22.2496543  33.2015425
 108.4462284  22.4757389  32.2723957 109.4048804  22.0159917  33.3501226
 117.6918856  17.9075573  35.8156654 118.1255363  17.8150862  36.6639708
 118.4050437  17.8833073  35.1776670 106.6051906  19.1259572  32.9977387
 107.3992505  18.6309892  32.7959962 105.8943599  18.5977435  32.6345093
 111.4246751  21.5077667  37.3489755 111.4783773  22.0768603  38.1167471
 110.5561532  21.6779552  36.9843792 102.9134670  13.2702653  29.0737140
 101.9832258  13.2087109  29.2907102 103.0092142  12.7478606  28.2773781
 118.5534405  17.9499274  38.3489540 118.7470296  18.8545084  38.5948815
 118.4535024  17.4906693  39.1828125 113.6149514  18.1006016  43.9230420
 113.4635021  17.8716568  43.0060504 113.6054194  19.0576618  43.9361765
 110.3834851  15.6737929  38.9076687 111.3126911  15.8249089  38.7345654
 109.9625881  15.7621950  38.0525333 109.1823182  19.6988594  36.6775224
 109.0434268  19.3307378  37.5501163 108.3937779  20.2136233  36.5059182
 109.7771334  24.7997690  28.0200761 109.9523090  24.3285733  28.8346384
 109.0904122  25.4263456  28.2482022 110.7328398  19.0770196  34.0664062
 110.3978230  19.0370966  34.9621712 110.2332343  18.4114912  33.5934472
 104.7072641  14.4837826  39.5916643 104.5692439  13.7518065  40.1928182
 105.6177565  14.3946726  39.3100831 107.3354942  14.1957786  39.0800323
 108.0454561  13.5550978  39.0386941 107.2924250  14.4470680  40.0026504
 115.3241721  21.1325139  42.0006902 115.2654267  20.4484359  41.3337485
 115.7261239  21.8744129  41.5487528 104.3432420  27.9487053  34.7940621
 104.5829018  28.5805577  35.4719640 103.5001616  27.5975093  35.0805980
 115.3259128  19.0964723  40.2320882 114.4385907  18.7590645  40.3547281
 115.8957679  18.3647754  40.4689647  96.9788275  15.4288815  33.5563933
  97.6659315  15.1150545  32.9684949  96.8236404  16.3330179  33.2831185
 108.8560281  23.7566175  37.1982125 108.7830453  24.5621147  37.7101430
 108.4137675  23.9558141  36.3730147 108.6450061  22.9937945  30.7084947
 107.8617583  23.5359625  30.8023171 109.3442806  23.5111925  31.1079188
 111.3158965  23.6553009  39.3540284 112.0286937  24.2900474  39.2816185
 110.8248994  23.7516875  38.5380286 113.0376492  17.5604262  30.9257575
 112.1032771  17.6805724  30.7562280 113.2153160  16.6576729  30.6617585
 106.3670879  21.4047453  40.1745855 107.0680338  22.0383936  40.3275249
 105.8965994  21.7462184  39.4141494 111.1279338  23.9951753  32.1026575
 111.3101733  23.1773409  32.5654328 111.9512324  24.2119446  31.6651465
 111.4621504  22.9219938  29.3641624 111.9909270  22.4112393  28.7511786
 111.7249723  22.6062469  30.2287157 110.2159738  14.7011871  44.4864442
 109.5400375  14.6006001  45.1566817 111.0387371  14.5451085  44.9500439
 101.9638597  20.9383808  37.1076957 102.5492033  20.1927496  37.2404862
 101.7663435  21.2487764  37.9913621 104.8177252  23.9735055  32.1239400
 104.1487627  24.4581183  31.6403440 104.6790122  24.2204276  33.0382778
  96.5556251  13.5089408  35.8281400  96.5940351  12.9752999  36.6218519
  96.0496544  12.9824613  35.2092378 108.9582520  26.0078799  38.7222058
 109.5100828  26.1710420  39.4871143 109.2988714  26.5983236  38.0502083
 113.8093395  20.8340056  44.5770712 114.3533299  21.4470014  44.0825667
 113.2280240  21.3919635  45.0937726 100.1864829  12.2353510  28.9035332
 100.4818270  11.3264189  28.8502386  99.2852865  12.2141250  28.5816334
 112.0950908  23.9560774  35.7085740 111.9702047  23.1550514  35.1996686
 112.7529999  24.4506968  35.2199710 114.1585816  21.7569794  37.3365290
 113.2116152  21.6375145  37.2643617 114.5068589  20.8692292  37.4191552
 111.1632249  21.5522510  33.5369643 111.0157212  20.6239218  33.7177213
 111.9885743  21.5742601  33.0526718 114.7666371  22.3751069  34.6234515
 115.6912919  22.1693931  34.4858966 114.5981675  22.1267470  35.5323857
 114.5561687  22.8936737  29.9796607 114.7298565  22.3283159  29.2270459
 115.0490579  23.6937632  29.7976097 100.3738647  14.9051406  38.0460166
  99.8292115  15.6811214  38.1780440 101.2517997  15.2522210  37.8879287
 101.1604669  14.0321302  40.9390322 100.4186405  14.1803937  41.5254953
 100.8397413  14.2929568  40.0757072 109.1048332  23.5737280  40.7370712
 109.4135458  23.3286427  41.6093412 109.9023814  23.7783919  40.2489583
 109.1268944  25.7275190  32.9676089 108.6873934  25.2351569  33.6608946
 109.8777061  25.1848158  32.7268164 101.6061283  21.9186731  32.9700717
 102.4319303  21.6190503  32.5899361 101.2555335  21.1494353  33.4190506
 106.5742816  21.2713199  35.0398391 105.9522825  20.6083904  34.7400619
 107.2447683  21.2974331  34.3572038  99.8069888  19.8373057  33.9289651
  98.9701796  19.4095232  33.7473652  99.7793533  20.0305501  34.8660442
 117.1322189  20.2936110  43.9132034 116.3417733  20.2760249  43.3736533
 116.8955544  20.8324404  44.6681070 106.1356323  19.8217122  28.5156851
 106.2844443  20.5052587  27.8623524 106.9422766  19.8022212  29.0306307
 118.7538261  19.5625518  41.4706784 118.4623069  19.9255499  42.3070245
 118.1410392  18.8492526  41.2920116 103.8908956  15.8482300  29.5217920
 103.6454998  14.9444630  29.7198130 104.0604870  15.8499450  28.5797398
 109.6351728  22.3165253  25.9868599 109.0625695  22.9355440  25.5339070
 110.2084522  22.8664614  26.5208521 109.9037219  17.7043812  44.7885308
 110.8240229  17.8822411  44.9825355 109.8686802  16.7599857  44.6365007
  99.1219384  12.8982405  33.7138583  98.8022169  12.0447714  33.4212957
  98.5752813  13.1130983  34.4696550 102.8999292  15.6144846  37.4308089
 103.1185302  16.5461954  37.4496123 103.3125066  15.2552821  38.2162893
  98.9907644  16.5185317  35.6831704  98.2971116  16.1039270  35.1701659
  99.7380635  16.5605853  35.0865123 107.6358427  14.6175191  45.6375900
 107.1525509  15.4175551  45.8439789 107.7219366  14.6283136  44.6843344
 100.9044387  16.4503571  33.5597719 100.8815075  16.5491258  32.6079602
 101.2145023  17.2968721  33.8814885 103.5631765  18.5079726  37.6744334
 104.5175018  18.4763668  37.6074265 103.3644288  18.0470349  38.4894560
 104.1531147  17.0780842  40.2415131 104.9724036  17.5724920  40.2649969
 104.4267955  16.1612810  40.2132699 101.9181994  24.0499345  34.6914531
 101.7836462  23.2899746  34.1252530 101.5014056  24.7740245  34.2243320
 105.0751119  24.9468662  34.9032974 104.9583504  25.8914095  34.8011664
 104.2543566  24.6442224  35.2918773  99.4066061  11.4118976  40.9407328
 100.0524925  10.9017930  41.4294554  99.1983212  12.1487657  41.5150754
 111.9319453  18.4799823  46.4399469 112.8010613  18.6540475  46.0786104
 111.4526205  19.2994240  46.3175198 106.1005634  25.5996924  38.1188903
 107.0032880  25.6320534  38.4355398 105.8743004  24.6697375  38.1335238
 107.8559236  24.3527911  34.7798981 106.9054867  24.3529772  34.6663353
 108.1591722  23.6060645  34.2635016 120.4001635  30.1415877  35.7806268
 120.0620147  30.0256942  34.8926803 121.2691404  29.7407042  35.7607274
 116.2588451  31.9951353  31.7703159 115.6953316  31.9041290  31.0019447
 116.1440846  31.1751258  32.2505652 120.8821418  31.2950729  41.7392474
 120.8710059  30.9003527  40.8672977 121.0442058  30.5616801  42.3326245
 113.8052883  33.4902545  34.6087380 114.5974175  33.1493370  34.1933679
 114.0449533  33.5997520  35.5289533 115.7643637  32.7511458  27.4804758
 116.5374513  32.2040445  27.3417634 116.1169036  33.6155708  27.6919220
 117.6028679  34.0787841  40.6871658 117.3118545  34.9833471  40.5718324
 118.2385664  34.1204368  41.4015727 117.8206203  30.8132230  27.3147583
 117.7042462  30.1377134  27.9828668 117.9308463  30.3264604  26.4979736
 120.1637744  30.2742377  31.0194273 119.7995952  29.7472998  31.7307194
 121.0204860  29.8840847  30.8460758 116.0131046  30.2163053  33.7158156
 115.0881543  30.0839267  33.9235848 116.2615459  30.9957272  34.2128098
 113.3739857  29.8596326  34.5501945 113.5032238  30.1130805  35.4641357
 112.6937308  30.4524034  34.2306600 117.5439344  40.5293576  30.6492419
 117.4663374  41.4801402  30.7280900 116.9400988  40.1839449  31.3067345
 120.0356574  27.7021442  43.3053786 119.2589908  28.2615362  43.2956651
 120.6747137  28.1878225  43.8268656 120.1189356  27.5908642  38.8377472
 120.9650551  28.0148056  38.9812121 120.0587994  26.9342267  39.5316035
 119.6415063  32.9511634  32.4846289 120.1053408  33.2299337  31.6950911
 119.3771861  32.0495079  32.3019379 116.5339144  32.4983116  35.4226052
 117.1040501  32.9270384  34.7843536 117.1247256  32.2165701  36.1210237
 118.5783949  29.0734787  29.2935854 119.2807992  29.5255830  29.7609780
 118.2464577  28.4318606  29.9215747 117.0264310  27.6646543  43.6687063
 116.3962971  28.3462824  43.9022460 116.9200398  27.5529625  42.7240201
 112.3209283  27.3318339  34.5952987 111.5308337  27.5875868  34.1193098
 112.8120530  28.1466677  34.7005028 114.2724028  27.6962919  31.5536464
 113.4755191  27.8081613  32.0719960 114.0449620  28.0349571  30.6877354
 120.1029696  34.2207622  39.5018979 120.1674128  34.6828029  40.3377150
 119.3940620  33.5904987  39.6301288 110.6046986  27.5848830  37.0267978
 110.8555024  28.4695840  37.2925554 111.1406534  27.4053431  36.2543070
 119.8177713  35.8875729  29.3697959 119.6823388  36.7327265  29.7982807
 120.3587526  36.0895007  28.6063893 116.3045053  21.9667309  46.0312314
 115.9111998  21.4133508  46.7059958 117.1211193  22.2777888  46.4218832
 113.2707111  33.4051167  29.9425884 113.7831631  34.1994418  30.0931449
 113.9229824  32.7077458  29.8759485 115.0801995  36.5216924  32.0248637
 115.2568624  37.4434888  31.8369621 115.8758829  36.2075343  32.4543017
 119.2213014  23.3825188  43.6232571 119.9622727  23.9832341  43.5437033
 119.4530937  22.6402826  43.0650613 116.2033311  38.0395098  38.0258979
 116.7540736  37.9112161  37.2535973 115.3644787  38.3389987  37.6753872
 120.0000482  34.3046225  42.3703211 120.5328819  33.5434514  42.1402519
 119.4714563  34.0119877  43.1127365 111.2356027  31.7339822  30.7185455
 112.0731249  32.1436830  30.5019162 111.4134295  30.7939264  30.6885648
 118.4909603  21.8649676  34.8712267 119.3562600  21.6692485  34.5118157
 118.5587112  21.6360028  35.7981624 121.3653195  33.4332218  29.8822023
 120.8374556  32.6984977  29.5695260 120.8640697  34.2106894  29.6361991
 116.0971922  24.0951884  32.2428634 116.6715674  23.8727066  31.5101827
 116.6842905  24.1640579  32.9957235 111.2582199  29.0730537  31.3896188
 111.0606598  28.4799898  30.6647255 110.7028863  28.7682747  32.1072127
 119.2378922  28.9653644  33.5090781 119.2927532  28.0127480  33.4333258
 118.4270124  29.1213083  33.9932080 117.1771282  27.5830703  31.2681160
 116.3639148  27.8824874  31.6746352 117.6730276  27.1886392  31.9855642
 119.3279860  37.5788460  33.2015425 119.2856039  37.8049307  32.2723957
 120.2442559  37.3451835  33.3501226 116.6685357  25.1549059  36.8842395
 117.3084736  25.0137818  36.1865358 115.8362887  24.8683572  36.5080997
 117.4445661  34.4551489  32.9977387 118.2386259  33.9601809  32.7959962
 116.7337353  33.9269352  32.6345093 113.7528424  28.5994571  29.0737140
 112.8226012  28.5379026  29.2907102 113.8485896  28.0770524  28.2773781
 113.6713973  25.1249384  31.6615382 113.9320791  26.0394717  31.5524542
 114.4931146  24.6573826  31.8111995 115.1438899  26.5387141  38.8314206
 115.8161952  26.3304503  38.1826855 114.3168685  26.3409227  38.3919439
 120.0216937  35.0280511  36.6775224 119.8828023  34.6599296  37.5501163
 119.2331533  35.5428151  36.5059182 120.6165089  40.1289608  28.0200761
 120.7916845  39.6577651  28.8346384 119.9297877  40.7555374  28.2482022
 121.5722152  34.4062114  34.0664062 121.2371985  34.3662884  34.9621712
 121.0726098  33.7406830  33.5934472 115.5466396  29.8129744  39.5916643
 115.4086194  29.0809983  40.1928182 116.4571319  29.7238644  39.3100831
 118.1748697  29.5249703  39.0800323 118.8848315  28.8842895  39.0386941
 118.1318005  29.7762598  40.0026504 116.8877631  26.5114921  40.8995963
 116.3514988  26.0605660  41.5517559 116.2994339  26.6460830  40.1566427
 115.1826174  43.2778970  34.7940621 115.4222772  43.9097495  35.4719640
 114.3395371  42.9267010  35.0805980 107.8182030  30.7580732  33.5563933
 108.5053070  30.4442462  32.9684949 107.6630158  31.6622097  33.2831185
 112.6216752  25.6470929  37.9848957 112.5374941  25.0396598  37.2499367
 111.7999458  26.1379947  37.9858453 119.6954036  39.0858093  37.1982125
 119.6224207  39.8913064  37.7101430 119.2531429  39.2850059  36.3730147
 119.4843816  38.3229863  30.7084947 118.7011337  38.8651543  30.8023171
 120.1836561  38.8403843  31.1079188 119.3775434  26.2741875  33.0790837
 119.0073222  25.7212916  33.7671742 119.8734527  25.6700009  32.5265837
 117.2064633  36.7339370  40.1745855 117.9074093  37.3675853  40.3275249
 116.7359748  37.0754102  39.4141494 112.8032351  36.2675725  37.1076957
 113.3885788  35.5219413  37.2404862 112.6057190  36.5779682  37.9913621
 115.6571006  39.3026973  32.1239400 114.9881382  39.7873100  31.6403440
 115.5183876  39.5496193  33.0382778 107.3950006  28.8381326  35.8281400
 107.4334105  28.3044916  36.6218519 106.8890299  28.3116531  35.2092378
 119.7976275  41.3370716  38.7222058 120.3494583  41.5002338  39.4871143
 120.1382468  41.9275154  38.0502083 114.7740768  23.6845866  39.3243943
 114.8382095  24.5460697  38.9121340 114.7107888  23.0719868  38.5916301
 114.2493041  25.7568999  42.9716977 114.8765079  25.3746076  43.5854501
 113.3920959  25.5383201  43.3372670 111.0258583  27.5645428  28.9035332
 111.3212024  26.6556106  28.8502386 110.1246619  27.5433167  28.5816334
 114.5552830  25.6401424  34.8862880 113.8339416  26.2537392  34.7470354
 115.3446086  26.1759189  34.8079526 117.3579144  22.9755851  41.1603532
 117.8813546  23.2218147  41.9229842 117.1391477  23.8075886  40.7406670
 112.7546425  25.2459525  29.0274657 112.4259131  24.3656904  28.8449763
 113.1085796  25.1907194  29.9151046 115.8688248  25.5332495  29.3950135
 116.2084321  26.0618417  28.6728743 116.3160369  25.8712901  30.1708701
 118.5631689  23.9169546  38.8453203 118.2228509  23.1177359  39.2473883
 117.8570695  24.2171257  38.2730036 119.2148161  21.0018858  37.2980526
 120.0374230  20.5279337  37.1759416 119.4586224  21.7809342  37.7979212
 116.7386740  27.6937979  35.1072504 116.5931320  28.0078282  35.9996786
 116.2611943  28.3122879  34.5543403 118.5983122  24.6840527  35.1553394
 118.5844691  23.7881620  34.8185692 119.3155551  24.6911191  35.7891680
 120.4509253  25.1177867  37.2006521 120.1927031  26.0394938  37.1990852
 119.9194294  24.7208302  37.8906985 111.2132402  30.2343323  38.0460166
 110.6685870  31.0103131  38.1780440 112.0911752  30.5814128  37.8879287
 111.9998424  29.3613220  40.9390322 111.2580160  29.5095855  41.5254953
 111.6791168  29.6221485  40.0757072 119.9442086  38.9029198  40.7370712
 120.2529213  38.6578345  41.6093412 120.7417568  39.1075836  40.2489583
 119.9662698  41.0567108  32.9676089 119.5267689  40.5643486  33.6608946
 120.7170815  40.5140075  32.7268164 112.4455037  37.2478648  32.9700717
 113.2713057  36.9482420  32.5899361 112.0949089  36.4786271  33.4190506
 117.4136570  36.6005117  35.0398391 116.7916580  35.9375822  34.7400619
 118.0841437  36.6266249  34.3572038 110.6463642  35.1664975  33.9289651
 109.8095551  34.7387149  33.7473652 110.6187288  35.3597418  34.8660442
 117.4861098  25.0786905  44.6330897 117.5349253  25.9549027  44.2508666
 118.0283612  24.5364298  44.0602540 116.9750077  35.1509040  28.5156851
 117.1238198  35.8344504  27.8623524 117.7816521  35.1314130  29.0306307
 119.7160386  25.8318277  41.3877255 118.8463696  26.1251843  41.1159844
 119.9519867  26.4158722  42.1084519 114.7302710  31.1774218  29.5217920
 114.4848752  30.2736548  29.7198130 114.8998625  31.1791368  28.5797398
 113.9998358  26.9102575  27.0204082 113.3067603  26.9846930  26.3644118
 113.7550110  26.1462919  27.5425598 120.4745483  37.6457170  25.9868599
 119.9019450  38.2647358  25.5339070 121.0478277  38.1956532  26.5208521
 109.9613139  28.2274323  33.7138583 109.6415923  27.3739631  33.4212957
 109.4146567  28.4422901  34.4696550 113.7393046  30.9436764  37.4308089
 113.9579056  31.8753872  37.4496123 114.1518820  30.5844738  38.2162893
 118.6120912  26.5169970  46.8210838 118.5117639  27.4664327  46.7522929
 118.3942454  26.1888209  45.9486908 109.8301399  31.8477234  35.6831704
 109.1364870  31.4331187  35.1701659 110.5774390  31.8897771  35.0865123
 118.4752182  29.9467109  45.6375900 117.9919263  30.7467469  45.8439789
 118.5613121  29.9575053  44.6843344 111.7438141  31.7795488  33.5597719
 111.7208830  31.8783176  32.6079602 112.0538778  32.6260639  33.8814885
 112.7575748  39.3791263  34.6914531 112.6230216  38.6191664  34.1252530
 112.3407810  40.1032163  34.2243320 115.9144874  40.2760580  34.9032974
 115.7977258  41.2206012  34.8011664 115.0937320  39.9734141  35.2918773
 110.2459816  26.7410893  40.9407328 110.8918679  26.2309847  41.4294554
 110.0376967  27.4779575  41.5150754 116.9399388  40.9288842  38.1188903
 117.8426635  40.9612452  38.4355398 116.7136758  39.9989293  38.1335238
 118.6952990  39.6819828  34.7798981 117.7448621  39.6821690  34.6663353
 118.9985476  38.9352563  34.2635016 114.5857307  23.8878510  45.0382343
 115.4488768  23.5315315  45.2485667 114.0122717  23.5492405  45.7257747
 118.6575784  46.0872650  33.5563933 119.3446824  45.7734380  32.9684949
 118.5023913  46.9914015  33.2831185 118.2343760  44.1673243  35.8281400
 118.2727860  43.6336834  36.6218519 117.7284053  43.6408449  35.2092378
 121.4857397  50.4956893  33.9289651 120.6489305  50.0679067  33.7473652
 121.4581042  50.6889336  34.8660442 120.8006893  43.5566241  33.7138583
 120.4809678  42.7031549  33.4212957 120.2540322  43.7714819  34.4696550
 120.6695153  47.1769152  35.6831704 119.9758625  46.7623105  35.1701659
 121.4168144  47.2189689  35.0865123   3.1842567  55.2901858 105.4581839
   2.5104265  55.5933555 106.0666797   3.5708389  56.0930939 105.1087296
   7.1499307  52.8687342 106.7321662   7.8450212  53.4894034 106.9508977
   7.4922458  52.0182693 107.0074040   1.2414176  52.9749093 105.6396756
   0.6688143  53.5939281 105.1867228   1.8146970  53.5248455 106.1736678
   4.4611436  53.2586244 106.7705338   5.3942109  53.1931805 106.9738214
   4.3734649  54.0942510 106.3119871   7.0899452  52.5752114 103.7309286
   7.0113084  52.2411978 104.6245043   7.9109119  53.0673882 103.7300758
   4.6603404  49.8920109 103.3519264   5.3639254  50.0970112 103.9676919
   3.9366053  50.4596871 103.6168347   6.5690102  50.3302639 105.4017724
   7.4035705  49.8983837 105.2195199   6.4074444  50.1584652 106.3294618
  15.1974377  60.8472290 115.4972901  15.8352787  60.7279037 114.7936241
  15.0795220  61.7953134 115.5560853   7.8650899  62.6535194 111.4231316
   7.3015764  62.5625131 110.6547604   7.7503294  61.8335099 111.9033809
  13.4450457  66.3206162 106.7345781  12.7938437  66.9060242 106.3479795
  14.2394820  66.8512357 106.7940819   7.3706084  63.4095299 107.1332916
   8.1436960  62.8624286 106.9945791   7.7231483  64.2739548 107.3447377
   9.7072362  59.5687965 104.7651365   9.9597883  59.0469486 104.0034828
   8.7696921  59.4054111 104.8678049  14.7515645  58.5723743 112.5726109
  15.5378734  58.1543167 112.2216526  15.0154349  59.4769836 112.7407757
  14.9225722  64.0096594 107.2714766  14.2871555  64.0831220 107.9835670
  14.5923129  64.5990193 106.5933845  20.1524072  58.5098977 113.4759087
  20.8849244  57.9398193 113.7096917  19.3963428  58.1220577 113.9165593
   9.4268651  61.4716071 106.9675740   9.3104909  60.7960974 107.6356825
   9.5370911  60.9848445 106.1507893  11.7700192  60.9326218 110.6722430
  11.4058399  60.4056839 111.3835351  12.6267308  60.5424687 110.4988915
  11.4105679  55.9616118 105.6683778  11.5780081  56.8296354 106.0354249
  11.2202848  56.1243400 104.7445067  11.3894900  58.4173775 106.6530445
  11.2694525  58.8630826 107.4915925  10.6947488  58.7659093 106.0943983
   9.1501792  71.1877417 110.3020576   9.0725822  72.1385242 110.3809057
   8.5463436  70.8423290 110.9595503  17.0879966  58.8895249 107.4810779
  17.9997822  59.1222635 107.3058477  16.5789613  59.4732293 106.9185858
  15.6949548  63.8721067 114.8724361  15.0658411  64.0366781 114.1700428
  15.3075210  64.2862677 115.6435325  19.5738780  64.8075505 112.2268724
  18.8889818  65.1874406 111.6765758  19.6582630  65.4170832 112.9600672
  11.2477510  63.6095475 112.1374446  11.7115856  63.8883178 111.3479068
  10.9834308  62.7078920 111.9547536  10.1846396  59.7318627 108.9464011
  10.8870440  60.1839671 109.4137937   9.8527025  59.0902446 109.5743904
  17.9435540  65.3307419 116.9986425  18.7652983  64.9287607 116.7169107
  17.9397943  65.2275653 117.9502541  26.0341533  61.6746168 113.3471397
  25.2805241  61.1053566 113.1915401  26.1689074  61.6408832 114.2942031
  11.4240161  66.5459570 109.0226116  11.2885836  67.3911106 109.4510964
  11.9649973  66.7478848 108.2592050   4.8769558  64.0635008 109.5954041
   5.3894079  64.8578258 109.7459606   5.5292271  63.3661299 109.5287643
   6.6864443  67.1800764 111.6776794   6.8631071  68.1018729 111.4897778
   7.4821276  66.8659184 112.1071174   2.8418475  62.3923662 110.3713612
   3.6793697  62.8020671 110.1547319   3.0196743  61.4523105 110.3413805
  14.7382907  60.0598743 106.0597445  14.2229531  60.8303348 106.2985832
  14.4660216  59.3863879 106.6830506  12.3230018  54.9048444 111.1182683
  11.4671615  54.5155294 110.9388322  12.7356970  54.9840405 110.2582468
  19.7117181  62.8131098 107.9950618  18.9346624  62.4742257 107.5505780
  20.3908662  62.8183721 107.3205583  14.5269210  57.9325835 107.8857226
  14.2219346  58.2471984 108.7367369  15.4799652  58.0107255 107.9284559
  12.9715642  64.0916058 109.5350180  12.4437004  63.3568818 109.2223417
  12.4703145  64.8690735 109.2890148  17.9508488  62.2865079 114.6517226
  17.2932163  62.9764340 114.7397355  18.7548887  62.6761511 114.9951212
  16.7613947  60.6409452 112.7021168  17.2745829  61.2739444 113.2042878
  17.4115171  60.0410647 112.3364528   8.0303957  56.7840186 105.9152677
   7.1941269  57.1214872 106.2361951   7.8908727  56.6489166 104.9779813
  11.1168242  61.9096269 102.5385153  10.2095304  61.6785522 102.7376302
  11.6139274  61.1133888 102.7259134  14.0236321  70.6193776 105.4581839
  13.3498020  70.9225473 106.0666797  14.4102143  71.4222856 105.1087296
  14.0229826  59.5150323 110.0782189  14.7701645  60.0271720 109.7689311
  14.2921415  59.1934376 110.9386582  12.2956476  62.0108864 107.0609143
  11.3867695  61.7267896 107.1581613  12.3251560  62.4307942 106.2012450
  17.5275743  65.6215453 110.8300310  17.0738070  64.7806363 110.8865501
  16.8969710  66.2576851 111.1675091  16.4708663  56.5507439 112.0600978
  15.7331420  56.0384825 112.3911220  16.7235436  56.1107821 111.2484255
  15.9708682  67.4591950 111.7650129  16.2631657  68.0197007 111.0462494
  16.4807303  67.7520511 112.5203288  10.8441370  59.6237484 113.1618938
  10.8989980  58.6711321 113.0861415  10.0332572  59.7796923 113.6460237
  11.9932564  63.5517607 104.3997221  11.5551994  62.8353466 103.9402859
  12.7343004  63.7793722 103.8382313   8.7833730  58.2414544 110.9209317
   7.9701595  58.5408715 111.3274509   9.2792724  57.8470233 111.6383799
  10.9342308  68.2372301 112.8543582  10.8918486  68.4633147 111.9252114
  11.8505006  68.0035675 113.0029383  20.1105678  61.8274804 110.4573540
  19.9723577  62.0176400 109.5294729  19.7541897  62.5894187 110.9141591
  20.1375058  63.8951331 115.4684812  20.5711565  63.8026620 116.3167866
  20.8506639  63.8708832 114.8304828   9.0508108  65.1135330 112.6505544
   9.8448707  64.6185650 112.4488119   8.3399801  64.5853193 112.2873250
   5.3590872  59.2578412 108.7265297   4.4288460  59.1962867 108.9435259
   5.4548344  58.7354364 107.9301938  20.9990608  63.9375032 118.0017697
  21.1926498  64.8420842 118.2476972  20.8991226  63.4782451 118.8356282
  12.2227536  70.7873448 107.6728918  12.3979292  70.3161492 108.4874541
  11.5360324  71.4139215 107.9010179  13.1784600  65.0645955 113.7192219
  12.8434432  65.0246725 114.6149869  12.6788545  64.3990671 113.2462630
  16.1143791  62.4101989 103.9929279  15.4972962  61.6848817 103.8962332
  15.6460280  63.1711349 103.6496353   7.9042337  56.6287413 103.1150583
   7.0271803  56.5076214 102.7512830   8.3800090  55.8373492 102.8629472
  11.0906263  68.9813704 110.3613104  10.3073785  69.5235384 110.4551328
  11.7899008  69.4987683 110.7607345  22.2532671  60.4948699 114.6465601
  22.2422547  61.3773414 114.2759534  21.3850050  60.1420249 114.4520138
  15.4832694  63.5480020 110.5785733  14.5488973  63.6681483 110.4090437
  15.6609362  62.6452487 110.3145742  18.8705245  59.3897340 111.1135767
  19.3365697  60.2225331 111.0396069  19.3212746  58.9242321 111.8181025
  16.9381476  65.7341161 108.1121919  17.2141320  65.6197755 109.0215793
  16.0685975  65.3358646 108.0734092  13.5735540  69.9827512 111.7554732
  13.7557935  69.1649168 112.2182485  14.3968526  70.1995204 111.3179622
  13.9077706  68.9095697 109.0169781  14.4365472  68.3988151 108.4039943
  14.1705925  68.5938227 109.8815314   2.6321031  58.2229268 108.5563489
   2.9274472  57.3139947 108.5030543   1.7309067  58.2017008 108.2344491
  14.5407110  69.9436533 115.3613897  14.4158249  69.1426272 114.8524843
  15.1986201  70.4382726 114.8727867  16.6042018  67.7445553 116.9893447
  15.6572354  67.6250904 116.9171774  16.9524791  66.8568051 117.0719709
  13.6088451  67.5398269 113.1897800  13.4613414  66.6114976 113.3705370
  14.4341945  67.5618360 112.7054875   7.4750696  56.1916336 109.0478292
   7.8146768  56.7202257 108.3256900   7.9222816  56.5296742 109.8236858
  17.2122573  68.3626828 114.2762672  18.1369121  68.1569689 114.1387124
  17.0437877  68.1143229 115.1852014   9.4618843  54.6890958 107.2471585
  10.1827205  55.0672210 106.7435301   8.8384147  55.4079834 107.3506562
  13.6049966  55.3936107 108.1829917  13.8213580  56.2760744 107.8818745
  13.1244033  55.0022320 107.4535559  17.0017889  68.8812495 109.6324764
  17.1754767  68.3158918 108.8798616  17.4946781  69.6813390 109.4504254
  22.8557281  61.6448918 111.2515064  23.2988427  60.8956243 110.8534187
  21.9783791  61.6359054 110.8688796  17.9893062  68.1979259 106.7321662
  18.6843967  68.8185952 106.9508977  18.3316212  67.3474611 107.0074040
  19.8884485  65.6478965 108.2608993  20.4135809  65.9866238 107.5358313
  19.8006838  64.7125980 108.0772128   8.5812525  65.8092881 108.1685008
   8.7300645  66.4928345 107.5151681   9.3878968  65.7897971 108.6834464
  22.3990145  63.1154156 113.6437511  23.2337037  63.5543960 113.8075072
  22.5349274  62.6392809 112.8245757   6.3365158  61.8358058 109.1746077
   6.0911200  60.9320388 109.3726287   6.5061072  61.8375209 108.2325555
   5.6060805  57.5686416 106.6732239   4.9130050  57.6430771 106.0172275
   5.3612557  56.8046760 107.1953756  12.0807930  68.3041011 105.6396756
  11.5081897  68.9231198 105.1867228  12.6540724  68.8540373 106.1736678
  15.3005190  68.5878161 106.7705338  16.2335863  68.5223723 106.9738214
  15.2128403  69.4234428 106.3119871  17.9293207  67.9044032 103.7309286
  17.8506838  67.5703895 104.6245043  18.7502874  68.3965800 103.7300758
  20.6271398  60.7705771 116.9385604  20.5947718  59.8321772 117.1245288
  21.2372022  60.8489808 116.2051429  12.4654729  59.6401824 102.9812808
  13.4113834  59.5108032 103.0501226  12.0868974  58.9016486 103.4582236
  26.4447948  61.8321778 116.0791641  27.1751336  61.5707066 116.6399344
  25.8354893  61.0950500 116.1193709  24.5263245  59.9729640 116.6766092
  23.7996409  59.8385605 116.0682584  24.1110532  60.2806469 117.4822810
  10.6497646  57.5651800 102.9167693   9.7429101  57.2684913 102.9930407
  10.9273627  57.2681618 102.0501980  12.2659712  52.1088690 109.0711935
  11.4560440  51.7635775 109.4467181  12.9544129  51.7996234 109.6599546
   9.4196431  54.4238735 103.0579673  10.2815595  54.7493634 103.3175490
   9.6046775  53.6370231 102.5452738  17.5729067  53.2967262 110.2014896
  16.9927736  53.9552066 109.8192948  17.3065000  52.4744607 109.7902313
  16.3553945  55.4567352 109.2571244  15.4679800  55.7417003 109.0391439
  16.7707934  55.2961116 108.4098521  19.7068481  55.4813873 112.9725583
  20.4828871  55.9710326 113.2450200  18.9816615  55.9071928 113.4297453
  22.1441040  56.1941493 114.0299524  22.7385531  55.9537228 113.3192832
  22.2167624  55.4748623 114.6573060  15.4997159  65.2212027 103.3519264
  16.2033009  65.4262030 103.9676919  14.7759807  65.7888789 103.6168347
  16.3294969  60.9721888 109.4721534  16.2730170  61.4290440 108.6329166
  16.8823311  60.2112573 109.2944377  20.1399775  56.7611620 110.2971654
  19.8836709  56.3608256 111.1279861  19.5152643  57.4755414 110.1721793
  24.4512113  59.5007693 112.8042945  23.8911671  59.5700883 113.5774507
  23.8455616  59.3248678 112.0842441  17.4083856  65.6594556 105.4017724
  18.2429460  65.2275755 105.2195199  17.2468199  65.4876570 106.3294618
  17.0629748  62.1626670 106.7674063  17.0078552  61.9970941 105.8262507
  16.4375803  62.8702702 106.9236253  10.3725874  51.6634779 106.3459382
  10.3604544  52.6076618 106.5027652  11.2649296  51.4804924 106.0518843
  26.0368131  76.1764207 115.4972901  26.6746541  76.0570955 114.7936241
  25.9188974  77.1245051 115.5560853  22.8457837  76.1291635 115.4334425
  22.5076349  76.0132700 114.5454960  23.7147606  75.7282801 115.4135432
  18.7044653  77.9827112 111.4231316  18.1409518  77.8917049 110.6547604
  18.5897048  77.1627016 111.9033809  24.2844212  81.6498080 106.7345781
  23.6332192  82.2352160 106.3479795  25.0788575  82.1804274 106.7940819
  18.2099839  78.7387217 107.1332916  18.9830715  78.1916204 106.9945791
  18.5625238  79.6031466 107.3447377  20.9741088  77.4440447 116.9301175
  21.5704661  77.2196470 116.2158137  21.0316060  76.7025193 117.5326622
  20.5466117  74.8979883 104.7651365  20.7991637  74.3761404 104.0034828
  19.6090676  74.7346028 104.8678049  25.5909400  73.9015661 112.5726109
  26.3772489  73.4835084 112.2216526  25.8548104  74.8061753 112.7407757
  25.7619477  79.3388511 107.2714766  25.1265310  79.4123138 107.9835670
  25.4316883  79.9282110 106.5933845  30.9917827  73.8390894 113.4759087
  31.7242999  73.2690111 113.7096917  30.2357182  73.4512495 113.9165593
  20.2662406  76.8007989 106.9675740  20.1498664  76.1252892 107.6356825
  20.3764665  76.3140363 106.1507893  22.6093946  76.2618136 110.6722430
  22.2452154  75.7348757 111.3835351  23.4661062  75.8716605 110.4988915
  28.5143247  67.5512468 117.9353696  28.1826572  68.4207879 117.7114911
  27.9188860  67.2348752 118.6147726  22.2499433  71.2908036 105.6683778
  22.4173836  72.1588272 106.0354249  22.0596603  71.4535317 104.7445067
  25.0074767  79.7525014 117.3349609  24.7075490  80.6550053 117.2265416
  24.6625826  79.4857198 118.1870761  18.4587248  76.2038811 113.3686313
  17.5337745  76.0715025 113.5764005  18.7071661  76.9833031 113.8656255
  28.4071910  72.2707555 115.0147046  27.4988788  72.2022963 114.7205807
  28.3559506  72.7479500 115.8428871  22.2288654  73.7465693 106.6530445
  22.1088280  74.1922744 107.4915925  21.5341243  74.0951011 106.0943983
  19.9895546  86.5169335 110.3020576  19.9119576  87.4677160 110.3809057
  19.3857190  86.1715207 110.9595503  30.2733557  70.4723993 116.7924920
  29.6307937  70.7656526 116.1464714  29.7688485  70.3576913 117.5978116
  27.9273720  74.2187166 107.4810779  28.8391577  74.4514553 107.3058477
  27.4183368  74.8024210 106.9185858  22.5645558  73.5784401 118.4905629
  23.4106753  74.0023814 118.6340278  22.5044196  72.9218025 119.1844192
  26.5343303  79.2012985 114.8724361  25.9052165  79.3658699 114.1700428
  26.1468965  79.6154594 115.6435325  30.4132535  80.1367423 112.2268724
  29.7283573  80.5166324 111.6765758  30.4976384  80.7462749 112.9600672
  25.7145004  71.2388769 120.1486802  25.4705935  71.9930830 119.6121078
  25.9904934  71.6174117 120.9834049  27.6683466  77.7827382 118.8264068
  27.8800362  78.4259141 118.1498449  27.6213215  76.9489698 118.3585998
  25.2709695  70.3945202 115.7300640  24.4094174  70.6926456 116.0217378
  25.2972130  70.6115601 114.7981673  22.0871265  78.9387393 112.1374446
  22.5509610  79.2175096 111.3479068  21.8228063  78.0370837 111.9547536
  18.9795346  78.4858874 115.0754209  19.5496703  78.9146143 114.4371693
  19.5703458  78.2041459 115.7738395  21.0240151  75.0610545 108.9464011
  21.7264194  75.5131589 109.4137937  20.6920779  74.4194364 109.5743904
  14.7665485  73.3194098 114.2481144  13.9764539  73.5751626 113.7721255
  15.2576732  74.1342436 114.3533185  28.7829294  80.6599337 116.9986425
  29.6046738  80.2579524 116.7169107  28.7791697  80.5567571 117.9502541
  16.7180230  73.6838677 111.2064621  15.9211393  73.7957371 111.7248117
  16.4905822  74.0225329 110.3405512  36.8735287  77.0038085 113.3471397
  36.1198996  76.4345484 113.1915401  37.0082828  76.9700750 114.2942031
  22.2633915  81.8751488 109.0226116  22.1279590  82.7203023 109.4510964
  22.8043728  82.0770765 108.2592050  15.7163313  79.3926926 109.5954041
  16.2287833  80.1870176 109.7459606  16.3686026  78.6953216 109.5287643
  17.5258197  82.5092682 111.6776794  17.7024826  83.4310647 111.4897778
  18.3215031  82.1951101 112.1071174  25.6126379  65.3982050 117.5525009
  25.2690648  66.2883691 117.4764120  25.9805342  65.2083707 116.6894594
  13.6812230  77.7215580 110.3713612  14.5187452  78.1312588 110.1547319
  13.8590497  76.7815022 110.3413805  25.5776662  75.3890661 106.0597445
  25.0623285  76.1595265 106.2985832  25.3053970  74.7155797 106.6830506
  23.1623773  70.2340362 111.1182683  22.3065369  69.8447212 110.9388322
  23.5750724  70.3132322 110.2582468  24.6922919  67.7686705 115.5174243
  24.1887715  67.7316840 114.7042048  24.9853526  68.6779448 115.5770899
  20.9365805  67.8525435 114.5240424  21.8018802  67.6568243 114.1646314
  21.0043314  67.6235786 115.4509781  30.5510936  78.1423015 107.9950618
  29.7740379  77.8034175 107.5505780  31.2302417  78.1475639 107.3205583
  25.3662965  73.2617753 107.8857226  25.0613100  73.5763902 108.7367369
  26.3193407  73.3399173 107.9284559  23.8109397  79.4207976 109.5350180
  23.2830758  78.6860736 109.2223417  23.3096899  80.1982653 109.2890148
  28.7902243  77.6156997 114.6517226  28.1325917  78.3056258 114.7397355
  29.5942642  78.0053429 114.9951212  18.5428124  70.0827642 111.8956791
  19.1171876  69.8602824 111.1629984  19.1299107  70.1516337 112.6485393
  27.6007701  75.9701369 112.7021168  28.1139583  76.6031361 113.2042878
  28.2508925  75.3702565 112.3364528  18.8697711  72.1132103 105.9152677
  18.0335024  72.4506790 106.2361951  18.7302481  71.9781083 104.9779813
  20.8450792  66.9568891 110.6231861  20.1915204  66.6417909 109.9988475
  20.8031266  66.3344632 111.3491684  21.9561997  77.2388186 102.5385153
  21.0489059  77.0077440 102.7376302  22.4533029  76.4425806 102.7259134
  24.8630076  85.9485694 105.4581839  24.1891774  86.2517390 106.0666797
  25.2495898  86.7514774 105.1087296  24.0788532  73.4450825 114.9479508
  23.1611094  73.6665772 114.7901196  24.4948676  73.5197135 114.0891216
  24.8623580  74.8442241 110.0782189  25.6095399  75.3563638 109.7689311
  25.1315170  74.5226293 110.9386582  23.1350230  77.3400781 107.0609143
  22.2261450  77.0559814 107.1581613  23.1645314  77.7599860 106.2012450
  28.3669498  80.9507371 110.8300310  27.9131825  80.1098281 110.8865501
  27.7363464  81.5868769 111.1675091  27.3102417  71.8799357 112.0600978
  26.5725174  71.3676743 112.3911220  27.5629191  71.4399738 111.2484255
  26.8102437  82.7883867 111.7650129  27.1025411  83.3488925 111.0462494
  27.3201057  83.0812428 112.5203288  27.4114045  64.6575609 112.6542747
  27.7172921  63.7972972 112.3668662  28.1366649  65.2493229 112.4541741
  13.7038401  75.0606295 111.0424345  13.5062800  74.4675656 110.3175412
  13.1485065  74.7558506 111.7600284  21.6835124  74.9529402 113.1618938
  21.7383734  74.0003238 113.0861415  20.8726326  75.1088841 113.6460237
  22.8326318  78.8809525 104.3997221  22.3945748  78.1645384 103.9402859
  23.5736759  79.1085640 103.8382313  19.6227484  73.5706462 110.9209317
  18.8095350  73.8700632 111.3274509  20.1186478  73.1762150 111.6383799
  21.7736062  83.5664219 112.8543582  21.7312241  83.7925065 111.9252114
  22.6898761  83.3327593 113.0029383  25.2201696  74.0348286 119.7524211
  25.5751084  74.2619759 120.6118677  25.8673827  74.3666663 119.1301466
  30.9499433  77.1566722 110.4573540  30.8117331  77.3468318 109.5294729
  30.5935652  77.9186105 110.9141591  19.1141559  71.1424817 116.5370552
  19.7540938  71.0013576 115.8393515  18.2819090  70.8559331 116.1609154
  30.9768812  79.2243249 115.4684812  31.4105319  79.1318538 116.3167866
  31.6900393  79.2000749 114.8304828  19.8901863  80.4427248 112.6505544
  20.6842461  79.9477568 112.4488119  19.1793555  79.9145111 112.2873250
  16.1984626  74.5870329 108.7265297  15.2682214  74.5254785 108.9435259
  16.2942098  74.0646282 107.9301938  16.1170175  71.1125142 111.3143539
  16.3776993  72.0270475 111.2052699  16.9387348  70.6449585 111.4640152
  31.8384362  79.2666950 118.0017697  32.0320252  80.1712760 118.2476972
  31.7384980  78.8074369 118.8356282  23.4920673  69.1524840 120.5008024
  22.8448588  69.8514790 120.4072501  24.2621688  69.5860984 120.8684272
  23.6684807  76.9905605 118.5604844  24.5976867  77.1416765 118.3873811
  23.2475837  77.0789626 117.7053490  23.0621291  86.1165366 107.6728918
  23.2373047  85.6453409 108.4874541  22.3754079  86.7431132 107.9010179
  24.0178354  80.3937872 113.7192219  23.6828187  80.3538642 114.6149869
  23.5182300  79.7282588 113.2462630  26.9537546  77.7393907 103.9929279
  26.3366716  77.0140735 103.8962332  26.4854034  78.5003267 103.6496353
  18.7436092  71.9579331 103.1150583  17.8665558  71.8368132 102.7512830
  19.2193845  71.1665409 102.8629472  28.6109085  80.4132399 119.8849039
  27.7235863  80.0758321 120.0075438  29.1807636  79.6815430 120.1217804
  21.9300018  84.3105621 110.3613104  21.1467540  84.8527301 110.4551328
  22.6292763  84.8279601 110.7607345  25.2396668  70.1200251 113.0047309
  25.7365367  69.3670213 112.6848379  24.4683649  70.1564567 112.4390519
  33.0926425  75.8240616 114.6465601  33.0816301  76.7065332 114.2759534
  32.2243805  75.4712167 114.4520138  26.3226448  78.8771938 110.5785733
  25.3882727  78.9973400 110.4090437  26.5003117  77.9744405 110.3145742
  21.8231636  72.2617634 112.7318994  21.4529424  71.7088674 113.4199899
  22.3190729  71.6575767 112.1793994  29.7099000  74.7189257 111.1135767
  30.1759452  75.5517249 111.0396069  30.1606500  74.2534239 111.8181025
  27.7775231  81.0633079 108.1121919  28.0535075  80.9489673 109.0215793
  26.9079730  80.6650563 108.0734092  27.6815663  67.0869844 115.1526668
  26.7678742  67.3174071 115.3208875  28.1108764  67.1708288 116.0040700
  27.4522121  75.2759736 117.6526562  26.7993571  75.5235644 116.9979015
  27.8302501  74.4623874 117.3189039  24.4129295  85.3119429 111.7554732
  24.5951689  84.4941085 112.2182485  25.2362281  85.5287122 111.3179622
  24.7471460  84.2387615 109.0169781  25.2759227  83.7280069 108.4039943
  25.0099680  83.9230145 109.8815314  17.2196970  69.6721625 118.9772100
  17.2838297  70.5336455 118.5649498  17.1564090  69.0595626 118.2444458
  13.4714785  73.5521186 108.5563489  13.7668227  72.6431865 108.5030543
  12.5702821  73.5308926 108.2344491  25.3800864  85.2728450 115.3613897
  25.2552004  84.4718190 114.8524843  26.0379955  85.7674644 114.8727867
  17.0009032  71.6277183 114.5391038  16.2795618  72.2413150 114.3998511
  17.7902288  72.1634948 114.4607683  27.4435773  83.0737470 116.9893447
  26.4966108  82.9542822 116.9171774  27.7918546  82.1859968 117.0719709
  19.8035346  68.9631609 120.8131689  20.3269748  69.2093906 121.5757999
  19.5847679  69.7951644 120.3934827  15.2002627  71.2335284 108.6802814
  14.8715333  70.3532663 108.4977920  15.5541998  71.1782953 109.5679203
  24.4482206  82.8690187 113.1897800  24.3007168  81.9406894 113.3705370
  25.2735699  82.8910277 112.7054875  18.3144450  71.5208254 109.0478292
  18.6540523  72.0494175 108.3256900  18.7616571  71.8588660 109.8236858
  28.0516328  83.6918745 114.2762672  28.9762875  83.4861607 114.1387124
  27.8831631  83.4435146 115.1852014  21.0087891  69.9045304 118.4981360
  20.6684711  69.1053117 118.9002040  20.3026897  70.2047015 117.9258193
  21.6604363  66.9894617 116.9508683  22.4830432  66.5155095 116.8287573
  21.9042426  67.7685101 117.4507369  20.3012597  70.0182875 107.2471585
  21.0220960  70.3964128 106.7435301  19.6777901  70.7371752 107.3506562
  24.4443720  70.7228024 108.1829917  24.6607335  71.6052662 107.8818745
  23.9637787  70.3314238 107.4535559  19.1842942  73.6813737 114.7600661
  19.0387522  73.9954040 115.6524943  18.7068145  74.2998638 114.2071560
  21.0439324  70.6716285 114.8081551  21.0300893  69.7757379 114.4713849
  21.7611753  70.6786949 115.4419837  22.8965455  71.1053626 116.8534678
  22.6383233  72.0270696 116.8519009  22.3650496  70.7084060 117.5435143
  27.8411644  84.2104413 109.6324764  28.0148521  83.6450835 108.8798616
  28.3340535  85.0105308 109.4504254  20.4476220  69.5530666 110.0769121
  20.5692132  68.6247312 110.2760009  20.1578263  69.5669352 109.1647437
  23.3167411  67.2385576 113.2135841  23.3389108  67.3024909 112.2587821
  23.7335470  66.3990085 113.4076347  33.6951035  76.9740836 111.2515064
  34.1382181  76.2248161 110.8534187  32.8177545  76.9650972 110.8688796
  28.8286816  83.5271177 106.7321662  29.5237721  84.1477870 106.9508977
  29.1709967  82.6766528 107.0074040  30.7278240  80.9770883 108.2608993
  31.2529564  81.3158155 107.5358313  30.6400592  80.0417898 108.0772128
  30.5370021  78.4596253 120.8792919  30.5868026  78.2946260 121.8208442
  30.4283944  77.5923512 120.4890800  19.4206279  81.1384798 108.1685008
  19.5694400  81.8220263 107.5151681  20.2272723  81.1189888 108.6834464
  27.8273783  74.4427181 122.1952226  28.7283646  74.3033646 121.9036224
  27.9021758  74.6081636 123.1350404  22.1616588  71.8194035 121.0405412
  21.2919898  72.1127602 120.7688001  22.3976069  72.4034480 121.7612676
  32.0388217  80.8793194 121.1234941  31.7473026  81.2423175 121.9598402
  31.4260349  80.1660202 120.9448273  33.2383900  78.4446074 113.6437511
  34.0730791  78.8835878 113.8075072  33.3743029  77.9684727 112.8245757
  30.2875406  76.0025809 119.5914999  30.7629527  76.1953455 118.7833850
  29.3640971  76.0584995 119.3458383  17.1758912  77.1649976 109.1746077
  16.9304954  76.2612306 109.3726287  17.3454827  77.1667126 108.2325555
  24.8655622  68.0373652 118.5570833  25.3837566  68.7734679 118.2317321
  24.5110755  68.3437646 119.3917592  16.4454560  72.8978334 106.6732239
  15.7523805  72.9722689 106.0172275  16.2006312  72.1338677 107.1953756
  25.1168216  64.4573935 114.0771729  25.3969970  63.7897124 114.7032156
  25.9018823  64.6503031 113.5646393  22.9201685  83.6332929 105.6396756
  22.3475652  84.2523116 105.1867228  23.4934479  84.1832290 106.1736678
  28.9877075  72.8791569 117.8243305  29.9394498  72.9789667 117.8455529
  28.8180525  72.0869837 118.3341389  27.0091454  69.9647152 118.0102705
  26.4141386  70.2452165 117.3149194  26.7241151  70.4541053 118.7819447
  26.1398945  83.9170079 106.7705338  27.0729618  83.8515641 106.9738214
  26.0522157  84.7526346 106.3119871  28.7686961  83.2335949 103.7309286
  28.6900593  82.8995813 104.6245043  29.5896628  83.7257717 103.7300758
  31.4665153  76.0997689 116.9385604  31.4341473  75.1613689 117.1245288
  32.0765776  76.1781725 116.2051429  23.3048483  74.9693742 102.9812808
  24.2507588  74.8399950 103.0501226  22.9262728  74.2308403 103.4582236
  31.6159641  72.8908732 116.9843887  31.0998690  72.1067189 116.7973816
  32.4999590  72.5627449 117.1490407  29.2770368  66.6349748 112.9439700
  29.0795189  66.3264836 113.8283032  29.8870074  67.3611386 113.0737630
  37.2841702  77.1613695 116.0791641  38.0145091  76.8998984 116.6399344
  36.6748648  76.4242417 116.1193709  35.3656999  75.3021558 116.6766092
  34.6390163  75.1677523 116.0682584  34.9504286  75.6098387 117.4822810
  21.4891401  72.8943718 102.9167693  20.5822856  72.5976831 102.9930407
  21.7667382  72.5973536 102.0501980  23.1053466  67.4380608 109.0711935
  22.2954195  67.0927693 109.4467181  23.7937883  67.1288151 109.6599546
  25.0344015  66.5158654 110.6936231  25.5875053  66.9354108 111.3526254
  25.2714101  65.5894403 110.7359187  20.2590185  69.7530653 103.0579673
  21.1209349  70.0785551 103.3175490  20.4440529  68.9662149 102.5452738
  28.4122822  68.6259180 110.2014896  27.8321491  69.2843984 109.8192948
  28.1458754  67.8036524 109.7902313  26.8626388  68.0264237 112.4036216
  27.3626166  68.1380772 111.5950535  27.5061996  67.7225290 113.0437024
  27.1947700  70.7859270 109.2571244  26.3073555  71.0708921 109.0391439
  27.6101689  70.6253033 108.4098521  30.5462236  70.8105791 112.9725583
  31.3222626  71.3002243 113.2450200  29.8210370  71.2363845 113.4297453
  32.9834794  71.5233410 114.0299524  33.5779285  71.2829146 113.3192832
  33.0561378  70.8040541 114.6573060  26.3390913  80.5503945 103.3519264
  27.0426763  80.7553947 103.9676919  25.6153562  81.1180707 103.6168347
  27.1688723  76.3013806 109.4721534  27.1123925  76.7582357 108.6329166
  27.7217066  75.5404491 109.2944377  30.9793529  72.0903538 110.2971654
  30.7230464  71.6900173 111.1279861  30.3546397  72.8047332 110.1721793
  35.2905867  74.8299611 112.8042945  34.7305425  74.8992800 113.5774507
  34.6849371  74.6540596 112.0842441  28.2477611  80.9886474 105.4017724
  29.0823214  80.5567672 105.2195199  28.0861953  80.8168488 106.3294618
  27.9023503  77.4918587 106.7674063  27.8472307  77.3262859 105.8262507
  27.2769558  78.1994620 106.9236253  21.2119628  66.9926696 106.3459382
  21.1998298  67.9368536 106.5027652  22.1043050  66.8096842 106.0518843
  25.0271748  63.5869473 110.6005318  24.2604143  63.0327960 110.7462001
  25.4382453  63.6591342 111.4619470  36.8761886  91.5056125 115.4972901
  37.5140296  91.3862872 114.7936241  36.7582729  92.4536969 115.5560853
  33.6851592  91.4583553 115.4334425  33.3470103  91.3424618 114.5454960
  34.5541360  91.0574718 115.4135432  29.5438408  93.3119030 111.4231316
  28.9803273  93.2208966 110.6547604  29.4290803  92.4918934 111.9033809
  35.1237966  96.9789997 106.7345781  34.4725946  97.5644078 106.3479795
  35.9182329  97.5096192 106.7940819  29.0493593  94.0679134 107.1332916
  29.8224469  93.5208121 106.9945791  29.4018992  94.9323384 107.3447377
  31.8134843  92.7732365 116.9301175  32.4098415  92.5488388 116.2158137
  31.8709814  92.0317111 117.5326622  31.3859871  90.2271800 104.7651365
  31.6385392  89.7053322 104.0034828  30.4484430  90.0637946 104.8678049
  36.4303154  89.2307579 112.5726109  37.2166243  88.8127002 112.2216526
  36.6941858  90.1353671 112.7407757  36.6013231  94.6680429 107.2714766
  35.9659064  94.7415056 107.9835670  36.2710638  95.2574028 106.5933845
  41.8311581  89.1682812 113.4759087  42.5636753  88.5982029 113.7096917
  41.0750937  88.7804412 113.9165593  31.1056160  92.1299906 106.9675740
  30.9892418  91.4544810 107.6356825  31.2158420  91.6432280 106.1507893
  33.4487701  91.5910054 110.6722430  33.0845908  91.0640675 111.3835351
  34.3054817  91.2008523 110.4988915  39.3537002  82.8804386 117.9353696
  39.0220326  83.7499797 117.7114911  38.7582615  82.5640670 118.6147726
  33.0893188  86.6199953 105.6683778  33.2567590  87.4880190 106.0354249
  32.8990357  86.7827235 104.7445067  35.8468521  95.0816932 117.3349609
  35.5469244  95.9841971 117.2265416  35.5019581  94.8149115 118.1870761
  29.2981003  91.5330729 113.3686313  28.3731499  91.4006943 113.5764005
  29.5465416  92.3124948 113.8656255  39.2465665  87.5999472 115.0147046
  38.3382542  87.5314881 114.7205807  39.1953261  88.0771417 115.8428871
  33.0682409  89.0757611 106.6530445  32.9482034  89.5214662 107.4915925
  32.3734997  89.4242928 106.0943983  30.8289301 101.8461252 110.3020576
  30.7513331 102.7969078 110.3809057  30.2250945 101.5007125 110.9595503
  41.1127311  85.8015911 116.7924920  40.4701692  86.0948444 116.1464714
  40.6082240  85.6868831 117.5978116  38.7667475  89.5479084 107.4810779
  39.6785331  89.7806471 107.3058477  38.2577122  90.1316128 106.9185858
  33.4039313  88.9076319 118.4905629  34.2500508  89.3315732 118.6340278
  33.3437950  88.2509943 119.1844192  37.3737057  94.5304902 114.8724361
  36.7445920  94.6950616 114.1700428  36.9862719  94.9446512 115.6435325
  41.2526289  95.4659340 112.2268724  40.5677327  95.8458242 111.6765758
  41.3370138  96.0754667 112.9600672  36.5538758  86.5680687 120.1486802
  36.3099690  87.3222747 119.6121078  36.8298689  86.9466034 120.9834049
  38.5077221  93.1119299 118.8264068  38.7194116  93.7551059 118.1498449
  38.4606969  92.2781616 118.3585998  36.1103450  85.7237120 115.7300640
  35.2487929  86.0218373 116.0217378  36.1365884  85.9407519 114.7981673
  32.9265019  94.2679310 112.1374446  33.3903365  94.5467013 111.3479068
  32.6621817  93.3662755 111.9547536  29.8189100  93.8150792 115.0754209
  30.3890457  94.2438060 114.4371693  30.4097212  93.5333377 115.7738395
  31.8633905  90.3902463 108.9464011  32.5657949  90.8423506 109.4137937
  31.5314534  89.7486282 109.5743904  25.6059239  88.6486015 114.2481144
  24.8158293  88.9043544 113.7721255  26.0970487  89.4634353 114.3533185
  39.6223049  95.9891255 116.9986425  40.4440492  95.5871442 116.7169107
  39.6185452  95.8859489 117.9502541  27.5573985  89.0130595 111.2064621
  26.7605148  89.1249289 111.7248117  27.3299577  89.3517247 110.3405512
  47.7129042  92.3330003 113.3471397  46.9592750  91.7637401 113.1915401
  47.8476583  92.2992668 114.2942031  33.1027670  97.2043405 109.0226116
  32.9673345  98.0494941 109.4510964  33.6437482  97.4062683 108.2592050
  26.5557067  94.7218843 109.5954041  27.0681588  95.5162094 109.7459606
  27.2079780  94.0245134 109.5287643  28.3651952  97.8384600 111.6776794
  28.5418580  98.7602564 111.4897778  29.1608785  97.5243019 112.1071174
  36.4520133  80.7273967 117.5525009  36.1084403  81.6175609 117.4764120
  36.8199096  80.5375625 116.6894594  24.5205984  93.0507498 110.3713612
  25.3581206  93.4604506 110.1547319  24.6984252  92.1106940 110.3413805
  36.4170416  90.7182578 106.0597445  35.9017040  91.4887183 106.2985832
  36.1447725  90.0447715 106.6830506  34.0017527  85.5632279 111.1182683
  33.1459123  85.1739130 110.9388322  34.4144479  85.6424240 110.2582468
  35.5316674  83.0978622 115.5174243  35.0281469  83.0608758 114.7042048
  35.8247281  84.0071365 115.5770899  31.7759560  83.1817352 114.5240424
  32.6412556  82.9860161 114.1646314  31.8437069  82.9527704 115.4509781
  41.3904690  93.4714933 107.9950618  40.6134133  93.1326093 107.5505780
  42.0696171  93.4767556 107.3205583  36.2056719  88.5909671 107.8857226
  35.9006855  88.9055820 108.7367369  37.1587161  88.6691090 107.9284559
  34.6503151  94.7499894 109.5350180  34.1224513  94.0152653 109.2223417
  34.1490654  95.5274570 109.2890148  39.6295997  92.9448914 114.6517226
  38.9719672  93.6348176 114.7397355  40.4336396  93.3345346 114.9951212
  29.3821879  85.4119560 111.8956791  29.9565631  85.1894742 111.1629984
  29.9692861  85.4808255 112.6485393  38.4401456  91.2993287 112.7021168
  38.9533338  91.9323279 113.2042878  39.0902680  90.6994483 112.3364528
  29.7091466  87.4424021 105.9152677  28.8728778  87.7798708 106.2361951
  29.5696236  87.3073001 104.9779813  31.6844546  82.2860809 110.6231861
  31.0308959  81.9709826 109.9988475  31.6425021  81.6636549 111.3491684
  32.7955751  92.5680104 102.5385153  31.8882813  92.3369358 102.7376302
  33.2926783  91.7717723 102.7259134  35.7023830 101.2777611 105.4581839
  35.0285529 101.5809308 106.0666797  36.0889652 102.0806692 105.1087296
  34.9182287  88.7742743 114.9479508  34.0004848  88.9957690 114.7901196
  35.3342430  88.8489053 114.0891216  35.7017335  90.1734158 110.0782189
  36.4489154  90.6855555 109.7689311  35.9708924  89.8518211 110.9386582
  33.9743985  92.6692699 107.0609143  33.0655204  92.3851732 107.1581613
  34.0039069  93.0891778 106.2012450  39.2063252  96.2799288 110.8300310
  38.7525579  95.4390198 110.8865501  38.5757219  96.9160687 111.1675091
  38.1496172  87.2091275 112.0600978  37.4118929  86.6968661 112.3911220
  38.4022945  86.7691656 111.2484255  37.6496191  98.1175785 111.7650129
  37.9419166  98.6780842 111.0462494  38.1594812  98.4104346 112.5203288
  38.2507799  79.9867527 112.6542747  38.5566676  79.1264890 112.3668662
  38.9760404  80.5785147 112.4541741  24.5432155  90.3898213 111.0424345
  24.3456555  89.7967574 110.3175412  23.9878819  90.0850423 111.7600284
  32.5228879  90.2821320 113.1618938  32.5777489  89.3295156 113.0861415
  31.7120081  90.4380759 113.6460237  33.6720073  94.2101443 104.3997221
  33.2339502  93.4937302 103.9402859  34.4130513  94.4377557 103.8382313
  30.4621239  88.8998379 110.9209317  29.6489104  89.1992550 111.3274509
  30.9580233  88.5054068 111.6383799  32.6129817  98.8956136 112.8543582
  32.5705995  99.1216983 111.9252114  33.5292515  98.6619511 113.0029383
  36.0595450  89.3640204 119.7524211  36.4144838  89.5911677 120.6118677
  36.7067582  89.6958581 119.1301466  41.7893187  92.4858640 110.4573540
  41.6511086  92.6760236 109.5294729  41.4329406  93.2478023 110.9141591
  29.9535313  86.4716735 116.5370552  30.5934693  86.3305494 115.8393515
  29.1212844  86.1851248 116.1609154  41.8162567  94.5535167 115.4684812
  42.2499074  94.4610456 116.3167866  42.5294148  94.5292667 114.8304828
  30.7295617  95.7719165 112.6505544  31.5236216  95.2769485 112.4488119
  30.0187310  95.2437028 112.2873250  27.0378381  89.9162247 108.7265297
  26.1075969  89.8546702 108.9435259  27.1335853  89.3938200 107.9301938
  26.9563930  86.4417060 111.3143539  27.2170747  87.3562393 111.2052699
  27.7781102  85.9741502 111.4640152  42.6778117  94.5958867 118.0017697
  42.8714007  95.5004678 118.2476972  42.5778735  94.1366286 118.8356282
  34.3314427  84.4816758 120.5008024  33.6842342  85.1806708 120.4072501
  35.1015443  84.9152902 120.8684272  34.5078562  92.3197523 118.5604844
  35.4370622  92.4708682 118.3873811  34.0869592  92.4081544 117.7053490
  33.9015045 101.4457284 107.6728918  34.0766801 100.9745327 108.4874541
  33.2147833 102.0723050 107.9010179  34.8572109  95.7229790 113.7192219
  34.5221941  95.6830560 114.6149869  34.3576054  95.0574506 113.2462630
  37.7931300  93.0685824 103.9929279  37.1760471  92.3432652 103.8962332
  37.3247789  93.8295185 103.6496353  29.5829846  87.2871249 103.1150583
  28.7059312  87.1660049 102.7512830  30.0587599  86.4957327 102.8629472
  39.4502839  95.7424317 119.8849039  38.5629618  95.4050238 120.0075438
  40.0201390  95.0107348 120.1217804  32.7693772  99.6397539 110.3613104
  31.9861294 100.1819219 110.4551328  33.4686517 100.1571519 110.7607345
  36.0790422  85.4492168 113.0047309  36.5759122  84.6962131 112.6848379
  35.3077404  85.4856485 112.4390519  43.9320180  91.1532534 114.6465601
  43.9210056  92.0357249 114.2759534  43.0637559  90.8004085 114.4520138
  37.1620203  94.2063856 110.5785733  36.2276482  94.3265318 110.4090437
  37.3396871  93.3036322 110.3145742  32.6625391  87.5909551 112.7318994
  32.2923179  87.0380592 113.4199899  33.1584483  86.9867685 112.1793994
  40.5492754  90.0481175 111.1135767  41.0153206  90.8809167 111.0396069
  41.0000255  89.5826156 111.8181025  38.6168985  96.3924996 108.1121919
  38.8928829  96.2781591 109.0215793  37.7473484  95.9942481 108.0734092
  38.5209417  82.4161762 115.1526668  37.6072497  82.6465989 115.3208875
  38.9502518  82.5000206 116.0040700  38.2915876  90.6051654 117.6526562
  37.6387326  90.8527561 116.9979015  38.6696255  89.7915792 117.3189039
  35.2523049 100.6411347 111.7554732  35.4345444  99.8233003 112.2182485
  36.0756035 100.8579039 111.3179622  35.5865215  99.5679532 109.0169781
  36.1152981  99.0571987 108.4039943  35.8493434  99.2522062 109.8815314
  28.0590725  85.0013542 118.9772100  28.1232051  85.8628373 118.5649498
  27.9957845  84.3887544 118.2444458  24.3108540  88.8813104 108.5563489
  24.6061981  87.9723782 108.5030543  23.4096576  88.8600843 108.2344491
  36.2194619 100.6020368 115.3613897  36.0945758  99.8010108 114.8524843
  36.8773710 101.0966561 114.8727867  27.8402787  86.9569100 114.5391038
  27.1189373  87.5705068 114.3998511  28.6296043  87.4926865 114.4607683
  38.2829527  98.4029388 116.9893447  37.3359863  98.2834739 116.9171774
  38.6312300  97.5151886 117.0719709  30.6429100  84.2923527 120.8131689
  31.1663502  84.5385823 121.5757999  30.4241434  85.1243562 120.3934827
  26.0396382  86.5627201 108.6802814  25.7109088  85.6824580 108.4977920
  26.3935752  86.5074870 109.5679203  35.2875960  98.1982104 113.1897800
  35.1400923  97.2698812 113.3705370  36.1129454  98.2202195 112.7054875
  29.1538205  86.8500171 109.0478292  29.4934277  87.3786093 108.3256900
  29.6010325  87.1880577 109.8236858  38.8910082  99.0210663 114.2762672
  39.8156630  98.8153524 114.1387124  38.7225386  98.7727064 115.1852014
  31.8481645  85.2337222 118.4981360  31.5078466  84.4345035 118.9002040
  31.1420652  85.5338933 117.9258193  32.4998117  82.3186534 116.9508683
  33.3224187  81.8447013 116.8287573  32.7436181  83.0977018 117.4507369
  31.1406352  85.3474793 107.2471585  31.8614714  85.7256046 106.7435301
  30.5171656  86.0663670 107.3506562  35.2837475  86.0519942 108.1829917
  35.5001089  86.9344580 107.8818745  34.8031542  85.6606155 107.4535559
  30.0236696  89.0105655 114.7600661  29.8781277  89.3245958 115.6524943
  29.5461900  89.6290555 114.2071560  31.8833079  86.0008203 114.8081551
  31.8694648  85.1049296 114.4713849  32.6005507  86.0078867 115.4419837
  33.7359210  86.4345543 116.8534678  33.4776987  87.3562614 116.8519009
  33.2044250  86.0375978 117.5435143  38.6805398  99.5396330 109.6324764
  38.8542276  98.9742753 108.8798616  39.1734290 100.3397225 109.4504254
  31.2869975  84.8822583 110.0769121  31.4085886  83.9539230 110.2760009
  30.9972017  84.8961269 109.1647437  34.1561165  82.5677494 113.2135841
  34.1782862  82.6316827 112.2587821  34.5729224  81.7282002 113.4076347
  44.5344790  92.3032753 111.2515064  44.9775936  91.5540079 110.8534187
  43.6571300  92.2942890 110.8688796  39.6680571  98.8563095 106.7321662
  40.3631476  99.4769787 106.9508977  40.0103721  98.0058446 107.0074040
  41.5671994  96.3062800 108.2608993  42.0923318  96.6450073 107.5358313
  41.4794347  95.3709816 108.0772128  41.3763775  93.7888170 120.8792919
  41.4261780  93.6238178 121.8208442  41.2677699  92.9215429 120.4890800
  30.2600034  96.4676716 108.1685008  30.4088154  97.1512180 107.5151681
  31.0666477  96.4481806 108.6834464  38.6667538  89.7719098 122.1952226
  39.5677400  89.6325563 121.9036224  38.7415512  89.9373553 123.1350404
  33.0010343  87.1485953 121.0405412  32.1313652  87.4419519 120.7688001
  33.2369823  87.7326398 121.7612676  42.8781972  96.2085112 121.1234941
  42.5866780  96.5715092 121.9598402  42.2654103  95.4952120 120.9448273
  44.0777654  93.7737992 113.6437511  44.9124546  94.2127796 113.8075072
  44.2136783  93.2976645 112.8245757  41.1269160  91.3317726 119.5914999
  41.6023282  91.5245373 118.7833850  40.2034726  91.3876912 119.3458383
  28.0152667  92.4941894 109.1746077  27.7698709  91.5904224 109.3726287
  28.1848581  92.4959044 108.2325555  35.7049377  83.3665570 118.5570833
  36.2231321  84.1026597 118.2317321  35.3504509  83.6729563 119.3917592
  27.2848314  88.2270251 106.6732239  26.5917559  88.3014606 106.0172275
  27.0400066  87.4630595 107.1953756  35.9561971  79.7865853 114.0771729
  36.2363725  79.1189042 114.7032156  36.7412578  79.9794948 113.5646393
  33.7595439  98.9624846 105.6396756  33.1869406  99.5815034 105.1867228
  34.3328233  99.5124208 106.1736678  39.8270829  88.2083487 117.8243305
  40.7788252  88.3081584 117.8455529  39.6574280  87.4161755 118.3341389
  37.8485209  85.2939070 118.0102705  37.2535141  85.5744083 117.3149194
  37.5634905  85.7832971 118.7819447  36.9792699  99.2461997 106.7705338
  37.9123372  99.1807558 106.9738214  36.8915912 100.0818263 106.3119871
  39.6080716  98.5627867 103.7309286  39.5294347  98.2287731 104.6245043
  40.4290383  99.0549635 103.7300758  42.3058907  91.4289606 116.9385604
  42.2735227  90.4905607 117.1245288  42.9159531  91.5073643 116.2051429
  34.1442238  90.2985659 102.9812808  35.0901343  90.1691867 103.0501226
  33.7656483  89.5600321 103.4582236  42.4553395  88.2200650 116.9843887
  41.9392444  87.4359106 116.7973816  43.3393344  87.8919366 117.1490407
  40.1164122  81.9641665 112.9439700  39.9188944  81.6556753 113.8283032
  40.7263828  82.6903304 113.0737630  48.1235457  92.4905613 116.0791641
  48.8538845  92.2290901 116.6399344  47.5142402  91.7534335 116.1193709
  46.2050754  90.6313476 116.6766092  45.4783918  90.4969441 116.0682584
  45.7898041  90.9390304 117.4822810  32.3285155  88.2235636 102.9167693
  31.4216610  87.9268748 102.9930407  32.6061136  87.9265454 102.0501980
  33.9447221  82.7672525 109.0711935  33.1347949  82.4219610 109.4467181
  34.6331638  82.4580069 109.6599546  35.8737769  81.8450572 110.6936231
  36.4268808  82.2646026 111.3526254  36.1107855  80.9186320 110.7359187
  31.0983940  85.0822571 103.0579673  31.9603104  85.4077469 103.3175490
  31.2834284  84.2954067 102.5452738  39.2516576  83.9551097 110.2014896
  38.6715245  84.6135901 109.8192948  38.9852509  83.1328442 109.7902313
  37.7020142  83.3556155 112.4036216  38.2019921  83.4672690 111.5950535
  38.3455750  83.0517208 113.0437024  38.0341454  86.1151188 109.2571244
  37.1467309  86.4000838 109.0391439  38.4495443  85.9544951 108.4098521
  41.3855990  86.1397709 112.9725583  42.1616380  86.6294161 113.2450200
  40.6604124  86.5655763 113.4297453  43.8228549  86.8525328 114.0299524
  44.4173040  86.6121064 113.3192832  43.8955133  86.1332458 114.6573060
  37.1784668  95.8795862 103.3519264  37.8820518  96.0845865 103.9676919
  36.4547316  96.4472624 103.6168347  38.0082478  91.6305724 109.4721534
  37.9517679  92.0874275 108.6329166  38.5610820  90.8696408 109.2944377
  41.8187284  87.4195455 110.2971654  41.5624218  87.0192091 111.1279861
  41.1940152  88.1339249 110.1721793  46.1299622  90.1591529 112.8042945
  45.5699180  90.2284718 113.5774507  45.5243125  89.9832513 112.0842441
  39.0871365  96.3178392 105.4017724  39.9216969  95.8859590 105.2195199
  38.9255708  96.1460405 106.3294618  38.7417257  92.8210505 106.7674063
  38.6866061  92.6554776 105.8262507  38.1163312  93.5286538 106.9236253
  32.0513383  82.3218614 106.3459382  32.0392052  83.2660454 106.5027652
  32.9436805  82.1388759 106.0518843  35.8665502  78.9161391 110.6005318
  35.0997898  78.3619877 110.7462001  36.2776207  78.9883259 111.4619470
  40.3832162 108.6410947 111.4231316  39.8197027 108.5500884 110.6547604
  40.2684557 107.8210852 111.9033809  45.9631721 112.3081915 106.7345781
  45.3119701 112.8935995 106.3479795  46.7576084 112.8388110 106.7940819
  39.8887348 109.3971052 107.1332916  40.6618224 108.8500039 106.9945791
  40.2412747 110.2615301 107.3447377  42.2253626 105.5563718 104.7651365
  42.4779146 105.0345239 104.0034828  41.2878185 105.3929864 104.8678049
  47.2696909 104.5599497 112.5726109  48.0559998 104.1418920 112.2216526
  47.5335613 105.4645589 112.7407757  47.4406986 109.9972347 107.2714766
  46.8052819 110.0706973 107.9835670  47.1104392 110.5865946 106.5933845
  41.9449915 107.4591824 106.9675740  41.8286173 106.7836727 107.6356825
  42.0552174 106.9724198 106.1507893  44.2881455 106.9201971 110.6722430
  43.9239663 106.3932592 111.3835351  45.1448571 106.5300440 110.4988915
  43.9286942 101.9491871 105.6683778  44.0961345 102.8172107 106.0354249
  43.7384111 102.1119153 104.7445067  40.1374757 106.8622647 113.3686313
  39.2125254 106.7298861 113.5764005  40.3859170 107.6416866 113.8656255
  43.9076163 104.4049528 106.6530445  43.7875788 104.8506579 107.4915925
  43.2128752 104.7534846 106.0943983  49.6061229 104.8771002 107.4810779
  50.5179086 105.1098388 107.3058477  49.0970877 105.4608046 106.9185858
  46.9497204 101.0529038 115.7300640  46.0881683 101.3510291 116.0217378
  46.9759639 101.2699436 114.7981673  43.7658774 109.5971228 112.1374446
  44.2297119 109.8758931 111.3479068  43.5015572 108.6954673 111.9547536
  42.7027660 105.7194381 108.9464011  43.4051703 106.1715424 109.4137937
  42.3708288 105.0778199 109.5743904  36.4452994 103.9777933 114.2481144
  35.6552048 104.2335462 113.7721255  36.9364241 104.7926271 114.3533185
  38.3967739 104.3422512 111.2064621  37.5998902 104.4541207 111.7248117
  38.1693331 104.6809165 110.3405512  43.9421424 112.5335323 109.0226116
  43.8067099 113.3786859 109.4510964  44.4831237 112.7354601 108.2592050
  37.3950822 110.0510761 109.5954041  37.9075342 110.8454011 109.7459606
  38.0473535 109.3537052 109.5287643  39.2045706 113.1676517 111.6776794
  39.3812335 114.0894482 111.4897778  40.0002540 112.8534937 112.1071174
  47.2913888  96.0565885 117.5525009  46.9478157  96.9467527 117.4764120
  47.6592850  95.8667543 116.6894594  35.3599738 108.3799415 110.3713612
  36.1974960 108.7896424 110.1547319  35.5378006 107.4398858 110.3413805
  47.2564171 106.0474496 106.0597445  46.7410794 106.8179101 106.2985832
  46.9841479 105.3739632 106.6830506  44.8411282 100.8924197 111.1182683
  43.9852878 100.5031047 110.9388322  45.2538233 100.9716158 110.2582468
  46.3710428  98.4270540 115.5174243  45.8675224  98.3900675 114.7042048
  46.6641035  99.3363283 115.5770899  42.6153314  98.5109270 114.5240424
  43.4806311  98.3152079 114.1646314  42.6830823  98.2819622 115.4509781
  52.2298445 108.8006851 107.9950618  51.4527888 108.4618010 107.5505780
  52.9089926 108.8059474 107.3205583  47.0450474 103.9201588 107.8857226
  46.7400609 104.2347737 108.7367369  47.9980916 103.9983008 107.9284559
  45.4896906 110.0791812 109.5350180  44.9618267 109.3444571 109.2223417
  44.9884408 110.8566488 109.2890148  40.2215633 100.7411478 111.8956791
  40.7959385 100.5186659 111.1629984  40.8086616 100.8100172 112.6485393
  40.5485220 102.7715939 105.9152677  39.7122533 103.1090625 106.2361951
  40.4089990 102.6364919 104.9779813  42.5238301  97.6152727 110.6231861
  41.8702713  97.3001744 109.9988475  42.4818775  96.9928467 111.3491684
  43.6349506 107.8972022 102.5385153  42.7276568 107.6661275 102.7376302
  44.1320538 107.1009641 102.7259134  46.5417585 116.6069529 105.4581839
  45.8679283 116.9101226 106.0666797  46.9283407 117.4098609 105.1087296
  45.7576041 104.1034660 114.9479508  44.8398603 104.3249607 114.7901196
  46.1736185 104.1780971 114.0891216  46.5411089 105.5026076 110.0782189
  47.2882908 106.0147473 109.7689311  46.8102679 105.1810129 110.9386582
  44.8137739 107.9984617 107.0609143  43.9048959 107.7143649 107.1581613
  44.8432823 108.4183695 106.2012450  48.9889926 102.5383192 112.0600978
  48.2512683 102.0260578 112.3911220  49.2416700 102.0983574 111.2484255
  49.0901554  95.3159444 112.6542747  49.3960430  94.4556808 112.3668662
  49.8154158  95.9077064 112.4541741  35.3825910 105.7190131 111.0424345
  35.1850309 105.1259491 110.3175412  34.8272574 105.4142341 111.7600284
  43.3622633 105.6113237 113.1618938  43.4171243 104.6587074 113.0861415
  42.5513835 105.7672676 113.6460237  44.5113827 109.5393360 104.3997221
  44.0733257 108.8229219 103.9402859  45.2524268 109.7669475 103.8382313
  41.3014993 104.2290297 110.9209317  40.4882859 104.5284468 111.3274509
  41.7973987 103.8345986 111.6383799  52.6286942 107.8150557 110.4573540
  52.4904840 108.0052153 109.5294729  52.2723161 108.5769940 110.9141591
  40.7929068 101.8008653 116.5370552  41.4328447 101.6597412 115.8393515
  39.9606599 101.5143166 116.1609154  41.5689372 111.1011083 112.6505544
  42.3629970 110.6061403 112.4488119  40.8581064 110.5728946 112.2873250
  37.8772135 105.2454165 108.7265297  36.9469723 105.1838620 108.9435259
  37.9729607 104.7230117 107.9301938  37.7957684 101.7708978 111.3143539
  38.0564502 102.6854311 111.2052699  38.6174857 101.3033420 111.4640152
  44.7408800 116.7749201 107.6728918  44.9160556 116.3037245 108.4874541
  44.0541588 117.4014968 107.9010179  48.6325055 108.3977742 103.9929279
  48.0154225 107.6724570 103.8962332  48.1641543 109.1587102 103.6496353
  40.4223601 102.6163166 103.1150583  39.5453067 102.4951967 102.7512830
  40.8981354 101.8249245 102.8629472  46.9184177 100.7784086 113.0047309
  47.4152876 100.0254048 112.6848379  46.1471158 100.8148403 112.4390519
  48.0013957 109.5355773 110.5785733  47.0670236 109.6557236 110.4090437
  48.1790626 108.6328240 110.3145742  43.5019145 102.9201469 112.7318994
  43.1316933 102.3672509 113.4199899  43.9978238 102.3159603 112.1793994
  51.3886509 105.3773093 111.1135767  51.8546961 106.2101084 111.0396069
  51.8394009 104.9118074 111.8181025  49.4562740 111.7216914 108.1121919
  49.7322584 111.6073508 109.0215793  48.5867239 111.3234399 108.0734092
  49.3603172  97.7453680 115.1526668  48.4466251  97.9757906 115.3208875
  49.7896273  97.8292124 116.0040700  46.4258969 114.8971450 109.0169781
  46.9546736 114.3863904 108.4039943  46.6887189 114.5813980 109.8815314
  38.8984479 100.3305460 118.9772100  38.9625806 101.1920291 118.5649498
  38.8351599  99.7179462 118.2444458  35.1502294 104.2105022 108.5563489
  35.4455735 103.3015700 108.5030543  34.2490330 104.1892761 108.2344491
  38.6796541 102.2861018 114.5391038  37.9583127 102.8996986 114.3998511
  39.4689797 102.8218783 114.4607683  36.8790136 101.8919119 108.6802814
  36.5502842 101.0116498 108.4977920  37.2329507 101.8366788 109.5679203
  39.9931959 102.1792089 109.0478292  40.3328032 102.7078010 108.3256900
  40.4404080 102.5172495 109.8236858  42.6875400 100.5629140 118.4981360
  42.3472220  99.7636953 118.9002040  41.9814406 100.8630851 117.9258193
  43.3391872  97.6478452 116.9508683  44.1617941  97.1738930 116.8287573
  43.5829935  98.4268936 117.4507369  41.9800106 100.6766711 107.2471585
  42.7008469 101.0547963 106.7435301  41.3565410 101.3955587 107.3506562
  46.1231229 101.3811860 108.1829917  46.3394844 102.2636497 107.8818745
  45.6425296 100.9898073 107.4535559  40.8630451 104.3397573 114.7600661
  40.7175031 104.6537876 115.6524943  40.3855654 104.9582473 114.2071560
  42.7226833 101.3300121 114.8081551  42.7088402 100.4341214 114.4713849
  43.4399262 101.3370784 115.4419837  44.5752964 101.7637461 116.8534678
  44.3170742 102.6854532 116.8519009  44.0438005 101.3667895 117.5435143
  42.1263729 100.2114501 110.0769121  42.2479641  99.2831147 110.2760009
  41.8365772 100.2253187 109.1647437  44.9954920  97.8969411 113.2135841
  45.0176617  97.9608745 112.2587821  45.4122979  97.0573920 113.4076347
  50.5074325 114.1855012 106.7321662  51.2025230 114.8061705 106.9508977
  50.8497476 113.3350364 107.0074040  52.4065749 111.6354718 108.2608993
  52.9317073 111.9741991 107.5358313  52.3188101 110.7001733 108.0772128
  41.0993788 111.7968634 108.1685008  41.2481909 112.4804098 107.5151681
  41.9060232 111.7773724 108.6834464  38.8546421 107.8233811 109.1746077
  38.6092463 106.9196141 109.3726287  39.0242336 107.8250962 108.2325555
  38.1242069 103.5562169 106.6732239  37.4311314 103.6306524 106.0172275
  37.8793821 102.7922513 107.1953756  46.7955725  95.1157770 114.0771729
  47.0757479  94.4480959 114.7032156  47.5806332  95.3086866 113.5646393
  44.5989194 114.2916764 105.6396756  44.0263161 114.9106951 105.1867228
  45.1721988 114.8416126 106.1736678  47.8186454 114.5753914 106.7705338
  48.7517127 114.5099476 106.9738214  47.7309666 115.4110181 106.3119871
  50.4474470 113.8919785 103.7309286  50.3688102 113.5579648 104.6245043
  51.2684137 114.3841553 103.7300758  44.9835992 105.6277577 102.9812808
  45.9295097 105.4983785 103.0501226  44.6050237 104.8892239 103.4582236
  50.9557877  97.2933583 112.9439700  50.7582698  96.9848671 113.8283032
  51.5657582  98.0195222 113.0737630  43.1678910 103.5527553 102.9167693
  42.2610365 103.2560666 102.9930407  43.4454891 103.2557371 102.0501980
  44.7840975  98.0964443 109.0711935  43.9741704  97.7511528 109.4467181
  45.4725392  97.7871987 109.6599546  46.7131524  97.1742490 110.6936231
  47.2662562  97.5937943 111.3526254  46.9501610  96.2478238 110.7359187
  41.9377694 100.4114489 103.0579673  42.7996858 100.7369387 103.3175490
  42.1228038  99.6245984 102.5452738  50.0910331  99.2843015 110.2014896
  49.5109000  99.9427819 109.8192948  49.8246263  98.4620360 109.7902313
  48.5413897  98.6848073 112.4036216  49.0413675  98.7964607 111.5950535
  49.1849505  98.3809126 113.0437024  48.8735209 101.4443105 109.2571244
  47.9861064 101.7292756 109.0391439  49.2889198 101.2836869 108.4098521
  52.2249745 101.4689626 112.9725583  53.0010135 101.9586079 113.2450200
  51.4997879 101.8947681 113.4297453  48.0178422 111.2087780 103.3519264
  48.7214272 111.4137783 103.9676919  47.2941071 111.7764542 103.6168347
  48.8476232 106.9597641 109.4721534  48.7911434 107.4166193 108.6329166
  49.4004575 106.1988326 109.2944377  52.6581038 102.7487373 110.2971654
  52.4017973 102.3484009 111.1279861  52.0333906 103.4631167 110.1721793
  49.9265120 111.6470309 105.4017724  50.7610723 111.2151508 105.2195199
  49.7649462 111.4752323 106.3294618  49.5811012 108.1502423 106.7674063
  49.5259815 107.9846694 105.8262507  48.9557067 108.8578455 106.9236253
  42.8907137  97.6510532 106.3459382  42.8785807  98.5952371 106.5027652
  43.7830559  97.4680677 106.0518843  46.7059257  94.2453308 110.6005318
  45.9391652  93.6911795 110.7462001  47.1169962  94.3175177 111.4619470
  51.3878975 118.1007857 105.9152677  50.5516287 118.4382543 106.2361951
  51.2483744 117.9656836 104.9779813  51.2617355 117.9455084 103.1150583
  50.3846821 117.8243885 102.7512830  51.7375108 117.1541162 102.8629472
  48.9635823 118.8854087 106.6732239  48.2705068 118.9598442 106.0172275
  48.7187575 118.1214430 107.1953756  54.0072664 118.8819471 102.9167693
  53.1004119 118.5852584 102.9930407  54.2848645 118.5849289 102.0501980
  52.7771449 115.7406406 103.0579673  53.6390613 116.0661305 103.3175490
  52.9621793 114.9537902 102.5452738  53.7300892 112.9802449 106.3459382
  53.7179561 113.9244289 106.5027652  54.6224314 112.7972595 106.0518843
   3.1842568  32.2963981  92.1827146   2.5104267  32.5995678  92.7912103
   3.5708390  33.0993061  91.8332603   7.1499309  29.8749464  93.4566969
   7.8450213  30.4956157  93.6754283   7.4922459  29.0244816  93.7319347
   1.2414177  29.9811216  92.3642062   0.6688144  30.6001403  91.9112534
   1.8146971  30.5310578  92.8981984   4.4611437  30.2648366  93.4950645
   5.3942110  30.1993928  93.6983520   4.3734650  31.1004633  93.0365177
   7.0899454  29.5814237  90.4554592   7.0113085  29.2474100  91.3490350
   7.9109120  30.0736004  90.4546065   4.6603405  26.8982232  90.0764571
   5.3639256  27.1032234  90.6922226   3.9366054  27.4658994  90.3413654
   6.5690103  27.3364761  92.1263031   7.4035707  26.9045960  91.9440505
   6.4074446  27.1646775  93.0539925  15.1974378  37.8534412 102.2218207
  15.8352788  37.7341160 101.5181547  15.0795221  38.8015256 102.2806159
   7.8650900  39.6597317  98.1476623   7.3015765  39.5687254  97.3792911
   7.7503295  38.8397221  98.6279115  13.4450459  43.3268284  93.4591088
  12.7938438  43.9122365  93.0725102  14.2394821  43.8574479  93.5186125
   7.3706086  40.4157422  93.8578222   8.1436962  39.8686409  93.7191098
   7.7231485  41.2801671  94.0692684   9.7072364  36.5750088  91.4896672
   9.9597884  36.0531609  90.7280135   8.7696923  36.4116233  91.5923356
  14.7515646  35.5785866  99.2971415  15.5378736  35.1605289  98.9461832
  15.0154351  36.4831958  99.4653064  14.9225724  41.0158716  93.9960072
  14.2871557  41.0893343  94.7080977  14.5923130  41.6052315  93.3179151
  20.1524074  35.5161099 100.2004394  20.8849245  34.9460316 100.4342223
  19.3963429  35.1282700 100.6410899   9.4268652  38.4778194  93.6921047
   9.3104910  37.8023097  94.3602131   9.5370912  37.9910568  92.8753200
  11.7700193  37.9388341  97.3967736  11.4058400  37.4118962  98.1080658
  12.6267309  37.5486810  97.2234222  11.4105680  32.9678240  92.3929085
  11.5780083  33.8358477  92.7599556  11.2202849  33.1305522  91.4690374
  11.3894901  35.4235898  93.3775752  11.2694526  35.8692949  94.2161232
  10.6947489  35.7721216  92.8189290   9.1501793  48.1939540  97.0265883
   9.0725823  49.1447365  97.1054363   8.5463437  47.8485412  97.6840809
  17.0879967  35.8957371  94.2056086  17.9997823  36.1284758  94.0303783
  16.5789614  36.4794415  93.6431164  15.6949550  40.8783190 101.5969667
  15.0658412  41.0428904 100.8945735  15.3075212  41.2924799 102.3680631
  19.5738781  41.8137627  98.9514031  18.8889820  42.1936529  98.4011064
  19.6582631  42.4232954  99.6845979  11.2477511  40.6157598  98.8619752
  11.7115857  40.8945301  98.0724375  10.9834310  39.7141042  98.6792843
  10.1846397  36.7380750  95.6709317  10.8870441  37.1901794  96.1383244
   9.8527026  36.0964569  96.2989211  17.9435541  42.3369542 103.7231732
  18.7652985  41.9349729 103.4414413  17.9397944  42.2337776 104.6747848
  26.0341534  38.6808290 100.0716703  25.2805242  38.1115688  99.9160708
  26.1689075  38.6470955 101.0187338  11.4240162  43.5521693  95.7471423
  11.2885837  44.3973228  96.1756270  11.9649975  43.7540970  94.9837356
   4.8769560  41.0697131  96.3199348   5.3894080  41.8640381  96.4704912
   5.5292272  40.3723421  96.2532949   6.6864444  44.1862887  98.4022101
   6.8631073  45.1080852  98.2143085   7.4821278  43.8721306  98.8316481
   7.8095760  45.7041061 104.4032443   8.3603185  45.5758124 103.6309437
   6.9707236  46.0035950 104.0527336   2.8418476  39.3985785  97.0958918
   3.6793698  39.8082793  96.8792626   3.0196744  38.4585227  97.0659112
  14.7382908  37.0660866  92.7842751  14.2229532  37.8365470  93.0231139
  14.4660217  36.3926002  93.4075813  12.3230019  31.9110566  97.8427990
  11.4671616  31.5217417  97.6633628  12.7356971  31.9902527  96.9827775
  19.7117183  39.8193220  94.7195925  18.9346625  39.4804380  94.2751087
  20.3908664  39.8245843  94.0450890  14.5269212  34.9387958  94.6102532
  14.2219347  35.2534107  95.4612676  15.4799654  35.0169378  94.6529865
  12.9715643  41.0978181  96.2595486  12.4437005  40.3630941  95.9468724
  12.4703146  41.8752857  96.0135455  17.9508489  39.2927202 101.3762533
  17.2932164  39.9826463 101.4642661  18.7548889  39.6823634 101.7196519
  16.7613948  37.6471574  99.4266474  17.2745830  38.2801566  99.9288184
  17.4115172  37.0472770  99.0609834   8.0303958  33.7902308  92.6397983
   7.1941270  34.1276995  92.9607258   7.8908728  33.6551288  91.7025120
  11.1168244  38.9158391  89.2630459  10.2095305  38.6847645  89.4621608
  11.6139276  38.1196011  89.4504441  14.0236322  47.6255899  92.1827146
  13.3498021  47.9287595  92.7912103  14.4102144  48.4284979  91.8332603
  14.0229827  36.5212445  96.8027495  14.7701646  37.0333843  96.4934617
  14.2921416  36.1996498  97.6631889  12.2956477  39.0170986  93.7854449
  11.3867696  38.7330019  93.8826919  12.3251561  39.4370065  92.9257756
  17.5275744  42.6277576  97.5545617  17.0738072  41.7868486  97.6110808
  16.8969711  43.2638974  97.8920397  16.4708664  33.5569562  98.7846284
  15.7331421  33.0446948  99.1156527  16.7235438  33.1169943  97.9729561
  15.9708684  44.4654072  98.4895435  16.2631658  45.0259130  97.7707801
  16.4807304  44.7582633  99.2448594  10.8441371  36.6299607  99.8864245
  10.8989981  35.6773443  99.8106721  10.0332573  36.7859046 100.3705543
  11.9932565  40.5579730  91.1242528  11.5551995  39.8415589  90.6648165
  12.7343006  40.7855845  90.5627619   8.7833731  35.2476667  97.6454624
   7.9701597  35.5470837  98.0519816   9.2792725  34.8532355  98.3629106
  10.9342309  45.2434423  99.5788888  10.8918488  45.4695270  98.6497420
  11.8505008  45.0097798  99.7274690  20.1105680  38.8336927  97.1818847
  19.9723578  39.0238523  96.2540036  19.7541898  39.5956310  97.6386898
  20.1375059  40.9013454 102.1930118  20.5711566  40.8088743 103.0413172
  20.8506640  40.8770954 101.5550134   9.0508110  42.1197453  99.3750851
   9.8448708  41.6247773  99.1733426   8.3399802  41.5915316  99.0118557
  13.8702954  44.5015548 103.7263219  13.9239976  45.0706484 104.4940935
  13.0017735  44.6717433 103.3617256   5.3590873  36.2640534  95.4510604
   4.4288461  36.2024990  95.6680566   5.4548345  35.7416487  94.6547245
  20.9990609  40.9437155 104.7263004  21.1926499  41.8482965 104.9722278
  20.8991227  40.4844574 105.5601589  11.6279386  42.6926474 103.0548688
  11.4890471  42.3245259 103.9274626  10.8393982  43.2074114 102.8832646
  12.2227538  47.7935571  94.3974225  12.3979293  47.3223614  95.2119847
  11.5360326  48.4201337  94.6255485  13.1784601  42.0708077 100.4437526
  12.8434433  42.0308847 101.3395176  12.6788546  41.4052793  99.9707936
  16.1143792  39.4164112  90.7174586  15.4972963  38.6910940  90.6207638
  15.6460281  40.1773472  90.3741660   6.7888623  50.9424934 101.1714085
   7.0285221  51.5743458 101.8493103   5.9457819  50.5912974 101.4579444
   7.9042338  33.6349536  89.8395890   7.0271805  33.5138337  89.4758137
   8.3800091  32.8435614  89.5874779  11.3016485  46.7504056 103.5755589
  11.2286656  47.5559028 104.0874893  10.8593878  46.9496022 102.7503610
  11.0906264  45.9875826  97.0858410  10.3073786  46.5297506  97.1796635
  11.7899010  46.5049806  97.4852652  22.2532672  37.5010821 101.3710907
  22.2422548  38.3835537 101.0004840  21.3850051  37.1482372 101.1765444
  13.7615168  46.6490890 105.7313748  14.4743140  47.2838355 105.6589649
  13.2705197  46.7454756 104.9153749  15.4832695  40.5542143  97.3031039
  14.5488974  40.6743605  97.1335744  15.6609364  39.6514610  97.0391049
  18.8705247  36.3959462  97.8381073  19.3365699  37.2287454  97.7641376
  19.3212747  35.9304444  98.5426332  16.9381478  42.7403283  94.8367225
  17.2141322  42.6259878  95.7461099  16.0685976  42.3420768  94.7979398
  13.5735542  46.9889634  98.4800039  13.7557936  46.1711290  98.9427791
  14.3968528  47.2057327  98.0424929  13.9077707  45.9157819  95.7415087
  14.4365474  45.4050274  95.1285250  14.1705927  45.6000350  96.6060621
   7.2633455  46.9672936  98.5012863   6.5943830  47.4519064  98.0176903
   7.1246325  47.2142157  99.4156242  11.4038724  49.0016680 105.0995522
  11.9557032  49.1648301 105.8644607  11.7444917  49.5921117 104.4275547
   2.6321032  35.2291391  95.2808796   2.9274473  34.3202069  95.2275849
   1.7309068  35.2079131  94.9589798  14.5407111  46.9498655 102.0859204
  14.4158250  46.1488395 101.5770149  15.1986202  47.4444849 101.5973174
  16.6042019  44.7507675 103.7138754  15.6572355  44.6313026 103.6417081
  16.9524792  43.8630173 103.7965015  13.6088453  44.5460391  99.9143106
  13.4613415  43.6177099 100.0950676  14.4341946  44.5680482  99.4300182
   7.4750697  33.1978459  95.7723598   7.8146769  33.7264380  95.0502207
   7.9222817  33.5358865  96.5482165  17.2122574  45.3688950 101.0007979
  18.1369122  45.1631812 100.8632430  17.0437878  45.1205351 101.9097321
   9.4618844  31.6953080  93.9716891  10.1827207  32.0734333  93.4680608
   8.8384148  32.4141957  94.0751869  13.6049967  32.3998229  94.9075224
  13.8213581  33.2822867  94.6064052  13.1244034  32.0084443  94.1780865
  17.0017891  45.8874618  96.3570070  17.1754768  45.3221040  95.6043923
  17.4946782  46.6875513  96.1749560  22.8557282  38.6511041  97.9760370
  23.2988428  37.9018366  97.5779493  21.9783792  38.6421177  97.5934102
  17.9893063  45.2041382  93.4566969  18.6843968  45.8248075  93.6754283
  18.3316213  44.3536733  93.7319347  19.8884486  42.6541088  94.9854300
  20.4135810  42.9928360  94.2603620  19.8006839  41.7188103  94.8017434
  11.5725147  48.7213071  99.3449553  11.1330137  48.2289450 100.0382409
  12.3233264  48.1786039  99.1041628   4.0517486  44.9124612  99.3474181
   4.8775506  44.6128384  98.9672824   3.7011538  44.1432234  99.7963969
   9.0199019  44.2651080 101.4171854   8.3979028  43.6021785 101.1174082
   9.6903886  44.2912212 100.7345502   8.5812526  42.8155003  94.8930315
   8.7300646  43.4990468  94.2396988   9.3878970  42.7960093  95.4079771
  22.3990147  40.1216279 100.3682818  23.2337038  40.5606083 100.5320378
  22.5349275  39.6454932  99.5491064   6.3365159  38.8420181  95.8991384
   6.0911201  37.9382511  96.0971594   6.5061074  38.8437331  94.9570862
   5.6060807  34.5748538  93.3977545   4.9130052  34.6492893  92.7417581
   5.3612559  33.8108882  93.9199062  12.0807932  45.3103134  92.3642062
  11.5081899  45.9293321  91.9112534  12.6540725  45.8602495  92.8981984
  15.3005191  45.5940284  93.4950645  16.2335865  45.5285846  93.6983520
  15.2128404  46.4296551  93.0365177  17.9293208  44.9106154  90.4554592
  17.8506840  44.5766018  91.3490350  18.7502875  45.4027922  90.4546065
  20.6271399  37.7767894 103.6630911  20.5947719  36.8383894 103.8490595
  21.2372023  37.8551930 102.9296736  12.4654730  36.6463946  89.7058115
  13.4113835  36.5170155  89.7746533  12.0868975  35.9078608  90.1827543
  26.4447949  38.8383900 102.8036948  27.1751338  38.5769188 103.3644651
  25.8354895  38.1012622 102.8439016  24.5263246  36.9791763 103.4011399
  23.7996410  36.8447728 102.7927890  24.1110533  37.2868592 104.2068117
  10.6497647  34.5713923  89.6413000   9.7429103  34.2747036  89.7175714
  10.9273628  34.2743741  88.7747286  12.2659713  29.1150813  95.7957241
  11.4560441  28.7697898  96.1712487  12.9544130  28.8058356  96.3844853
   9.4196432  31.4300858  89.7824979  10.2815596  31.7555756  90.0420797
   9.6046776  30.6432354  89.2698045  17.5729068  30.3029385  96.9260202
  16.9927737  30.9614189  96.5438255  17.3065001  29.4806729  96.5147620
  16.3553946  32.4629475  95.9816551  15.4679801  32.7479126  95.7636745
  16.7707935  32.3023238  95.1343827  19.7068483  32.4875996  99.6970890
  20.4828873  32.9772448  99.9695507  18.9816617  32.9134050 100.1542759
  22.1441041  33.2003615 100.7544830  22.7385532  32.9599351 100.0438139
  22.2167625  32.4810746 101.3818367   4.3638197  47.0437226 101.0687995
   4.2292665  46.2837627 100.5025993   3.9470259  47.7678126 100.6016784
  15.4997160  42.2274150  90.0764571  16.2033010  42.4324152  90.6922226
  14.7759809  42.7950911  90.3413654  16.3294970  37.9784011  96.1966841
  16.2730172  38.4352562  95.3574473  16.8823313  37.2174695  96.0189683
  20.1399776  33.7673743  97.0216960  19.8836710  33.3670378  97.8525168
  19.5152644  34.4817537  96.8967099  24.4512114  36.5069816  99.5288252
  23.8911672  36.5763005 100.3019814  23.8455617  36.3310801  98.8087748
   7.5207323  47.9406543 101.2806438   7.4039707  48.8851976 101.1785128
   6.6999769  47.6380105 101.6692237  17.4083857  42.6656679  92.1263031
  18.2429461  42.2337877  91.9440505  17.2468200  42.4938692  93.0539925
  17.0629749  39.1688792  93.4919370  17.0078553  39.0033064  92.5507814
  16.4375805  39.8764825  93.6481560  10.3725875  28.6696901  93.0704688
  10.3604545  29.6138741  93.2272959  11.2649297  28.4867047  92.7764149
   8.5461837  48.5934805 104.4962366   9.4489084  48.6258415 104.8128861
   8.3199207  47.6635256 104.5108702  10.3015439  47.3465792 101.1572445
   9.3511070  47.3467653 101.0436817  10.6047925  46.5998526 100.6408480
  26.0368132  53.1826330 102.2218207  26.6746542  53.0633077 101.5181547
  25.9188975  54.1307174 102.2806159  22.8457839  53.1353758 102.1579732
  22.5076350  53.0194823 101.2700267  23.7147607  52.7344923 102.1380738
  18.7044654  54.9889234  98.1476623  18.1409519  54.8979171  97.3792911
  18.5897049  54.1689139  98.6279115  23.3277622  54.2888610 108.1165938
  23.3166262  53.8941408 107.2446441  23.4898261  53.5554682 108.7099709
  16.2509086  56.4840426 100.9860843  17.0430378  56.1431251 100.5707143
  16.4905736  56.5935401 101.9062997  24.2844213  58.6560202  93.4591088
  23.6332193  59.2414283  93.0725102  25.0788576  59.1866397  93.5186125
  18.2099840  55.7449339  93.8578222  18.9830716  55.1978326  93.7191098
  18.5625239  56.6093589  94.0692684  20.0484883  57.0725722 107.0645122
  19.7574749  57.9771352 106.9491788  20.6841867  57.1142249 107.7789191
  20.9741090  54.4502570 103.6546481  21.5704662  54.2258592 102.9403444
  21.0316061  53.7087316 104.2571929  20.5466118  51.9042005  91.4896672
  20.7991639  51.3823527  90.7280135  19.6090677  51.7408151  91.5923356
  25.5909401  50.9077784  99.2971415  26.3772490  50.4897207  98.9461832
  25.8548105  51.8123876  99.4653064  25.7619478  56.3450634  93.9960072
  25.1265311  56.4185261  94.7080977  25.4316885  56.9344233  93.3179151
  20.2662407  53.8070111  93.6921047  20.1498665  53.1315015  94.3602131
  20.3764667  53.3202485  92.8753200  22.6093948  53.2680258  97.3967736
  22.2452155  52.7410879  98.1080658  23.4661064  52.8778728  97.2234222
  28.5143248  44.5574591 104.6599002  28.1826573  45.4270002 104.4360217
  27.9188862  44.2410875 105.3393033  22.2499435  48.2970158  92.3929085
  22.4173837  49.1650395  92.7599556  22.0596604  48.4597440  91.4690374
  25.0074768  56.7587137 104.0594915  24.7075491  57.6612176 103.9510722
  24.6625827  56.4919320 104.9116068  18.4587249  53.2100934 100.0931620
  17.5337746  53.0777148 100.3009311  18.7071663  53.9895153 100.5901562
  28.4071912  49.2769677 101.7392353  27.4988789  49.2085086 101.4451113
  28.3559507  49.7541622 102.5674178  22.2288656  50.7527816  93.3775752
  22.1088281  51.1984866  94.2161232  21.5341244  51.1013133  92.8189290
  15.8196060  52.8534207 100.9275409  15.9488442  53.1068686 101.8414820
  15.1393512  53.4461915 100.6080064  19.9895548  63.5231457  97.0265883
  19.9119577  64.4739282  97.1054363  19.3857191  63.1777330  97.6840809
  22.4812777  50.6959323 109.6827250  21.7046112  51.2553243 109.6730114
  23.1203341  51.1816106 110.2042120  30.2733558  47.4786116 103.5170226
  29.6307938  47.7718649 102.8710021  29.7688487  47.3639036 104.3223423
  27.9273722  51.2249289  94.2056086  28.8391578  51.4576676  94.0303783
  27.4183369  51.8086333  93.6431164  20.7359150  53.5044776 109.2445217
  21.4773834  54.0429820 108.9680040  20.0296135  54.1311065 109.4016769
  26.2114489  55.6473917 107.8417378  26.6197845  55.2056327 107.0972011
  25.4891751  55.0726544 108.0951571  22.5645559  50.5846523 105.2150935
  23.4106755  51.0085937 105.3585584  22.5044197  49.9280148 105.9089498
  26.5343304  56.2075107 101.5969667  25.9052166  56.3720821 100.8945735
  26.1468966  56.6216717 102.3680631  30.4132536  57.1429545  98.9514031
  29.7283574  57.5228446  98.4011064  30.4976385  57.7524872  99.6845979
  25.7145005  48.2450892 106.8732109  25.4705937  48.9992952 106.3366385
  25.9904935  48.6236239 107.7079356  27.6683468  54.7889504 105.5509374
  27.8800363  55.4321264 104.8743756  27.6213216  53.9551821 105.0831305
  25.2709697  47.4007325 102.4545947  24.4094176  47.6988578 102.7462684
  25.2972131  47.6177724 101.5226979  22.0871266  55.9449515  98.8619752
  22.5509611  56.2237218  98.0724375  21.8228064  55.0432960  98.6792843
  18.9795347  55.4920997 101.7999516  19.5496704  55.9208265 101.1617000
  19.5703459  55.2103582 102.4983701  21.0240152  52.0672668  95.6709317
  21.7264195  52.5193711  96.1383244  20.6920780  51.4256487  96.2989211
  19.4720514  50.6584424 110.0460527  18.8419174  51.3400705 110.2795924
  19.3656601  50.5467506 109.1013665  14.7665486  50.3256220 100.9726451
  13.9764540  50.5813749 100.4966562  15.2576733  51.1404558 101.0778492
  28.7829295  57.6661460 103.7231732  29.6046739  57.2641647 103.4414413
  28.7791698  57.5629694 104.6747848  16.7180231  50.6900800  97.9309928
  15.9211395  50.8019494  98.4493423  16.4905824  51.0287452  97.0650818
  22.5485899  57.2145503 105.8792442  22.6130331  57.6765910 106.7150614
  21.8396823  56.5842868 106.0074752  13.0503189  50.5786711 103.4041442
  13.3011227  51.4633721 103.6699018  13.5862737  50.3991312 102.6316534
  22.2633917  58.8813610  95.7471423  22.1279591  59.7265146  96.1756270
  22.8043729  59.0832888  94.9837356  15.7163314  56.3989048  96.3199348
  16.2287835  57.1932299  96.4704912  16.3686027  55.7015339  96.2532949
  17.5258199  59.5154805  98.4022101  17.7024827  60.4372769  98.2143085
  18.3215032  59.2013224  98.8316481  21.6669217  46.3763069 110.0006034
  22.4078931  46.9770222 109.9210497  21.8987140  45.6340707 109.4424077
  16.8110555  51.5619437 108.2784264  16.6964070  50.6604694 108.5791363
  15.9555073  51.8083133 107.9269081  23.8902393  59.5037177 109.8771765
  23.4466247  58.7173555 109.5592669  24.5519607  59.6916327 109.2115655
  18.6489514  61.0332978 104.4032443  19.1996939  60.9050042 103.6309437
  17.8100990  61.3327867 104.0527336  25.9883631  59.7839977 107.9053166
  25.9702106  60.6048858 107.4133435  26.9103551  59.6594052 108.1303307
  22.4456685  57.2984106 108.7476674  22.9785022  56.5372394 108.5175982
  21.9170766  57.0057758 109.4900829  25.6126380  42.4044172 104.2770316
  25.2690650  43.2945814 104.2009427  25.9805343  42.2145830 103.4139901
  13.6812231  54.7277703  97.0958918  14.5187453  55.1374711  96.8792626
  13.8590498  53.7877145  97.0659112  25.5776663  52.3952783  92.7842751
  25.0623286  53.1657388  93.0231139  25.3053971  51.7217920  93.4075813
  23.1623774  47.2402484  97.8427990  22.3065370  46.8509335  97.6633628
  23.5750726  47.3194445  96.9827775  24.6922921  44.7748827 102.2419549
  24.1887716  44.7378963 101.4287355  24.9853527  45.6841570 102.3016206
  20.9365806  44.8587557 101.2485731  21.8018803  44.6630366 100.8891621
  21.0043315  44.6297909 102.1755088  25.3662966  50.2679875  94.6102532
  25.0613102  50.5826025  95.4612676  26.3193408  50.3461295  94.6529865
  23.8109398  56.4270099  96.2595486  23.2830759  55.6922858  95.9468724
  23.3096901  57.2044775  96.0135455  28.7902244  54.6219119 101.3762533
  28.1325918  55.3118381 101.4642661  29.5942643  55.0115551 101.7196519
  18.5428126  47.0889765  98.6202098  19.1171877  46.8664947  97.8875291
  19.1299108  47.1578460  99.3730699  27.6007703  52.9763492  99.4266474
  28.1139584  53.6093484  99.9288184  28.2508927  52.3764687  99.0609834
  18.8697713  49.1194226  92.6397983  18.0335025  49.4568913  92.9607258
  18.7302482  48.9843206  91.7025120  20.8450793  43.9631014  97.3477167
  20.1915206  43.6480031  96.7233782  20.8031267  43.3406754  98.0736990
  21.9561998  54.2450309  89.2630459  21.0489060  54.0139562  89.4621608
  22.4533030  53.4487928  89.4504441  24.8630077  62.9547816  92.1827146
  24.1891776  63.2579513  92.7912103  25.2495899  63.7576897  91.8332603
  24.0788534  50.4512947 101.6724815  23.1611095  50.6727894 101.5146503
  24.4948677  50.5259258 100.8136522  24.8623581  51.8504363  96.8027495
  25.6095400  52.3625760  96.4934617  25.1315171  51.5288416  97.6631889
  23.1350232  54.3462904  93.7854449  22.2261451  54.0621937  93.8826919
  23.1645315  54.7661982  92.9257756  28.3669499  57.9569493  97.5545617
  27.9131826  57.1160403  97.6110808  27.7363466  58.5930892  97.8920397
  27.3102419  48.8861479  98.7846284  26.5725175  48.3738866  99.1156527
  27.5629192  48.4461861  97.9729561  26.8102438  59.7945990  98.4895435
  27.1025413  60.3551047  97.7707801  27.3201059  60.0874551  99.2448594
  27.4114046  41.6637731  99.3788054  27.7172923  40.8035095  99.0913969
  28.1366651  42.2555352  99.1787048  13.7038402  52.0668418  97.7669652
  13.5062802  51.4737779  97.0420718  13.1485066  51.7620628  98.4845590
  21.6835126  51.9591524  99.8864245  21.7383735  51.0065361  99.8106721
  20.8726328  52.1150964 100.3705543  22.8326319  55.8871648  91.1242528
  22.3945749  55.1707506  90.6648165  23.5736760  56.1147762  90.5627619
  19.6227485  50.5768584  97.6454624  18.8095351  50.8762755  98.0519816
  20.1186480  50.1824273  98.3629106  21.7736063  60.5726341  99.5788888
  21.7312242  60.7987187  98.6497420  22.6898762  60.3389716  99.7274690
  25.2201697  51.0410409 106.4769518  25.5751085  51.2681882 107.3363983
  25.8673828  51.3728786 105.8546773  19.1141560  48.1486940 103.2615859
  19.7540940  48.0075699 102.5638822  18.2819091  47.8621453 102.8854461
  30.9768814  56.2305372 102.1930118  31.4105320  56.1380661 103.0413172
  31.6900394  56.2062872 101.5550134  19.8901864  57.4489370  99.3750851
  20.6842463  56.9539690  99.1733426  19.1793557  56.9207233  99.0118557
  24.7096709  59.8307466 103.7263219  24.7633731  60.3998402 104.4940935
  23.8411490  60.0009351 103.3617256  16.1984628  51.5932452  95.4510604
  15.2682216  51.5316907  95.6680566  16.2942100  51.0708405  94.6547245
  16.1170177  48.1187265  98.0388845  16.3776994  49.0332598  97.9298006
  16.9387349  47.6511707  98.1885458  17.5895102  49.5325022 105.2087670
  18.2618155  49.3242384 104.5600319  16.7624889  49.3347108 104.7692902
  31.8384363  56.2729072 104.7263004  32.0320253  57.1774883 104.9722278
  31.7384981  55.8136491 105.5601589  23.4920674  46.1586963 107.2253331
  22.8448589  46.8576913 107.1317807  24.2621689  46.5923107 107.5929579
  26.8999472  56.4235815 110.3003884  26.7484978  56.1946367 109.3833968
  26.8904151  57.3806416 110.3135229  23.6684808  53.9967728 105.2850151
  24.5976868  54.1478887 105.1119118  23.2475838  54.0851749 104.4298797
  22.4673140  58.0218392 103.0548688  22.3284226  57.6537177 103.9274626
  21.6787736  58.5366032 102.8832646  23.0621292  63.1227489  94.3974225
  23.2373048  62.6515532  95.2119847  22.3754080  63.7493255  94.6255485
  24.0178355  57.3999995 100.4437526  23.6828188  57.3600765 101.3395176
  23.5182301  56.7344711  99.9707936  17.9922599  52.8067625 105.9690107
  17.8542397  52.0747864 106.5701646  18.9027523  52.7176525 105.6874295
  20.6204900  52.5187584 105.4573787  21.3304518  51.8780776 105.4160405
  20.5774208  52.7700479 106.3799968  28.6091679  59.4554938 108.3780366
  28.5504225  58.7714158 107.7110949  29.0111197  60.1973928 107.9260992
  19.3333834  49.5052802 107.2769426  18.7971191  49.0543541 107.9291023
  18.7450542  49.6398711 106.5339891  17.6282377  66.2716851 101.1714085
  17.8678976  66.9035376 101.8493103  16.7851574  65.9204891 101.4579444
  18.7436093  48.9641454  89.8395890  17.8665559  48.8430254  89.4758137
  19.2193846  48.1727532  89.5874779  28.6109086  57.4194522 106.6094346
  27.7235865  57.0820443 106.7320745  29.1807637  56.6877553 106.8463111
  10.2638233  53.7518613  99.9337397  10.9509273  53.4380343  99.3458412
  10.1086362  54.6559978  99.6604648  15.0672955  48.6408810 104.3622421
  14.9831144  48.0334479 103.6272831  14.2455662  49.1317828 104.3631917
  22.1410239  62.0795974 103.5755589  22.0680411  62.8850945 104.0874893
  21.6987632  62.2787940 102.7503610  21.9300019  61.3167744  97.0858410
  21.1467541  61.8589424  97.1796635  22.6292764  61.8341724  97.4852652
  25.2396669  47.1262373  99.7292616  25.7365369  46.3732336  99.4093686
  24.4683651  47.1626690  99.1635825  33.0926426  52.8302739 101.3710907
  33.0816303  53.7127454 101.0004840  32.2243806  52.4774290 101.1765444
  24.6008923  61.9782808 105.7313748  25.3136895  62.6130273 105.6589649
  24.1098951  62.0746674 104.9153749  26.3226450  55.8834061  97.3031039
  25.3882728  56.0035523  97.1335744  26.5003118  54.9806527  97.0391049
  21.8231638  49.2679756  99.4564300  21.4529425  48.7150797 100.1445206
  22.3190730  48.6637890  98.9039300  19.6520836  59.7277251 106.5519318
  20.3530296  60.3613734 106.7048713  19.1815951  60.0691983 105.7914958
  27.6815664  44.0931967 101.8771975  26.7678744  44.3236194 102.0454182
  28.1108765  44.1770411 102.7286007  27.4522122  52.2821859 104.3771869
  26.7993573  52.5297766 103.7224321  27.8302502  51.4685997 104.0434346
  24.4129296  62.3181552  98.4800039  24.5951691  61.5003208  98.9427791
  25.2362282  62.5349244  98.0424929  24.7471462  61.2449737  95.7415087
  25.2759228  60.7342192  95.1285250  25.0099681  60.9292267  96.6060621
  23.5009695  53.0241670 110.8637906  22.8250332  52.9235799 111.5340281
  24.3237329  52.8680884 111.3273903  15.2488554  59.2613606 103.4850421
  15.8341991  58.5157294 103.6178325  15.0513393  59.5717563 104.3687085
  18.1027210  62.2964854  98.5012863  17.4337585  62.7810981  98.0176903
  17.9640079  62.5434074  99.4156242   9.8406209  51.8319207 102.2054864
   9.8790309  51.2982797 102.9991982   9.3346502  51.3054412 101.5865841
  22.2432478  64.3308597 105.0995522  22.7950786  64.4940219 105.8644607
  22.5838672  64.9213035 104.4275547  17.2196971  46.6783747 105.7017406
  17.2838298  47.5398578 105.2894804  17.1564092  46.0657749 104.9689765
  27.0943353  59.1569855 110.9544176  27.6383256  59.7699813 110.4599131
  26.5130197  59.7149433 111.4711189  13.4714787  50.5583309  95.2808796
  13.7668228  49.6493987  95.2275849  12.5702822  50.5371048  94.9589798
  25.3800865  62.2790573 102.0859204  25.2552005  61.4780313 101.5770149
  26.0379957  62.7736766 101.5973174  17.0009034  48.6339305 101.2636344
  16.2795619  49.2475273 101.1243817  17.7902289  49.1697070 101.1852990
  19.8035347  45.9693732 107.5376996  20.3269749  46.2156028 108.3003305
  19.5847680  46.8013767 107.1180133  15.2002628  48.2397406  95.4048121
  14.8715334  47.3594785  95.2223227  15.5541999  48.1845075  96.2924510
  24.4482207  59.8752309  99.9143106  24.3007170  58.9469017 100.0950676
  25.2735701  59.8972400  99.4300182  18.3144451  48.5270376  95.7723598
  18.6540524  49.0556297  95.0502207  18.7616572  48.8650782  96.5482165
  28.0516329  60.6980868 101.0007979  28.9762876  60.4923729 100.8632430
  27.8831632  60.4497269 101.9097321  21.0087892  46.9107427 105.2226666
  20.6684713  46.1115240 105.6247346  20.3026899  47.2109138 104.6503500
  21.6604364  43.9956739 103.6753989  22.4830433  43.5217218 103.5532880
  21.9042428  44.7747223 104.1752676  20.3012599  47.0244998  93.9716891
  21.0220961  47.4026251  93.4680608  19.6777903  47.7433875  94.0751869
  24.4443721  47.7290147  94.9075224  24.6607336  48.6114785  94.6064052
  23.9637789  47.3376360  94.1780865  19.1842943  50.6875860 101.4845968
  19.0387524  51.0016163 102.3770250  18.7068146  51.3060760 100.9316867
  21.0439326  47.6778408 101.5326858  21.0300894  46.7819501 101.1959156
  21.7611754  47.6849072 102.1665144  22.8965456  48.1115748 103.5779985
  22.6383234  49.0332819 103.5764316  22.3650497  47.7146183 104.2680449
  27.8411645  61.2166535  96.3570070  28.0148523  60.6512958  95.6043923
  28.3340536  62.0167430  96.1749560  13.6588605  53.2281204 104.4233629
  13.1142073  54.0041012 104.5553904  14.5367955  53.5752009 104.2652751
  20.4476222  46.5592788  96.8014428  20.5692133  45.6309434  97.0005315
  20.1578264  46.5731474  95.8892743  23.3167412  44.2447699  99.9381148
  23.3389109  44.3087032  98.9833127  23.7335471  43.4052207 100.1321654
  14.4454627  52.3551101 107.3163786  13.7036363  52.5033736 107.9028417
  14.1247371  52.6159366 106.4530536  22.3898290  61.8967079 107.1144176
  22.6985416  61.6516226 107.9866876  23.1873772  62.1013717 106.6263046
  22.4118902  64.0504989  99.3449553  21.9723892  63.5581367 100.0382409
  23.1627019  63.5077956  99.1041628  14.8911241  60.2416529  99.3474181
  15.7169260  59.9420301  98.9672824  14.5405293  59.4724152  99.7963969
  19.8592774  59.5942998 101.4171854  19.2372783  58.9313703 101.1174082
  20.5297641  59.6204130 100.7345502  13.0919846  58.1602856 100.3063114
  12.2551754  57.7325030 100.1247116  13.0643491  58.3535299 101.2433906
  30.4172147  58.6165909 110.2905497  29.6267691  58.5990048 109.7509997
  30.1805501  59.1554203 111.0454534  30.5370022  55.4658375 107.6038226
  30.5868027  55.3008383 108.5453749  30.4283945  54.5985634 107.2136107
  19.4206281  58.1446921  94.8930315  19.5694401  58.8282385  94.2396988
  20.2272724  58.1252011  95.4079771  27.8273784  51.4489303 108.9197533
  28.7283647  51.3095768 108.6281531  27.9021759  51.6143758 109.8595710
  22.1616590  48.8256158 107.7650719  21.2919899  49.1189724 107.4933308
  22.3976070  49.4096603 108.4857983  32.0388219  57.8855317 107.8480248
  31.7473027  58.2485297 108.6843709  31.4260350  57.1722325 107.6693580
  30.2875407  53.0087931 106.3160306  30.7629529  53.2015578 105.5079157
  29.3640972  53.0647117 106.0703689  17.1758914  54.1712099  95.8991384
  16.9304956  53.2674429  96.0971594  17.3454828  54.1729249  94.9570862
  24.8655623  45.0435775 105.2816139  25.3837567  45.7796802 104.9562628
  24.5110756  45.3499768 106.1162899  16.4454561  49.9040456  93.3977545
  15.7523806  49.9784811  92.7417581  16.2006313  49.1400800  93.9199062
  25.1168218  41.4636058 100.8017036  25.3969971  40.7959247 101.4277463
  25.9018825  41.6565153 100.2891700  22.9201686  60.6395051  92.3642062
  22.3475653  61.2585239  91.9112534  23.4934480  61.1894413  92.8981984
  28.9877076  49.8853691 104.5488611  29.9394499  49.9851789 104.5700835
  28.8180526  49.0931960 105.0586696  27.0091455  46.9709275 104.7348012
  26.4141388  47.2514287 104.0394501  26.7241152  47.4603176 105.5064753
  26.1398946  60.9232202  93.4950645  27.0729619  60.8577763  93.6983520
  26.0522159  61.7588468  93.0365177  28.7686963  60.2398072  90.4554592
  28.6900594  59.9057935  91.3490350  29.5896629  60.7319840  90.4546065
  31.4665154  53.1059811 103.6630911  31.4341474  52.1675812 103.8490595
  32.0765777  53.1843848 102.9296736  23.3048485  51.9755864  89.7058115
  24.2507589  51.8462072  89.7746533  22.9262730  51.2370526  90.1827543
  31.6159642  49.8970855 103.7089194  31.0998691  49.1129311 103.5219123
  32.4999591  49.5689571 103.8735713  29.2770369  43.6411870  99.6685007
  29.0795190  43.3326958 100.5528339  29.8870075  44.3673509  99.7982937
  35.3657001  52.3083681 103.4011399  34.6390164  52.1739646 102.7927890
  34.9504288  52.6160509 104.2068117  23.1887177  56.0273610 111.1658772
  24.1090187  56.2052209 111.3598818  23.1536760  55.0829656 111.0138471
  21.4891402  49.9005841  89.6413000  20.5822857  49.6038953  89.7175714
  21.7667383  49.6035659  88.7747286  12.4069342  51.2212204 100.0912046
  12.0872127  50.3677512  99.7986420  11.8602770  51.4360782 100.8470014
  16.1849250  53.9374645 103.8081553  16.4035260  54.8691753 103.8269587
  16.5975024  53.5782619 104.5936357  23.1053468  44.4442730  95.7957241
  22.2954196  44.0989815  96.1712487  23.7937884  44.1350274  96.3844853
  25.0344016  43.5220777  97.4181538  25.5875054  43.9416230  98.0771561
  25.2714102  42.5956525  97.4604494  20.2590186  46.7592776  89.7824979
  21.1209350  47.0847674  90.0420797  20.4440531  45.9724272  89.2698045
  12.2757602  54.8415115 102.0605168  11.5821074  54.4269068 101.5475122
  13.0230593  54.8835652 101.4638587  28.4122823  45.6321302  96.9260202
  27.8321492  46.2906106  96.5438255  28.1458756  44.8098647  96.5147620
  26.8626389  45.0326360  99.1281523  27.3626168  45.1442894  98.3195841
  27.5061997  44.7287413  99.7682331  20.9208385  52.9404990 112.0149364
  20.4375467  53.7405350 112.2213253  21.0069324  52.9512934 111.0616808
  14.1894345  54.7733369  99.9371183  14.1665033  54.8721056  98.9853066
  14.4994981  55.6198520 100.2588349  16.8481723  56.8309524 104.0517797
  17.8024976  56.7993467 103.9847729  16.6494246  56.3700148 104.8668023
  17.4381105  55.4010640 106.6188595  18.2573994  55.8954719 106.6423432
  17.7117912  54.4842608 106.5906163  27.1947701  47.7921393  95.9816551
  26.3073556  48.0771043  95.7636745  27.6101690  47.6315156  95.1343827
  15.2031951  62.3729144 101.0687995  15.0686419  61.6129545 100.5025993
  14.7864014  63.0970044 100.6016784  27.1688725  53.3075929  96.1966841
  27.1123926  53.7644480  95.3574473  27.7217067  52.5466613  96.0189683
  18.3601077  63.2698461 101.2806438  18.2433461  64.2143893 101.1785128
  17.5393524  62.9672022 101.6692237  27.9023504  54.4980710  93.4919370
  27.8472308  54.3324981  92.5507814  27.2769559  55.2056743  93.6481560
  12.6916019  49.7348774 107.3180792  13.3374883  49.2247728 107.8068017
  12.4833170  50.4717456 107.8924217  25.2169411  56.8029622 112.8172933
  26.0860571  56.9770274 112.4559568  24.7376163  57.6224038 112.6948662
  21.2119629  43.9988819  93.0704688  21.1998299  44.9430659  93.2272959
  22.1043051  43.8158964  92.7764149  19.3855591  63.9226723 104.4962366
  20.2882838  63.9550333 104.8128861  19.1592961  62.9927174 104.5108702
  21.1409193  62.6757709 101.1572445  20.1904824  62.6759571 101.0436817
  21.4441680  61.9290444 100.6408480  25.0271749  40.5931595  97.3250625
  24.2604145  40.0390082  97.4707307  25.4382454  40.6653464  98.1864777
  27.0902841  71.8132344 100.9860843  27.8824133  71.4723168 100.5707143
  27.3299491  71.9227319 101.9062997  26.6589815  68.1826125 100.9275409
  26.7882196  68.4360604 101.8414820  25.9787266  68.7753833 100.6080064
  33.3206532  66.0251241 109.6827250  32.5439866  66.5845161 109.6730114
  33.9597095  66.5108023 110.2042120  31.5752904  68.8336694 109.2445217
  32.3167589  69.3721738 108.9680040  30.8689890  69.4602983 109.4016769
  36.5538759  63.5742809 106.8732109  36.3099691  64.3284870 106.3366385
  36.8298690  63.9528157 107.7079356  30.3114268  65.9876342 110.0460527
  29.6812929  66.6692623 110.2795924  30.2050356  65.8759424 109.1013665
  25.6059240  65.6548138 100.9726451  24.8158294  65.9105667 100.4966562
  26.0970488  66.4696476 101.0778492  23.8896943  65.9078629 103.4041442
  24.1404982  66.7925638 103.6699018  24.4256492  65.7283230 102.6316534
  29.5895011  60.2897108 112.4085778  29.1961956  59.7363306 113.0833422
  30.4061151  60.6007686 112.7992295  28.3651953  74.8446722  98.4022101
  28.5418582  75.7664687  98.2143085  29.1608787  74.5305142  98.8316481
  32.5062972  61.7054987 110.0006034  33.2472685  62.3062140 109.9210497
  32.7380895  60.9632625 109.4424077  27.6504310  66.8911354 108.2784264
  27.5357825  65.9896611 108.5791363  26.7948827  67.1375051 107.9269081
  33.2850440  72.6276024 108.7476674  33.8178776  71.8664312 108.5175982
  32.7564521  72.3349676 109.4900829  24.5205985  70.0569620  97.0958918
  25.3581207  70.4666629  96.8792626  24.6984253  69.1169063  97.0659112
  24.5432156  67.3960336  97.7669652  24.3456556  66.8029696  97.0420718
  23.9878820  67.0912546  98.4845590  27.0378382  66.9224370  95.4510604
  26.1075970  66.8608825  95.6680566  27.1335854  66.4000322  94.6547245
  26.9563931  63.4479182  98.0388845  27.2170748  64.3624516  97.9298006
  27.7781103  62.9803625  98.1885458  28.4288856  64.8616940 105.2087670
  29.1011910  64.6534302 104.5600319  27.6018643  64.6639026 104.7692902
  34.3314428  61.4878881 107.2253331  33.6842344  62.1868830 107.1317807
  35.1015444  61.9215024 107.5929579  28.8316354  68.1359543 105.9690107
  28.6936152  67.4039781 106.5701646  29.7421277  68.0468443 105.6874295
  30.1727588  64.8344720 107.2769426  29.6364945  64.3835458 107.9291023
  29.5844297  64.9690629 106.5339891  28.4676132  81.6008769 101.1714085
  28.7072730  82.2327293 101.8493103  27.6245328  81.2496809 101.4579444
  29.5829847  64.2933371  89.8395890  28.7059314  64.1722172  89.4758137
  30.0587600  63.5019449  89.5874779  21.1031987  69.0810531  99.9337397
  21.7903027  68.7672261  99.3458412  20.9480116  69.9851896  99.6604648
  25.9066710  63.9700727 104.3622421  25.8224898  63.3626397 103.6272831
  25.0849416  64.4609746 104.3631917  34.3403450  68.3533588 110.8637906
  33.6644087  68.2527717 111.5340281  35.1631084  68.1972801 111.3273903
  26.0882309  74.5905524 103.4850421  26.6735746  73.8449212 103.6178325
  25.8907147  74.9009481 104.3687085  20.6799964  67.1611124 102.2054864
  20.7184063  66.6274715 102.9991982  20.1740256  66.6346330 101.5865841
  27.5342998  64.0798797 109.3490441  28.1615037  63.6975875 109.9627965
  26.6770917  63.8612999 109.7146133  24.3108541  65.8875226  95.2808796
  24.6061982  64.9785905  95.2275849  23.4096577  65.8662966  94.9589798
  30.6429102  61.2985650 107.5376996  31.1663504  61.5447946 108.3003305
  30.4241435  62.1305684 107.1180133  26.0396383  63.5689324  95.4048121
  25.7109089  62.6886703  95.2223227  26.3935753  63.5136993  96.2924510
  24.4982359  68.5573122 104.4233629  23.9535828  69.3332930 104.5553904
  25.3761709  68.9043927 104.2652751  25.2848381  67.6843018 107.3163786
  24.5430117  67.8325654 107.9028417  24.9641126  67.9451284 106.4530536
  25.7304995  75.5708447  99.3474181  26.5563015  75.2712219  98.9672824
  25.3799047  74.8016069  99.7963969  23.9313600  73.4894774 100.3063114
  23.0945508  73.0616948 100.1247116  23.9037246  73.6827217 101.2433906
  30.7711056  63.4016703 111.0104360  30.8199211  64.2778826 110.6282130
  31.3133570  62.8594096 110.4376004  33.0010344  64.1548076 107.7650719
  32.1313654  64.4481642 107.4933308  33.2369824  64.7388521 108.4857983
  35.7049378  60.3727693 105.2816139  36.2231322  61.1088720 104.9562628
  35.3504511  60.6791686 106.1162899  27.2848316  65.2332374  93.3977545
  26.5917561  65.3076729  92.7417581  27.0400068  64.4692717  93.9199062
  34.0280932  71.3565528 111.1658772  34.9483941  71.5344127 111.3598818
  33.9930515  70.4121573 111.0138471  23.2463097  66.5504122 100.0912046
  22.9265881  65.6969430  99.7986420  22.6996525  66.7652700 100.8470014
  27.0243004  69.2666563 103.8081553  27.2429014  70.1983670 103.8269587
  27.4368778  68.9074537 104.5936357  31.8970870  64.8399768 113.1984302
  31.7967596  65.7894125 113.1296393  31.6792412  64.5118007 112.3260372
  31.0983941  62.0884693  89.7824979  31.9603105  62.4139592  90.0420797
  31.2834285  61.3016189  89.2698045  23.1151357  70.1707033 102.0605168
  22.4214828  69.7560986 101.5475122  23.8624348  70.2127570 101.4638587
  31.7602140  68.2696907 112.0149364  31.2769221  69.0697267 112.2213253
  31.8463079  68.2804852 111.0616808  25.0288099  70.1025287  99.9371183
  25.0058787  70.2012974  98.9853066  25.3388736  70.9490438 100.2588349
  27.6875477  72.1601442 104.0517797  28.6418731  72.1285384 103.9847729
  27.4888001  71.6992066 104.8668023  28.2774859  70.7302558 106.6188595
  29.0967748  71.2246637 106.6423432  28.5511667  69.8134526 106.5906163
  26.0425706  77.7021061 101.0687995  25.9080174  76.9421462 100.5025993
  25.6257768  78.4261961 100.6016784  29.1994832  78.5990378 101.2806438
  29.0827216  79.5435811 101.1785128  28.3787278  78.2963940 101.6692237
  23.5309773  65.0640692 107.3180792  24.1768637  64.5539646 107.8068017
  23.3226925  65.8009373 107.8924217  36.0563166  72.1321539 112.8172933
  36.9254325  72.3062192 112.4559568  35.5769917  72.9515956 112.6948662
  30.2249346  79.2518640 104.4962366  31.1276593  79.2842251 104.8128861
  29.9986716  78.3219091 104.5108702  27.8707264  62.2108309 111.4155806
  28.7338726  61.8545114 111.6259131  27.2972675  61.8722204 112.1031211
  47.7155641  83.8410165 102.2218207  48.3534051  83.7216913 101.5181547
  47.5976484  84.7891009 102.2806159  44.5245348  83.7937593 102.1579732
  44.1863859  83.6778658 101.2700267  45.3935116  83.3928758 102.1380738
  40.3832163  85.6473070  98.1476623  39.8197028  85.5563007  97.3792911
  40.2684558  84.8272974  98.6279115  45.0065131  84.9472445 108.1165938
  44.9953771  84.5525243 107.2446441  45.1685770  84.2138518 108.7099709
  37.9296595  87.1424261 100.9860843  38.7217887  86.8015086 100.5707143
  38.1693245  87.2519236 101.9062997  45.9631722  89.3144037  93.4591088
  45.3119702  89.8998118  93.0725102  46.7576085  89.8450232  93.5186125
  39.8887349  86.4033175  93.8578222  40.6618225  85.8562162  93.7191098
  40.2412748  87.2677424  94.0692684  41.7272392  87.7309557 107.0645122
  41.4362258  88.6355188 106.9491788  42.3629376  87.7726085 107.7789191
  42.6528599  85.1086405 103.6546481  43.2492171  84.8842428 102.9403444
  42.7103570  84.3671151 104.2571929  42.2253627  82.5625841  91.4896672
  42.4779148  82.0407362  90.7280135  41.2878186  82.3991986  91.5923356
  47.2696910  81.5661619  99.2971415  48.0559999  81.1481042  98.9461832
  47.5335614  82.4707711  99.4653064  47.4406987  87.0034469  93.9960072
  46.8052820  87.0769096  94.7080977  47.1104394  87.5928068  93.3179151
  52.6705337  81.5036852 100.2004394  53.4030509  80.9336069 100.4342223
  51.9144693  81.1158453 100.6410899  41.9449916  84.4653947  93.6921047
  41.8286174  83.7898850  94.3602131  42.0552176  83.9786321  92.8753200
  44.2881457  83.9264094  97.3967736  43.9239664  83.3994715  98.1080658
  45.1448573  83.5362563  97.2234222  50.1930757  75.2158426 104.6599002
  49.8614082  76.0853837 104.4360217  49.5976371  74.8994710 105.3393033
  43.9286944  78.9553994  92.3929085  44.0961346  79.8234230  92.7599556
  43.7384113  79.1181275  91.4690374  46.6862277  87.4170972 104.0594915
  46.3863000  88.3196011 103.9510722  46.3413336  87.1503156 104.9116068
  40.1374758  83.8684769 100.0931620  39.2125255  83.7360983 100.3009311
  40.3859172  84.6478988 100.5901562  50.0859421  79.9353513 101.7392353
  49.1776298  79.8668921 101.4451113  50.0347016  80.4125458 102.5674178
  43.9076165  81.4111651  93.3775752  43.7875790  81.8568702  94.2161232
  43.2128753  81.7596969  92.8189290  37.4983569  83.5118043 100.9275409
  37.6275951  83.7652522 101.8414820  36.8181021  84.1045751 100.6080064
  41.6683057  94.1815293  97.0265883  41.5907086  95.1323118  97.1054363
  41.0644700  93.8361165  97.6840809  44.1600286  81.3543158 109.6827250
  43.3833620  81.9137078 109.6730114  44.7990849  81.8399941 110.2042120
  51.9521067  78.1369951 103.5170226  51.3095447  78.4302484 102.8710021
  51.4475996  78.0222871 104.3223423  49.6061231  81.8833124  94.2056086
  50.5179087  82.1160511  94.0303783  49.0970878  82.4670168  93.6431164
  42.4146659  84.1628612 109.2445217  43.1561343  84.7013656 108.9680040
  41.7083644  84.7894900 109.4016769  47.8901998  86.3057752 107.8417378
  48.2985354  85.8640163 107.0972011  47.1679260  85.7310380 108.0951571
  44.2433068  81.2430359 105.2150935  45.0894264  81.6669772 105.3585584
  44.1831706  80.5863983 105.9089498  48.2130813  86.8658943 101.5969667
  47.5839675  87.0304657 100.8945735  47.8256475  87.2800552 102.3680631
  52.0920045  87.8013380  98.9514031  51.4071083  88.1812282  98.4011064
  52.1763894  88.4108707  99.6845979  47.3932514  78.9034727 106.8732109
  47.1493446  79.6576788 106.3366385  47.6692444  79.2820075 107.7079356
  49.3470977  85.4473340 105.5509374  49.5587872  86.0905099 104.8743756
  49.3000725  84.6135656 105.0831305  43.7658775  86.6033351  98.8619752
  44.2297120  86.8821054  98.0724375  43.5015573  85.7016795  98.6792843
  40.6582856  86.1504832 101.7999516  41.2284213  86.5792101 101.1617000
  41.2490968  85.8687417 102.4983701  42.7027661  82.7256503  95.6709317
  43.4051704  83.1777547  96.1383244  42.3708289  82.0840322  96.2989211
  41.1508022  81.3168260 110.0460527  40.5206683  81.9984541 110.2795924
  41.0444110  81.2051341 109.1013665  50.4616804  88.3245295 103.7231732
  51.2834248  87.9225482 103.4414413  50.4579207  88.2213529 104.6747848
  38.3967740  81.3484635  97.9309928  37.5998904  81.4603329  98.4493423
  38.1693332  81.6871287  97.0650818  44.2273408  87.8729338 105.8792442
  44.2917840  88.3349745 106.7150614  43.5184332  87.2426703 106.0074752
  58.5522798  84.6684043 100.0716703  57.7986506  84.0991441  99.9160708
  58.6870339  84.6346708 101.0187338  43.9421426  89.5397446  95.7471423
  43.8067100  90.3848981  96.1756270  44.4831238  89.7416723  94.9837356
  37.3950823  87.0572884  96.3199348  37.9075344  87.8516134  96.4704912
  38.0473536  86.3599174  96.2532949  39.2045708  90.1738640  98.4022101
  39.3812336  91.0956605  98.2143085  40.0002541  89.8597059  98.8316481
  43.3456726  77.0346905 110.0006034  44.0866440  77.6354058 109.9210497
  43.5774649  76.2924542 109.4424077  38.4898064  82.2203272 108.2784264
  38.3751579  81.3188529 108.5791363  37.6342582  82.4666969 107.9269081
  45.5689902  90.1621012 109.8771765  45.1253756  89.3757391 109.5592669
  46.2307116  90.3500163 109.2115655  40.3277023  91.6916814 104.4032443
  40.8784448  91.5633877 103.6309437  39.4888499  91.9911703 104.0527336
  47.6671140  90.4423812 107.9053166  47.6489615  91.2632693 107.4133435
  48.5891060  90.3177887 108.1303307  44.1244194  87.9567942 108.7476674
  44.6572531  87.1956230 108.5175982  43.5958275  87.6641593 109.4900829
  35.3599740  85.3861538  97.0958918  36.1974962  85.7958546  96.8792626
  35.5378007  84.4460980  97.0659112  47.2564172  83.0536619  92.7842751
  46.7410795  83.8241223  93.0231139  46.9841480  82.3801755  93.4075813
  52.2298446  85.8068973  94.7195925  51.4527889  85.4680133  94.2751087
  52.9089927  85.8121597  94.0450890  47.0450475  80.9263711  94.6102532
  46.7400611  81.2409860  95.4612676  47.9980917  81.0045131  94.6529865
  45.4896907  87.0853934  96.2595486  44.9618268  86.3506694  95.9468724
  44.9884410  87.8628610  96.0135455  50.4689753  85.2802955 101.3762533
  49.8113427  85.9702216 101.4642661  51.2730152  85.6699387 101.7196519
  49.2795212  83.6347327  99.4266474  49.7927093  84.2677319  99.9288184
  49.9296436  83.0348523  99.0609834  40.5485222  79.7778061  92.6397983
  39.7122534  80.1152748  92.9607258  40.4089991  79.6427041  91.7025120
  43.6349507  84.9034144  89.2630459  42.7276569  84.6723398  89.4621608
  44.1320539  84.1071764  89.4504441  46.5417586  93.6131652  92.1827146
  45.8679285  93.9163348  92.7912103  46.9283408  94.4160732  91.8332603
  46.5411090  82.5088199  96.8027495  47.2882909  83.0209596  96.4934617
  46.8102680  82.1872251  97.6631889  44.8137740  85.0046739  93.7854449
  43.9048960  84.7205772  93.8826919  44.8432824  85.4245818  92.9257756
  50.0457008  88.6153329  97.5545617  49.5919335  87.7744239  97.6110808
  49.4150975  89.2514727  97.8920397  48.9889927  79.5445315  98.7846284
  48.2512684  79.0322701  99.1156527  49.2416701  79.1045696  97.9729561
  48.4889947  90.4529825  98.4895435  48.7812922  91.0134883  97.7707801
  48.9988568  90.7458386  99.2448594  44.5113828  86.5455483  91.1242528
  44.0733258  85.8291342  90.6648165  45.2524269  86.7731598  90.5627619
  41.3014994  81.2352420  97.6454624  40.4882860  81.5346590  98.0519816
  41.7973989  80.8408108  98.3629106  43.4523572  91.2310177  99.5788888
  43.4099751  91.4571023  98.6497420  44.3686271  90.9973551  99.7274690
  46.8989206  81.6994244 106.4769518  47.2538594  81.9265717 107.3363983
  47.5461337  82.0312621 105.8546773  52.6286943  84.8212680  97.1818847
  52.4904842  85.0114276  96.2540036  52.2723162  85.5832063  97.6386898
  52.6556323  86.8889207 102.1930118  53.0892829  86.7964496 103.0413172
  53.3687903  86.8646707 101.5550134  41.5689373  88.1073206  99.3750851
  42.3629972  87.6123526  99.1733426  40.8581066  87.5791069  99.0118557
  46.3884218  90.4891301 103.7263219  46.4421240  91.0582237 104.4940935
  45.5198999  90.6593186 103.3617256  37.8772137  82.2516287  95.4510604
  36.9469725  82.1900743  95.6680566  37.9729609  81.7292240  94.6547245
  53.5171872  86.9312908 104.7263004  53.7107762  87.8358718 104.9722278
  53.4172490  86.4720327 105.5601589  48.5786981  87.0819650 110.3003884
  48.4272487  86.8530202 109.3833968  48.5691660  88.0390252 110.3135229
  45.3472317  84.6551563 105.2850151  46.2764377  84.8062723 105.1119118
  44.9263347  84.7435584 104.4298797  44.1460649  88.6802228 103.0548688
  44.0071735  88.3121012 103.9274626  43.3575245  89.1949867 102.8832646
  44.7408801  93.7811324  94.3974225  44.9160557  93.3099367  95.2119847
  44.0541589  94.4077090  94.6255485  45.6965864  88.0583830 100.4437526
  45.3615697  88.0184600 101.3395176  45.1969810  87.3928546  99.9707936
  39.6710108  83.4651460 105.9690107  39.5329906  82.7331699 106.5701646
  40.5815032  83.3760360 105.6874295  48.6325056  85.4039865  90.7174586
  48.0154227  84.6786693  90.6207638  48.1641544  86.1649225  90.3741660
  42.2992409  83.1771420 105.4573787  43.0092027  82.5364612 105.4160405
  42.2561717  83.4284314 106.3799968  50.2879188  90.1138773 108.3780366
  50.2291734  89.4297993 107.7110949  50.6898706  90.8557763 107.9260992
  41.0121343  80.1636637 107.2769426  40.4758700  79.7127376 107.9291023
  40.4238051  80.2982546 106.5339891  39.3069886  96.9300687 101.1714085
  39.5466485  97.5619211 101.8493103  38.4639083  96.5788727 101.4579444
  40.4223602  79.6225289  89.8395890  39.5453068  79.5014090  89.4758137
  40.8981355  78.8311367  89.5874779  50.2896595  88.0778357 106.6094346
  49.4023374  87.7404279 106.7320745  50.8595146  87.3461388 106.8463111
  31.9425742  84.4102449  99.9337397  32.6296782  84.0964179  99.3458412
  31.7873871  85.3143813  99.6604648  43.8197748  92.7379809 103.5755589
  43.7467920  93.5434781 104.0874893  43.3775141  92.9371775 102.7503610
  43.6087528  91.9751579  97.0858410  42.8255050  92.5173259  97.1796635
  44.3080273  92.4925559  97.4852652  54.7713935  83.4886574 101.3710907
  54.7603812  84.3711290 101.0004840  53.9031315  83.1358125 101.1765444
  46.2796432  92.6366643 105.7313748  46.9924404  93.2714108 105.6589649
  45.7886460  92.7330509 104.9153749  48.0013959  86.5417896  97.3031039
  47.0670237  86.6619358  97.1335744  48.1790627  85.6390363  97.0391049
  51.3886510  82.3835215  97.8381073  51.8546962  83.2163207  97.7641376
  51.8394011  81.9180197  98.5426332  41.3308345  90.3861087 106.5519318
  42.0317805  91.0197570 106.7048713  40.8603460  90.7275818 105.7914958
  49.4562741  88.7279036  94.8367225  49.7322585  88.6135631  95.7461099
  48.5867240  88.3296521  94.7979398  49.1309631  82.9405694 104.3771869
  48.4781081  83.1881602 103.7224321  49.5090011  82.1269832 104.0434346
  46.0916805  92.9765387  98.4800039  46.2739200  92.1587043  98.9427791
  46.9149791  93.1933080  98.0424929  46.4258971  91.9033572  95.7415087
  46.9546737  91.3926027  95.1285250  46.6887190  91.5876103  96.6060621
  45.1797204  83.6825505 110.8637906  44.5037841  83.5819635 111.5340281
  46.0024838  83.5264719 111.3273903  36.9276063  89.9197442 103.4850421
  37.5129500  89.1741130 103.6178325  36.7300902  90.2301398 104.3687085
  39.7814719  92.9548689  98.5012863  39.1125094  93.4394817  98.0176903
  39.6427588  93.2017910  99.4156242  31.5193718  82.4903042 102.2054864
  31.5577818  81.9566633 102.9991982  31.0134011  81.9638247 101.5865841
  43.9219987  94.9892433 105.0995522  44.4738295  95.1524054 105.8644607
  44.2626181  95.5796870 104.4275547  38.3736753  79.4090715 109.3490441
  39.0008792  79.0267792 109.9627965  37.5164672  79.1904917 109.7146133
  48.7730861  89.8153690 110.9544176  49.3170765  90.4283648 110.4599131
  48.1917706  90.3733269 111.4711189  47.0588374  92.9374408 102.0859204
  46.9339514  92.1364148 101.5770149  47.7167466  93.4320602 101.5973174
  49.1223283  90.7383428 103.7138754  48.1753618  90.6188779 103.6417081
  49.4706056  89.8505926 103.7965015  46.1269716  90.5336144  99.9143106
  45.9794679  89.6052852 100.0950676  46.9523210  90.5556235  99.4300182
  39.9931960  79.1854212  95.7723598  40.3328033  79.7140133  95.0502207
  40.4404081  79.5234618  96.5482165  49.7303838  91.3564703 101.0007979
  50.6550385  91.1507565 100.8632430  49.5619141  91.1081104 101.9097321
  46.1231230  78.3873982  94.9075224  46.3394845  79.2698620  94.6064052
  45.6425298  77.9960196  94.1780865  49.5199154  91.8750371  96.3570070
  49.6936032  91.3096793  95.6043923  50.0128045  92.6751266  96.1749560
  35.3376114  83.8865040 104.4233629  34.7929582  84.6624848 104.5553904
  36.2155464  84.2335844 104.2652751  55.3738545  84.6386794  97.9760370
  55.8169691  83.8894119  97.5779493  54.4965056  84.6296930  97.5934102
  50.5074327  91.1917135  93.4566969  51.2025231  91.8123828  93.6754283
  50.8497477  90.3412486  93.7319347  36.1242136  83.0134936 107.3163786
  35.3823872  83.1617571 107.9028417  35.8034880  83.2743202 106.4530536
  52.4065750  88.6416841  94.9854300  52.9317074  88.9804113  94.2603620
  52.3188102  87.7063856  94.8017434  44.0685798  92.5550914 107.1144176
  44.3772925  92.3100061 107.9866876  44.8661281  92.7597553 106.6263046
  44.0906411  94.7088824  99.3449553  43.6511401  94.2165203 100.0382409
  44.8414527  94.1661792  99.1041628  36.5698750  90.9000365  99.3474181
  37.3956769  90.6004137  98.9672824  36.2192802  90.1307987  99.7963969
  41.5380283  90.2526833 101.4171854  40.9160292  89.5897538 101.1174082
  42.2085150  90.2787965 100.7345502  34.7707355  88.8186691 100.3063114
  33.9339263  88.3908866 100.1247116  34.7431000  89.0119135 101.2433906
  41.6104810  78.7308621 111.0104360  41.6592966  79.6070744 110.6282130
  42.1527324  78.1886014 110.4376004  52.0959656  89.2749744 110.2905497
  51.3055200  89.2573883 109.7509997  51.8593010  89.8138038 111.0454534
  52.2157531  86.1242211 107.6038226  52.2655536  85.9592218 108.5453749
  52.1071454  85.2569470 107.2136107  41.0993790  88.8030756  94.8930315
  41.2481910  89.4866221  94.2396988  41.9060233  88.7835846  95.4079771
  49.5061293  82.1073139 108.9197533  50.4071156  81.9679603 108.6281531
  49.5809268  82.2727593 109.8595710  43.8404099  79.4839993 107.7650719
  42.9707408  79.7773559 107.4933308  44.0763579  80.0680438 108.4857983
  53.7175728  88.5439152 107.8480248  53.4260536  88.9069133 108.6843709
  53.1047859  87.8306160 107.6693580  54.9171410  86.1092032 100.3682818
  55.7518301  86.5481836 100.5320378  55.0530539  85.6330685  99.5491064
  51.9662916  83.6671767 106.3160306  52.4417038  83.8599413 105.5079157
  51.0428481  83.7230953 106.0703689  38.8546423  84.8295934  95.8991384
  38.6092465  83.9258264  96.0971594  39.0242337  84.8313084  94.9570862
  44.5989195  91.2978887  92.3642062  44.0263162  91.9169074  91.9112534
  45.1721989  91.8478248  92.8981984  50.6664585  80.5437527 104.5488611
  51.6182008  80.6435625 104.5700835  50.4968035  79.7515795 105.0586696
  48.6878964  77.6293110 104.7348012  48.0928897  77.9098123 104.0394501
  48.4028661  78.1187011 105.5064753  47.8186455  91.5816037  93.4950645
  48.7517128  91.5161599  93.6983520  47.7309668  92.4172304  93.0365177
  50.4474472  90.8981907  90.4554592  50.3688103  90.5641771  91.3490350
  51.2684138  91.3903675  90.4546065  53.1452663  83.7643647 103.6630911
  53.1128983  82.8259647 103.8490595  53.7553286  83.8427683 102.9296736
  44.9835994  82.6339700  89.7058115  45.9295098  82.5045908  89.7746533
  44.6050239  81.8954361  90.1827543  53.2947151  80.5554690 103.7089194
  52.7786200  79.7713147 103.5219123  54.1787100  80.2273407 103.8735713
  58.9629213  84.8259653 102.8036948  59.6932601  84.5644942 103.3644651
  58.3536158  84.0888375 102.8439016  57.0444510  82.9667516 103.4011399
  56.3177673  82.8323481 102.7927890  56.6291797  83.2744345 104.2068117
  44.8674686  86.6857446 111.1658772  45.7877696  86.8636045 111.3598818
  44.8324269  85.7413491 111.0138471  43.1678911  80.5589676  89.6413000
  42.2610366  80.2622789  89.7175714  43.4454892  80.2619494  88.7747286
  37.8636759  84.5958480 103.8081553  38.0822768  85.5275588 103.8269587
  38.2762533  84.2366455 104.5936357  42.7364624  80.1691686 113.1984302
  42.6361351  81.1186043 113.1296393  42.5186166  79.8409925 112.3260372
  41.9377695  77.4176611  89.7824979  42.7996859  77.7431509  90.0420797
  42.1228040  76.6308107  89.2698045  33.9545111  85.4998951 102.0605168
  33.2608583  85.0852904 101.5475122  34.7018102  85.5419487 101.4638587
  42.5995894  83.5988825 112.0149364  42.1162976  84.3989185 112.2213253
  42.6856833  83.6096770 111.0616808  35.8681854  85.4317205  99.9371183
  35.8452542  85.5304892  98.9853066  36.1782490  86.2782355 100.2588349
  38.5269232  87.4893360 104.0517797  39.4812485  87.4577302 103.9847729
  38.3281755  87.0283983 104.8668023  39.1168614  86.0594476 106.6188595
  39.9361503  86.5538554 106.6423432  39.3905421  85.1426444 106.5906163
  52.2249746  78.4751749  99.6970890  53.0010136  78.9648201  99.9695507
  51.4997880  78.9009803 100.1542759  54.6622305  79.1879368 100.7544830
  55.2566795  78.9475104 100.0438139  54.7348888  78.4686499 101.3818367
  36.8819460  93.0312979 101.0687995  36.7473928  92.2713380 100.5025993
  36.4651523  93.7553879 100.6016784  48.0178423  88.2149903  90.0764571
  48.7214273  88.4199905  90.6922226  47.2941072  88.7826665  90.3413654
  48.8476234  83.9659764  96.1966841  48.7911435  84.4228315  95.3574473
  49.4004576  83.2050448  96.0189683  52.6581040  79.7549496  97.0216960
  52.4017974  79.3546131  97.8525168  52.0333908  80.4693290  96.8967099
  56.9693377  82.4945569  99.5288252  56.4092935  82.5638758 100.3019814
  56.3636881  82.3186554  98.8087748  40.0388586  93.9282296 101.2806438
  39.9220970  94.8727729 101.1785128  39.2181032  93.6255858 101.6692237
  49.9265121  88.6532432  92.1263031  50.7610725  88.2213630  91.9440505
  49.7649464  88.4814446  93.0539925  49.5811013  85.1564545  93.4919370
  49.5259817  84.9908817  92.5507814  48.9557068  85.8640578  93.6481560
  34.3703528  80.3932610 107.3180792  35.0162392  79.8831563 107.8068017
  34.1620679  81.1301291 107.8924217  46.8956920  87.4613457 112.8172933
  47.7648080  87.6354109 112.4559568  46.4163672  88.2807874 112.6948662
  41.0643100  94.5810558 104.4962366  41.9670347  94.6134168 104.8128861
  40.8380470  93.6511009 104.5108702  42.8196702  93.3341545 101.1572445
  41.8692333  93.3343406 101.0436817  43.1229189  92.5874279 100.6408480
  58.5549396  99.1702083 102.2218207  59.1927806  99.0508830 101.5181547
  58.4370239 100.1182927 102.2806159  55.3639102  99.1229511 102.1579732
  55.0257614  99.0070576 101.2700267  56.2328870  98.7220676 102.1380738
  51.2225918 100.9764987  98.1476623  50.6590783 100.8854924  97.3792911
  51.1078313 100.1564892  98.6279115  55.8458885 100.2764363 108.1165938
  55.8347526  99.8817161 107.2446441  56.0079525  99.5430435 108.7099709
  48.7690350 102.4716179 100.9860843  49.5611642 102.1307004 100.5707143
  49.0087000 102.5811154 101.9062997  56.8025477 104.6435955  93.4591088
  56.1513456 105.2290036  93.0725102  57.5969839 105.1742150  93.5186125
  50.7281104 101.7325092  93.8578222  51.5011980 101.1854079  93.7191098
  51.0806503 102.5969342  94.0692684  52.5666146 103.0601475 107.0645122
  52.2756012 103.9647105 106.9491788  53.2023131 103.1018002 107.7789191
  53.4922353 100.4378323 103.6546481  54.0885925 100.2134345 102.9403444
  53.5497325  99.6963069 104.2571929  53.0647382  97.8917758  91.4896672
  53.3172902  97.3699280  90.7280135  52.1271941  97.7283904  91.5923356
  58.1090664  96.8953537  99.2971415  58.8953754  96.4772960  98.9461832
  58.3729369  97.7999629  99.4653064  58.2800742 102.3326387  93.9960072
  57.6446575 102.4061014  94.7080977  57.9498148 102.9219986  93.3179151
  63.5099091  96.8328770 100.2004394  64.2424263  96.2627987 100.4342223
  62.7538447  96.4450370 100.6410899  52.7843670  99.7945864  93.6921047
  52.6679928  99.1190768  94.3602131  52.8945930  99.3078238  92.8753200
  55.1275211  99.2556011  97.3967736  54.7633418  98.7286632  98.1080658
  55.9842327  98.8654481  97.2234222  61.0324512  90.5450344 104.6599002
  60.7007837  91.4145755 104.4360217  60.4370125  90.2286628 105.3393033
  54.7680698  94.2845911  92.3929085  54.9355101  95.1526148  92.7599556
  54.5777867  94.4473193  91.4690374  57.5256031 102.7462890 104.0594915
  57.2256754 103.6487929 103.9510722  57.1807091 102.4795073 104.9116068
  50.9768513  99.1976687 100.0931620  50.0519009  99.0652901 100.3009311
  51.2252926  99.9770906 100.5901562  60.9253175  95.2645430 101.7392353
  60.0170052  95.1960839 101.4451113  60.8740771  95.7417375 102.5674178
  54.7469919  96.7403569  93.3775752  54.6269544  97.1860619  94.2161232
  54.0522507  97.0888886  92.8189290  48.3377324  98.8409960 100.9275409
  48.4669705  99.0944439 101.8414820  47.6574775  99.4337668 100.6080064
  52.5076811 109.5107210  97.0265883  52.4300841 110.4615036  97.1054363
  51.9038455 109.1653083  97.6840809  54.9994041  96.6835076 109.6827250
  54.2227375  97.2428996 109.6730114  55.6384604  97.1691859 110.2042120
  62.7914822  93.4661869 103.5170226  62.1489202  93.7594402 102.8710021
  62.2869750  93.3514789 104.3223423  60.4454985  97.2125042  94.2056086
  61.3572841  97.4452429  94.0303783  59.9364632  97.7962086  93.6431164
  53.2540413  99.4920529 109.2445217  53.9955098 100.0305573 108.9680040
  52.5477399 100.1186818 109.4016769  58.7295753 101.6349670 107.8417378
  59.1379109 101.1932080 107.0972011  58.0073014 101.0602297 108.0951571
  55.0826823  96.5722276 105.2150935  55.9288018  96.9961690 105.3585584
  55.0225461  95.9155901 105.9089498  59.0524568 102.1950860 101.5969667
  58.4233430 102.3596574 100.8945735  58.6650230 102.6092470 102.3680631
  62.9313799 103.1305298  98.9514031  62.2464838 103.5104200  98.4011064
  63.0157649 103.7400625  99.6845979  58.2326268  94.2326645 106.8732109
  57.9887200  94.9868705 106.3366385  58.5086199  94.6111992 107.7079356
  60.1864731 100.7765257 105.5509374  60.3981626 101.4197017 104.8743756
  60.1394479  99.9427574 105.0831305  57.7890960  93.3883078 102.4545947
  56.9275439  93.6864331 102.7462684  57.8153395  93.6053477 101.5226979
  54.6052529 101.9325268  98.8619752  55.0690875 102.2112971  98.0724375
  54.3409327 101.0308713  98.6792843  51.4976610 101.4796750 101.7999516
  52.0677968 101.9084018 101.1617000  52.0884722 101.1979335 102.4983701
  53.5421415  98.0548421  95.6709317  54.2445459  98.5069464  96.1383244
  53.2102044  97.4132240  96.2989211  51.9901777  96.6460177 110.0460527
  51.3600438  97.3276458 110.2795924  51.8837865  96.5343259 109.1013665
  47.2846749  96.3131973 100.9726451  46.4945803  96.5689502 100.4966562
  47.7757997  97.1280311 101.0778492  61.3010559 103.6537213 103.7231732
  62.1228003 103.2517400 103.4414413  61.2972962 103.5505447 104.6747848
  49.2361495  96.6776553  97.9309928  48.4392658  96.7895247  98.4493423
  49.0087087  97.0163205  97.0650818  55.0667162 103.2021256 105.8792442
  55.1311595 103.6641663 106.7150614  54.3578086 102.5718621 106.0074752
  45.5684452  96.5662464 103.4041442  45.8192491  97.4509474 103.6699018
  46.1044001  96.3867065 102.6316534  69.3916552  99.9975961 100.0716703
  68.6380260  99.4283359  99.9160708  69.5264093  99.9638626 101.0187338
  54.7815180 104.8689363  95.7471423  54.6460855 105.7140899  96.1756270
  55.3224993 105.0708641  94.9837356  51.2682520  90.9480943 112.4085778
  50.8749465  90.3947142 113.0833422  52.0848660  91.2591522 112.7992295
  48.2344577 102.3864801  96.3199348  48.7469098 103.1808052  96.4704912
  48.8867290 101.6891092  96.2532949  50.0439462 105.5030558  98.4022101
  50.2206090 106.4248522  98.2143085  50.8396296 105.1888977  98.8316481
  54.1850481  92.3638822 110.0006034  54.9260194  92.9645975 109.9210497
  54.4168404  91.6216460 109.4424077  49.3291819  97.5495190 108.2784264
  49.2145334  96.6480447 108.5791363  48.4736336  97.7958886 107.9269081
  56.4083656 105.4912930 109.8771765  55.9647511 104.7049308 109.5592669
  57.0700870 105.6792080 109.2115655  51.1670778 107.0208731 104.4032443
  51.7178203 106.8925795 103.6309437  50.3282254 107.3203621 104.0527336
  58.5064895 105.7715730 107.9053166  58.4883370 106.5924611 107.4133435
  59.4284815 105.6469805 108.1303307  54.9637949 103.2859859 108.7476674
  55.4966285 102.5248147 108.5175982  54.4352030 102.9933511 109.4900829
  58.1307644  88.3919925 104.2770316  57.7871913  89.2821567 104.2009427
  58.4986606  88.2021583 103.4139901  46.1993494 100.7153456  97.0958918
  47.0368716 101.1250464  96.8792626  46.3771762  99.7752898  97.0659112
  58.0957926  98.3828536  92.7842751  57.5804550  99.1533141  93.0231139
  57.8235235  97.7093673  93.4075813  55.6805037  93.2278237  97.8427990
  54.8246634  92.8385088  97.6633628  56.0931989  93.3070198  96.9827775
  57.2104184  90.7624580 102.2419549  56.7068980  90.7254716 101.4287355
  57.5034791  91.6717323 102.3016206  53.4547070  90.8463310 101.2485731
  54.3200067  90.6506119 100.8891621  53.5224579  90.6173662 102.1755088
  63.0692200 101.1360891  94.7195925  62.2921643 100.7972051  94.2751087
  63.7483681 101.1413514  94.0450890  57.8844230  96.2555628  94.6102532
  57.5794365  96.5701778  95.4612676  58.8374672  96.3337048  94.6529865
  56.3290661 102.4145852  96.2595486  55.8012023 101.6798611  95.9468724
  55.8278164 103.1920528  96.0135455  61.3083507 100.6094872 101.3762533
  60.6507182 101.2994134 101.4642661  62.1123907 100.9991304 101.7196519
  51.0609389  93.0765518  98.6202098  51.6353141  92.8540700  97.8875291
  51.6480371  93.1454213  99.3730699  60.1188966  98.9639245  99.4266474
  60.6320848  99.5969237  99.9288184  60.7690190  98.3640440  99.0609834
  51.3878976  95.1069979  92.6397983  50.5516288  95.4444666  92.9607258
  51.2483746  94.9718959  91.7025120  53.3632057  89.9506767  97.3477167
  52.7096469  89.6355784  96.7233782  53.3212531  89.3282507  98.0736990
  54.4743262 100.2326062  89.2630459  53.5670323 100.0015316  89.4621608
  54.9714294  99.4363681  89.4504441  57.3811340 108.9423569  92.1827146
  56.7073039 109.2455266  92.7912103  57.7677162 109.7452650  91.8332603
  56.5969797  96.4388701 101.6724815  55.6792358  96.6603648 101.5146503
  57.0129941  96.5135011 100.8136522  57.3804845  97.8380116  96.8027495
  58.1276664  98.3501513  96.4934617  57.6496434  97.5164169  97.6631889
  55.6531495 100.3338657  93.7854449  54.7442714 100.0497690  93.8826919
  55.6826579 100.7537735  92.9257756  60.8850762 103.9445246  97.5545617
  60.4313090 103.1036156  97.6110808  60.2544729 104.5806645  97.8920397
  59.8283682  94.8737232  98.7846284  59.0906439  94.3614619  99.1156527
  60.0810456  94.4337614  97.9729561  59.3283702 105.7821743  98.4895435
  59.6206676 106.3426800  97.7707801  59.8382322 106.0750304  99.2448594
  59.9295309  87.6513484  99.3788054  60.2354186  86.7910848  99.0913969
  60.6547914  88.2431105  99.1787048  46.2219665  98.0544171  97.7669652
  46.0244065  97.4613532  97.0420718  45.6666329  97.7496381  98.4845590
  54.2016389  97.9467278  99.8864245  54.2564999  96.9941114  99.8106721
  53.3907591  98.1026717 100.3705543  55.3507583 101.8747401  91.1242528
  54.9127013 101.1583260  90.6648165  56.0918024 102.1023515  90.5627619
  52.1408749  96.5644337  97.6454624  51.3276614  96.8638508  98.0519816
  52.6367743  96.1700026  98.3629106  54.2917327 106.5602094  99.5788888
  54.2493506 106.7862941  98.6497420  55.2080026 106.3265469  99.7274690
  57.7382961  97.0286162 106.4769518  58.0932348  97.2557635 107.3363983
  58.3855092  97.3604539 105.8546773  63.4680698 100.1504598  97.1818847
  63.3298596 100.3406194  96.2540036  63.1116916 100.9123980  97.6386898
  51.6322824  94.1362693 103.2615859  52.2722203  93.9951452 102.5638822
  50.8000354  93.8497206 102.8854461  63.4950077 102.2181125 102.1930118
  63.9286584 102.1256414 103.0413172  64.2081658 102.1938625 101.5550134
  52.4083128 103.4365123  99.3750851  53.2023726 102.9415443  99.1733426
  51.6974820 102.9082986  99.0118557  57.2277972 105.8183219 103.7263219
  57.2814994 106.3874155 104.4940935  56.3592753 105.9885104 103.3617256
  48.7165891  97.5808205  95.4510604  47.7863479  97.5192660  95.6680566
  48.8123363  97.0584158  94.6547245  48.6351440  94.1063018  98.0388845
  48.8958257  95.0208351  97.9298006  49.4568612  93.6387460  98.1885458
  50.1076365  95.5200775 105.2087670  50.7799419  95.3118137 104.5600319
  49.2806152  95.3222861 104.7692902  64.3565627 102.2604825 104.7263004
  64.5501517 103.1650636 104.9722278  64.2566245 101.8012244 105.5601589
  56.0101937  92.1462716 107.2253331  55.3629853  92.8452666 107.1317807
  56.7802953  92.5798860 107.5929579  59.4180735 102.4111568 110.3003884
  59.2666242 102.1822120 109.3833968  59.4085415 103.3682169 110.3135229
  56.1866072  99.9843481 105.2850151  57.1158132 100.1354640 105.1119118
  55.7657102 100.0727502 104.4298797  54.9854404 104.0094145 103.0548688
  54.8465489 103.6412930 103.9274626  54.1969000 104.5241785 102.8832646
  55.5802556 109.1103242  94.3974225  55.7554311 108.6391285  95.2119847
  54.8935344 109.7369008  94.6255485  56.5359619 103.3875748 100.4437526
  56.2009451 103.3476518 101.3395176  56.0363564 102.7220464  99.9707936
  50.5103863  98.7943378 105.9690107  50.3723661  98.0623617 106.5701646
  51.4208786  98.7052278 105.6874295  59.4718810 100.7331782  90.7174586
  58.8547981 100.0078610  90.6207638  59.0035299 101.4941143  90.3741660
  53.1386163  98.5063337 105.4573787  53.8485782  97.8656529 105.4160405
  53.0955472  98.7576232 106.3799968  61.1272942 105.4430691 108.3780366
  61.0685488 104.7589911 107.7110949  61.5292460 106.1849681 107.9260992
  51.8515097  95.4928555 107.2769426  51.3152454  95.0419294 107.9291023
  51.2631806  95.6274464 106.5339891  50.1463641 112.2592604 101.1714085
  50.3860239 112.8911129 101.8493103  49.3032837 111.9080644 101.4579444
  51.2617356  94.9517207  89.8395890  50.3846823  94.8306007  89.4758137
  51.7375109  94.1603285  89.5874779  61.1290349 103.4070275 106.6094346
  60.2417128 103.0696196 106.7320745  61.6988900 102.6753306 106.8463111
  42.7819496  99.7394366  99.9337397  43.4690536  99.4256096  99.3458412
  42.6267625 100.6435731  99.6604648  47.5854219  94.6284563 104.3622421
  47.5012407  94.0210232 103.6272831  46.7636925  95.1193581 104.3631917
  54.6591503 108.0671727 103.5755589  54.5861674 108.8726698 104.0874893
  54.2168896 108.2663693 102.7503610  54.4481282 107.3043497  97.0858410
  53.6648804 107.8465177  97.1796635  55.1474028 107.8217477  97.4852652
  57.7577932  93.1138126  99.7292616  58.2546632  92.3608089  99.4093686
  56.9864914  93.1502443  99.1635825  65.6107690  98.8178492 101.3710907
  65.5997566  99.7003207 101.0004840  64.7425069  98.4650043 101.1765444
  57.1190186 107.9658561 105.7313748  57.8318158 108.6006026 105.6589649
  56.6280215 108.0622427 104.9153749  58.8407713 101.8709814  97.3031039
  57.9063992 101.9911276  97.1335744  59.0184382 100.9682280  97.0391049
  54.3412901  95.2555509  99.4564300  53.9710689  94.7026550 100.1445206
  54.8371994  94.6513643  98.9039300  62.2280265  97.7127133  97.8381073
  62.6940717  98.5455124  97.7641376  62.6787765  97.2472114  98.5426332
  52.1702100 105.7153004 106.5519318  52.8711559 106.3489487 106.7048713
  51.6997215 106.0567736 105.7914958  60.2956496 104.0570954  94.8367225
  60.5716340 103.9427549  95.7461099  59.4260994 103.6588439  94.7979398
  60.1996927  90.0807720 101.8771975  59.2860007  90.3111947 102.0454182
  60.6290029  90.1646164 102.7286007  59.9703386  98.2697612 104.3771869
  59.3174836  98.5173519 103.7224321  60.3483766  97.4561750 104.0434346
  56.9310560 108.3057305  98.4800039  57.1132954 107.4878961  98.9427791
  57.7543546 108.5224997  98.0424929  57.2652725 107.2325490  95.7415087
  57.7940492 106.7217945  95.1285250  57.5280945 106.9168020  96.6060621
  56.0190959  99.0117423 110.8637906  55.3431596  98.9111552 111.5340281
  56.8418593  98.8556637 111.3273903  47.7669818 105.2489359 103.4850421
  48.3523255 104.5033047 103.6178325  47.5694656 105.5593316 104.3687085
  50.6208473 108.2840607  98.5012863  49.9518848 108.7686734  98.0176903
  50.4821343 108.5309827  99.4156242  42.3587473  97.8194960 102.2054864
  42.3971572  97.2858550 102.9991982  41.8527765  97.2930165 101.5865841
  54.7613742 110.3184350 105.0995522  55.3132050 110.4815972 105.8644607
  55.1019935 110.9088788 104.4275547  49.7378235  92.6659500 105.7017406
  49.8019561  93.5274331 105.2894804  49.6745355  92.0533502 104.9689765
  49.2130507  94.7382633 109.3490441  49.8402546  94.3559710 109.9627965
  48.3558426  94.5196835 109.7146133  45.9896050  96.5459062  95.2808796
  46.2849491  95.6369740  95.2275849  45.0884086  96.5246801  94.9589798
  57.8982129 108.2666326 102.0859204  57.7733268 107.4656066 101.5770149
  58.5561220 108.7612519 101.5973174  49.5190297  94.6215058 101.2636344
  48.7976883  95.2351026 101.1243817  50.3083553  95.1572823 101.1852990
  59.9617037 106.0675346 103.7138754  59.0147373 105.9480697 103.6417081
  60.3099810 105.1797844 103.7965015  52.3216611  91.9569485 107.5376996
  52.8451012  92.2031781 108.3003305  52.1028944  92.7889520 107.1180133
  47.7183892  94.2273159  95.4048121  47.3896598  93.3470538  95.2223227
  48.0723262  94.1720828  96.2924510  56.9663471 105.8628062  99.9143106
  56.8188433 104.9344770 100.0950676  57.7916964 105.8848153  99.4300182
  50.8325715  94.5146129  95.7723598  51.1721787  95.0432050  95.0502207
  51.2797835  94.8526535  96.5482165  60.5697592 106.6856621 101.0007979
  61.4944140 106.4799482 100.8632430  60.4012896 106.4373022 101.9097321
  53.5269156  92.8983180 105.2226666  53.1865976  92.0990993 105.6247346
  52.8208162  93.1984891 104.6503500  54.1785628  89.9832492 103.6753989
  55.0011697  89.5092971 103.5532880  54.4223691  90.7622976 104.1752676
  52.8193862  93.0120751  93.9716891  53.5402225  93.3902004  93.4680608
  52.1959166  93.7309628  94.0751869  56.9624985  93.7165900  94.9075224
  57.1788599  94.5990538  94.6064052  56.4819052  93.3252113  94.1780865
  51.7024206  96.6751613 101.4845968  51.5568787  96.9891916 102.3770250
  51.2249410  97.2936513 100.9316867  53.5620589  93.6654161 101.5326858
  53.5482158  92.7695254 101.1959156  54.2793017  93.6724825 102.1665144
  55.4146720  94.0991501 103.5779985  55.1564498  95.0208572 103.5764316
  54.8831760  93.7021936 104.2680449  60.3592909 107.2042288  96.3570070
  60.5329786 106.6388711  95.6043923  60.8521800 108.0043183  96.1749560
  46.1769868  99.2156957 104.4233629  45.6323337  99.9916765 104.5553904
  47.0549218  99.5627762 104.2652751  52.9657485  92.5468541  96.8014428
  53.0873396  91.6185187  97.0005315  52.6759527  92.5607227  95.8892743
  55.8348676  90.2323452  99.9381148  55.8570372  90.2962785  98.9833127
  56.2516735  89.3927960 100.1321654  66.2132300  99.9678711  97.9760370
  66.6563446  99.2186036  97.5779493  65.3358810  99.9588848  97.5934102
  61.3468081 106.5209053  93.4566969  62.0418986 107.1415745  93.6754283
  61.6891231 105.6704404  93.7319347  46.9635890  98.3426854 107.3163786
  46.2217626  98.4909489 107.9028417  46.6428635  98.6035119 106.4530536
  63.2459504 103.9708758  94.9854300  63.7710828 104.3096031  94.2603620
  63.1581857 103.0355774  94.8017434  54.9079553 107.8842832 107.1144176
  55.2166679 107.6391979 107.9866876  55.7055035 108.0889470 106.6263046
  54.9300165 110.0380742  99.3449553  54.4905155 109.5457120 100.0382409
  55.6808282 109.4953709  99.1041628  47.4092504 106.2292282  99.3474181
  48.2350524 105.9296054  98.9672824  47.0586556 105.4599905  99.7963969
  52.3774037 105.5818751 101.4171854  51.7554046 104.9189456 101.1174082
  53.0478904 105.6079883 100.7345502  45.6101109 104.1478609 100.3063114
  44.7733017 103.7200783 100.1247116  45.5824754 104.3411052 101.2433906
  52.4498565  94.0600539 111.0104360  52.4986720  94.9362661 110.6282130
  52.9921079  93.5177932 110.4376004  63.0551285 101.4534128 107.6038226
  63.1049290 101.2884136 108.5453749  62.9465209 100.5861387 107.2136107
  51.9387544 104.1322674  94.8930315  52.0875664 104.8158138  94.2396988
  52.7453988 104.1127764  95.4079771  60.3455048  97.4365056 108.9197533
  61.2464911  97.2971521 108.6281531  60.4203022  97.6019511 109.8595710
  54.6797853  94.8131911 107.7650719  53.8101163  95.1065477 107.4933308
  54.9157333  95.3972356 108.4857983  64.5569482 103.8731070 107.8480248
  64.2654291 104.2361050 108.6843709  63.9441614 103.1598078 107.6693580
  65.7565165 101.4383950 100.3682818  66.5912056 101.8773754 100.5320378
  65.8924293 100.9622603  99.5491064  62.8056670  98.9963684 106.3160306
  63.2810792  99.1891331 105.5079157  61.8822236  99.0522870 106.0703689
  49.6940177 100.1587852  95.8991384  49.4486219  99.2550182  96.0971594
  49.8636092 100.1605002  94.9570862  57.3836887  91.0311528 105.2816139
  57.9018831  91.7672555 104.9562628  57.0292020  91.3375521 106.1162899
  48.9635825  95.8916209  93.3977545  48.2705070  95.9660564  92.7417581
  48.7187576  95.1276553  93.9199062  57.6349481  87.4511811 100.8017036
  57.9151235  86.7835000 101.4277463  58.4200088  87.6440906 100.2891700
  55.4382950 106.6270804  92.3642062  54.8656917 107.2460992  91.9112534
  56.0115743 107.1770166  92.8981984  61.5058339  95.8729445 104.5488611
  62.4575762  95.9727542 104.5700835  61.3361790  95.0807713 105.0586696
  59.5272719  92.9585028 104.7348012  58.9322651  93.2390040 104.0394501
  59.2422416  93.4478929 105.5064753  58.6580209 106.9107955  93.4950645
  59.5910883 106.8453516  93.6983520  58.5703422 107.7464221  93.0365177
  61.2868226 106.2273825  90.4554592  61.2081858 105.8933689  91.3490350
  62.1077893 106.7195593  90.4546065  63.9846417  99.0935564 103.6630911
  63.9522737  98.1551565 103.8490595  64.5947041  99.1719601 102.9296736
  55.8229748  97.9631617  89.7058115  56.7688853  97.8337825  89.7746533
  55.4443993  97.2246279  90.1827543  64.1340906  95.8846608 103.7089194
  63.6179954  95.1005064 103.5219123  65.0180854  95.5565324 103.8735713
  61.7951633  89.6287623  99.6685007  61.5976454  89.3202711 100.5528339
  62.4051338  90.3549262  99.7982937  69.8022967 100.1551571 102.8036948
  70.5326356  99.8936859 103.3644651  69.1929913  99.4180293 102.8439016
  67.8838264  98.2959434 103.4011399  67.1571428  98.1615399 102.7927890
  67.4685551  98.6036262 104.2068117  55.7068441 102.0149363 111.1658772
  56.6271450 102.1927962 111.3598818  55.6718024 101.0705409 111.0138471
  54.0072665  95.8881594  89.6413000  53.1004121  95.5914706  89.7175714
  54.2848646  95.5911412  88.7747286  44.9250606  97.2087957 100.0912046
  44.6053390  96.3553265  99.7986420  44.3784034  97.4236535 100.8470014
  48.7030513  99.9250398 103.8081553  48.9216523 100.8567506 103.8269587
  49.1156287  99.5658372 104.5936357  55.6234731  90.4318483  95.7957241
  54.8135459  90.0865568  96.1712487  56.3119148  90.1226027  96.3844853
  57.5525279  89.5096530  97.4181538  58.1056318  89.9291984  98.0771561
  57.7895366  88.5832278  97.4604494  53.5758379  95.4983604 113.1984302
  53.4755105  96.4477961 113.1296393  53.3579921  95.1701843 112.3260372
  52.7771450  92.7468529  89.7824979  53.6390614  93.0723427  90.0420797
  52.9621794  91.9600025  89.2698045  44.7938866 100.8290868 102.0605168
  44.1002337 100.4144821 101.5475122  45.5411857 100.8711405 101.4638587
  60.9304086  91.6197055  96.9260202  60.3502755  92.2781859  96.5438255
  60.6640019  90.7974400  96.5147620  59.3807653  91.0202113  99.1281523
  59.8807431  91.1318647  98.3195841  60.0243261  90.7163166  99.7682331
  53.4389649  98.9280743 112.0149364  52.9556730  99.7281103 112.2213253
  53.5250588  98.9388687 111.0616808  46.7075608 100.7609122  99.9371183
  46.6846296 100.8596810  98.9853066  47.0176245 101.6074273 100.2588349
  49.3662986 102.8185277 104.0517797  50.3206240 102.7869220 103.9847729
  49.1675510 102.3575901 104.8668023  49.9562368 101.3886393 106.6188595
  50.7755257 101.8830472 106.6423432  50.2299176 100.4718361 106.5906163
  59.7128964  93.7797146  95.9816551  58.8254819  94.0646796  95.7636745
  60.1282953  93.6190909  95.1343827  63.0643501  93.8043667  99.6970890
  63.8403891  94.2940119  99.9695507  62.3391635  94.2301721 100.1542759
  65.5016059  94.5171286 100.7544830  66.0960550  94.2767022 100.0438139
  65.5742643  93.7978416 101.3818367  47.7213215 108.3604897 101.0687995
  47.5867683 107.6005298 100.5025993  47.3045277 109.0845797 100.6016784
  58.8572178 103.5441820  90.0764571  59.5608028 103.7491823  90.6922226
  58.1334827 104.1118582  90.3413654  59.6869988  99.2951682  96.1966841
  59.6305190  99.7520233  95.3574473  60.2398331  98.5342366  96.0189683
  63.4974794  95.0841413  97.0216960  63.2411728  94.6838049  97.8525168
  62.8727662  95.7985207  96.8967099  67.8087132  97.8237487  99.5288252
  67.2486690  97.8930676 100.3019814  67.2030635  97.6478471  98.8087748
  50.8782341 109.2574214 101.2806438  50.7614725 110.2019646 101.1785128
  50.0574787 108.9547775 101.6692237  60.7658875 103.9824350  92.1263031
  61.6004479 103.5505548  91.9440505  60.6043218 103.8106363  93.0539925
  60.4204767 100.4856463  93.4919370  60.3653571 100.3200734  92.5507814
  59.7950823 101.1932496  93.6481560  45.2097282  95.7224527 107.3180792
  45.8556146  95.2123481 107.8068017  45.0014434  96.4593209 107.8924217
  53.7300893  89.9864572  93.0704688  53.7179563  90.9306412  93.2272959
  54.6224315  89.8034717  92.7764149  51.9036855 109.9102476 104.4962366
  52.8064102 109.9426086 104.8128861  51.6774225 108.9802927 104.5108702
  53.6590457 108.6633462 101.1572445  52.7086088 108.6635324 101.0436817
  53.9622943 107.9166197 100.6408480  57.5453012  86.5807348  97.3250625
  56.7785408  86.0265835  97.4707307  57.9563717  86.6529217  98.1864777
  49.5494773  92.8692144 111.4155806  50.4126235  92.5128949 111.6259131
  48.9760184  92.5306039 112.1031211  62.0619672 116.3056905  98.1476623
  61.4984537 116.2146842  97.3792911  61.9472067 115.4856810  98.6279115
  59.6084104 117.8008097 100.9860843  60.4005396 117.4598921 100.5707143
  59.8480754 117.9103072 101.9062997  67.6419231 119.9727873  93.4591088
  66.9907211 120.5581953  93.0725102  68.4363594 120.5034068  93.5186125
  61.5674858 117.0617010  93.8578222  62.3405734 116.5145997  93.7191098
  61.9200257 117.9261259  94.0692684  63.9041136 113.2209676  91.4896672
  64.1566657 112.6991197  90.7280135  62.9665695 113.0575822  91.5923356
  68.9484419 112.2245454  99.2971415  69.7347508 111.8064878  98.9461832
  69.2123123 113.1291547  99.4653064  69.1194496 117.6618305  93.9960072
  68.4840329 117.7352931  94.7080977  68.7891903 118.2511904  93.3179151
  63.6237425 115.1237782  93.6921047  63.5073683 114.4482685  94.3602131
  63.7339685 114.6370156  92.8753200  65.9668966 114.5847929  97.3967736
  65.6027173 114.0578550  98.1080658  66.8236082 114.1946398  97.2234222
  65.6074453 109.6137829  92.3929085  65.7748855 110.4818065  92.7599556
  65.4171622 109.7765111  91.4690374  61.8162267 114.5268605 100.0931620
  60.8912764 114.3944819 100.3009311  62.0646681 115.3062824 100.5901562
  65.5863674 112.0695486  93.3775752  65.4663299 112.5152537  94.2161232
  64.8916262 112.4180804  92.8189290  59.1771078 114.1701878 100.9275409
  59.3063460 114.4236357 101.8414820  58.4968530 114.7629586 100.6080064
  71.2848740 112.5416960  94.2056086  72.1966596 112.7744346  94.0303783
  70.7758387 113.1254004  93.6431164  68.6284714 108.7174996 102.4545947
  67.7669193 109.0156249 102.7462684  68.6547149 108.9345394 101.5226979
  65.4446284 117.2617186  98.8619752  65.9084629 117.5404889  98.0724375
  65.1803082 116.3600631  98.6792843  64.3815170 113.3840338  95.6709317
  65.0839213 113.8361382  96.1383244  64.0495798 112.7424157  96.2989211
  58.1240504 111.6423891 100.9726451  57.3339558 111.8981420 100.4966562
  58.6151751 112.4572229 101.0778492  60.0755249 112.0068470  97.9309928
  59.2786413 112.1187165  98.4493423  59.8480841 112.3455123  97.0650818
  56.4078207 111.8954382 103.4041442  56.6586245 112.7801391 103.6699018
  56.9437755 111.7158983 102.6316534  65.6208935 120.1981281  95.7471423
  65.4854609 121.0432817  96.1756270  66.1618747 120.4000559  94.9837356
  59.0738332 117.7156719  96.3199348  59.5862853 118.5099969  96.4704912
  59.7261045 117.0183010  96.2532949  60.8833217 120.8322475  98.4022101
  61.0599845 121.7540440  98.2143085  61.6790050 120.5180895  98.8316481
  68.9701398 103.7211843 104.2770316  68.6265668 104.6113485 104.2009427
  69.3380361 103.5313501 103.4139901  57.0387249 116.0445373  97.0958918
  57.8762471 116.4542382  96.8792626  57.2165516 115.1044816  97.0659112
  68.9351681 113.7120454  92.7842751  68.4198304 114.4825059  93.0231139
  68.6628989 113.0385590  93.4075813  66.5198792 108.5570155  97.8427990
  65.6640388 108.1677005  97.6633628  66.9325744 108.6362116  96.9827775
  68.0497939 106.0916498 102.2419549  67.5462734 106.0546633 101.4287355
  68.3428545 107.0009241 102.3016206  64.2940824 106.1755228 101.2485731
  65.1593821 105.9798037 100.8891621  64.3618333 105.9465580 102.1755088
  73.9085955 116.4652809  94.7195925  73.1315398 116.1263968  94.2751087
  74.5877436 116.4705432  94.0450890  68.7237984 111.5847546  94.6102532
  68.4188120 111.8993695  95.4612676  69.6768426 111.6628966  94.6529865
  67.1684416 117.7437769  96.2595486  66.6405777 117.0090529  95.9468724
  66.6671919 118.5212446  96.0135455  61.9003143 108.4057436  98.6202098
  62.4746895 108.1832617  97.8875291  62.4874126 108.4746130  99.3730699
  62.2272731 110.4361897  92.6397983  61.3910043 110.7736583  92.9607258
  62.0877500 110.3010877  91.7025120  64.2025811 105.2798685  97.3477167
  63.5490224 104.9647702  96.7233782  64.1606285 104.6574425  98.0736990
  65.3137016 115.5617980  89.2630459  64.4064078 115.3307233  89.4621608
  65.8108048 114.7655599  89.4504441  68.2205095 124.2715487  92.1827146
  67.5466794 124.5747184  92.7912103  68.6070917 125.0744567  91.8332603
  67.4363552 111.7680618 101.6724815  66.5186113 111.9895565 101.5146503
  67.8523695 111.8426929 100.8136522  68.2198599 113.1672034  96.8027495
  68.9670418 113.6793431  96.4934617  68.4890189 112.8456087  97.6631889
  66.4925249 115.6630575  93.7854449  65.5836469 115.3789607  93.8826919
  66.5220333 116.0829653  92.9257756  70.6677436 110.2029150  98.7846284
  69.9300193 109.6906536  99.1156527  70.9204210 109.7629532  97.9729561
  70.7689064 102.9805402  99.3788054  71.0747941 102.1202766  99.0913969
  71.4941669 103.5723022  99.1787048  57.0613420 113.3836089  97.7669652
  56.8637820 112.7905449  97.0420718  56.5060084 113.0788299  98.4845590
  65.0410144 113.2759195  99.8864245  65.0958753 112.3233032  99.8106721
  64.2301346 113.4318634 100.3705543  66.1901337 117.2039318  91.1242528
  65.7520767 116.4875177  90.6648165  66.9311778 117.4315433  90.5627619
  62.9802503 111.8936255  97.6454624  62.1670369 112.1930426  98.0519816
  63.4761498 111.4991944  98.3629106  74.3074452 115.4796515  97.1818847
  74.1692351 115.6698111  96.2540036  73.9510671 116.2415898  97.6386898
  62.4716578 109.4654610 103.2615859  63.1115958 109.3243370 102.5638822
  61.6394109 109.1789124 102.8854461  63.2476882 118.7657041  99.3750851
  64.0417481 118.2707361  99.1733426  62.5368574 118.2374904  99.0118557
  59.5559646 112.9100123  95.4510604  58.6257234 112.8484578  95.6680566
  59.6517118 112.3876075  94.6547245  59.4745195 109.4354935  98.0388845
  59.7352012 110.3500269  97.9298006  60.2962367 108.9679378  98.1885458
  60.9470120 110.8492693 105.2087670  61.6193173 110.6410055 104.5600319
  60.1199906 110.6514779 104.7692902  66.4196310 124.4395159  94.3974225
  66.5948066 123.9683203  95.2119847  65.7329098 125.0660926  94.6255485
  70.3112565 116.0623700  90.7174586  69.6941736 115.3370528  90.6207638
  69.8429053 116.8233060  90.3741660  62.1011111 110.2809124  89.8395890
  61.2240577 110.1597925  89.4758137  62.5768864 109.4895203  89.5874779
  53.6213251 115.0686284  99.9337397  54.3084291 114.7548014  99.3458412
  53.4661380 115.9727649  99.6604648  58.4247973 109.9576481 104.3622421
  58.3406162 109.3502150 103.6272831  57.6030679 110.4485499 104.3631917
  68.5971687 108.4430044  99.7292616  69.0940386 107.6900006  99.4093686
  67.8258668 108.4794361  99.1635825  69.6801468 117.2001731  97.3031039
  68.7457746 117.3203194  97.1335744  69.8578136 116.2974198  97.0391049
  65.1806656 110.5847427  99.4564300  64.8104443 110.0318467 100.1445206
  65.6765748 109.9805561  98.9039300  73.0674019 113.0419051  97.8381073
  73.5334471 113.8747042  97.7641376  73.5181519 112.5764032  98.5426332
  71.1350250 119.3862872  94.8367225  71.4110094 119.2719466  95.7461099
  70.2654749 118.9880357  94.7979398  71.0390682 105.4099638 101.8771975
  70.1253762 105.6403864 102.0454182  71.4683783 105.4938082 102.7286007
  68.1046480 122.5617408  95.7415087  68.6334246 122.0509862  95.1285250
  68.3674699 122.2459938  96.6060621  53.1981227 113.1486877 102.2054864
  53.2365327 112.6150468 102.9991982  52.6921520 112.6222083 101.5865841
  60.5771989 107.9951418 105.7017406  60.6413316 108.8566249 105.2894804
  60.5139110 107.3825419 104.9689765  56.8289805 111.8750979  95.2808796
  57.1243246 110.9661658  95.2275849  55.9277840 111.8538719  94.9589798
  60.3584052 109.9506976 101.2636344  59.6370637 110.5642944 101.1243817
  61.1477307 110.4864741 101.1852990  58.5577646 109.5565077  95.4048121
  58.2290352 108.6762456  95.2223227  58.9117017 109.5012746  96.2924510
  61.6719469 109.8438047  95.7723598  62.0115542 110.3723968  95.0502207
  62.1191590 110.1818453  96.5482165  64.3662910 108.2275098 105.2226666
  64.0259731 107.4282911 105.6247346  63.6601916 108.5276808 104.6503500
  65.0179382 105.3124410 103.6753989  65.8405451 104.8384888 103.5532880
  65.2617446 106.0914894 104.1752676  63.6587617 108.3412669  93.9716891
  64.3795979 108.7193921  93.4680608  63.0352921 109.0601545  94.0751869
  67.8018739 109.0457817  94.9075224  68.0182354 109.9282455  94.6064052
  67.3212807 108.6544031  94.1780865  62.5417961 112.0043531 101.4845968
  62.3962542 112.3183834 102.3770250  62.0643164 112.6228431 100.9316867
  64.4014344 108.9946079 101.5326858  64.3875912 108.0987172 101.1959156
  65.1186772 109.0016742 102.1665144  66.2540474 109.4283419 103.5779985
  65.9958252 110.3500490 103.5764316  65.7225515 109.0313853 104.2680449
  57.0163623 114.5448875 104.4233629  56.4717091 115.3208683 104.5553904
  57.8942973 114.8919680 104.2652751  63.8051240 107.8760459  96.8014428
  63.9267151 106.9477105  97.0005315  63.5153282 107.8899145  95.8892743
  66.6742430 105.5615369  99.9381148  66.6964127 105.6254702  98.9833127
  67.0910489 104.7219878 100.1321654  72.1861836 121.8500970  93.4566969
  72.8812740 122.4707663  93.6754283  72.5284986 120.9996322  93.7319347
  74.0853259 119.3000676  94.9854300  74.6104583 119.6387949  94.2603620
  73.9975611 118.3647691  94.8017434  58.2486258 121.5584200  99.3474181
  59.0744278 121.2587972  98.9672824  57.8980310 120.7891823  99.7963969
  56.4494864 119.4770527 100.3063114  55.6126772 119.0492701 100.1247116
  56.4218509 119.6702970 101.2433906  62.7781299 119.4614592  94.8930315
  62.9269419 120.1450056  94.2396988  63.5847742 119.4419682  95.4079771
  60.5333932 115.4879769  95.8991384  60.2879973 114.5842099  96.0971594
  60.7029846 115.4896920  94.9570862  59.8029579 111.2208127  93.3977545
  59.1098824 111.2952482  92.7417581  59.5581331 110.4568471  93.9199062
  68.4743236 102.7803728 100.8017036  68.7544989 102.1126917 101.4277463
  69.2593843 102.9732824 100.2891700  66.2776704 121.9562722  92.3642062
  65.7050671 122.5752909  91.9112534  66.8509498 122.5062084  92.8981984
  69.4973964 122.2399872  93.4950645  70.4304637 122.1745434  93.6983520
  69.4097177 123.0756139  93.0365177  72.1261981 121.5565743  90.4554592
  72.0475612 121.2225606  91.3490350  72.9471647 122.0487510  90.4546065
  66.6623503 113.2923535  89.7058115  67.6082607 113.1629743  89.7746533
  66.2837748 112.5538197  90.1827543  72.6345387 104.9579541  99.6685007
  72.4370208 104.6494629 100.5528339  73.2445093 105.6841180  99.7982937
  64.8466420 111.2173511  89.6413000  63.9397875 110.9206624  89.7175714
  65.1242401 110.9203329  88.7747286  55.7644360 112.5379875 100.0912046
  55.4447144 111.6845183  99.7986420  55.2177788 112.7528453 100.8470014
  66.4628485 105.7610401  95.7957241  65.6529214 105.4157486  96.1712487
  67.1512902 105.4517945  96.3844853  68.3919034 104.8388448  97.4181538
  68.9450072 105.2583901  98.0771561  68.6289120 103.9124196  97.4604494
  63.6165204 108.0760446  89.7824979  64.4784368 108.4015345  90.0420797
  63.8015549 107.2891942  89.2698045  55.6332620 116.1582786 102.0605168
  54.9396092 115.7436739 101.5475122  56.3805611 116.2003323 101.4638587
  71.7697841 106.9488973  96.9260202  71.1896510 107.6073777  96.5438255
  71.5033774 106.1266318  96.5147620  70.2201407 106.3494031  99.1281523
  70.7201186 106.4610565  98.3195841  70.8637015 106.0455083  99.7682331
  57.5469363 116.0901040  99.9371183  57.5240051 116.1888727  98.9853066
  57.8569999 116.9366191 100.2588349  70.5522719 109.1089063  95.9816551
  69.6648574 109.3938714  95.7636745  70.9676708 108.9482827  95.1343827
  73.9037255 109.1335584  99.6970890  74.6797645 109.6232037  99.9695507
  73.1785389 109.5593638 100.1542759  69.6965932 118.8733738  90.0764571
  70.4001782 119.0783740  90.6922226  68.9728581 119.4410500  90.3413654
  70.5263743 114.6243599  96.1966841  70.4698944 115.0812151  95.3574473
  71.0792085 113.8634284  96.0189683  74.3368549 110.4133331  97.0216960
  74.0805483 110.0129967  97.8525168  73.7121417 111.1277125  96.8967099
  71.6052630 119.3116267  92.1263031  72.4398234 118.8797466  91.9440505
  71.4436973 119.1398281  93.0539925  71.2598522 115.8148380  93.4919370
  71.2047326 115.6492652  92.5507814  70.6344577 116.5224413  93.6481560
  56.0491037 111.0516445 107.3180792  56.6949901 110.5415399 107.8068017
  55.8408188 111.7885127 107.8924217  64.5694647 105.3156489  93.0704688
  64.5573317 106.2598329  93.2272959  65.4618069 105.1326635  92.7764149
  68.3846767 101.9099266  97.3250625  67.6179163 101.3557753  97.4707307
  68.7957472 101.9821135  98.1864777  73.0666485 125.7653814  92.6397983
  72.2303797 126.1028501  92.9607258  72.9271255 125.6302794  91.7025120
  72.9404865 125.6101042  89.8395890  72.0634332 125.4889843  89.4758137
  73.4162618 124.8187120  89.5874779  70.6423334 126.5500045  93.3977545
  69.9492579 126.6244400  92.7417581  70.3975085 125.7860388  93.9199062
  75.6860174 126.5465429  89.6413000  74.7791630 126.2498542  89.7175714
  75.9636155 126.2495247  88.7747286  74.4558959 123.4052364  89.7824979
  75.3178123 123.7307262  90.0420797  74.6409303 122.6183860  89.2698045
  75.4088402 120.6448407  93.0704688  75.3967072 121.5890247  93.2272959
  76.3011824 120.4618553  92.7764149  15.1974379  14.8596535  88.9463514
  15.8352789  14.7403282  88.2426854  15.0795222  15.8077379  89.0051466
   7.8650901  16.6659439  84.8721930   7.3015766  16.5749376  84.1038217
   7.7503296  15.8459344  85.3524422  13.4450460  20.3330407  80.1836395
  12.7938440  20.9184487  79.7970408  14.2394823  20.8636602  80.2431432
   7.3706087  17.4219544  80.5823529   8.1436963  16.8748531  80.4436405
   7.7231486  18.2863794  80.7937990   9.7072365  13.5812210  78.2141979
   9.9597886  13.0593732  77.4525442   8.7696924  13.4178356  78.3168662
  14.7515648  12.5847989  86.0216722  15.5378737  12.1667412  85.6707139
  15.0154352  13.4894081  86.1898370  14.9225725  18.0220839  80.7205379
  14.2871558  18.0955466  81.4326283  14.5923131  18.6114438  80.0424458
  20.1524075  12.5223222  86.9249701  20.8849247  11.9522439  87.1587530
  19.3963430  12.1344822  87.3656206   9.4268654  15.4840316  80.4166354
   9.3104912  14.8085220  81.0847438   9.5370913  14.9972690  79.5998507
  11.7700194  14.9450463  84.1213043  11.4058402  14.4181084  84.8325964
  12.6267310  14.5548932  83.9479528  11.3894902  12.4298021  80.1021058
  11.2694528  12.8755071  80.9406539  10.6947491  12.7783338  79.5434596
   9.1501794  25.2001662  83.7511190   9.0725824  26.1509487  83.8299670
   8.5463438  24.8547535  84.4086116  17.0879969  12.9019494  80.9301392
  17.9997825  13.1346881  80.7549090  16.5789616  13.4856538  80.3676471
  15.6949551  17.8845312  88.3214974  15.0658413  18.0491026  87.6191042
  15.3075213  18.2986922  89.0925938  19.5738783  18.8199750  85.6759338
  18.8889821  19.1998651  85.1256371  19.6582632  19.4295077  86.4091285
  11.2477513  17.6219720  85.5865059  11.7115858  17.9007423  84.7969681
  10.9834311  16.7203165  85.4038150  10.1846399  13.7442873  82.3954624
  10.8870442  14.1963916  82.8628550   9.8527027  13.1026692  83.0234517
  17.9435542  19.3431665  90.4477038  18.7652986  18.9411852  90.1659720
  17.9397945  19.2399899  91.3993154  26.0341535  15.6870413  86.7962010
  25.2805244  15.1177811  86.6406014  26.1689077  15.6533077  87.7432645
  11.4240163  20.5583815  82.4716729  11.2885838  21.4035351  82.9001577
  11.9649976  20.7603093  81.7082663   4.8769561  18.0759253  83.0444654
   5.3894081  18.8702504  83.1950219   5.5292274  17.3785544  82.9778256
   6.6864445  21.1925010  85.1267408   6.8631074  22.1142974  84.9388391
   7.4821279  20.8783429  85.5561787   7.8095761  22.7103183  91.1277750
   8.3603186  22.5820247  90.3554744   6.9707237  23.0098072  90.7772643
  14.7382910  14.0722988  79.5088058  14.2229533  14.8427593  79.7476445
  14.4660218  13.3988124  80.1321119  19.7117184  16.8255343  81.4441231
  18.9346627  16.4866502  80.9996393  20.3908665  16.8307966  80.7696196
  14.5269213  11.9450080  81.3347839  14.2219348  12.2596230  82.1857982
  15.4799655  12.0231500  81.3775172  12.9715645  18.1040304  82.9840793
  12.4437006  17.3693063  82.6714030  12.4703147  18.8814980  82.7380761
  17.9508491  16.2989324  88.1007839  17.2932165  16.9888586  88.1887968
  18.7548890  16.6885756  88.4441826  16.7613949  14.6533697  86.1511781
  17.2745831  15.2863689  86.6533491  17.4115173  14.0534892  85.7855141
  11.1168245  15.9220514  75.9875766  10.2095307  15.6909767  76.1866915
  11.6139277  15.1258133  76.1749748  14.0236324  24.6318021  78.9072452
  13.3498022  24.9349718  79.5157410  14.4102146  25.4347101  78.5577909
  14.0229828  13.5274568  83.5272802  14.7701647  14.0395965  83.2179924
  14.2921418  13.2058621  84.3877195  12.2956478  16.0233109  80.5099756
  11.3867698  15.7392142  80.6072226  12.3251562  16.4432187  79.6503063
  17.5275746  19.6339698  84.2790924  17.0738073  18.7930608  84.3356114
  16.8969712  20.2701097  84.6165704  16.4708665  10.5631684  85.5091591
  15.7331422  10.0509071  85.8401834  16.7235439  10.1232066  84.6974868
  15.9708685  21.4716195  85.2140742  16.2631659  22.0321252  84.4953107
  16.4807306  21.7644756  85.9693901  10.8441372  13.6361729  86.6109551
  10.8989982  12.6835566  86.5352028  10.0332574  13.7921169  87.0950850
  11.9932566  17.5641852  77.8487835  11.5551996  16.8477711  77.3893472
  12.7343007  17.7917967  77.2872926  10.9342310  22.2496546  86.3034195
  10.8918489  22.4757392  85.3742727  11.8505009  22.0159921  86.4519996
  20.1105681  15.8399050  83.9064153  19.9723579  16.0300645  82.9785342
  19.7541900  16.6018432  84.3632204  20.1375060  17.9075577  88.9175425
  20.5711567  17.8150866  89.7658479  20.8506641  17.8833077  88.2795441
   9.0508111  19.1259575  86.0996158   9.8448709  18.6309895  85.8978733
   8.3399803  18.5977438  85.7363863  13.8702955  21.5077671  90.4508525
  13.9239978  22.0768607  91.2186241  13.0017737  21.6779556  90.0862563
  20.9990610  17.9499277  91.4508310  21.1926500  18.8545088  91.6967585
  20.8991228  17.4906696  92.2846895  11.6279387  19.6988597  89.7793995
  11.4890473  19.3307381  90.6519933  10.8393983  20.2136237  89.6077953
  12.2227539  24.7997694  81.1219531  12.3979295  24.3285737  81.9365154
  11.5360327  25.4263460  81.3500792  13.1784602  19.0770200  87.1682833
  12.8434435  19.0370970  88.0640483  12.6788548  18.4114916  86.6953243
  16.1143794  16.4226234  77.4419892  15.4972964  15.6973062  77.3452945
  15.6460282  17.1835594  77.0986967   6.7888624  27.9487056  87.8959392
   7.0285222  28.5805580  88.5738410   5.9457821  27.5975096  88.1824751
  11.3016486  23.7566179  90.3000896  11.2286658  24.5621150  90.8120200
  10.8593879  23.9558145  89.4748917  11.0906266  22.9937949  83.8103717
  10.3073788  23.5359629  83.9041942  11.7899011  23.5111928  84.2097958
  22.2532673  14.5072944  88.0956214  22.2422549  15.3897659  87.7250147
  21.3850053  14.1544495  87.9010751  13.7615170  23.6553013  92.4559054
  14.4743142  24.2900478  92.3834956  13.2705198  23.7516879  91.6399056
  15.4832696  17.5604265  84.0276346  14.5488975  17.6805728  83.8581050
  15.6609365  16.6576732  83.7636356  18.8705248  13.4021585  84.5626380
  19.3365700  14.2349576  84.4886683  19.3212748  12.9366566  85.2671638
  16.9381479  19.7465406  81.5612532  17.2141323  19.6322001  82.4706406
  16.0685978  19.3482891  81.5224705  13.5735543  23.9951757  85.2045346
  13.7557937  23.1773413  85.6673098  14.3968529  24.2119449  84.7670236
  13.9077708  22.9219942  82.4660394  14.4365475  22.4112397  81.8530556
  14.1705928  22.6062472  83.3305927   7.2633456  23.9735059  85.2258170
   6.5943832  24.4581186  84.7422210   7.1246326  24.2204279  86.1401549
  11.4038725  26.0078802  91.8240828  11.9557033  26.1710424  92.5889914
  11.7444918  26.5983240  91.1520853  14.5407112  23.9560778  88.8104511
  14.4158252  23.1550518  88.3015456  15.1986203  24.4506971  88.3218481
  16.6042021  21.7569798  90.4384061  15.6572356  21.6375149  90.3662387
  16.9524794  20.8692296  90.5210322  13.6088454  21.5522514  86.6388413
  13.4613416  20.6239221  86.8195983  14.4341947  21.5742605  86.1545488
  17.2122576  22.3751073  87.7253286  18.1369123  22.1693934  87.5877737
  17.0437879  22.1267474  88.6342627  17.0017892  22.8936740  83.0815377
  17.1754769  22.3283163  82.3289230  17.4946783  23.6937635  82.8994867
  22.8557283  15.6573163  84.7005677  23.2988429  14.9080488  84.3024800
  21.9783793  15.6483300  84.3179409  17.9893064  22.2103505  80.1812275
  18.6843969  22.8310197  80.3999590  18.3316215  21.3598856  80.4564653
  19.8884488  19.6603210  81.7099606  20.4135812  19.9990483  80.9848926
  19.8006840  18.7250225  81.5262741  11.5725148  25.7275193  86.0694859
  11.1330139  25.2351572  86.7627716  12.3233265  25.1848161  85.8286935
   4.0517487  21.9186734  86.0719487   4.8775507  21.6190506  85.6918131
   3.7011539  21.1494357  86.5209276   9.0199020  21.2713203  88.1417161
   8.3979030  20.6083908  87.8419389   9.6903887  21.2974334  87.4590809
   8.5812527  19.8217126  81.6175622   8.7300648  20.5052590  80.9642294
   9.3878971  19.8022216  82.1325077  22.3990148  17.1278401  87.0928124
  23.2337039  17.5668206  87.2565685  22.5349277  16.6517055  86.2736370
   6.3365160  15.8482304  82.6236690   6.0911202  14.9444634  82.8216901
   6.5061075  15.8499454  81.6816168  12.0807933  22.3165256  79.0887369
  11.5081900  22.9355443  78.6357841  12.6540727  22.8664618  79.6227291
  15.3005193  22.6002406  80.2195951  16.2335866  22.5347968  80.4228827
  15.2128406  23.4358673  79.7610484  17.9293209  21.9168277  77.1799899
  17.8506841  21.5828140  78.0735657  18.7502876  22.4090045  77.1791371
  20.6271401  14.7830016  90.3876217  20.5947721  13.8446017  90.5735901
  21.2372024  14.8614053  89.6542042  12.4654731  13.6526069  76.4303421
  13.4113836  13.5232277  76.4991840  12.0868976  12.9140731  76.9072850
  26.4447950  15.8446023  89.5282254  27.1751339  15.5831311  90.0889958
  25.8354896  15.1074745  89.5684322  24.5263248  13.9853886  90.1256705
  23.7996411  13.8509850  89.5173197  24.1110534  14.2930714  90.9313423
  17.5729070   7.3091507  83.6505509  16.9927739   7.9676311  83.2683561
  17.3065002   6.4868852  83.2392926  16.3553948   9.4691598  82.7061857
  15.4679803   9.7541248  82.4882052  16.7707937   9.3085361  81.8589134
  19.7068484   9.4938119  86.4216196  20.4828874   9.9834571  86.6940813
  18.9816618   9.9196173  86.8788066  22.1441042  10.2065738  87.4790137
  22.7385533   9.9661474  86.7683445  22.2167626   9.4872868  88.1063673
   4.3638198  24.0499349  87.7933302   4.2292666  23.2899750  87.2271300
   3.9470260  24.7740249  87.3262091  15.4997161  19.2336272  76.8009877
  16.2033011  19.4386275  77.4167533  14.7759810  19.8013034  77.0658961
  16.3294971  14.9846133  82.9212147  16.2730173  15.4414685  82.0819780
  16.8823314  14.2236818  82.7434990  20.1399777  10.7735865  83.7462267
  19.8836712  10.3732501  84.5770475  19.5152645  11.4879659  83.6212406
  24.4512115  13.5131939  86.2533558  23.8911673  13.5825128  87.0265120
  23.8455619  13.3372923  85.5333054   7.5207324  24.9468666  88.0051745
   7.4039708  25.8914098  87.9030435   6.6999770  24.6442227  88.3937544
  17.4083859  19.6718801  78.8508337  18.2429462  19.2400000  78.6685812
  17.2468201  19.5000815  79.7785232  17.0629751  16.1750915  80.2164677
  17.0078555  16.0095186  79.2753121  16.4375806  16.8826948  80.3726866
   8.5461838  25.5996928  91.2207673   9.4489085  25.6320538  91.5374168
   8.3199208  24.6697379  91.2354009  10.3015440  24.3527914  87.8817752
   9.3511071  24.3529776  87.7682124  10.6047926  23.6060649  87.3653786
  26.0368134  30.1888453  88.9463514  26.6746544  30.0695200  88.2426854
  25.9188977  31.1369296  89.0051466  22.8457840  30.1415881  88.8825039
  22.5076351  30.0256945  87.9945574  23.7147608  29.7407046  88.8626045
  18.7044656  31.9951357  84.8721930  18.1409521  31.9041294  84.1038217
  18.5897051  31.1751261  85.3524422  23.3277623  31.2950732  94.8411244
  23.3166264  30.9003531  93.9691748  23.4898262  30.5616805  95.4345016
  16.2509088  33.4902549  87.7106150  17.0430379  33.1493373  87.2952449
  16.4905738  33.5997524  88.6308303  24.2844214  35.6622325  80.1836395
  23.6332194  36.2476405  79.7970408  25.0788577  36.1928520  80.2431432
  18.2099841  32.7511462  80.5823529  18.9830717  32.2040449  80.4436405
  18.5625240  33.6155711  80.7937990  20.0484884  34.0787844  93.7890428
  19.7574750  34.9833475  93.6737094  20.6841868  34.1204372  94.5034498
  20.9741091  31.4564693  90.3791788  21.5704663  31.2320715  89.6648751
  21.0316062  30.7149438  90.9817236  20.5466119  28.9104128  78.2141979
  20.7991640  28.3885649  77.4525442  19.6090678  28.7470273  78.3168662
  25.5909402  27.9139906  86.0216722  26.3772491  27.4959330  85.6707139
  25.8548106  28.8185999  86.1898370  25.7619479  33.3512757  80.7205379
  25.1265312  33.4247383  81.4326283  25.4316886  33.9406355  80.0424458
  30.9917829  27.8515140  86.9249701  31.7243001  27.2814356  87.1587530
  30.2357185  27.4636740  87.3656206  20.2662408  30.8132234  80.4166354
  20.1498666  30.1377137  81.0847438  20.3764668  30.3264608  79.5998507
  22.6093949  30.2742381  84.1213043  22.2452156  29.7473002  84.8325964
  23.4661065  29.8840850  83.9479528  28.5143250  21.5636714  91.3844309
  28.1826574  22.4332125  91.1605524  27.9188863  21.2472998  92.0638340
  22.2499436  25.3032281  79.1174391  22.4173838  26.1712517  79.4844863
  22.0596605  25.4659562  78.1935681  25.0074769  33.7649260  90.7840222
  24.7075492  34.6674298  90.6756029  24.6625829  33.4981443  91.6361375
  18.4587251  30.2163056  86.8176926  17.5337747  30.0839271  87.0254618
  18.7071664  30.9957276  87.3146869  28.4071913  26.2831800  88.4637659
  27.4988790  26.2147208  88.1696420  28.3559509  26.7603745  89.2919485
  22.2288657  27.7589938  80.1021058  22.1088282  28.2046989  80.9406539
  21.5341245  28.1075256  79.5434596  15.8196062  29.8596330  87.6520715
  15.9488443  30.1130809  88.5660127  15.1393513  30.4524038  87.3325370
  19.9895549  40.5293580  83.7511190  19.9119579  41.4801405  83.8299670
  19.3857193  40.1839453  84.4086116  22.4812779  27.7021445  96.4072556
  21.7046113  28.2615366  96.3975421  23.1203342  28.1878228  96.9287427
  30.2733559  24.4848238  90.2415533  29.6307940  24.7780771  89.5955328
  29.7688488  24.3701159  91.0468730  27.9273723  28.2311411  80.9301392
  28.8391579  28.4638798  80.7549090  27.4183370  28.8148456  80.3676471
  20.7359151  30.5106899  95.9690523  21.4773835  31.0491943  95.6925347
  20.0296136  31.1373188  96.1262075  26.2114491  32.6536039  94.5662685
  26.6197847  32.2118450  93.8217317  25.4891752  32.0788667  94.8196878
  22.5645561  27.5908646  91.9396242  23.4106756  28.0148060  92.0830891
  22.5044198  26.9342270  92.6334805  26.5343305  33.2137230  88.3214974
  25.9052168  33.3782944  87.6191042  26.1468967  33.6278839  89.0925938
  30.4132537  34.1491668  85.6759338  29.7283575  34.5290569  85.1256371
  30.4976387  34.7586994  86.4091285  25.7145006  25.2513014  93.5977416
  25.4705938  26.0055075  93.0611691  25.9904937  25.6298362  94.4324663
  27.6683469  31.7951627  92.2754681  27.8800364  32.4383387  91.5989062
  27.6213217  30.9613943  91.8076611  25.2709698  24.4069447  89.1791253
  24.4094177  24.7050701  89.4707991  25.2972132  24.6239846  88.2472286
  22.0871267  32.9511638  85.5865059  22.5509613  33.2299341  84.7969681
  21.8228065  32.0495083  85.4038150  18.9795348  32.4983120  88.5244822
  19.5496705  32.9270388  87.8862307  19.5703460  32.2165704  89.2229008
  21.0240153  29.0734790  82.3954624  21.7264197  29.5255834  82.8628550
  20.6920782  28.4318609  83.0234517  19.4720515  27.6646547  96.7705833
  18.8419175  28.3462828  97.0041230  19.3656603  27.5529629  95.8258972
  14.7665487  27.3318343  87.6971758  13.9764541  27.5875872  87.2211868
  15.2576735  28.1466681  87.8023798  28.7829297  34.6723582  90.4477038
  29.6046740  34.2703769  90.1659720  28.7791700  34.5691816  91.3993154
  16.7180233  27.6962922  84.6555234  15.9211396  27.8081616  85.1738730
  16.4905825  28.0349574  83.7896125  22.5485900  34.2207625  92.6037749
  22.6130333  34.6828033  93.4395921  21.8396824  33.5904990  92.7320059
  13.0503190  27.5848833  90.1286748  13.3011229  28.4695843  90.3944324
  13.5862739  27.4053435  89.3561840  36.8735290  31.0162331  86.7962010
  36.1198998  30.4469729  86.6406014  37.0082831  30.9824995  87.7432645
  22.2633918  35.8875733  82.4716729  22.1279593  36.7327269  82.9001577
  22.8043730  36.0895011  81.7082663  15.7163315  33.4051171  83.0444654
  16.2287836  34.1994421  83.1950219  16.3686028  32.7077461  82.9778256
  17.5258200  36.5216927  85.1267408  17.7024828  37.4434892  84.9388391
  18.3215033  36.2075346  85.5561787  21.6669218  23.3825192  96.7251341
  22.4078932  23.9832345  96.6455804  21.8987141  22.6402830  96.1669384
  16.8110556  28.5681559  95.0029571  16.6964072  27.6666816  95.3036670
  15.9555074  28.8145256  94.6514387  23.8902394  36.5099299  96.6017071
  23.4466248  35.7235678  96.2837976  24.5519608  36.6978450  95.9360962
  18.6489515  38.0395101  91.1277750  19.1996941  37.9112164  90.3554744
  17.8100991  38.3389990  90.7772643  25.9883632  36.7902099  94.6298473
  25.9702108  37.6110980  94.1378742  26.9103552  36.6656175  94.8548614
  22.4456686  34.3046229  95.4721981  22.9785023  33.5434517  95.2421289
  21.9170768  34.0119881  96.2146135  25.6126381  19.4106295  91.0015623
  25.2690651  20.3007937  90.9254733  25.9805344  19.2207952  90.1385208
  13.6812232  31.7339825  83.8204225  14.5187454  32.1436834  83.6037933
  13.8590500  30.7939267  83.7904419  25.5776664  29.4014906  79.5088058
  25.0623288  30.1719511  79.7476445  25.3053973  28.7280042  80.1321119
  23.1623775  24.2464607  84.5673296  22.3065372  23.8571457  84.3878935
  23.5750727  24.3256568  83.7073082  24.6922922  21.7810950  88.9664856
  24.1887717  21.7441085  88.1532661  24.9853529  22.6903693  89.0261513
  20.9365808  21.8649680  87.9731038  21.8018804  21.6692488  87.6136927
  21.0043317  21.6360031  88.9000394  30.5510938  32.1547261  81.4441231
  29.7740381  31.8158420  80.9996393  31.2302419  32.1599884  80.7696196
  25.3662967  27.2741998  81.3347839  25.0613103  27.5888147  82.1857982
  26.3193409  27.3523418  81.3775172  23.8109399  33.4332221  82.9840793
  23.2830761  32.6984981  82.6714030  23.3096902  34.2106898  82.7380761
  28.7902245  31.6281242  88.1007839  28.1325920  32.3180503  88.1887968
  29.5942644  32.0177674  88.4441826  18.5428127  24.0951888  85.3447405
  19.1171879  23.8727069  84.6120597  19.1299109  24.1640582  86.0976006
  27.6007704  29.9825615  86.1511781  28.1139586  30.6155606  86.6533491
  28.2508928  29.3826810  85.7855141  18.8697714  26.1256349  79.3643290
  18.0335026  26.4631035  79.6852565  18.7302484  25.9905328  78.4270427
  20.8450794  20.9693137  84.0722474  20.1915207  20.6542154  83.4479089
  20.8031269  20.3468877  84.7982297  21.9561999  31.2512432  75.9875766
  21.0489061  31.0201685  76.1866915  22.4533031  30.4550051  76.1749748
  24.8630078  39.9609939  78.9072452  24.1891777  40.2641636  79.5157410
  25.2495900  40.7639019  78.5577909  24.0788535  27.4575070  88.3970122
  23.1611096  27.6790017  88.2391810  24.4948678  27.5321381  87.5381829
  24.8623583  28.8566486  83.5272802  25.6095402  29.3687883  83.2179924
  25.1315172  28.5350538  84.3877195  23.1350233  31.3525026  80.5099756
  22.2261452  31.0684059  80.6072226  23.1645317  31.7724105  79.6503063
  28.3669500  34.9631616  84.2790924  27.9131827  34.1222526  84.3356114
  27.7363467  35.5993014  84.6165704  27.3102420  25.8923602  85.5091591
  26.5725177  25.3800988  85.8401834  27.5629193  25.4523984  84.6974868
  26.8102439  36.8008113  85.2140742  27.1025414  37.3613170  84.4953107
  27.3201060  37.0936674  85.9693901  27.4114047  18.6699854  86.1033360
  27.7172924  17.8097217  85.8159275  28.1366652  19.2617474  85.9032354
  13.7038403  29.0730541  84.4914958  13.5062803  28.4799901  83.7666025
  13.1485067  28.7682751  85.2090897  21.6835127  28.9653647  86.6109551
  21.7383737  28.0127483  86.5352028  20.8726329  29.1213086  87.0950850
  22.8326321  32.8933770  77.8487835  22.3945751  32.1769629  77.3893472
  23.5736761  33.1209885  77.2872926  19.6227487  27.5830707  84.3699930
  18.8095352  27.8824877  84.7765122  20.1186481  27.1886396  85.0874413
  21.7736065  37.5788464  86.3034195  21.7312243  37.8049310  85.3742727
  22.6898763  37.3451838  86.4519996  25.2201698  28.0472531  93.2014824
  25.5751086  28.2744004  94.0609290  25.8673830  28.3790908  92.5792080
  30.9499435  31.1690967  83.9064153  30.8117334  31.3592563  82.9785342
  30.5935654  31.9310350  84.3632204  19.1141562  25.1549062  89.9861165
  19.7540941  25.0137821  89.2884129  18.2819092  24.8683576  89.6099767
  30.9768815  33.2367494  88.9175425  31.4105322  33.1442783  89.7658479
  31.6900396  33.2124995  88.2795441  19.8901865  34.4551493  86.0996158
  20.6842464  33.9601813  85.8978733  19.1793558  33.9269356  85.7363863
  24.7096710  36.8369588  90.4508525  24.7633732  37.4060525  91.2186241
  23.8411491  37.0071473  90.0862563  16.1984629  28.5994575  82.1755910
  15.2682217  28.5379030  82.3925873  16.2942101  28.0770527  81.3792552
  16.1170178  25.1249387  84.7634152  16.3776995  26.0394721  84.6543313
  16.9387350  24.6573830  84.9130765  17.5895103  26.5387145  91.9332977
  18.2618157  26.3304507  91.2845626  16.7624890  26.3409231  91.4938209
  31.8384365  33.2791195  91.4508310  32.0320255  34.1837005  91.6967585
  31.7384983  32.8198614  92.2846895  23.4920675  23.1649085  93.9498638
  22.8448590  23.8639035  93.8563114  24.2621691  23.5985229  94.3174886
  26.8999473  33.4297938  97.0249191  26.7484980  33.2008489  96.1079274
  26.8904153  34.3868539  97.0380536  23.6684810  31.0029850  92.0095457
  24.5976870  31.1541010  91.8364425  23.2475840  31.0913871  91.1544104
  22.4673141  35.0280515  89.7793995  22.3284227  34.6599299  90.6519933
  21.6787738  35.5428154  89.6077953  23.0621293  40.1289611  81.1219531
  23.2373049  39.6577654  81.9365154  22.3754081  40.7555377  81.3500792
  24.0178357  34.4062117  87.1682833  23.6828189  34.3662887  88.0640483
  23.5182302  33.7406833  86.6953243  17.9922601  29.8129747  92.6935414
  17.8542398  29.0809986  93.2946953  18.9027524  29.7238648  92.4119602
  26.9537548  31.7518152  77.4419892  26.3366719  31.0264980  77.3452945
  26.4854037  32.5127512  77.0986967  20.6204901  29.5249707  92.1819093
  21.3304520  28.8842899  92.1405712  20.5774209  29.7762602  93.1045274
  28.6091680  36.4617060  95.1025673  28.5504226  35.7776280  94.4356256
  29.0111198  37.2036050  94.6506299  19.3333835  26.5114925  94.0014733
  18.7971192  26.0605663  94.6536329  18.7450544  26.6460834  93.2585197
  17.6282379  43.2778974  87.8959392  17.8678977  43.9097498  88.5738410
  16.7851575  42.9267014  88.1824751  18.7436094  25.9703576  76.5641197
  17.8665560  25.8492377  76.2003443  19.2193847  25.1789654  76.3120085
  28.6109087  34.4256644  93.3339652  27.7235866  34.0882566  93.4566051
  29.1807638  33.6939675  93.5708418  10.2638234  30.7580736  86.6582704
  10.9509274  30.4442466  86.0703719  10.1086363  31.6622100  86.3849955
  15.0672956  25.6470932  91.0867727  14.9831145  25.0396602  90.3518137
  14.2455663  26.1379951  91.0877224  22.1410241  39.0858096  90.3000896
  22.0680412  39.8913068  90.8120200  21.6987634  39.2850062  89.4748917
  21.9300020  38.3229866  83.8103717  21.1467542  38.8651547  83.9041942
  22.6292765  38.8403846  84.2097958  25.2396670  24.1324496  86.4537922
  25.7365370  23.3794458  86.1338993  24.4683652  24.1688813  85.8881132
  33.0926428  29.8364861  88.0956214  33.0816304  30.7189577  87.7250147
  32.2243807  29.4836412  87.9010751  24.6008924  38.9844930  92.4559054
  25.3136896  39.6192395  92.3834956  24.1098953  39.0808796  91.6399056
  26.3226451  32.8896183  84.0276346  25.3882730  33.0097646  83.8581050
  26.5003119  31.9868650  83.7636356  21.8231639  26.2741879  86.1809607
  21.4529427  25.7212919  86.8690513  22.3190731  25.6700012  85.6284607
  29.7099002  28.7313502  84.5626380  30.1759455  29.5641494  84.4886683
  30.1606503  28.2658484  85.2671638  19.6520838  36.7339374  93.2764625
  20.3530297  37.3675857  93.4294019  19.1815953  37.0754105  92.5160264
  27.7775233  35.0757324  81.5612532  28.0535077  34.9613918  82.4706406
  26.9079732  34.6774809  81.5224705  27.6815665  21.0994089  88.6017281
  26.7678745  21.3298316  88.7699488  28.1108767  21.1832533  89.4531314
  27.4522124  29.2883981  91.1017175  26.7993574  29.5359889  90.4469628
  27.8302503  28.4748120  90.7679653  24.4129297  39.3243675  85.2045346
  24.5951692  38.5065330  85.6673098  25.2362283  39.5411367  84.7670236
  24.7471463  38.2511860  82.4660394  25.2759229  37.7404314  81.8530556
  25.0099683  37.9354390  83.3305927  23.5009697  30.0303792  97.5883212
  22.8250334  29.9297922  98.2585588  24.3237330  29.8743006  98.0519210
  15.2488556  36.2675729  90.2095728  15.8341992  35.5219417  90.3423632
  15.0513394  36.5779686  91.0932392  18.1027211  39.3026976  85.2258170
  17.4337586  39.7873104  84.7422210  17.9640081  39.5496197  86.1401549
   9.8406210  28.8381329  88.9300171   9.8790310  28.3044920  89.7237289
   9.3346503  28.3116535  88.3111148  22.2432479  41.3370720  91.8240828
  22.7950787  41.5002341  92.5889914  22.5838673  41.9275158  91.1520853
  17.2196973  23.6845870  92.4262713  17.2838299  24.5460701  92.0140111
  17.1564093  23.0719871  91.6935072  27.0943354  36.1631977  97.6789483
  27.6383258  36.7761936  97.1844438  26.5130199  36.7211556  98.1956496
  13.4714788  27.5645431  82.0054102  13.7668229  26.6556110  81.9521156
  12.5702824  27.5433171  81.6835105  25.3800867  39.2852695  88.8104511
  25.2552006  38.4842435  88.3015456  26.0379958  39.7798889  88.3218481
  17.0009035  25.6401428  87.9881651  16.2795621  26.2537396  87.8489124
  17.7902291  26.1759193  87.9098297  27.4435775  37.0861716  90.4384061
  26.4966111  36.9667067  90.3662387  27.7918548  36.1984214  90.5210322
  19.8035348  22.9755854  94.2622303  20.3269750  23.2218151  95.0248612
  19.5847682  23.8075889  93.8425440  15.2002630  25.2459529  82.1293427
  14.8715336  24.3656908  81.9468533  15.5542000  25.1907198  83.0169817
  24.4482208  36.8814432  86.6388413  24.3007171  35.9531139  86.8195983
  25.2735702  36.9034522  86.1545488  18.3144453  25.5332499  82.4968905
  18.6540525  26.0618420  81.7747513  18.7616573  25.8712905  83.2727472
  28.0516330  37.7042990  87.7253286  28.9762878  37.4985852  87.5877737
  27.8831634  37.4559392  88.6342627  21.0087894  23.9169550  91.9471973
  20.6684714  23.1177363  92.3492653  20.3026900  24.2171260  91.3748806
  21.6604365  21.0018862  90.3999296  22.4830435  20.5279340  90.2778186
  21.9042429  21.7809346  90.8997982  20.3012600  24.0307120  80.6962198
  21.0220962  24.4088373  80.1925915  19.6777904  24.7495997  80.7997176
  24.4443723  24.7352269  81.6320530  24.6607337  25.6176907  81.3309358
  23.9637790  24.3438483  80.9026172  19.1842944  27.6937983  88.2091275
  19.0387525  28.0078286  89.1015556  18.7068148  28.3122883  87.6562173
  21.0439327  24.6840531  88.2572164  21.0300896  23.7881624  87.9204462
  21.7611755  24.6911194  88.8910450  22.8965458  25.1177871  90.3025292
  22.6383236  26.0394941  90.3009622  22.3650498  24.7208305  90.9925756
  27.8411646  38.2228658  83.0815377  28.0148524  37.6575080  82.3289230
  28.3340538  39.0229553  82.8994867  13.6588606  30.2343327  91.1478936
  13.1142074  31.0103135  91.2799210  14.5367956  30.5814131  90.9898057
  20.4476223  23.5654911  83.5259734  20.5692134  22.6371557  83.7250622
  20.1578265  23.5793597  82.6138050  23.3167413  21.2509821  86.6626454
  23.3389110  21.3149154  85.7078434  23.7335472  20.4114330  86.8566960
  33.6951038  30.9865081  84.7005677  34.1382184  30.2372406  84.3024800
  32.8177548  30.9775217  84.3179409  28.8286819  37.5395422  80.1812275
  29.5237724  38.1602115  80.3999590  29.1709969  36.6890774  80.4564653
  14.4454628  29.3613223  94.0409093  13.7036364  29.5095859  94.6273723
  14.1247372  29.6221489  93.1775842  30.7278242  34.9895128  81.7099606
  31.2529566  35.3282401  80.9848926  30.6400595  34.0542143  81.5262741
  22.3898291  38.9029201  93.8389483  22.6985417  38.6578348  94.7112182
  23.1873773  39.1075840  93.3508353  22.4118903  41.0567111  86.0694859
  21.9723893  40.5643490  86.7627716  23.1627020  40.5140079  85.8286935
  14.8911242  37.2478652  86.0719487  15.7169262  36.9482424  85.6918131
  14.5405294  36.4786274  86.5209276  19.8592775  36.6005120  88.1417161
  19.2372784  35.9375825  87.8419389  20.5297642  36.6266252  87.4590809
  13.0919847  35.1664978  87.0308421  12.2551755  34.7387153  86.8492422
  13.0643492  35.3597422  87.9679212  30.4172148  35.6228031  97.0150804
  29.6267692  35.6052170  96.4755304  30.1805503  36.1616325  97.7699841
  30.5370023  32.4720498  94.3283533  30.5868028  32.3070505  95.2699055
  30.4283947  31.6047757  93.9381413  19.4206282  35.1509044  81.6175622
  19.5694402  35.8344508  80.9642294  20.2272725  35.1314134  82.1325077
  27.8273786  28.4551426  95.6442839  28.7283648  28.3157891  95.3526837
  27.9021760  28.6205881  96.5841017  22.1616591  25.8318281  94.4896026
  21.2919900  26.1251847  94.2178614  22.3976071  26.4158726  95.2103289
  32.0388220  34.8917439  94.5725554  31.7473028  35.2547420  95.4089015
  31.4260351  34.1784448  94.3938886  33.2383902  32.4570319  87.0928124
  34.0730794  32.8960123  87.2565685  33.3743031  31.9808972  86.2736370
  30.2875408  30.0150054  93.0405612  30.7629530  30.2077700  92.2324464
  29.3640974  30.0709240  92.7948996  17.1758915  31.1774221  82.6236690
  16.9304957  30.2736551  82.8216901  17.3454829  31.1791372  81.6816168
  24.8655625  22.0497898  92.0061446  25.3837569  22.7858924  91.6807935
  24.5110758  22.3561891  92.8408205  16.4454562  26.9102579  80.1222852
  15.7523807  26.9846934  79.4662888  16.2006314  26.1462922  80.6444369
  25.1168219  18.4698180  87.5262343  25.3969973  17.8021369  88.1522769
  25.9018826  18.6627276  87.0137007  22.9201687  37.6457174  79.0887369
  22.3475654  38.2647361  78.6357841  23.4934481  38.1956536  79.6227291
  28.9877077  26.8915814  91.2733918  29.9394500  26.9913912  91.2946142
  28.8180528  26.0994083  91.7832002  27.0091457  23.9771397  91.4593319
  26.4141389  24.2576410  90.7639807  26.7241153  24.4665298  92.2310060
  26.1398947  37.9294324  80.2195951  27.0729620  37.8639886  80.4228827
  26.0522160  38.7650591  79.7610484  28.7686964  37.2460194  77.1799899
  28.6900595  36.9120058  78.0735657  29.5896631  37.7381962  77.1791371
  31.4665155  30.1121934  90.3876217  31.4341475  29.1737935  90.5735901
  32.0765779  30.1905970  89.6542042  23.3048486  28.9817987  76.4303421
  24.2507591  28.8524195  76.4991840  22.9262731  28.2432649  76.9072850
  31.6159644  26.9032977  90.4334501  31.0998692  26.1191434  90.2464429
  32.4999592  26.5751694  90.5981020  29.2770370  20.6473993  86.3930313
  29.0795192  20.3389081  87.2773645  29.8870076  21.3735632  86.5228243
  37.2841705  31.1737941  89.5282254  38.0145093  30.9123229  90.0889958
  36.6748650  30.4366663  89.5684322  35.3657002  29.3145803  90.1256705
  34.6390166  29.1801768  89.5173197  34.9504289  29.6222632  90.9313423
  23.1887178  33.0335733  97.8904078  24.1090188  33.2114332  98.0844125
  23.1536761  32.0891778  97.7383778  21.4891403  26.9067963  76.3658307
  20.5822858  26.6101076  76.4421020  21.7667384  26.6097781  75.4992593
  12.4069343  28.2274327  86.8157353  12.0872128  27.3739635  86.5231727
  11.8602772  28.4422905  87.5715320  16.1849251  30.9436768  90.5326860
  16.4035261  31.8753875  90.5514893  16.5975025  30.5844742  91.3181663
  23.1053469  21.4504853  82.5202548  22.2954197  21.1051938  82.8957794
  23.7937886  21.1412397  83.1090160  25.0344017  20.5282900  84.1426845
  25.5875056  20.9478353  84.8016868  25.2714103  19.6018648  84.1849801
  20.2590188  23.7654898  76.5070286  21.1209352  24.0909797  76.7666103
  20.4440532  22.9786394  75.9943352  12.2757603  31.8477238  88.7850475
  11.5821075  31.4331191  88.2720429  13.0230594  31.8897775  88.1883894
  28.4122824  22.6383425  83.6505509  27.8321493  23.2968229  83.2683561
  28.1458757  21.8160769  83.2392926  26.8626391  22.0388483  85.8526829
  27.3626169  22.1505017  85.0441148  27.5061998  21.7349535  86.4927638
  20.9208386  29.9467112  98.7394670  20.4375468  30.7467472  98.9458559
  21.0069325  29.9575057  97.7862114  14.1894346  31.7795492  86.6616490
  14.1665034  31.8783179  85.7098373  14.4994982  32.6260643  86.9833656
  16.8481724  33.8371647  90.7763104  17.8024977  33.8055589  90.7093036
  16.6494247  33.3762271  91.5913330  17.4381106  32.4072763  93.3433902
  18.2573995  32.9016842  93.3668739  17.7117914  31.4904731  93.3151469
  27.1947702  24.7983515  82.7061857  26.3073557  25.0833166  82.4882052
  27.6101691  24.6377279  81.8589134  30.5462238  24.8230036  86.4216196
  31.3222628  25.3126489  86.6940813  29.8210372  25.2488090  86.8788066
  32.9834797  25.5357655  87.4790137  33.5779288  25.2953391  86.7683445
  33.0561381  24.8164786  88.1063673  15.2031953  39.3791266  87.7933302
  15.0686421  38.6191667  87.2271300  14.7864015  40.1032166  87.3262091
  26.3390916  34.5628190  76.8009877  27.0426766  34.7678192  77.4167533
  25.6153564  35.1304952  77.0658961  27.1688726  30.3138051  82.9212147
  27.1123927  30.7706603  82.0819780  27.7217068  29.5528736  82.7434990
  30.9793532  26.1027783  83.7462267  30.7230466  25.7024419  84.5770475
  30.3546400  26.8171577  83.6212406  35.2905870  28.8423856  86.2533558
  34.7305428  28.9117046  87.0265120  34.6849373  28.6664841  85.5333054
  18.3601078  40.2760583  88.0051745  18.2433463  41.2206016  87.9030435
  17.5393525  39.9734145  88.3937544  28.2477613  35.0010719  78.8508337
  29.0823217  34.5691918  78.6685812  28.0861956  34.8292733  79.7785232
  27.9023505  31.5042832  80.2164677  27.8472309  31.3387104  79.2753121
  27.2769560  32.2118865  80.3726866  12.6916020  26.7410897  94.0426099
  13.3374884  26.2309851  94.5313324  12.4833171  27.4779578  94.6169524
  25.2169412  33.8091744  99.5418239  26.0860572  33.9832397  99.1804874
  24.7376164  34.6286161  99.4193969  21.2119631  21.0050941  79.7949995
  21.1998301  21.9492781  79.9518266  22.1043053  20.8221087  79.5009456
  19.3855593  40.9288845  91.2207673  20.2882839  40.9612456  91.5374168
  19.1592963  39.9989296  91.2354009  21.1409195  39.6819832  87.8817752
  20.1904826  39.6821693  87.7682124  21.4441681  38.9352566  87.3653786
  25.0271750  17.5993718  84.0495932  24.2604146  17.0452205  84.1952614
  25.4382455  17.6715587  84.9110083  36.8761888  45.5180370  88.9463514
  37.5140298  45.3987118  88.2426854  36.7582731  46.4661214  89.0051466
  33.6851594  45.4707798  88.8825039  33.3470106  45.3548863  87.9945574
  34.5541363  45.0698963  88.8626045  29.5438410  47.3243275  84.8721930
  28.9803275  47.2333212  84.1038217  29.4290805  46.5043179  85.3524422
  34.1671377  46.6242650  94.8411244  34.1560018  46.2295448  93.9691748
  34.3292017  45.8908723  95.4345016  27.0902842  48.8194466  87.7106150
  27.8824134  48.4785291  87.2952449  27.3299492  48.9289441  88.6308303
  35.1237969  50.9914242  80.1836395  34.4725949  51.5768323  79.7970408
  35.9182332  51.5220437  80.2431432  29.0493596  48.0803380  80.5823529
  29.8224472  47.5332367  80.4436405  29.4018995  48.9447629  80.7937990
  31.8134845  46.7856610  90.3791788  32.4098418  46.5612633  89.6648751
  31.8709817  46.0441356  90.9817236  31.3859874  44.2396046  78.2141979
  31.6385394  43.7177567  77.4525442  30.4484433  44.0762191  78.3168662
  36.4303157  43.2431824  86.0216722  37.2166246  42.8251247  85.6707139
  36.6941861  44.1477916  86.1898370  36.6013234  48.6804674  80.7205379
  35.9659067  48.7539301  81.4326283  36.2710640  49.2698273  80.0424458
  41.8311584  43.1807057  86.9249701  42.5636756  42.6106274  87.1587530
  41.0750939  42.7928658  87.3656206  31.1056163  46.1424152  80.4166354
  30.9892421  45.4669055  81.0847438  31.2158422  45.6556526  79.5998507
  33.4487703  45.6034299  84.1213043  33.0845911  45.0764920  84.8325964
  34.3054819  45.2132768  83.9479528  39.3537004  36.8928631  91.3844309
  39.0220329  37.7624042  91.1605524  38.7582617  36.5764915  92.0638340
  33.0893190  40.6324198  79.1174391  33.2567593  41.5004435  79.4844863
  32.8990360  40.7951480  78.1935681  29.2981005  45.5454974  86.8176926
  28.3731502  45.4131188  87.0254618  29.5465418  46.3249193  87.3146869
  39.2465667  41.6123718  88.4637659  38.3382545  41.5439126  88.1696420
  39.1953263  42.0895662  89.2919485  33.0682411  43.0881856  80.1021058
  32.9482037  43.5338907  80.9406539  32.3735000  43.4367174  79.5434596
  26.6589816  45.1888248  87.6520715  26.7882197  45.4422727  88.5660127
  25.9787267  45.7815956  87.3325370  30.8289303  55.8585498  83.7511190
  30.7513333  56.8093323  83.8299670  30.2250947  55.5131370  84.4086116
  33.3206533  43.0313363  96.4072556  32.5439867  43.5907283  96.3975421
  33.9597096  43.5170146  96.9287427  41.1127314  39.8140156  90.2415533
  40.4701694  40.1072689  89.5955328  40.6082242  39.6993076  91.0468730
  38.7667477  43.5603329  80.9301392  39.6785334  43.7930716  80.7549090
  38.2577125  44.1440373  80.3676471  31.5752906  45.8398816  95.9690523
  32.3167590  46.3783860  95.6925347  30.8689891  46.4665105  96.1262075
  33.4039315  42.9200564  91.9396242  34.2500510  43.3439977  92.0830891
  33.3437953  42.2634188  92.6334805  41.2526292  49.4783585  85.6759338
  40.5677330  49.8582487  85.1256371  41.3370141  50.0878912  86.4091285
  36.5538761  40.5804932  93.5977416  36.3099692  41.3346993  93.0611691
  36.8298691  40.9590280  94.4324663  36.1103452  39.7361365  89.1791253
  35.2487931  40.0342619  89.4707991  36.1365887  39.9531764  88.2472286
  32.9265022  48.2803556  85.5865059  33.3903367  48.5591259  84.7969681
  32.6621820  47.3787000  85.4038150  29.8189103  47.8275037  88.5244822
  30.3890460  48.2562306  87.8862307  30.4097215  47.5457622  89.2229008
  31.8633908  44.4026708  82.3954624  32.5657951  44.8547752  82.8628550
  31.5314536  43.7610527  83.0234517  30.3114269  42.9938465  96.7705833
  29.6812930  43.6754745  97.0041230  30.2050357  42.8821546  95.8258972
  25.6059242  42.6610261  87.6971758  24.8158296  42.9167789  87.2211868
  26.0970489  43.4758599  87.8023798  27.5573987  43.0254840  84.6555234
  26.7605150  43.1373534  85.1738730  27.3299579  43.3641492  83.7896125
  23.8896945  42.9140751  90.1286748  24.1404983  43.7987761  90.3944324
  24.4256493  42.7345353  89.3561840  33.1027672  51.2167651  82.4716729
  32.9673347  52.0619186  82.9001577  33.6437485  51.4186928  81.7082663
  29.5895012  37.2959230  99.1331084  29.1961958  36.7425429  99.8078729
  30.4061152  37.6069809  99.5237602  26.5557070  48.7343089  83.0444654
  27.0681590  49.5286339  83.1950219  27.2079783  48.0369379  82.9778256
  28.3651954  51.8508845  85.1267408  28.5418583  52.7726810  84.9388391
  29.1608788  51.5367264  85.5561787  32.5062973  38.7117110  96.7251341
  33.2472686  39.3124263  96.6455804  32.7380896  37.9694747  96.1669384
  27.6504311  43.8973477  95.0029571  27.5357826  42.9958734  95.3036670
  26.7948829  44.1437174  94.6514387  36.4520136  34.7398213  91.0015623
  36.1084405  35.6299854  90.9254733  36.8199099  34.5499870  90.1385208
  24.5205987  47.0631743  83.8204225  25.3581209  47.4728751  83.6037933
  24.6984254  46.1231185  83.7904419  36.4170419  44.7306824  79.5088058
  35.9017042  45.5011428  79.7476445  36.1447727  44.0571960  80.1321119
  34.0017530  39.5756524  84.5673296  33.1459126  39.1863375  84.3878935
  34.4144481  39.6548485  83.7073082  35.5316676  37.1102868  88.9664856
  35.0281472  37.0733003  88.1532661  35.8247283  38.0195610  89.0261513
  31.7759562  37.1941597  87.9731038  32.6412559  36.9984406  87.6136927
  31.8437071  36.9651949  88.9000394  36.2056722  42.6033916  81.3347839
  35.9006857  42.9180065  82.1857982  37.1587164  42.6815336  81.3775172
  34.6503154  48.7624139  82.9840793  34.1224515  48.0276899  82.6714030
  34.1490656  49.5398815  82.7380761  29.3821881  39.4243805  85.3447405
  29.9565633  39.2018987  84.6120597  29.9692864  39.4932500  86.0976006
  38.4401458  45.3117532  86.1511781  38.9533340  45.9447524  86.6533491
  39.0902682  44.7118728  85.7855141  29.7091468  41.4548266  79.3643290
  28.8728781  41.7922953  79.6852565  29.5696238  41.3197246  78.4270427
  31.6844549  36.2985054  84.0722474  31.0308961  35.9834071  83.4479089
  31.6425023  35.6760795  84.7982297  32.7955754  46.5804349  75.9875766
  31.8882816  46.3493603  76.1866915  33.2926786  45.7841969  76.1749748
  34.9182289  42.7866988  88.3970122  34.0004851  43.0081935  88.2391810
  35.3342433  42.8613298  87.5381829  35.7017337  44.1858403  83.5272802
  36.4489156  44.6979801  83.2179924  35.9708927  43.8642456  84.3877195
  33.9743987  46.6816944  80.5099756  33.0655207  46.3975977  80.6072226
  34.0039071  47.1016023  79.6503063  39.2063255  50.2923534  84.2790924
  38.7525582  49.4514444  84.3356114  38.5757221  50.9284932  84.6165704
  38.1496174  41.2215520  85.5091591  37.4118931  40.7092906  85.8401834
  38.4022948  40.7815901  84.6974868  37.6496194  52.1300030  85.2140742
  37.9419168  52.6905087  84.4953107  38.1594814  52.4228591  85.9693901
  38.2507802  33.9991772  86.1033360  38.5566678  33.1389135  85.8159275
  38.9760406  34.5909392  85.9032354  24.5432158  44.4022458  84.4914958
  24.3456557  43.8091819  83.7666025  23.9878822  44.0974668  85.2090897
  32.5228881  44.2945565  86.6109551  32.5777491  43.3419401  86.5352028
  31.7120083  44.4505004  87.0950850  33.6720075  48.2225688  77.8487835
  33.2339505  47.5061547  77.3893472  34.4130516  48.4501803  77.2872926
  30.4621241  42.9122625  84.3699930  29.6489107  43.2116795  84.7765122
  30.9580235  42.5178313  85.0874413  36.0595453  43.3764449  93.2014824
  36.4144841  43.6035922  94.0609290  36.7067584  43.7082826  92.5792080
  41.7893190  46.4982885  83.9064153  41.6511088  46.6884481  82.9785342
  41.4329409  47.2602268  84.3632204  29.9535316  40.4840980  89.9861165
  30.5934695  40.3429739  89.2884129  29.1212847  40.1975493  89.6099767
  30.7295620  49.7843410  86.0996158  31.5236218  49.2893731  85.8978733
  30.0187312  49.2561274  85.7363863  27.0378383  43.9286492  82.1755910
  26.1075971  43.8670948  82.3925873  27.1335855  43.4062445  81.3792552
  26.9563932  40.4541305  84.7634152  27.2170750  41.3686638  84.6543313
  27.7781105  39.9865748  84.9130765  28.4288858  41.8679062  91.9332977
  29.1011911  41.6596424  91.2845626  27.6018644  41.6701148  91.4938209
  34.3314430  38.4941003  93.9498638  33.6842345  39.1930953  93.8563114
  35.1015445  38.9277147  94.3174886  37.7393228  48.7589855  97.0249191
  37.5878734  48.5300407  96.1079274  37.7297907  49.7160457  97.0380536
  34.5078564  46.3321768  92.0095457  35.4370624  46.4832928  91.8364425
  34.0869594  46.4205789  91.1544104  28.8316355  45.1421665  92.6935414
  28.6936153  44.4101904  93.2946953  29.7421278  45.0530565  92.4119602
  37.7931303  47.0810069  77.4419892  37.1760473  46.3556898  77.3452945
  37.3247791  47.8419430  77.0986967  31.4598656  44.8541624  92.1819093
  32.1698274  44.2134817  92.1405712  31.4167964  45.1054519  93.1045274
  30.1727590  41.8406842  94.0014733  29.6364947  41.3897581  94.6536329
  29.5844298  41.9752751  93.2585197  28.4676133  58.6070892  87.8959392
  28.7072731  59.2389416  88.5738410  27.6245330  58.2558932  88.1824751
  29.5829849  41.2995494  76.5641197  28.7059315  41.1784295  76.2003443
  30.0587602  40.5081572  76.3120085  21.1031989  46.0872654  86.6582704
  21.7903029  45.7734384  86.0703719  20.9480117  46.9914018  86.3849955
  25.9066711  40.9762850  91.0867727  25.8224900  40.3688520  90.3518137
  25.0849417  41.4671868  91.0877224  32.7693775  53.6521784  83.8103717
  31.9861297  54.1943464  83.9041942  33.4686520  54.1695764  84.2097958
  36.0790425  39.4616414  86.4537922  36.5759124  38.7086376  86.1338993
  35.3077406  39.4980730  85.8881132  37.1620205  48.2188101  84.0276346
  36.2276484  48.3389563  83.8581050  37.3396874  47.3160568  83.7636356
  32.6625393  41.6033797  86.1809607  32.2923181  41.0504837  86.8690513
  33.1584486  40.9991930  85.6284607  40.5492757  44.0605420  84.5626380
  41.0153209  44.8933412  84.4886683  41.0000257  43.5950402  85.2671638
  38.5209420  36.4286007  88.6017281  37.6072499  36.6590234  88.7699488
  38.9502521  36.5124451  89.4531314  38.2915878  44.6175899  91.1017175
  37.6387328  44.8651807  90.4469628  38.6696258  43.8040037  90.7679653
  34.3403451  45.3595710  97.5883212  33.6644088  45.2589839  98.2585588
  35.1631085  45.2034924  98.0519210  26.0882310  51.5967647  90.2095728
  26.6735747  50.8511335  90.3423632  25.8907149  51.9071603  91.0932392
  28.9420965  54.6318894  85.2258170  28.2731341  55.1165022  84.7422210
  28.8033835  54.8788115  86.1401549  20.6799965  44.1673247  88.9300171
  20.7184064  43.6336838  89.7237289  20.1740258  43.6408452  88.3111148
  28.0590727  39.0137787  92.4262713  28.1232054  39.8752618  92.0140111
  27.9957847  38.4011789  91.6935072  27.5343000  41.0860920  96.0735747
  28.1615039  40.7037997  96.6873272  26.6770919  40.8675122  96.4391440
  24.3108542  42.8937349  82.0054102  24.6061984  41.9848027  81.9521156
  23.4096578  42.8725088  81.6835105  27.8402789  40.9693346  87.9881651
  27.1189375  41.5829313  87.8489124  28.6296045  41.5051110  87.9098297
  30.6429103  38.3047772  94.2622303  31.1663505  38.5510069  95.0248612
  30.4241436  39.1367807  93.8425440  26.0396384  40.5751447  82.1293427
  25.7109090  39.6948826  81.9468533  26.3935755  40.5199115  83.0169817
  29.1538207  40.8624416  82.4968905  29.4934280  41.3910338  81.7747513
  29.6010328  41.2004823  83.2727472  31.8481648  39.2461467  91.9471973
  31.5078468  38.4469280  92.3492653  31.1420654  39.5463178  91.3748806
  32.4998120  36.3310780  90.3999296  33.3224189  35.8571258  90.2778186
  32.7436183  37.1101263  90.8997982  31.1406354  39.3599038  80.6962198
  31.8614717  39.7380291  80.1925915  30.5171658  40.0787915  80.7997176
  35.2837477  40.0644187  81.6320530  35.5001092  40.9468825  81.3309358
  34.8031544  39.6730400  80.9026172  30.0236699  43.0229900  88.2091275
  29.8781279  43.3370203  89.1015556  29.5461902  43.6414801  87.6562173
  31.8833081  40.0132448  88.2572164  31.8694650  39.1173542  87.9204462
  32.6005510  40.0203112  88.8910450  33.7359212  40.4469788  90.3025292
  33.4776990  41.3686859  90.3009622  33.2044253  40.0500223  90.9925756
  24.4982361  45.5635245  91.1478936  23.9535829  46.3395053  91.2799210
  25.3761711  45.9106049  90.9898057  31.2869977  38.8946829  83.5259734
  31.4085889  37.9663475  83.7250622  30.9972020  38.9085515  82.6138050
  34.1561168  36.5801739  86.6626454  34.1782865  36.6441072  85.7078434
  34.5729227  35.7406248  86.8566960  44.5344792  46.3156999  84.7005677
  44.9775938  45.5664324  84.3024800  43.6571302  46.3067135  84.3179409
  25.2848383  44.6905141  94.0409093  24.5430119  44.8387776  94.6273723
  24.9641127  44.9513407  93.1775842  25.7304996  52.5770570  86.0719487
  26.5563016  52.2774342  85.6918131  25.3799048  51.8078192  86.5209276
  23.9313601  50.4956896  87.0308421  23.0945510  50.0679070  86.8492422
  23.9037247  50.6889339  87.9679212  30.7711057  40.4078826  97.7349667
  30.8199212  41.2840949  97.3527437  31.3133571  39.8656219  97.1621310
  30.2600036  50.4800961  81.6175622  30.4088157  51.1636426  80.9642294
  31.0666480  50.4606051  82.1325077  38.6667540  43.7843344  95.6442839
  39.5677403  43.6449808  95.3526837  38.7415515  43.9497798  96.5841017
  33.0010345  41.1610198  94.4896026  32.1313655  41.4543764  94.2178614
  33.2369826  41.7450643  95.2103289  28.0152669  46.5066139  82.6236690
  27.7698711  45.6028469  82.8216901  28.1848584  46.5083289  81.6816168
  35.7049379  37.3789815  92.0061446  36.2231323  38.1150842  91.6807935
  35.3504512  37.6853809  92.8408205  27.2848317  42.2394496  80.1222852
  26.5917562  42.3138851  79.4662888  27.0400069  41.4754840  80.6444369
  35.9561973  33.7990098  87.5262343  36.2363727  33.1313287  88.1522769
  36.7412580  33.9919193  87.0137007  33.7595442  52.9749092  79.0887369
  33.1869409  53.5939279  78.6357841  34.3328236  53.5248453  79.6227291
  39.8270832  42.2207732  91.2733918  40.7788255  42.3205829  91.2946142
  39.6574282  41.4286000  91.7832002  37.8485211  39.3063315  91.4593319
  37.2535143  39.5868328  90.7639807  37.5634908  39.7957216  92.2310060
  34.1442240  44.3109904  76.4303421  35.0901345  44.1816113  76.4991840
  33.7656485  43.5724566  76.9072850  42.4553398  42.2324895  90.4334501
  41.9392447  41.4483352  90.2464429  43.3393347  41.9043612  90.5981020
  40.1164125  35.9765910  86.3930313  39.9188946  35.6680999  87.2773645
  40.7263831  36.7027549  86.5228243  32.3285158  42.2359881  76.3658307
  31.4216613  41.9392994  76.4421020  32.6061139  41.9389699  75.4992593
  23.2463098  43.5566244  86.8157353  22.9265882  42.7031552  86.5231727
  22.6996526  43.7714822  87.5715320  27.0243005  46.2728685  90.5326860
  27.2429015  47.2045793  90.5514893  27.4368779  45.9136660  91.3181663
  33.9447223  36.7796771  82.5202548  33.1347952  36.4343856  82.8957794
  34.6331640  36.4704314  83.1090160  35.8737772  35.8574817  84.1426845
  36.4268810  36.2770271  84.8016868  36.1107858  34.9310565  84.1849801
  31.8970871  41.8461891  99.9229609  31.7967598  42.7956248  99.8541700
  31.6792413  41.5180130  99.0505679  31.0983942  39.0946816  76.5070286
  31.9603106  39.4201714  76.7666103  31.2834286  38.3078312  75.9943352
  23.1151358  47.1769156  88.7850475  22.4214829  46.7623109  88.2720429
  23.8624349  47.2189692  88.1883894  39.2516579  37.9675342  83.6505509
  38.6715248  38.6260147  83.2683561  38.9852511  37.1452687  83.2392926
  37.7020145  37.3680400  85.8526829  38.2019923  37.4796935  85.0441148
  38.3455753  37.0641453  86.4927638  31.7602141  45.2759030  98.7394670
  31.2769223  46.0759390  98.9458559  31.8463080  45.2866975  97.7862114
  25.0288100  47.1087409  86.6616490  25.0058789  47.2075097  85.7098373
  25.3388737  47.9552560  86.9833656  27.6875478  49.1663565  90.7763104
  28.6418732  49.1347507  90.7093036  27.4888002  48.7054188  91.5913330
  28.2774860  47.7364681  93.3433902  29.0967749  48.2308759  93.3668739
  28.5511668  46.8196649  93.3151469  38.0341457  40.1275433  82.7061857
  37.1467312  40.4125083  82.4882052  38.4495446  39.9669196  81.8589134
  41.3855993  40.1521954  86.4216196  42.1616383  40.6418406  86.6940813
  40.6604127  40.5780008  86.8788066  43.8228551  40.8649573  87.4790137
  44.4173042  40.6245309  86.7683445  43.8955135  40.1456704  88.1063673
  37.1784670  49.8920108  76.8009877  37.8820520  50.0970110  77.4167533
  36.4547319  50.4596869  77.0658961  38.0082480  45.6429969  82.9212147
  37.9517682  46.0998520  82.0819780  38.5610823  44.8820653  82.7434990
  41.8187286  41.4319701  83.7462267  41.5624221  41.0316336  84.5770475
  41.1940154  42.1463495  83.6212406  46.1299624  44.1715774  86.2533558
  45.5699182  44.2408963  87.0265120  45.5243128  43.9956759  85.5333054
  38.7417260  46.8334750  80.2164677  38.6866064  46.6679021  79.2753121
  38.1163315  47.5410783  80.3726866  23.5309775  42.0702814  94.0426099
  24.1768638  41.5601768  94.5313324  23.3226926  42.8071496  94.6169524
  32.0513385  36.3342859  79.7949995  32.0392055  37.2784699  79.9518266
  32.9436807  36.1513004  79.5009456  35.8665505  32.9285636  84.0495932
  35.0997900  32.3744122  84.1952614  36.2776210  33.0007504  84.9110083
  27.8707266  39.2170432  98.1401113  28.7338727  38.8607236  98.3504438
  27.2972676  38.8784326  98.8276517  50.1930759  52.2220549  91.3844309
  49.8614083  53.0915960  91.1605524  49.5976372  51.9056833  92.0638340
  50.0859422  56.9415635  88.4637659  49.1776299  56.8731044  88.1696420
  50.0347018  57.4187580  89.2919485  51.9521068  55.1432074  90.2415533
  51.3095449  55.4364607  89.5955328  51.4475997  55.0284994  91.0468730
  58.5522799  61.6746166  86.7962010  57.7986507  61.1053564  86.6406014
  58.6870340  61.6408831  87.7432645  42.6153317  52.5233515  87.9731038
  43.4806313  52.3276324  87.6136927  42.6830826  52.2943867  88.9000394
  49.0901556  49.3283689  86.1033360  49.3960433  48.4681053  85.8159275
  49.8154161  49.9201310  85.9032354  46.8989207  58.7056367  93.2014824
  47.2538595  58.9327840  94.0609290  47.5461339  59.0374743  92.5792080
  53.5171874  63.9375030  91.4508310  53.7107764  64.8420841  91.6967585
  53.4172492  63.4782449  92.2846895  48.5786982  64.0881773  97.0249191
  48.4272489  63.8592325  96.1079274  48.5691662  65.0452374  97.0380536
  50.2879189  67.1200896  95.1025673  50.2291735  66.4360116  94.4356256
  50.6898707  67.8619886  94.6506299  31.9425743  61.4164571  86.6582704
  32.6296783  61.1026301  86.0703719  31.7873872  62.3205936  86.3849955
  49.3603174  51.7577925  88.6017281  48.4466254  51.9882152  88.7699488
  49.7896275  51.8416369  89.4531314  48.7730863  66.8215813  97.6789483
  49.3170767  67.4345771  97.1844438  48.1917708  67.3795391  98.1956496
  44.9954922  51.9093657  86.6626454  45.0176619  51.9732990  85.7078434
  45.4122981  51.0698165  86.8566960  52.0959657  66.2811867  97.0150804
  51.3055201  66.2636006  96.4755304  51.8593012  66.8200161  97.7699841
  52.2157532  63.1304333  94.3283533  52.2655537  62.9654341  95.2699055
  52.1071456  62.2631592  93.9381413  49.5061295  59.1135261  95.6442839
  50.4071157  58.9741726  95.3526837  49.5809269  59.2789716  96.5841017
  53.7175729  65.5501275  94.5725554  53.4260537  65.9131255  95.4089015
  53.1047860  64.8368283  94.3938886  51.9662917  60.6733889  93.0405612
  52.4417039  60.8661536  92.2324464  51.0428483  60.7293075  92.7948996
  50.6664586  57.5499649  91.2733918  51.6182009  57.6497747  91.2946142
  50.4968037  56.7577918  91.7832002  58.9629214  61.8321776  89.5282254
  59.6932602  61.5707064  90.0889958  58.3536159  61.0950498  89.5684322
  57.0444511  59.9729639  90.1256705  56.3177675  59.8385603  89.5173197
  56.6291798  60.2806467  90.9313423  46.7131526  51.1866735  84.1426845
  47.2662565  51.6062188  84.8016868  46.9501612  50.2602483  84.1849801
  33.9545112  62.5061073  88.7850475  33.2608584  62.0915026  88.2720429
  34.7018103  62.5481610  88.1883894  56.9693379  59.5007692  86.2533558
  56.4092937  59.5700881  87.0265120  56.3636882  59.3248676  85.5333054
  46.7059259  48.2577553  84.0495932  45.9391655  47.7036040  84.1952614
  47.1169964  48.3299422  84.9110083  55.8458886  77.2826485  94.8411244
  55.8347527  76.8879284  93.9691748  56.0079526  76.5492558  95.4345016
  52.5666148  80.0663597  93.7890428  52.2756014  80.9709228  93.6737094
  53.2023132  80.1080125  94.5034498  61.0324513  67.5512467  91.3844309
  60.7007838  68.4207878  91.1605524  60.4370126  67.2348751  92.0638340
  57.5256033  79.7525013  90.7840222  57.2256756  80.6550051  90.6756029
  57.1807092  79.4857196  91.6361375  60.9253176  72.2707553  88.4637659
  60.0170054  72.2022961  88.1696420  60.8740772  72.7479498  89.2919485
  52.5076812  86.5169333  83.7511190  52.4300842  87.4677158  83.8299670
  51.9038456  86.1715206  84.4086116  54.9994042  73.6897198  96.4072556
  54.2227376  74.2491119  96.3975421  55.6384605  74.1753981  96.9287427
  62.7914823  70.4723991  90.2415533  62.1489203  70.7656524  89.5955328
  62.2869751  70.3576912  91.0468730  58.7295754  78.6411792  94.5662685
  59.1379110  78.1994203  93.8217317  58.0073016  78.0664420  94.8196878
  59.0524569  79.2012983  88.3214974  58.4233431  79.3658697  87.6191042
  58.6650231  79.6154592  89.0925938  58.2326270  71.2388767  93.5977416
  57.9887201  71.9930828  93.0611691  58.5086200  71.6174115  94.4324663
  60.1864732  77.7827380  92.2754681  60.3981628  78.4259140  91.5989062
  60.1394481  76.9489696  91.8076611  61.3010560  80.6599335  90.4477038
  62.1228004  80.2579522  90.1659720  61.2972963  80.5567569  91.3993154
  55.0667164  80.2083378  92.6037749  55.1311596  80.6703786  93.4395921
  54.3578088  79.5780743  92.7320059  54.7815181  81.8751486  82.4716729
  54.6460856  82.7203022  82.9001577  55.3224994  82.0770764  81.7082663
  51.2682521  67.9543066  99.1331084  50.8749467  67.4009264  99.8078729
  52.0848661  68.2653644  99.5237602  50.0439463  82.5092680  85.1267408
  50.2206092  83.4310645  84.9388391  50.8396297  82.1951100  85.5561787
  54.1850482  69.3700945  96.7251341  54.9260195  69.9708098  96.6455804
  54.4168405  68.6278583  96.1669384  56.4083658  82.4975052  96.6017071
  55.9647512  81.7111431  96.2837976  57.0700871  82.6854203  95.9360962
  51.1670779  84.0270854  91.1277750  51.7178204  83.8987917  90.3554744
  50.3282255  84.3265743  90.7772643  58.5064896  82.7777852  94.6298473
  58.4883371  83.5986733  94.1378742  59.4284816  82.6531928  94.8548614
  54.9637950  80.2921982  95.4721981  55.4966287  79.5310270  95.2421289
  54.4352031  79.9995634  96.2146135  58.1307645  65.3982048  91.0015623
  57.7871914  66.2883690  90.9254733  58.4986607  65.2083706  90.1385208
  59.9295311  64.6575607  86.1033360  60.2354187  63.7972970  85.8159275
  60.6547915  65.2493227  85.9032354  54.2917328  83.5664217  86.3034195
  54.2493507  83.7925063  85.3742727  55.2080027  83.3327591  86.4519996
  57.7382962  74.0348284  93.2014824  58.0932350  74.2619757  94.0609290
  58.3855093  74.3666661  92.5792080  63.4950078  79.2243247  88.9175425
  63.9286585  79.1318536  89.7658479  64.2081659  79.2000748  88.2795441
  57.2277973  82.8245341  90.4508525  57.2814996  83.3936278  91.2186241
  56.3592755  82.9947226  90.0862563  64.3565628  79.2666948  91.4508310
  64.5501518  80.1712758  91.6967585  64.2566246  78.8074367  92.2846895
  56.0101939  69.1524838  93.9498638  55.3629854  69.8514788  93.8563114
  56.7802954  69.5860982  94.3174886  59.4180737  79.4173691  97.0249191
  59.2666243  79.1884242  96.1079274  59.4085416  80.3744292  97.0380536
  54.9854405  81.0156268  89.7793995  54.8465491  80.6475052  90.6519933
  54.1969001  81.5303907  89.6077953  55.5802557  86.1165364  81.1219531
  55.7554313  85.6453407  81.9365154  54.8935345  86.7431130  81.3500792
  56.5359620  80.3937870  87.1682833  56.2009453  80.3538640  88.0640483
  56.0363566  79.7282586  86.6953243  61.1272943  82.4492813  95.1025673
  61.0685489  81.7652033  94.4356256  61.5292462  83.1911803  94.6506299
  50.1463642  89.2654727  87.8959392  50.3860240  89.8973251  88.5738410
  49.3032839  88.9142767  88.1824751  61.1290351  80.4132397  93.3339652
  60.2417129  80.0758319  93.4566051  61.6988902  79.6815428  93.5708418
  54.6591504  85.0733849  90.3000896  54.5861675  85.8788821  90.8120200
  54.2168897  85.2725815  89.4748917  54.4481284  84.3105620  83.8103717
  53.6648806  84.8527300  83.9041942  55.1474029  84.8279599  84.2097958
  57.1190188  84.9720684  92.4559054  57.8318160  85.6068148  92.3834956
  56.6280216  85.0684549  91.6399056  52.1702101  82.7215127  93.2764625
  52.8711561  83.3551610  93.4294019  51.6997216  83.0629859  92.5160264
  60.1996929  67.0869842  88.6017281  59.2860008  67.3174069  88.7699488
  60.6290030  67.1708287  89.4531314  59.9703387  75.2759734  91.1017175
  59.3174837  75.5235642  90.4469628  60.3483767  74.4623873  90.7679653
  56.9310561  85.3119428  85.2045346  57.1132955  84.4941084  85.6673098
  57.7543547  85.5287120  84.7670236  57.2652726  84.2387613  82.4660394
  57.7940493  83.7280067  81.8530556  57.5280946  83.9230143  83.3305927
  56.0190960  76.0179545  97.5883212  55.3431597  75.9173675  98.2585588
  56.8418594  75.8618759  98.0519210  47.7669819  82.2551482  90.2095728
  48.3523256  81.5095170  90.3423632  47.5694658  82.5655439  91.0932392
  50.6208474  85.2902729  85.2258170  49.9518850  85.7748857  84.7422210
  50.4821344  85.5371950  86.1401549  54.7613743  87.3246473  91.8240828
  55.3132051  87.4878094  92.5889914  55.1019936  87.9150911  91.1520853
  59.6124617  82.1507730  97.6789483  60.1564521  82.7637689  97.1844438
  59.0311462  82.7087309  98.1956496  57.8982130  85.2728448  88.8104511
  57.7733270  84.4718188  88.3015456  58.5561221  85.7674642  88.3218481
  59.9617039  83.0737469  90.4384061  59.0147374  82.9542820  90.3662387
  60.3099812  82.1859967  90.5210322  52.3216612  68.9631607  94.2622303
  52.8451014  69.2093904  95.0248612  52.1028945  69.7951642  93.8425440
  56.9663472  82.8690185  86.6388413  56.8188434  81.9406892  86.8195983
  57.7916965  82.8910275  86.1545488  53.5269157  69.9045303  91.9471973
  53.1865977  69.1053116  92.3492653  52.8208163  70.2047013  91.3748806
  54.1785629  66.9894615  90.3999296  55.0011698  66.5155093  90.2778186
  54.4223692  67.7685099  90.8997982  54.9079554  84.8904955  93.8389483
  55.2166681  84.6454101  94.7112182  55.7055036  85.0951593  93.3508353
  54.9300166  87.0442864  86.0694859  54.4905157  86.5519243  86.7627716
  55.6808283  86.5015832  85.8286935  47.4092505  83.2354405  86.0719487
  48.2350525  82.9358177  85.6918131  47.0586557  82.4662027  86.5209276
  52.3774038  82.5880873  88.1417161  51.7554048  81.9251578  87.8419389
  53.0478905  82.6142005  87.4590809  45.6101110  81.1540731  87.0308421
  44.7733019  80.7262906  86.8492422  45.5824756  81.3473175  87.9679212
  52.4498566  71.0662661  97.7349667  52.4986721  71.9424784  97.3527437
  52.9921080  70.5240054  97.1621310  62.9353412  81.6103785  97.0150804
  62.1448955  81.5927923  96.4755304  62.6986766  82.1492078  97.7699841
  63.0551287  78.4596251  94.3283533  63.1049292  78.2946258  95.2699055
  62.9465210  77.5923510  93.9381413  51.9387545  81.1384797  81.6175622
  52.0875666  81.8220261  80.9642294  52.7453989  81.1189887  82.1325077
  60.3455049  74.4427179  95.6442839  61.2464912  74.3033644  95.3526837
  60.4203024  74.6081634  96.5841017  54.6797854  71.8194034  94.4896026
  53.8101164  72.1127600  94.2178614  54.9157335  72.4034479  95.2103289
  64.5569483  80.8793192  94.5725554  64.2654292  81.2423173  95.4089015
  63.9441615  80.1660201  94.3938886  62.8056672  76.0025807  93.0405612
  63.2810793  76.1953453  92.2324464  61.8822237  76.0584993  92.7948996
  57.3836888  68.0373651  92.0061446  57.9018832  68.7734678  91.6807935
  57.0292021  68.3437644  92.8408205  61.5058341  72.8791567  91.2733918
  62.4575764  72.9789665  91.2946142  61.3361791  72.0869836  91.7832002
  59.5272720  69.9647150  91.4593319  58.9322652  70.2452163  90.7639807
  59.2422417  70.4541051  92.2310060  63.9846419  76.0997687  90.3876217
  63.9522739  75.1613688  90.5735901  64.5947042  76.1781724  89.6542042
  64.1340907  72.8908730  90.4334501  63.6179956  72.1067187  90.2464429
  65.0180856  72.5627447  90.5981020  61.7951634  66.6349746  86.3930313
  61.5976455  66.3264834  87.2773645  62.4051339  67.3611385  86.5228243
  69.8022968  77.1613694  89.5282254  70.5326357  76.8998982  90.0889958
  69.1929914  76.4242416  89.5684322  55.7068442  79.0211486  97.8904078
  56.6271451  79.1990085  98.0844125  55.6718025  78.0767531  97.7383778
  53.5758380  72.5045726  99.9229609  53.4755107  73.4540083  99.8541700
  53.3579922  72.1763965  99.0505679  60.9304088  68.6259178  83.6505509
  60.3502757  69.2843982  83.2683561  60.6640020  67.8036522  83.2392926
  59.3807654  68.0264236  85.8526829  59.8807432  68.1380770  85.0441148
  60.0243262  67.7225288  86.4927638  53.4389650  75.9342865  98.7394670
  52.9556732  76.7343225  98.9458559  53.5250589  75.9450810  97.7862114
  59.7128966  70.7859268  82.7061857  58.8254821  71.0708919  82.4882052
  60.1282955  70.6253032  81.8589134  63.0643502  70.8105789  86.4216196
  63.8403892  71.3002242  86.6940813  62.3391636  71.2363843  86.8788066
  47.7213216  85.3667019  87.7933302  47.5867684  84.6067420  87.2271300
  47.3045278  86.0907919  87.3262091  50.8782342  86.2636336  88.0051745
  50.7614726  87.2081769  87.9030435  50.0574788  85.9609898  88.3937544
  57.7350676  79.7967497  99.5418239  58.6041836  79.9708150  99.1804874
  57.2557427  80.6161914  99.4193969  51.9036856  86.9164598  91.2207673
  52.8064103  86.9488209  91.5374168  51.6774226  85.9865049  91.2354009
  53.6590458  85.6695585  87.8817752  52.7086089  85.6697446  87.7682124
  53.9622944  84.9228319  87.3653786  69.3943152  91.5056123  88.9463514
  70.0321562  91.3862871  88.2426854  69.2763994  92.4536967  89.0051466
  66.2032858  91.4583551  88.8825039  65.8651369  91.3424616  87.9945574
  67.0722626  91.0574716  88.8626045  62.0619674  93.3119028  84.8721930
  61.4984539  93.2208965  84.1038217  61.9472069  92.4918932  85.3524422
  66.6852641  92.6118403  94.8411244  66.6741282  92.2171201  93.9691748
  66.8473280  91.8784476  95.4345016  59.6084106  94.8070219  87.7106150
  60.4005397  94.4661044  87.2952449  59.8480756  94.9165194  88.6308303
  67.6419232  96.9789995  80.1836395  66.9907212  97.5644076  79.7970408
  68.4363595  97.5096190  80.2431432  61.5674859  94.0679133  80.5823529
  62.3405735  93.5208120  80.4436405  61.9200258  94.9323382  80.7937990
  63.4059902  95.3955515  93.7890428  63.1149768  96.3001146  93.6737094
  64.0416886  95.4372042  94.5034498  64.3316109  92.7732363  90.3791788
  64.9279681  92.5488386  89.6648751  64.3891080  92.0317109  90.9817236
  63.9041137  90.2271799  78.2141979  64.1566658  89.7053320  77.4525442
  62.9665696  90.0637944  78.3168662  68.9484420  89.2307577  86.0216722
  69.7347509  88.8127000  85.6707139  69.2123124  90.1353669  86.1898370
  69.1194497  94.6680427  80.7205379  68.4840330  94.7415054  81.4326283
  68.7891904  95.2574026  80.0424458  74.3492847  89.1682810  86.9249701
  75.0818019  88.5982027  87.1587530  73.5932203  88.7804411  87.3656206
  63.6237426  92.1299905  80.4166354  63.5073684  91.4544808  81.0847438
  63.7339686  91.6432279  79.5998507  65.9668967  91.5910052  84.1213043
  65.6027174  91.0640673  84.8325964  66.8236083  91.2008521  83.9479528
  71.8718268  82.8804384  91.3844309  71.5401592  83.7499795  91.1605524
  71.2763881  82.5640668  92.0638340  68.3649787  95.0816930  90.7840222
  68.0650510  95.9841969  90.6756029  68.0200847  94.8149114  91.6361375
  61.8162269  91.5330727  86.8176926  60.8912765  91.4006941  87.0254618
  62.0646682  92.3124946  87.3146869  71.7646931  87.5999471  88.4637659
  70.8563808  87.5314879  88.1696420  71.7134527  88.0771415  89.2919485
  65.5863675  89.0757609  80.1021058  65.4663300  89.5214660  80.9406539
  64.8916263  89.4242927  79.5434596  59.1771080  91.1764001  87.6520715
  59.3063461  91.4298480  88.5660127  58.4968531  91.7691709  87.3325370
  63.3470567 101.8461251  83.7511190  63.2694597 102.7969076  83.8299670
  62.7432210 101.5007123  84.4086116  65.8387797  89.0189116  96.4072556
  65.0621131  89.5783036  96.3975421  66.4778360  89.5045899  96.9287427
  73.6308577  85.8015909  90.2415533  72.9882958  86.0948442  89.5955328
  73.1263506  85.6868829  91.0468730  71.2848741  89.5479082  80.9301392
  72.1966597  89.7806469  80.7549090  70.7758388  90.1316126  80.3676471
  64.0934169  91.8274569  95.9690523  64.8348853  92.3659613  95.6925347
  63.3871154  92.4540858  96.1262075  69.5689509  93.9703710  94.5662685
  69.9772865  93.5286120  93.8217317  68.8466770  93.3956337  94.8196878
  65.9220579  88.9076317  91.9396242  66.7681774  89.3315730  92.0830891
  65.8619216  88.2509941  92.6334805  69.8918323  94.5304901  88.3214974
  69.2627186  94.6950615  87.6191042  69.5043985  94.9446510  89.0925938
  73.7707555  95.4659338  85.6759338  73.0858593  95.8458240  85.1256371
  73.8551404  96.0754665  86.4091285  69.0720024  86.5680685  93.5977416
  68.8280956  87.3222746  93.0611691  69.3479955  86.9466033  94.4324663
  71.0258487  93.1119297  92.2754681  71.2375382  93.7551057  91.5989062
  70.9788235  92.2781614  91.8076611  68.6284716  85.7237118  89.1791253
  67.7669195  86.0218372  89.4707991  68.6547150  85.9407517  88.2472286
  65.4446285  94.2679309  85.5865059  65.9084631  94.5467012  84.7969681
  65.1803083  93.3662753  85.4038150  62.3370366  93.8150790  88.5244822
  62.9071723  94.2438059  87.8862307  62.9278478  93.5333375  89.2229008
  64.3815171  90.3902461  82.3954624  65.0839215  90.8423505  82.8628550
  64.0495800  89.7486280  83.0234517  62.8295533  88.9814218  96.7705833
  62.1994193  89.6630499  97.0041230  62.7231621  88.8697299  95.8258972
  58.1240505  88.6486014  87.6971758  57.3339559  88.9043542  87.2211868
  58.6151753  89.4634352  87.8023798  72.1404315  95.9891253  90.4477038
  72.9621758  95.5871440  90.1659720  72.1366718  95.8859487  91.3993154
  60.0755251  89.0130593  84.6555234  59.2786414  89.1249287  85.1738730
  59.8480843  89.3517245  83.7896125  65.9060918  95.5375296  92.6037749
  65.9705351  95.9995703  93.4395921  65.1971842  94.9072661  92.7320059
  56.4078208  88.9016504  90.1286748  56.6586247  89.7863514  90.3944324
  56.9437757  88.7221106  89.3561840  80.2310308  92.3330001  86.7962010
  79.4774016  91.7637399  86.6406014  80.3657849  92.2992666  87.7432645
  65.6208936  97.2043404  82.4716729  65.4854611  98.0494939  82.9001577
  66.1618748  97.4062681  81.7082663  62.1076275  83.2834984  99.1331084
  61.7143221  82.7301182  99.8078729  62.9242416  83.5945562  99.5237602
  59.0738333  94.7218842  83.0444654  59.5862854  95.5162092  83.1950219
  59.7261046  94.0245132  82.9778256  60.8833218  97.8384598  85.1267408
  61.0599846  98.7602563  84.9388391  61.6790051  97.5243017  85.5561787
  65.0244236  84.6992863  96.7251341  65.7653950  85.3000016  96.6455804
  65.2562159  83.9570500  96.1669384  60.1685574  89.8849230  95.0029571
  60.0539090  88.9834487  95.3036670  59.3130092  90.1312927  94.6514387
  67.2477412  97.8266970  96.6017071  66.8041266  97.0403349  96.2837976
  67.9094626  98.0146121  95.9360962  62.0064533  99.3562772  91.1277750
  62.5571958  99.2279835  90.3554744  61.1676009  99.6557661  90.7772643
  69.3458650  98.1069770  94.6298473  69.3277126  98.9278651  94.1378742
  70.2678570  97.9823845  94.8548614  65.8031704  95.6213900  95.4721981
  66.3360041  94.8602188  95.2421289  65.2745786  95.3287551  96.2146135
  68.9701399  80.7273966  91.0015623  68.6265669  81.6175607  90.9254733
  69.3380362  80.5375623  90.1385208  57.0387250  93.0507496  83.8204225
  57.8762472  93.4604504  83.6037933  57.2165518  92.1106938  83.7904419
  68.9351682  90.7182577  79.5088058  68.4198306  91.4887181  79.7476445
  68.6628991  90.0447713  80.1321119  66.5198793  85.5632277  84.5673296
  65.6640389  85.1739128  84.3878935  66.9325745  85.6424238  83.7073082
  68.0497940  83.0978621  88.9664856  67.5462735  83.0608756  88.1532661
  68.3428547  84.0071363  89.0261513  64.2940826  83.1817350  87.9731038
  65.1593822  82.9860159  87.6136927  64.3618335  82.9527702  88.9000394
  73.9085956  93.4714931  81.4441231  73.1315399  93.1326091  80.9996393
  74.5877437  93.4767554  80.7696196  68.7237985  88.5909669  81.3347839
  68.4188121  88.9055818  82.1857982  69.6768427  88.6691089  81.3775172
  67.1684417  94.7499892  82.9840793  66.6405779  94.0152652  82.6714030
  66.6671920  95.5274568  82.7380761  72.1477263  92.9448913  88.1007839
  71.4900938  93.6348174  88.1887968  72.9517662  93.3345344  88.4441826
  70.9582722  91.2993285  86.1511781  71.4714604  91.9323277  86.6533491
  71.6083946  90.6994481  85.7855141  65.3137017  92.5680102  75.9875766
  64.4064079  92.3369356  76.1866915  65.8108049  91.7717722  76.1749748
  68.2205096 101.2777610  78.9072452  67.5466795 101.5809306  79.5157410
  68.6070918 102.0806690  78.5577909  67.4363553  88.7742741  88.3970122
  66.5186114  88.9957688  88.2391810  67.8523696  88.8489051  87.5381829
  68.2198601  90.1734156  83.5272802  68.9670420  90.6855554  83.2179924
  68.4890190  89.8518209  84.3877195  66.4925251  92.6692697  80.5099756
  65.5836470  92.3851730  80.6072226  66.5220335  93.0891776  79.6503063
  71.7244518  96.2799287  84.2790924  71.2706845  95.4390197  84.3356114
  71.0938485  96.9160685  84.6165704  70.6677438  87.2091273  85.5091591
  69.9300195  86.6968659  85.8401834  70.9204211  86.7691654  84.6974868
  70.1677457  98.1175783  85.2140742  70.4600432  98.6780840  84.4953107
  70.6776078  98.4104344  85.9693901  70.7689065  79.9867525  86.1033360
  71.0747942  79.1264888  85.8159275  71.4941670  80.5785145  85.9032354
  57.0613421  90.3898211  84.4914958  56.8637821  89.7967572  83.7666025
  56.5060085  90.0850422  85.2090897  65.0410145  90.2821318  86.6109551
  65.0958755  89.3295154  86.5352028  64.2301347  90.4380757  87.0950850
  66.1901339  94.2101441  77.8487835  65.7520768  93.4937300  77.3893472
  66.9311779  94.4377556  77.2872926  62.9802505  88.8998378  84.3699930
  62.1670370  89.1992548  84.7765122  63.4761499  88.5054066  85.0874413
  65.1311083  98.8956134  86.3034195  65.0887261  99.1216981  85.3742727
  66.0473781  98.6619509  86.4519996  68.5776716  89.3640202  93.2014824
  68.9326104  89.5911675  94.0609290  69.2248848  89.6958579  92.5792080
  74.3074453  92.4858638  83.9064153  74.1692352  92.6760234  82.9785342
  73.9510672  93.2478021  84.3632204  62.4716579  86.4716733  89.9861165
  63.1115959  86.3305492  89.2884129  61.6394110  86.1851246  89.6099767
  74.3343833  94.5535165  88.9175425  74.7680340  94.4610454  89.7658479
  75.0475414  94.5292665  88.2795441  63.2476883  95.7719163  86.0996158
  64.0417482  95.2769484  85.8978733  62.5368576  95.2437027  85.7363863
  68.0671728  98.1537259  90.4508525  68.1208750  98.7228195  91.2186241
  67.1986509  98.3239144  90.0862563  59.5559647  89.9162245  82.1755910
  58.6257235  89.8546701  82.3925873  59.6517119  89.3938198  81.3792552
  59.4745196  86.4417058  84.7634152  59.7352013  87.3562391  84.6543313
  60.2962368  85.9741501  84.9130765  60.9470121  87.8554815  91.9332977
  61.6193175  87.6472177  91.2845626  60.1199908  87.6576901  91.4938209
  75.1959382  94.5958866  91.4508310  75.3895273  95.5004676  91.6967585
  75.0960001  94.1366285  92.2846895  66.8495693  84.4816756  93.9498638
  66.2023608  85.1806706  93.8563114  67.6196709  84.9152900  94.3174886
  70.2574491  94.7465608  97.0249191  70.1059998  94.5176160  96.1079274
  70.2479171  95.7036210  97.0380536  67.0259828  92.3197521  92.0095457
  67.9551888  92.4708681  91.8364425  66.6050858  92.4081542  91.1544104
  65.8248159  96.3448185  89.7793995  65.6859245  95.9766970  90.6519933
  65.0362756  96.8595825  89.6077953  66.4196311 101.4457282  81.1219531
  66.5948067 100.9745325  81.9365154  65.7329099 102.0723048  81.3500792
  67.3753375  95.7229788  87.1682833  67.0403207  95.6830558  88.0640483
  66.8757320  95.0574504  86.6953243  61.3497618  91.1297418  92.6935414
  61.2117416  90.3977657  93.2946953  62.2602542  91.0406318  92.4119602
  70.3112566  93.0685823  77.4419892  69.6941737  92.3432651  77.3452945
  69.8429055  93.8295183  77.0986967  63.9779919  90.8417378  92.1819093
  64.6879538  90.2010570  92.1405712  63.9349227  91.0930272  93.1045274
  71.9666698  97.7784731  95.1025673  71.9079244  97.0943951  94.4356256
  72.3686216  98.5203721  94.6506299  62.6908853  87.8282595  94.0014733
  62.1546210  87.3773334  94.6536329  62.1025562  87.9628504  93.2585197
  60.9857397 104.5946645  87.8959392  61.2253995 105.2265169  88.5738410
  60.1426593 104.2434685  88.1824751  71.9684105  95.7424315  93.3339652
  71.0810884  95.4050237  93.4566051  72.5382656  95.0107346  93.5708418
  53.6213252  92.0748407  86.6582704  54.3084292  91.7610137  86.0703719
  53.4661381  92.9789771  86.3849955  58.4247974  86.9638603  91.0867727
  58.3406163  86.3564273  90.3518137  57.6030681  87.4547621  91.0877224
  65.4985258 100.4025767  90.3000896  65.4255430 101.2080739  90.8120200
  65.0562652 100.6017733  89.4748917  65.2875038  99.6397537  83.8103717
  64.5042560 100.1819217  83.9041942  65.9867783 100.1571517  84.2097958
  68.5971688  85.4492167  86.4537922  69.0940388  84.6962129  86.1338993
  67.8258670  85.4856483  85.8881132  76.4501446  91.1532532  88.0956214
  76.4391322  92.0357248  87.7250147  75.5818825  90.8004083  87.9010751
  67.9583942 100.3012601  92.4559054  68.6711914 100.9360066  92.3834956
  67.4673971 100.3976467  91.6399056  69.6801469  94.2063854  84.0276346
  68.7457748  94.3265316  83.8581050  69.8578137  93.3036321  83.7636356
  65.1806657  87.5909550  86.1809607  64.8104444  87.0380590  86.8690513
  65.6765749  86.9867683  85.6284607  73.0674020  90.0481173  84.5626380
  73.5334472  90.8809165  84.4886683  73.5181521  89.5826155  85.2671638
  63.0095856  98.0507045  93.2764625  63.7105315  98.6843528  93.4294019
  62.5390971  98.3921776  92.5160264  71.1350251  96.3924994  81.5612532
  71.4110095  96.2781589  82.4706406  70.2654750  95.9942479  81.5224705
  71.0390683  82.4161760  88.6017281  70.1253763  82.6465987  88.7699488
  71.4683784  82.5000204  89.4531314  70.8097142  90.6051652  91.1017175
  70.1568592  90.8527560  90.4469628  71.1877521  89.7915790  90.7679653
  67.7704315 100.6411345  85.2045346  67.9526710  99.8233001  85.6673098
  68.5937301 100.8579038  84.7670236  68.1046481  99.5679530  82.4660394
  68.6334247  99.0571985  81.8530556  68.3674700  99.2522061  83.3305927
  66.8584715  91.3471463  97.5883212  66.1825352  91.2465592  98.2585588
  67.6812348  91.1910677  98.0519210  58.6063574  97.5843400  90.2095728
  59.1917010  96.8387088  90.3423632  58.4088412  97.8947356  91.0932392
  61.4602229 100.6194647  85.2258170  60.7912604 101.1040775  84.7422210
  61.3215099 100.8663868  86.1401549  53.1981228  90.1549000  88.9300171
  53.2365328  89.6212591  89.7237289  52.6921521  89.6284205  88.3111148
  65.6007497 102.6538391  91.8240828  66.1525805 102.8170012  92.5889914
  65.9413691 103.2442828  91.1520853  60.5771991  85.0013540  92.4262713
  60.6413317  85.8628371  92.0140111  60.5139111  84.3887542  91.6935072
  60.0524263  87.0736673  96.0735747  60.6796302  86.6913750  96.6873272
  59.1952182  86.8550875  96.4391440  70.4518372  97.4799648  97.6789483
  70.9958276  98.0929606  97.1844438  69.8705217  98.0379227  98.1956496
  56.8289806  88.8813102  82.0054102  57.1243247  87.9723780  81.9521156
  55.9277842  88.8600842  81.6835105  68.7375885 100.6020366  88.8104511
  68.6127024  99.8010106  88.3015456  69.3954976 101.0966559  88.3218481
  60.3584053  86.9569099  87.9881651  59.6370639  87.5705066  87.8489124
  61.1477309  87.4926863  87.9098297  70.8010793  98.4029386  90.4384061
  69.8541129  98.2834737  90.3662387  71.1493566  97.5151884  90.5210322
  63.1610366  84.2923525  94.2622303  63.6844768  84.5385822  95.0248612
  62.9422700  85.1243560  93.8425440  58.5577648  86.5627200  82.1293427
  58.2290354  85.6824579  81.9468533  58.9117018  86.5074868  83.0169817
  67.8057226  98.1982102  86.6388413  67.6582189  97.2698810  86.8195983
  68.6310720  98.2202193  86.1545488  61.6719471  86.8500170  82.4968905
  62.0115543  87.3786091  81.7747513  62.1191591  87.1880576  83.2727472
  71.4091348  99.0210661  87.7253286  72.3337896  98.8153523  87.5877737
  71.2406652  98.7727062  88.6342627  64.3662911  85.2337220  91.9471973
  64.0259732  84.4345033  92.3492653  63.6601918  85.5338931  91.3748806
  65.0179383  82.3186533  90.3999296  65.8405453  81.8447011  90.2778186
  65.2617447  83.0977016  90.8997982  62.5417962  89.0105653  88.2091275
  62.3962543  89.3245956  89.1015556  62.0643166  89.6290554  87.6562173
  64.4014345  86.0008201  88.2572164  64.3875914  85.1049295  87.9204462
  65.1186773  86.0078865  88.8910450  66.2540476  86.4345541  90.3025292
  65.9958253  87.3562612  90.3009622  65.7225516  86.0375976  90.9925756
  71.1986664  99.5396329  83.0815377  71.3723542  98.9742751  82.3289230
  71.6915556 100.3397223  82.8994867  57.0163624  91.5510998  91.1478936
  56.4717092  92.3270806  91.2799210  57.8942974  91.8981802  90.9898057
  66.6742431  82.5677492  86.6626454  66.6964128  82.6316825  85.7078434
  67.0910490  81.7282001  86.8566960  77.0526056  92.3032752  84.7005677
  77.4957202  91.5540077  84.3024800  76.1752566  92.2942888  84.3179409
  72.1861837  98.8563093  80.1812275  72.8812742  99.4769786  80.3999590
  72.5284987  98.0058444  80.4564653  57.8029646  90.6780894  94.0409093
  57.0611382  90.8263529  94.6273723  57.4822390  90.9389160  93.1775842
  74.0853260  96.3062799  81.7099606  74.6104584  96.6450071  80.9848926
  73.9975613  95.3709814  81.5262741  65.7473309 100.2196872  93.8389483
  66.0560435  99.9746019  94.7112182  66.5448791 100.4243511  93.3508353
  65.7693921 102.3734782  86.0694859  65.3298911 101.8811161  86.7627716
  66.5202038 101.8307749  85.8286935  58.2486260  98.5646323  86.0719487
  59.0744280  98.2650095  85.6918131  57.8980312  97.7953945  86.5209276
  63.2167793  97.9172791  88.1417161  62.5947802  97.2543496  87.8419389
  63.8872660  97.9433923  87.4590809  56.4494865  96.4832649  87.0308421
  55.6126773  96.0554824  86.8492422  56.4218510  96.6765092  87.9679212
  63.2892320  86.3954579  97.7349667  63.3380476  87.2716702  97.3527437
  63.8314835  85.8531972  97.1621310  73.7747166  96.9395702  97.0150804
  72.9842710  96.9219841  96.4755304  73.5380521  97.4783996  97.7699841
  73.8945041  93.7888169  94.3283533  73.9443046  93.6238176  95.2699055
  73.7858964  92.9215428  93.9381413  62.7781300  96.4676714  81.6175622
  62.9269420  97.1512179  80.9642294  63.5847743  96.4481804  82.1325077
  71.1848804  89.7719097  95.6442839  72.0858666  89.6325561  95.3526837
  71.2596778  89.9373551  96.5841017  65.5191609  87.1485951  94.4896026
  64.6494918  87.4419517  94.2178614  65.7551089  87.7326396  95.2103289
  75.3963238  96.2085110  94.5725554  75.1048046  96.5715091  95.4089015
  74.7835369  95.4952118  94.3938886  76.5958920  93.7737990  87.0928124
  77.4305812  94.2127794  87.2565685  76.7318049  93.2976643  86.2736370
  73.6450426  91.3317725  93.0405612  74.1204548  91.5245371  92.2324464
  72.7215992  91.3876911  92.7948996  60.5333933  92.4941892  82.6236690
  60.2879975  91.5904222  82.8216901  60.7029847  92.4959042  81.6816168
  68.2230643  83.3665568  92.0061446  68.7412587  84.1026595  91.6807935
  67.8685775  83.6729562  92.8408205  59.8029580  88.2270249  80.1222852
  59.1098825  88.3014604  79.4662888  59.5581332  87.4630593  80.6444369
  68.4743237  79.7865851  87.5262343  68.7544991  79.1189040  88.1522769
  69.2593844  79.9794946  87.0137007  66.2776705  98.9624845  79.0887369
  65.7050672  99.5815032  78.6357841  66.8509499  99.5124206  79.6227291
  72.3452095  88.2083485  91.2733918  73.2969518  88.3081582  91.2946142
  72.1755546  87.4161753  91.7832002  70.3666475  85.2939068  91.4593319
  69.7716407  85.5744081  90.7639807  70.0816171  85.7832969  92.2310060
  69.4973965  99.2461995  80.2195951  70.4304638  99.1807557  80.4228827
  69.4097178 100.0818262  79.7610484  72.1261982  98.5627865  77.1799899
  72.0475613  98.2287729  78.0735657  72.9471649  99.0549633  77.1791371
  74.8240173  91.4289604  90.3876217  74.7916493  90.4905605  90.5735901
  75.4340797  91.5073641  89.6542042  66.6623504  90.2985657  76.4303421
  67.6082609  90.1691866  76.4991840  66.2837749  89.5600319  76.9072850
  74.9734661  88.2200648  90.4334501  74.4573710  87.4359105  90.2464429
  75.8574610  87.8919365  90.5981020  72.6345388  81.9641663  86.3930313
  72.4370210  81.6556752  87.2773645  73.2445094  82.6903302  86.5228243
  80.6416723  92.4905611  89.5282254  81.3720111  92.2290899  90.0889958
  80.0323668  91.7534333  89.5684322  78.7232020  90.6313474  90.1256705
  77.9965184  90.4969439  89.5173197  78.3079307  90.9390303  90.9313423
  66.5462196  94.3503404  97.8904078  67.4665206  94.5282003  98.0844125
  66.5111779  93.4059449  97.7383778  55.7644361  89.5441997  86.8157353
  55.4447146  88.6907305  86.5231727  55.2177790  89.7590575  87.5715320
  59.5424269  92.2604438  90.5326860  59.7610279  93.1921546  90.5514893
  59.9550043  91.9012413  91.3181663  64.4152134  87.8337644  99.9229609
  64.3148861  88.7832001  99.8541700  64.1973676  87.5055883  99.0505679
  55.6332621  93.1644909  88.7850475  54.9396093  92.7498862  88.2720429
  56.3805612  93.2065445  88.1883894  71.7697842  83.9551096  83.6505509
  71.1896511  84.6135900  83.2683561  71.5033775  83.1328440  83.2392926
  70.2201408  83.3556153  85.8526829  70.7201187  83.4672688  85.0441148
  70.8637016  83.0517206  86.4927638  64.2783404  91.2634783  98.7394670
  63.7950486  92.0635143  98.9458559  64.3644343  91.2742728  97.7862114
  57.5469364  93.0963163  86.6616490  57.5240052  93.1950850  85.7098373
  57.8570000  93.9428313  86.9833656  60.2056742  95.1539318  90.7763104
  61.1599995  95.1223260  90.7093036  60.0069265  94.6929941  91.5913330
  60.7956124  93.7240434  93.3433902  61.6149013  94.2184512  93.3668739
  61.0692932  92.8072402  93.3151469  70.5522720  86.1151186  82.7061857
  69.6648575  86.4000837  82.4882052  70.9676709  85.9544949  81.8589134
  73.9037256  86.1397707  86.4216196  74.6797646  86.6294159  86.6940813
  73.1785390  86.5655761  86.8788066  76.3409815  86.8525326  87.4790137
  76.9354306  86.6121062  86.7683445  76.4136399  86.1332457  88.1063673
  58.5606971 100.6958937  87.7933302  58.4261439  99.9359338  87.2271300
  58.1439033 101.4199837  87.3262091  69.6965934  95.8795861  76.8009877
  70.4001784  96.0845863  77.4167533  68.9728582  96.4472622  77.0658961
  70.5263744  91.6305722  82.9212147  70.4698945  92.0874273  82.0819780
  71.0792086  90.8696406  82.7434990  74.3368550  87.4195454  83.7462267
  74.0805484  87.0192089  84.5770475  73.7121418  88.1339248  83.6212406
  78.6480888  90.1591527  86.2533558  78.0880446  90.2284716  87.0265120
  78.0424391  89.9832512  85.5333054  61.7176096 101.5928254  88.0051745
  61.6008481 102.5373687  87.9030435  60.8968543 101.2901816  88.3937544
  71.6052631  96.3178390  78.8508337  72.4398235  95.8859588  78.6685812
  71.4436974  96.1460403  79.7785232  71.2598523  92.8210503  80.2164677
  71.2047327  92.6554775  79.2753121  70.6344578  93.5286536  80.3726866
  56.0491038  88.0578567  94.0426099  56.6949902  87.5477521  94.5313324
  55.8408189  88.7947249  94.6169524  68.5744430  95.1259415  99.5418239
  69.4435590  95.3000067  99.1804874  68.0951182  95.9453832  99.4193969
  62.7430611 102.2456516  91.2207673  63.6457857 102.2780126  91.5374168
  62.5167981 101.3156967  91.2354009  64.4984213 100.9987503  87.8817752
  63.5479844 100.9989364  87.7682124  64.8016699 100.2520237  87.3653786
  60.3888529  85.2046185  98.1401113  61.2519991  84.8482989  98.3504438
  59.8153940  84.8660079  98.8276517  80.2336906 106.8348041  88.9463514
  80.8715316 106.7154788  88.2426854  80.1157749 107.7828885  89.0051466
  77.0426612 106.7875469  88.8825039  76.7045124 106.6716534  87.9945574
  77.9116381 106.3866634  88.8626045  72.9013428 108.6410945  84.8721930
  72.3378293 108.5500882  84.1038217  72.7865823 107.8210850  85.3524422
  77.5246395 107.9410321  94.8411244  77.5135036 107.5463119  93.9691748
  77.6867035 107.2076393  95.4345016  70.4477860 110.1362137  87.7106150
  71.2399152 109.7952962  87.2952449  70.6874510 110.2457112  88.6308303
  78.4812987 112.3081913  80.1836395  77.8300967 112.8935994  79.7970408
  79.2757350 112.8388108  80.2431432  72.4068614 109.3971050  80.5823529
  73.1799490 108.8500037  80.4436405  72.7594013 110.2615300  80.7937990
  74.2453657 110.7247433  93.7890428  73.9543522 111.6293063  93.6737094
  74.8810641 110.7663960  94.5034498  75.1709863 108.1024281  90.3791788
  75.7673436 107.8780303  89.6648751  75.2284835 107.3609027  90.9817236
  74.7434892 105.5563716  78.2141979  74.9960412 105.0345238  77.4525442
  73.8059451 105.3929862  78.3168662  79.7878175 104.5599495  86.0216722
  80.5741264 104.1418918  85.6707139  80.0516879 105.4645587  86.1898370
  79.9588252 109.9972345  80.7205379  79.3234085 110.0706972  81.4326283
  79.6285658 110.5865944  80.0424458  85.1886602 104.4974728  86.9249701
  85.9211774 103.9273945  87.1587530  84.4325957 104.1096328  87.3656206
  74.4631181 107.4591822  80.4166354  74.3467439 106.7836726  81.0847438
  74.5733440 106.9724196  79.5998507  76.8062721 106.9201969  84.1213043
  76.4420929 106.3932590  84.8325964  77.6629837 106.5300438  83.9479528
  82.7112022  98.2096302  91.3844309  82.3795347  99.0791713  91.1605524
  82.1157635  97.8932586  92.0638340  76.4468208 101.9491869  79.1174391
  76.6142611 102.8172106  79.4844863  76.2565377 102.1119151  78.1935681
  79.2043542 110.4108848  90.7840222  78.9044265 111.3133887  90.6756029
  78.8594601 110.1441031  91.6361375  72.6556023 106.8622645  86.8176926
  71.7306520 106.7298859  87.0254618  72.9040436 107.6416864  87.3146869
  82.6040685 102.9291388  88.4637659  81.6957563 102.8606797  88.1696420
  82.5528281 103.4063333  89.2919485  76.4257429 104.4049527  80.1021058
  76.3057054 104.8506577  80.9406539  75.7310018 104.7534844  79.5434596
  70.0164834 106.5055918  87.6520715  70.1457215 106.7590397  88.5660127
  69.3362285 107.0983626  87.3325370  74.1864321 117.1753168  83.7511190
  74.1088351 118.1260993  83.8299670  73.5825965 116.8299041  84.4086116
  76.6781551 104.3481034  96.4072556  75.9014885 104.9074954  96.3975421
  77.3172114 104.8337817  96.9287427  84.4702332 101.1307827  90.2415533
  83.8276712 101.4240360  89.5955328  83.9657260 101.0160747  91.0468730
  82.1242495 104.8771000  80.9301392  83.0360352 105.1098387  80.7549090
  81.6152143 105.4608044  80.3676471  74.9327923 107.1566487  95.9690523
  75.6742608 107.6951531  95.6925347  74.2264909 107.7832776  96.1262075
  80.4083263 109.2995628  94.5662685  80.8166619 108.8578038  93.8217317
  79.6860525 108.7248255  94.8196878  76.7614333 104.2368234  91.9396242
  77.6075528 104.6607648  92.0830891  76.7012971 103.5801859  92.6334805
  80.7312078 109.8596818  88.3214974  80.1020940 110.0242532  87.6191042
  80.3437740 110.2738428  89.0925938  84.6101310 110.7951256  85.6759338
  83.9252348 111.1750157  85.1256371  84.6945159 111.4046583  86.4091285
  79.9113778 101.8972603  93.5977416  79.6674710 102.6514663  93.0611691
  80.1873709 102.2757950  94.4324663  81.8652241 108.4411215  92.2754681
  82.0769136 109.0842975  91.5989062  81.8181990 107.6073532  91.8076611
  79.4678470 101.0529036  89.1791253  78.6062949 101.3510289  89.4707991
  79.4940905 101.2699435  88.2472286  76.2840040 109.5971226  85.5865059
  76.7478385 109.8758929  84.7969681  76.0196838 108.6954671  85.4038150
  73.1764121 109.1442708  88.5244822  73.7465478 109.5729976  87.8862307
  73.7672233 108.8625293  89.2229008  75.2208926 105.7194379  82.3954624
  75.9232969 106.1715422  82.8628550  74.8889554 105.0778198  83.0234517
  73.6689287 104.3106135  96.7705833  73.0387948 104.9922416  97.0041230
  73.5625375 104.1989217  95.8258972  68.9634260 103.9777931  87.6971758
  68.1733314 104.2335460  87.2211868  69.4545507 104.7926269  87.8023798
  82.9798069 111.3183171  90.4477038  83.8015513 110.9163358  90.1659720
  82.9760472 111.2151405  91.3993154  70.9149005 104.3422511  84.6555234
  70.1180168 104.4541205  85.1738730  70.6874597 104.6809163  83.7896125
  76.7454673 110.8667214  92.6037749  76.8099105 111.3287621  93.4395921
  76.0365597 110.2364579  92.7320059  67.2471963 104.2308422  90.1286748
  67.4980001 105.1155432  90.3944324  67.7831511 104.0513023  89.3561840
  91.0704062 107.6621919  86.7962010  90.3167771 107.0929317  86.6406014
  91.2051603 107.6284584  87.7432645  76.4602690 112.5335321  82.4716729
  76.3248365 113.3786857  82.9001577  77.0012503 112.7354599  81.7082663
  72.9470030  98.6126901  99.1331084  72.5536976  98.0593100  99.8078729
  73.7636170  98.9237480  99.5237602  69.9132088 110.0510759  83.0444654
  70.4256608 110.8454010  83.1950219  70.5654801 109.3537050  82.9778256
  71.7226972 113.1676516  85.1267408  71.8993601 114.0894480  84.9388391
  72.5183806 112.8534935  85.5561787  75.8637991 100.0284780  96.7251341
  76.6047704 100.6291933  96.6455804  76.0955914  99.2862418  96.1669384
  71.0079329 105.2141148  95.0029571  70.8932844 104.3126405  95.3036670
  70.1523847 105.4604844  94.6514387  78.0871167 113.1558888  96.6017071
  77.6435021 112.3695266  96.2837976  78.7488380 113.3438038  95.9360962
  72.8458288 114.6854689  91.1277750  73.3965713 114.5571753  90.3554744
  72.0069764 114.9849578  90.7772643  80.1852405 113.4361688  94.6298473
  80.1670880 114.2570569  94.1378742  81.1072325 113.3115763  94.8548614
  76.6425459 110.9505817  95.4721981  77.1753796 110.1894105  95.2421289
  76.1139540 110.6579469  96.2146135  79.8095154  96.0565883  91.0015623
  79.4659423  96.9467525  90.9254733  80.1774116  95.8667541  90.1385208
  67.8781004 108.3799414  83.8204225  68.7156226 108.7896422  83.6037933
  68.0559272 107.4398856  83.7904419  79.7745437 106.0474494  79.5088058
  79.2592060 106.8179099  79.7476445  79.5022745 105.3739630  80.1321119
  77.3592548 100.8924195  84.5673296  76.5034144 100.5031046  84.3878935
  77.7719499 100.9716156  83.7073082  78.8891694  98.4270538  88.9664856
  78.3856490  98.3900674  88.1532661  79.1822301  99.3363281  89.0261513
  75.1334580  98.5109268  87.9731038  75.9987577  98.3152077  87.6136927
  75.2012089  98.2819620  88.9000394  84.7479711 108.8006849  81.4441231
  83.9709153 108.4618008  80.9996393  85.4271192 108.8059472  80.7696196
  79.5631740 103.9201586  81.3347839  79.2581875 104.2347736  82.1857982
  80.5162182 103.9983006  81.3775172  78.0078172 110.0791810  82.9840793
  77.4799533 109.3444569  82.6714030  77.5065674 110.8566486  82.7380761
  82.9871018 108.2740830  88.1007839  82.3294692 108.9640092  88.1887968
  83.7911417 108.6637262  88.4441826  72.7396899 100.7411476  85.3447405
  73.3140651 100.5186658  84.6120597  73.3267882 100.8100171  86.0976006
  81.7976476 106.6285203  86.1511781  82.3108358 107.2615195  86.6533491
  82.4477700 106.0286398  85.7855141  73.0666486 102.7715937  79.3643290
  72.2303799 103.1090624  79.6852565  72.9271256 102.6364917  78.4270427
  75.0419567  97.6152725  84.0722474  74.3883979  97.3001742  83.4479089
  75.0000041  96.9928465  84.7982297  76.1530772 107.8972020  75.9875766
  75.2457834 107.6661273  76.1866915  76.6501804 107.1009639  76.1749748
  79.0598851 116.6069527  78.9072452  78.3860549 116.9101224  79.5157410
  79.4464673 117.4098608  78.5577909  78.2757307 104.1034658  88.3970122
  77.3579869 104.3249605  88.2391810  78.6917451 104.1780969  87.5381829
  79.0592355 105.5026074  83.5272802  79.8064174 106.0147471  83.2179924
  79.3283945 105.1810127  84.3877195  77.3319005 107.9984615  80.5099756
  76.4230224 107.7143648  80.6072226  77.3614089 108.4183693  79.6503063
  82.5638273 111.6091204  84.2790924  82.1100600 110.7682114  84.3356114
  81.9332239 112.2452603  84.6165704  81.5071192 102.5383190  85.5091591
  80.7693949 102.0260577  85.8401834  81.7597966 102.0983572  84.6974868
  81.0071212 113.4467701  85.2140742  81.2994186 114.0072758  84.4953107
  81.5169832 113.7396262  85.9693901  81.6082820  95.3159442  86.1033360
  81.9141696  94.4556806  85.8159275  82.3335424  95.9077063  85.9032354
  67.9007176 105.7190129  84.4914958  67.7031575 105.1259490  83.7666025
  67.3453840 105.4142339  85.2090897  75.8803899 105.6113235  86.6109551
  75.9352509 104.6587072  86.5352028  75.0695101 105.7672675  87.0950850
  77.0295093 109.5393359  77.8487835  76.5914523 108.8229217  77.3893472
  77.7705534 109.7669473  77.2872926  73.8196259 104.2290295  84.3699930
  73.0064125 104.5284466  84.7765122  74.3155253 103.8345984  85.0874413
  75.9704837 114.2248052  86.3034195  75.9281016 114.4508898  85.3742727
  76.8867536 113.9911427  86.4519996  79.4170471 104.6932120  93.2014824
  79.7719859 104.9203593  94.0609290  80.0642602 105.0250496  92.5792080
  85.1468208 107.8150556  83.9064153  85.0086106 108.0052152  82.9785342
  84.7904427 108.5769938  84.3632204  73.3110334 101.8008651  89.9861165
  73.9509713 101.6597410  89.2884129  72.4787864 101.5143164  89.6099767
  85.1737587 109.8827083  88.9175425  85.6074094 109.7902372  89.7658479
  85.8869168 109.8584583  88.2795441  74.0870638 111.1011081  86.0996158
  74.8811236 110.6061401  85.8978733  73.3762330 110.5728944  85.7363863
  78.9065482 113.4829177  90.4508525  78.9602505 114.0520113  91.2186241
  78.0380264 113.6531062  90.0862563  70.3953401 105.2454163  82.1755910
  69.4650989 105.1838618  82.3925873  70.4910873 104.7230116  81.3792552
  70.3138950 101.7708976  84.7634152  70.5745768 102.6854309  84.6543313
  71.1356123 101.3033418  84.9130765  71.7863876 103.1846733  91.9332977
  72.4586929 102.9764095  91.2845626  70.9593662 102.9868819  91.4938209
  86.0353137 109.9250783  91.4508310  86.2289027 110.8296594  91.6967585
  85.9353755 109.4658202  92.2846895  77.6889448  99.8108674  93.9498638
  77.0417363 100.5098623  93.8563114  78.4590463 100.2444818  94.3174886
  81.0968246 110.0757526  97.0249191  80.9453752 109.8468078  96.1079274
  81.0872925 111.0328127  97.0380536  77.8653582 107.6489439  92.0095457
  78.7945642 107.8000598  91.8364425  77.4444612 107.7373460  91.1544104
  76.6641914 111.6740103  89.7793995  76.5253000 111.3058888  90.6519933
  75.8756510 112.1887743  89.6077953  77.2590066 116.7749200  81.1219531
  77.4341822 116.3037243  81.9365154  76.5722854 117.4014966  81.3500792
  78.2147129 111.0521706  87.1682833  77.8796962 111.0122476  88.0640483
  77.7151075 110.3866422  86.6953243  72.1891373 106.4589336  92.6935414
  72.0511171 105.7269575  93.2946953  73.0996296 106.3698236  92.4119602
  81.1506321 108.3977740  77.4419892  80.5335491 107.6724568  77.3452945
  80.6822809 109.1587100  77.0986967  74.8173674 106.1709295  92.1819093
  75.5273292 105.5302487  92.1405712  74.7742982 106.4222190  93.1045274
  82.8060452 113.1076649  95.1025673  82.7472998 112.4235869  94.4356256
  83.2079971 113.8495639  94.6506299  73.5302608 103.1574513  94.0014733
  72.9939965 102.7065252  94.6536329  72.9419316 103.2920422  93.2585197
  71.8251151 119.9238562  87.8959392  72.0647749 120.5557087  88.5738410
  70.9820348 119.5726602  88.1824751  72.9404867 102.6163164  76.5641197
  72.0634333 102.4951965  76.2003443  73.4162620 101.8249243  76.3120085
  82.8077860 111.0716232  93.3339652  81.9204638 110.7342154  93.4566051
  83.3776411 110.3399264  93.5708418  64.4607007 107.4040324  86.6582704
  65.1478047 107.0902054  86.0703719  64.3055135 108.3081689  86.3849955
  69.2641729 102.2930521  91.0867727  69.1799918 101.6856190  90.3518137
  68.4424435 102.7839539  91.0877224  76.3379013 115.7317685  90.3000896
  76.2649184 116.5372656  90.8120200  75.8956406 115.9309651  89.4748917
  76.1268793 114.9689455  83.8103717  75.3436314 115.5111135  83.9041942
  76.8261538 115.4863434  84.2097958  79.4365443 100.7784084  86.4537922
  79.9334142 100.0254047  86.1338993  78.6652424 100.8148401  85.8881132
  87.2895200 106.4824450  88.0956214  87.2785076 107.3649165  87.7250147
  86.4212580 106.1296001  87.9010751  78.7977696 115.6304519  92.4559054
  79.5105669 116.2651984  92.3834956  78.3067725 115.7268385  91.6399056
  80.5195223 109.5355772  84.0276346  79.5851502 109.6557234  83.8581050
  80.6971892 108.6328238  83.7636356  76.0200411 102.9201467  86.1809607
  75.6498199 102.3672508  86.8690513  76.5159504 102.3159601  85.6284607
  83.9067775 105.3773091  84.5626380  84.3728227 106.2101082  84.4886683
  84.3575275 104.9118072  85.2671638  73.8489610 113.3798962  93.2764625
  74.5499070 114.0135445  93.4294019  73.3784725 113.7213694  92.5160264
  81.9744006 111.7216912  81.5612532  82.2503850 111.6073507  82.4706406
  81.1048505 111.3234397  81.5224705  81.8784437  97.7453678  88.6017281
  80.9647517  97.9757905  88.7699488  82.3077539  97.8292122  89.4531314
  81.6490896 105.9343570  91.1017175  80.9962346 106.1819477  90.4469628
  82.0271276 105.1207708  90.7679653  78.6098070 115.9703263  85.2045346
  78.7920464 115.1524919  85.6673098  79.4331056 116.1870955  84.7670236
  78.9440235 114.8971448  82.4660394  79.4728002 114.3863903  81.8530556
  79.2068455 114.5813978  83.3305927  77.6978469 106.6763381  97.5883212
  77.0219106 106.5757510  98.2585588  78.5206103 106.5202595  98.0519210
  69.4457328 112.9135317  90.2095728  70.0310765 112.1679005  90.3423632
  69.2482167 113.2239274  91.0932392  72.2995983 115.9486565  85.2258170
  71.6306359 116.4332692  84.7422210  72.1608853 116.1955785  86.1401549
  64.0374983 105.4840918  88.9300171  64.0759082 104.9504508  89.7237289
  63.5315276 104.9576123  88.3111148  76.4401252 117.9830308  91.8240828
  76.9919560 118.1461930  92.5889914  76.7807445 118.5734746  91.1520853
  71.4165745 100.3305458  92.4262713  71.4807072 101.1920289  92.0140111
  71.3532865  99.7179460  91.6935072  70.8918018 102.4028591  96.0735747
  71.5190056 102.0205668  96.6873272  70.0345937 102.1842793  96.4391440
  67.6683560 104.2105020  82.0054102  67.9637001 103.3015698  81.9521156
  66.7671596 104.1892759  81.6835105  79.5769639 115.9312284  88.8104511
  79.4520779 115.1302024  88.3015456  80.2348730 116.4258477  88.3218481
  71.1977807 102.2861016  87.9881651  70.4764393 102.8996984  87.8489124
  71.9871063 102.8218781  87.9098297  81.6404548 113.7321304  90.4384061
  80.6934883 113.6126655  90.3662387  81.9887321 112.8443802  90.5210322
  74.0004121  99.6215443  94.2622303  74.5238523  99.8677739  95.0248612
  73.7816454 100.4535478  93.8425440  69.3971402 101.8919117  82.1293427
  69.0684108 101.0116496  81.9468533  69.7510773 101.8366786  83.0169817
  78.6450981 113.5274020  86.6388413  78.4975943 112.5990728  86.8195983
  79.4704474 113.5494111  86.1545488  72.5113225 102.1792087  82.4968905
  72.8509298 102.7078008  81.7747513  72.9585346 102.5172493  83.2727472
  82.2485103 114.3502579  87.7253286  83.1731650 114.1445440  87.5877737
  82.0800406 114.1018980  88.6342627  75.2056666 100.5629138  91.9471973
  74.8653486  99.7636951  92.3492653  74.4995672 100.8630849  91.3748806
  75.8573138  97.6478450  90.3999296  76.6799207  97.1738929  90.2778186
  76.1011201  98.4268934  90.8997982  74.4981372 100.6766709  80.6962198
  75.2189735 101.0547962  80.1925915  73.8746676 101.3955586  80.7997176
  78.6412495 101.3811858  81.6320530  78.8576110 102.2636496  81.3309358
  78.1606562 100.9898071  80.9026172  73.3811717 104.3397571  88.2091275
  73.2356297 104.6537874  89.1015556  72.9036920 104.9582471  87.6562173
  75.2408099 101.3300119  88.2572164  75.2269668 100.4341212  87.9204462
  75.9580528 101.3370783  88.8910450  77.0934230 101.7637459  90.3025292
  76.8352008 102.6854530  90.3009622  76.5619271 101.3667894  90.9925756
  82.0380419 114.8688246  83.0815377  82.2117296 114.3034669  82.3289230
  82.5309310 115.6689141  82.8994867  67.8557379 106.8802915  91.1478936
  67.3110847 107.6562723  91.2799210  68.7336729 107.2273720  90.9898057
  74.6444995 100.2114499  83.5259734  74.7660907  99.2831145  83.7250622
  74.3547038 100.2253185  82.6138050  77.5136186  97.8969410  86.6626454
  77.5357883  97.9608743  85.7078434  77.9304245  97.0573918  86.8566960
  87.8919810 107.6324669  84.7005677  88.3350956 106.8831994  84.3024800
  87.0146320 107.6234806  84.3179409  83.0255591 114.1855011  80.1812275
  83.7206496 114.8061703  80.3999590  83.3678742 113.3350362  80.4564653
  68.6423401 106.0072812  94.0409093  67.9005137 106.1555447  94.6273723
  68.3216145 106.2681077  93.1775842  84.9247015 111.6354716  81.7099606
  85.4498339 111.9741989  80.9848926  84.8369367 110.7001732  81.5262741
  76.5867063 115.5488790  93.8389483  76.8954190 115.3037937  94.7112182
  77.3842545 115.7535428  93.3508353  76.6087675 117.7026700  86.0694859
  76.1692666 117.2103078  86.7627716  77.3595792 117.1599667  85.8286935
  69.0880014 113.8938240  86.0719487  69.9138034 113.5942012  85.6918131
  68.7374066 113.1245863  86.5209276  74.0561547 113.2464709  88.1417161
  73.4341557 112.5835414  87.8419389  74.7266414 113.2725840  87.4590809
  67.2888619 111.8124567  87.0308421  66.4520528 111.3846741  86.8492422
  67.2612265 112.0057010  87.9679212  74.1286075 101.7246497  97.7349667
  74.1774230 102.6008619  97.3527437  74.6708589 101.1823890  97.1621310
  84.7338796 109.1180086  94.3283533  84.7836801 108.9530094  95.2699055
  84.6252719 108.2507345  93.9381413  73.6175054 111.7968632  81.6175622
  73.7663175 112.4804096  80.9642294  74.4241498 111.7773722  82.1325077
  82.0242558 105.1011014  95.6442839  82.9252421 104.9617479  95.3526837
  82.0990533 105.2665469  96.5841017  76.3585363 102.4777869  94.4896026
  75.4888673 102.7711435  94.2178614  76.5944844 103.0618314  95.2103289
  86.2356992 111.5377028  94.5725554  85.9441801 111.9007008  95.4089015
  85.6229124 110.8244036  94.3938886  87.4352675 109.1029908  87.0928124
  88.2699566 109.5419712  87.2565685  87.5711804 108.6268561  86.2736370
  84.4844181 106.6609642  93.0405612  84.9598302 106.8537289  92.2324464
  83.5609746 106.7168828  92.7948996  71.3727687 107.8233810  82.6236690
  71.1273729 106.9196140  82.8216901  71.5423602 107.8250960  81.6816168
  79.0624397  98.6957486  92.0061446  79.5806341  99.4318513  91.6807935
  78.7079530  99.0021479  92.8408205  70.6423335 103.5562167  80.1222852
  69.9492580 103.6306522  79.4662888  70.3975087 102.7922511  80.6444369
  79.3136991  95.1157768  87.5262343  79.5938745  94.4480958  88.1522769
  80.0987598  95.3086864  87.0137007  77.1170460 114.2916762  79.0887369
  76.5444427 114.9106950  78.6357841  77.6903254 114.8416124  79.6227291
  83.1845850 103.5375402  91.2733918  84.1363273 103.6373500  91.2946142
  83.0149300 102.7453671  91.7832002  81.2060229 100.6230986  91.4593319
  80.6110161 100.9035998  90.7639807  80.9209926 101.1124887  92.2310060
  80.3367720 114.5753913  80.2195951  81.2698393 114.5099474  80.4228827
  80.2490932 115.4110179  79.7610484  82.9655736 113.8919783  77.1799899
  82.8869368 113.5579646  78.0735657  83.7865403 114.3841551  77.1791371
  85.6633927 106.7581522  90.3876217  85.6310248 105.8197523  90.5735901
  86.2734551 106.8365559  89.6542042  77.5017258 105.6277575  76.4303421
  78.4476363 105.4983783  76.4991840  77.1231503 104.8892237  76.9072850
  85.8128416 103.5492566  90.4334501  85.2967465 102.7651022  90.2464429
  86.6968364 103.2211282  90.5981020  83.4739143  97.2933581  86.3930313
  83.2763964  96.9848669  87.2773645  84.0838848  98.0195220  86.5228243
  91.4810477 107.8197529  89.5282254  92.2113866 107.5582817  90.0889958
  90.8717423 107.0826251  89.5684322  89.5625774 105.9605392  90.1256705
  88.8358938 105.8261357  89.5173197  89.1473061 106.2682220  90.9313423
  77.3855951 109.6795321  97.8904078  78.3058960 109.8573920  98.0844125
  77.3505534 108.7351367  97.7383778  75.6860176 103.5527552  76.3658307
  74.7791631 103.2560664  76.4421020  75.9636157 103.2557370  75.4992593
  66.6038116 104.8733915  86.8157353  66.2840900 104.0199223  86.5231727
  66.0571544 105.0882493  87.5715320  70.3818023 107.5896356  90.5326860
  70.6004033 108.5213464  90.5514893  70.7943797 107.2304330  91.3181663
  77.3022241  98.0964441  82.5202548  76.4922970  97.7511526  82.8957794
  77.9906658  97.7871985  83.1090160  79.2312790  97.1742488  84.1426845
  79.7843828  97.5937941  84.8016868  79.4682876  96.2478236  84.1849801
  75.2545889 103.1629562  99.9229609  75.1542616 104.1123919  99.8541700
  75.0367431 102.8347801  99.0505679  74.4558960 100.4114487  76.5070286
  75.3178124 100.7369385  76.7666103  74.6409304  99.6245983  75.9943352
  66.4726376 108.4936826  88.7850475  65.7789847 108.0790779  88.2720429
  67.2199367 108.5357363  88.1883894  82.6091597  99.2843013  83.6505509
  82.0290266  99.9427817  83.2683561  82.3427529  98.4620358  83.2392926
  81.0595163  98.6848071  85.8526829  81.5594941  98.7964605  85.0441148
  81.7030771  98.3809124  86.4927638  75.1177159 106.5926701  98.7394670
  74.6344241 107.3927061  98.9458559  75.2038098 106.6034645  97.7862114
  68.3863118 108.4255080  86.6616490  68.3633807 108.5242767  85.7098373
  68.6963755 109.2720231  86.9833656  71.0450496 110.4831235  90.7763104
  71.9993750 110.4515178  90.7093036  70.8463020 110.0221859  91.5913330
  71.6349878 109.0532351  93.3433902  72.4542767 109.5476430  93.3668739
  71.9086686 108.1364319  93.3151469  81.3916475 101.4443104  82.7061857
  80.5042330 101.7292754  82.4882052  81.8070464 101.2836867  81.8589134
  84.7431011 101.4689625  86.4216196  85.5191401 101.9586077  86.6940813
  84.0179145 101.8947679  86.8788066  87.1803569 102.1817244  87.4790137
  87.7748060 101.9412980  86.7683445  87.2530153 101.4624374  88.1063673
  69.4000725 116.0250855  87.7933302  69.2655193 115.2651256  87.2271300
  68.9832787 116.7491755  87.3262091  80.5359688 111.2087778  76.8009877
  81.2395538 111.4137781  77.4167533  79.8122337 111.7764540  77.0658961
  81.3657498 106.9597640  82.9212147  81.3092700 107.4166191  82.0819780
  81.9185841 106.1988324  82.7434990  85.1762304 102.7487371  83.7462267
  84.9199239 102.3484007  84.5770475  84.5515172 103.4631165  83.6212406
  89.4874642 105.4883445  86.2533558  88.9274200 105.5576634  87.0265120
  88.8818145 105.3124429  85.5333054  72.5569851 116.9220172  88.0051745
  72.4402235 117.8665604  87.9030435  71.7362297 116.6193733  88.3937544
  82.4446385 111.6470307  78.8508337  83.2791989 111.2151506  78.6685812
  82.2830728 111.4752321  79.7785232  82.0992278 108.1502421  80.2164677
  82.0441081 107.9846692  79.2753121  81.4738333 108.8578454  80.3726866
  66.8884793 103.3870485  94.0426099  67.5343656 102.8769439  94.5313324
  66.6801944 104.1239167  94.6169524  75.4088403  97.6510530  79.7949995
  75.3967073  98.5952370  79.9518266  76.3011825  97.4680675  79.5009456
  73.5824365 117.5748434  91.2207673  74.4851612 117.6072044  91.5374168
  73.3561735 116.6448885  91.2354009  75.3377967 116.3279420  87.8817752
  74.3873598 116.3281282  87.7682124  75.6410453 115.5812155  87.3653786
  79.2240523  94.2453306  84.0495932  78.4572918  93.6911793  84.1952614
  79.6351228  94.3175175  84.9110083  71.2282284 100.5338102  98.1401113
  72.0913745 100.1774907  98.3504438  70.6547694 100.1951997  98.8276517
  83.7407183 123.9702863  84.8721930  83.1772048 123.8792800  84.1038217
  83.6259578 123.1502768  85.3524422  81.2871614 125.4654055  87.7106150
  82.0792906 125.1244879  87.2952449  81.5268265 125.5749030  88.6308303
  83.2462368 124.7262968  80.5823529  84.0193244 124.1791955  80.4436405
  83.5987767 125.5907217  80.7937990  85.5828646 120.8855634  78.2141979
  85.8354167 120.3637155  77.4525442  84.6453205 120.7221779  78.3168662
  90.6271929 119.8891412  86.0216722  91.4135018 119.4710836  85.6707139
  90.8910633 120.7937505  86.1898370  85.3024935 122.7883740  80.4166354
  85.1861193 122.1128643  81.0847438  85.4127195 122.3016114  79.5998507
  87.6456476 122.2493887  84.1213043  87.2814683 121.7224508  84.8325964
  88.5023592 121.8592356  83.9479528  87.2861963 117.2783787  79.1174391
  87.4536365 118.1464023  79.4844863  87.0959132 117.4411069  78.1935681
  83.4949778 122.1914563  86.8176926  82.5700274 122.0590777  87.0254618
  83.7434191 122.9708782  87.3146869  87.2651184 119.7341444  80.1021058
  87.1450809 120.1798495  80.9406539  86.5703772 120.0826762  79.5434596
  80.8558589 121.8347836  87.6520715  80.9850970 122.0882315  88.5660127
  80.1756040 122.4275544  87.3325370  92.9636250 120.2062917  80.9301392
  93.8754106 120.4390304  80.7549090  92.4545897 120.7899962  80.3676471
  90.3072225 116.3820953  89.1791253  89.4456704 116.6802207  89.4707991
  90.3334659 116.5991352  88.2472286  87.1233794 124.9263144  85.5865059
  87.5872140 125.2050847  84.7969681  86.8590592 124.0246589  85.4038150
  86.0602680 121.0486296  82.3954624  86.7626724 121.5007340  82.8628550
  85.7283309 120.4070115  83.0234517  79.8028014 119.3069849  87.6971758
  79.0127068 119.5627378  87.2211868  80.2939262 120.1218187  87.8023798
  81.7542760 119.6714428  84.6555234  80.9573923 119.7833123  85.1738730
  81.5268352 120.0101081  83.7896125  78.0865717 119.5600340  90.1286748
  78.3373756 120.4447349  90.3944324  78.6225266 119.3804941  89.3561840
  80.7525842 125.3802677  83.0444654  81.2650363 126.1745927  83.1950219
  81.4048555 124.6828968  82.9778256  82.5620727 128.4968433  85.1267408
  82.7387355 129.4186398  84.9388391  83.3577560 128.1826853  85.5561787
  90.6488908 111.3857801  91.0015623  90.3053178 112.2759443  90.9254733
  91.0167871 111.1959459  90.1385208  78.7174759 123.7091331  83.8204225
  79.5549981 124.1188340  83.6037933  78.8953027 122.7690774  83.7904419
  90.6139191 121.3766412  79.5088058  90.0985815 122.1471017  79.7476445
  90.3416500 120.7031548  80.1321119  88.1986302 116.2216113  84.5673296
  87.3427898 115.8322963  84.3878935  88.6113254 116.3008074  83.7073082
  89.7285449 113.7562456  88.9664856  89.2250244 113.7192591  88.1532661
  90.0216056 114.6655199  89.0261513  85.9728335 113.8401186  87.9731038
  86.8381331 113.6443994  87.6136927  86.0405844 113.6111538  88.9000394
  90.4025494 119.2493504  81.3347839  90.0975630 119.5639653  82.1857982
  91.3555936 119.3274924  81.3775172  88.8471926 125.4083727  82.9840793
  88.3193288 124.6736487  82.6714030  88.3459429 126.1858404  82.7380761
  83.5790654 116.0703394  85.3447405  84.1534406 115.8478575  84.6120597
  84.1661636 116.1392088  86.0976006  83.9060241 118.1007855  79.3643290
  83.0697553 118.4382541  79.6852565  83.7665010 117.9656835  78.4270427
  85.8813321 112.9444643  84.0722474  85.2277734 112.6293660  83.4479089
  85.8393796 112.3220383  84.7982297  86.9924526 123.2263938  75.9875766
  86.0851588 122.9953191  76.1866915  87.4895558 122.4301557  76.1749748
  89.1151062 119.4326576  88.3970122  88.1973623 119.6541523  88.2391810
  89.5311205 119.5072887  87.5381829  89.8986110 120.8317992  83.5272802
  90.6457928 121.3439389  83.2179924  90.1677699 120.5102045  84.3877195
  88.1712760 123.3276533  80.5099756  87.2623979 123.0435565  80.6072226
  88.2007844 123.7475611  79.6503063  92.3464947 117.8675108  85.5091591
  91.6087703 117.3552494  85.8401834  92.5991720 117.4275490  84.6974868
  92.4476574 110.6451360  86.1033360  92.7535451 109.7848724  85.8159275
  93.1729179 111.2368980  85.9032354  78.7400930 121.0482047  84.4914958
  78.5425330 120.4551407  83.7666025  78.1847594 120.7434257  85.2090897
  86.7197654 120.9405153  86.6109551  86.7746264 119.9878990  86.5352028
  85.9088856 121.0964592  87.0950850  87.8688848 124.8685276  77.8487835
  87.4308277 124.1521135  77.3893472  88.6099288 125.0961391  77.2872926
  84.6590014 119.5582213  84.3699930  83.8457879 119.8576383  84.7765122
  85.1549008 119.1637902  85.0874413  84.1504088 117.1300568  89.9861165
  84.7903468 116.9889328  89.2884129  83.3181619 116.8435082  89.6099767
  84.9264392 126.4302999  86.0996158  85.7204991 125.9353319  85.8978733
  84.2156085 125.9020862  85.7363863  81.2347156 120.5746081  82.1755910
  80.3044744 120.5130536  82.3925873  81.3304628 120.0522033  81.3792552
  81.1532705 117.1000893  84.7634152  81.4139522 118.0146227  84.6543313
  81.9749877 116.6325336  84.9130765  82.6257630 118.5138651  91.9332977
  83.2980684 118.3056013  91.2845626  81.7987417 118.3160737  91.4938209
  91.9900075 123.7269658  77.4419892  91.3729246 123.0016486  77.3452945
  91.5216564 124.4879018  77.0986967  83.7798621 117.9455082  76.5641197
  82.9028087 117.8243883  76.2003443  84.2556374 117.1541160  76.3120085
  75.3000761 122.7332242  86.6582704  75.9871801 122.4193972  86.0703719
  75.1448890 123.6373607  86.3849955  80.1035483 117.6222438  91.0867727
  80.0193672 117.0148108  90.3518137  79.2818190 118.1131457  91.0877224
  90.2759197 116.1076002  86.4537922  90.7727897 115.3545964  86.1338993
  89.5046179 116.1440319  85.8881132  91.3588978 124.8647689  84.0276346
  90.4245257 124.9849152  83.8581050  91.5365646 123.9620156  83.7636356
  86.8594166 118.2493385  86.1809607  86.4891953 117.6964425  86.8690513
  87.3553258 117.6451518  85.6284607  94.7461529 120.7065008  84.5626380
  95.2121981 121.5393000  84.4886683  95.1969030 120.2409990  85.2671638
  92.7178192 113.0745595  88.6017281  91.8041272 113.3049822  88.7699488
  93.1471293 113.1584040  89.4531314  74.8768737 120.8132835  88.9300171
  74.9152837 120.2796426  89.7237289  74.3709030 120.2868041  88.3111148
  82.2559500 115.6597376  92.4262713  82.3200826 116.5212207  92.0140111
  82.1926620 115.0471377  91.6935072  78.5077315 119.5396937  82.0054102
  78.8030756 118.6307616  81.9521156  77.6065351 119.5184677  81.6835105
  82.0371562 117.6152934  87.9881651  81.3158148 118.2288902  87.8489124
  82.8264818 118.1510699  87.9098297  80.2365156 117.2211035  82.1293427
  79.9077863 116.3408414  81.9468533  80.5904527 117.1658704  83.0169817
  83.3506980 117.5084005  82.4968905  83.6903052 118.0369926  81.7747513
  83.7979100 117.8464411  83.2727472  86.0450420 115.8921056  91.9471973
  85.7047241 115.0928869  92.3492653  85.3389427 116.1922766  91.3748806
  86.6966892 112.9770368  90.3999296  87.5192962 112.5030846  90.2778186
  86.9404956 113.7560852  90.8997982  85.3375127 116.0058626  80.6962198
  86.0583489 116.3839879  80.1925915  84.7140431 116.7247503  80.7997176
  89.4806250 116.7103775  81.6320530  89.6969864 117.5928413  81.3309358
  89.0000317 116.3189989  80.9026172  84.2205471 119.6689489  88.2091275
  84.0750052 119.9829792  89.1015556  83.7430675 120.2874389  87.6562173
  86.0801854 116.6592037  88.2572164  86.0663423 115.7633130  87.9204462
  86.7974282 116.6662700  88.8910450  87.9327985 117.0929377  90.3025292
  87.6745762 118.0146447  90.3009622  87.4013025 116.6959811  90.9925756
  78.6951133 122.2094833  91.1478936  78.1504601 122.9854641  91.2799210
  79.5730483 122.5565638  90.9898057  85.4838750 115.5406417  83.5259734
  85.6054661 114.6123063  83.7250622  85.1940792 115.5545103  82.6138050
  88.3529940 113.2261327  86.6626454  88.3751637 113.2900660  85.7078434
  88.7697999 112.3865836  86.8566960  79.9273769 129.2230158  86.0719487
  80.7531789 128.9233930  85.6918131  79.5767821 128.4537780  86.5209276
  78.1282374 127.1416484  87.0308421  77.2914282 126.7138659  86.8492422
  78.1006019 127.3348928  87.9679212  84.4568809 127.1260550  81.6175622
  84.6056929 127.8096014  80.9642294  85.2635252 127.1065640  82.1325077
  82.2121442 123.1525727  82.6236690  81.9667484 122.2488057  82.8216901
  82.3817356 123.1542878  81.6816168  81.4817089 118.8854085  80.1222852
  80.7886334 118.9598440  79.4662888  81.2368841 118.1214428  80.6444369
  90.1530746 110.4449686  87.5262343  90.4332500 109.7772875  88.1522769
  90.9381353 110.6378782  87.0137007  88.3411013 120.9569493  76.4303421
  89.2870118 120.8275701  76.4991840  87.9625258 120.2184155  76.9072850
  94.3132897 112.6225499  86.3930313  94.1157719 112.3140587  87.2773645
  94.9232603 113.3487138  86.5228243  86.5253930 118.8819469  76.3658307
  85.6185385 118.5852582  76.4421020  86.8029911 118.5849287  75.4992593
  77.4431870 120.2025833  86.8157353  77.1234655 119.3491141  86.5231727
  76.8965299 120.4174411  87.5715320  88.1415996 113.4256359  82.5202548
  87.3316724 113.0803444  82.8957794  88.8300413 113.1163903  83.1090160
  90.0706544 112.5034406  84.1426845  90.6237583 112.9229859  84.8016868
  90.3076630 111.5770154  84.1849801  85.2952715 115.7406404  76.5070286
  86.1571879 116.0661303  76.7666103  85.4803059 114.9537900  75.9943352
  77.3120130 123.8228744  88.7850475  76.6183602 123.4082697  88.2720429
  78.0593121 123.8649281  88.1883894  93.4485351 114.6134931  83.6505509
  92.8684020 115.2719735  83.2683561  93.1821284 113.7912275  83.2392926
  91.8988917 114.0139989  85.8526829  92.3988696 114.1256523  85.0441148
  92.5424525 113.7101041  86.4927638  79.2256873 123.7546998  86.6616490
  79.2027561 123.8534685  85.7098373  79.5357509 124.6012149  86.9833656
  92.2310229 116.7735021  82.7061857  91.3436084 117.0584672  82.4882052
  92.6464218 116.6128785  81.8589134  95.5824765 116.7981542  86.4216196
  96.3585155 117.2877995  86.6940813  94.8572899 117.2239596  86.8788066
  92.2051253 122.2889557  82.9212147  92.1486454 122.7458109  82.0819780
  92.7579595 121.5280242  82.7434990  96.0156059 118.0779289  83.7462267
  95.7592993 117.6775925  84.5770475  95.3908927 118.7923083  83.6212406
  92.9386032 123.4794338  80.2164677  92.8834836 123.3138610  79.2753121
  92.3132087 124.1870371  80.3726866  77.7278547 118.7162403  94.0426099
  78.3737411 118.2061357  94.5313324  77.5195698 119.4531084  94.6169524
  86.2482158 112.9802447  79.7949995  86.2360827 113.9244287  79.9518266
  87.1405579 112.7972593  79.5009456  90.0634277 109.5745224  84.0495932
  89.2966673 109.0203711  84.1952614  90.4744982 109.6467093  84.9110083
  26.0368135   7.1950575  75.6708821  26.6746545   7.0757322  74.9672161
  25.9188978   8.1431419  75.7296773  22.8457841   7.1478003  75.6070345
  22.5076353   7.0319068  74.7190880  23.7147609   6.7469168  75.5871351
  18.7044657   9.0013480  71.5967236  18.1409522   8.9103417  70.8283524
  18.5897052   8.1813384  72.0769729  23.3277624   8.3012855  81.5656551
  23.3166265   7.9065653  80.6937054  23.4898264   7.5678928  82.1590322
  16.2509089  10.4964671  74.4351457  17.0430381  10.1555496  74.0197756
  16.4905739  10.6059646  75.3553610  24.2844216  12.6684447  66.9081701
  23.6332195  13.2538528  66.5215715  25.0788578  13.1990642  66.9676739
  18.2099843   9.7573584  67.3068835  18.9830719   9.2102572  67.1681711
  18.5625242  10.6217834  67.5183297  20.0484885  11.0849967  80.5135735
  19.7574751  11.9895598  80.3982401  20.6841870  11.1266494  81.2279804
  20.9741092   8.4626815  77.1037094  21.5704664   8.2382838  76.3894057
  21.0316064   7.7211561  77.7062542  20.5466121   5.9166251  64.9387285
  20.7991641   5.3947772  64.1770748  19.6090680   5.7532396  65.0413969
  25.5909403   4.9202029  72.7462029  26.3772493   4.5021452  72.3952446
  25.8548108   5.8248121  72.9143677  25.7619481  10.3574879  67.4450685
  25.1265314  10.4309506  68.1571590  25.4316887  10.9468478  66.7669765
  30.9917831   4.8577262  73.6495007  31.7243002   4.2876479  73.8832837
  30.2357186   4.4698863  74.0901513  20.2662409   7.8194357  67.1411660
  20.1498667   7.1439260  67.8092745  20.3764669   7.3326730  66.3243813
  22.6093950   7.2804504  70.8458350  22.2452157   6.7535125  71.5571271
  23.4661066   6.8902973  70.6724835  25.0074770  10.7711382  77.5085528
  24.7075493  11.6736421  77.4001336  24.6625830  10.5043565  78.3606681
  18.4587252   7.2225179  73.5422233  17.5337748   7.0901393  73.7499925
  18.7071665   8.0019398  74.0392175  28.4071914   3.2893922  75.1882966
  27.4988792   3.2209331  74.8941727  28.3559510   3.7665867  76.0164791
  22.2288658   4.7652061  66.8266365  22.1088283   5.2109112  67.6651845
  21.5341246   5.1137379  66.2679903  19.9895550  17.5355703  70.4756496
  19.9119580  18.4863528  70.5544977  19.3857194  17.1901575  71.1331422
  22.4812780   4.7083568  83.1317863  21.7046114   5.2677488  83.1220728
  23.1203343   5.1940351  83.6532733  30.2733561   1.4910361  76.9660840
  29.6307941   1.7842894  76.3200634  29.7688489   1.3763281  77.7714036
  27.9273724   5.2373534  67.6546699  28.8391580   5.4700921  67.4794397
  27.4183371   5.8210578  67.0921778  20.7359152   7.5169021  82.6935830
  21.4773837   8.0554065  82.4170654  20.0296138   8.1435310  82.8507382
  26.2114492   9.6598162  81.2907992  26.6197848   9.2180572  80.5462624
  25.4891753   9.0850789  81.5442184  22.5645562   4.5970769  78.6641549
  23.4106757   5.0210182  78.8076198  22.5044200   3.9404393  79.3580112
  26.5343307  10.2199352  75.0460280  25.9052169  10.3845067  74.3436348
  26.1468969  10.6340962  75.8171244  30.4132538  11.1553790  72.4004644
  29.7283577  11.5352692  71.8501678  30.4976388  11.7649117  73.1336592
  25.7145007   2.2575137  80.3222722  25.4705939   3.0117198  79.7856998
  25.9904938   2.6360485  81.1569969  27.6683470   8.8013749  78.9999988
  27.8800365   9.4445509  78.3234369  27.6213218   7.9676066  78.5321918
  25.2709699   1.4131570  75.9036560  24.4094178   1.7112824  76.1953297
  25.2972134   1.6301969  74.9717593  22.0871268   9.9573761  72.3110366
  22.5509614  10.2361464  71.5214988  21.8228067   9.0557205  72.1283456
  18.9795350   9.5045242  75.2490129  19.5496707   9.9332510  74.6107613
  19.5703461   9.2227827  75.9474314  21.0240154   6.0796913  69.1199931
  21.7264198   6.5317957  69.5873857  20.6920783   5.4380732  69.7479824
  28.7829298  11.6785705  77.1722345  29.6046742  11.2765892  76.8905027
  28.7791701  11.5753939  78.1238461  22.5485901  11.2269748  79.3283056
  22.6130334  11.6890155  80.1641227  21.8396825  10.5967113  79.4565365
  36.8735291   8.0224453  73.5207317  36.1198999   7.4531851  73.3651321
  37.0082832   7.9887118  74.4677951  22.2633919  12.8937856  69.1962036
  22.1279594  13.7389391  69.6246884  22.8043732  13.0957133  68.4327970
  15.7163317  10.4113294  69.7689961  16.2287837  11.2056544  69.9195526
  16.3686029   9.7139584  69.7023562  17.5258201  13.5279050  71.8512714
  17.7024830  14.4497015  71.6633698  18.3215035  13.2137469  72.2807094
  23.8902395  13.5161422  83.3262378  23.4466250  12.7297801  83.0083282
  24.5519609  13.7040573  82.6606269  18.6489517  15.0457224  77.8523056
  19.1996942  14.9174287  77.0800050  17.8100993  15.3452113  77.5017949
  25.9883634  13.7964222  81.3543779  25.9702109  14.6173103  80.8624048
  26.9103554  13.6718297  81.5793920  22.4456688  11.3108351  82.1967288
  22.9785025  10.5496640  81.9666596  21.9170769  11.0182003  82.9391442
  25.5776665   6.4077029  66.2333364  25.0623289   7.1781633  66.4721752
  25.3053974   5.7342165  66.8566426  30.5510940   9.1609383  68.1686538
  29.7740382   8.8220543  67.7241700  31.2302421   9.1662006  67.4941503
  25.3662969   4.2804121  68.0593146  25.0613104   4.5950270  68.9103289
  26.3193411   4.3585541  68.1020479  23.8109400  10.4394344  69.7086100
  23.2830762   9.7047104  69.3959337  23.3096903  11.2169020  69.4626068
  28.7902246   8.6343364  74.8253146  28.1325921   9.3242626  74.9133275
  29.5942646   9.0239796  75.1687132  27.6007705   6.9887737  72.8757088
  28.1139587   7.6217729  73.3778797  28.2508929   6.3888933  72.5100448
  21.9562001   8.2574554  62.7121073  21.0489062   8.0263808  62.9112222
  22.4533033   7.4612173  62.8995054  24.8630079  16.9672061  65.6317759
  24.1891778  17.2703758  66.2402717  25.2495901  17.7701142  65.2823216
  24.0788536   4.4637193  75.1215428  23.1611097   4.6852140  74.9637116
  24.4948680   4.5383503  74.2627136  24.8623584   5.8628608  70.2518108
  25.6095403   6.3750006  69.9425231  25.1315173   5.5412661  71.1122502
  23.1350234   8.3587149  67.2345063  22.2261453   8.0746182  67.3317533
  23.1645318   8.7786228  66.3748370  28.3669501  11.9693739  71.0036230
  27.9131829  11.1284648  71.0601421  27.7363468  12.6055137  71.3411010
  27.3102421   2.8985725  72.2336898  26.5725178   2.3863111  72.5647140
  27.5629195   2.4586106  71.4220175  26.8102441  13.8070235  71.9386048
  27.1025415  14.3675292  71.2198414  27.3201061  14.0998796  72.6939208
  21.6835128   5.9715770  73.3354858  21.7383738   5.0189606  73.2597335
  20.8726330   6.1275209  73.8196157  22.8326322   9.8995893  64.5733141
  22.3945752   9.1831752  64.1138779  23.5736763  10.1272008  64.0118233
  21.7736066  14.5850586  73.0279502  21.7312245  14.8111433  72.0988034
  22.6898765  14.3513961  73.1765303  25.2201700   5.0534654  79.9260131
  25.5751087   5.2806127  80.7854597  25.8673831   5.3853031  79.3037386
  30.9499437   8.1753090  70.6309460  30.8117335   8.3654686  69.7030649
  30.5935655   8.9372473  71.0877511  30.9768816  10.2429617  75.6420731
  31.4105323  10.1504906  76.4903785  31.6900397  10.2187117  75.0040747
  19.8901867  11.4613615  72.8241464  20.6842465  10.9663936  72.6224039
  19.1793559  10.9331479  72.4609170  24.7096711  13.8431711  77.1753832
  24.7633733  14.4122647  77.9431548  23.8411493  14.0133596  76.8107869
  31.8384366  10.2853317  78.1753617  32.0320256  11.1899128  78.4212892
  31.7384984   9.8260737  79.0092202  26.8999474  10.4360060  83.7494497
  26.7484981  10.2070612  82.8324581  26.8904154  11.3930662  83.7625842
  23.6684811   8.0091973  78.7340764  24.5976871   8.1603133  78.5609731
  23.2475841   8.0975994  77.8789410  22.4673143  12.0342637  76.5039301
  22.3284228  11.6661422  77.3765240  21.6787739  12.5490277  76.3323259
  23.0621295  17.1351734  67.8464838  23.2373050  16.6639777  68.6610461
  22.3754083  17.7617500  68.0746099  24.0178358  11.4124240  73.8928139
  23.6828190  11.3725010  74.7885789  23.5182303  10.7468956  73.4198550
  17.9922602   6.8191870  79.4180720  17.8542400   6.0872109  80.0192259
  18.9027525   6.7300770  79.1364908  26.9537549   8.7580274  64.1665199
  26.3366720   8.0327103  64.0698252  26.4854038   9.5189635  63.8232273
  20.6204902   6.5311829  78.9064400  21.3304521   5.8905022  78.8651019
  20.5774211   6.7824724  79.8290581  28.6091681  13.4679183  81.8270979
  28.5504227  12.7838403  81.1601562  29.0111199  14.2098173  81.3751605
  17.6282380  20.2841097  74.6204698  17.8678978  20.9159621  75.2983717
  16.7851576  19.9329137  74.9070057  28.6109088  11.4318767  80.0584959
  27.7235867  11.0944688  80.1811358  29.1807639  10.7001798  80.2953724
  22.1410242  16.0920219  77.0246202  22.0680413  16.8975191  77.5365507
  21.6987635  16.2912185  76.1994224  21.9300021  15.3291989  70.5349024
  21.1467543  15.8713669  70.6287248  22.6292767  15.8465969  70.9343265
  25.2396672   1.1386619  73.1783229  25.7365371   0.3856581  72.8584299
  24.4683653   1.1750935  72.6126438  33.0926429   6.8426984  74.8201521
  33.0816305   7.7251699  74.4495454  32.2243808   6.4898535  74.6256058
  24.6008925  15.9907053  79.1804361  25.3136898  16.6254518  79.1080262
  24.1098954  16.0870919  78.3644363  26.3226452   9.8958306  70.7521652
  25.3882731  10.0159768  70.5826357  26.5003121   8.9930773  70.4881662
  29.7099004   5.7375625  71.2871687  30.1759456   6.5703617  71.2131989
  30.1606504   5.2720607  71.9916945  19.6520839  13.7401497  80.0009932
  20.3530298  14.3737980  80.1539326  19.1815954  14.0816228  79.2405571
  27.7775235  12.0819446  68.2857839  28.0535079  11.9676041  69.1951713
  26.9079733  11.6836931  68.2470012  27.4522125   6.2946104  77.8262482
  26.7993575   6.5422011  77.1714935  27.8302505   5.4810242  77.4924959
  24.4129299  16.3305797  71.9290652  24.5951693  15.5127453  72.3918405
  25.2362285  16.5473489  71.4915542  24.7471464  15.2573982  69.1905701
  25.2759231  14.7466437  68.5775863  25.0099684  14.9416513  70.0551234
  23.5009698   7.0365915  84.3128519  22.8250335   6.9360044  84.9830894
  24.3237332   6.8805129  84.7764516  15.2488557  13.2737852  76.9341034
  15.8341994  12.5281539  77.0668939  15.0513395  13.5841808  77.8177698
  18.1027212  16.3089099  71.9503477  17.4337587  16.7935227  71.4667517
  17.9640082  16.5558319  72.8646855  22.2432481  18.3432842  78.5486135
  22.7950789  18.5064464  79.3135220  22.5838674  18.9337280  77.8766160
  27.0943355  13.1694100  84.4034790  27.6383259  13.7824058  83.9089744
  26.5130200  13.7273678  84.9201803  25.3800868  16.2914818  75.5349817
  25.2552007  15.4904558  75.0260763  26.0379959  16.7861011  75.0463787
  27.4435776  14.0923838  77.1629367  26.4966112  13.9729189  77.0907694
  27.7918549  13.2046336  77.2455629  24.4482210  13.8876554  73.3633720
  24.3007172  12.9593262  73.5441290  25.2735703  13.9096645  72.8790795
  28.0516331  14.7105113  74.4498592  28.9762879  14.5047974  74.3123043
  27.8831635  14.4621514  75.3587934  27.8411648  15.2290780  69.8060684
  28.0148525  14.6637203  69.0534536  28.3340539  16.0291675  69.6240174
  33.6951039   7.9927203  71.4250984  34.1382185   7.2434529  71.0270107
  32.8177549   7.9837340  71.0424715  28.8286820  14.5457545  66.9057582
  29.5237725  15.1664238  67.1244897  29.1709970  13.6952896  67.1809960
  30.7278243  11.9957250  68.4344913  31.2529567  12.3344523  67.7094233
  30.6400596  11.0604266  68.2508047  22.3898292  15.9091324  80.5634789
  22.6985418  15.6640471  81.4357489  23.1873774  16.1137963  80.0753660
  22.4118904  18.0629234  72.7940166  21.9723894  17.5705612  73.4873023
  23.1627021  17.5202201  72.5532241  14.8911243  14.2540775  72.7964794
  15.7169263  13.9544546  72.4163438  14.5405295  13.4848397  73.2454583
  19.8592776  13.6067243  74.8662468  19.2372786  12.9437948  74.5664696
  20.5297643  13.6328375  74.1836115  13.0919848  12.1727101  73.7553728
  12.2551756  11.7449275  73.5737729  13.0643494  12.3659544  74.6924519
  30.4172149  12.6290154  83.7396111  29.6267693  12.6114293  83.2000610
  30.1805504  13.1678448  84.4945147  30.5370024   9.4782620  81.0528839
  30.5868029   9.3132628  81.9944362  30.4283948   8.6109879  80.6626720
  19.4206283  12.1571166  68.3420928  19.5694403  12.8406631  67.6887601
  20.2272727  12.1376256  68.8570384  27.8273787   5.4613548  82.3688146
  28.7283650   5.3220013  82.0772144  27.9021761   5.6268003  83.3086323
  32.0388221  11.8979562  81.2970861  31.7473030  12.2609543  82.1334322
  31.4260353  11.1846570  81.1184193  33.2383904   9.4632442  73.8173431
  34.0730795   9.9022246  73.9810991  33.3743032   8.9871095  72.9981677
  30.2875410   7.0212177  79.7650919  30.7629531   7.2139823  78.9569770
  29.3640975   7.0771362  79.5194302  17.1758916   8.1836344  69.3481997
  16.9304958   7.2798674  69.5462207  17.3454831   8.1853494  68.4061475
  22.9201689  14.6519297  65.8132676  22.3475656  15.2709484  65.3603147
  23.4934482  15.2018658  66.3472598  28.9877079   3.8977937  77.9979224
  29.9394501   3.9976034  78.0191448  28.8180529   3.1056205  78.5077309
  27.0091458   0.9833520  78.1838625  26.4141390   1.2638533  77.4885114
  26.7241155   1.4727421  78.9555366  26.1398948  14.9356447  66.9441258
  27.0729622  14.8702008  67.1474133  26.0522161  15.7712714  66.4855791
  28.7686965  14.2522317  63.9045205  28.6900597  13.9182181  64.7980963
  29.5896632  14.7444085  63.9036678  31.4665156   7.1184056  77.1121524
  31.4341476   6.1800057  77.2981208  32.0765780   7.1968093  76.3787349
  23.3048487   5.9880109  63.1548728  24.2507592   5.8586317  63.2237146
  22.9262732   5.2494771  63.6318156  31.6159645   3.9095100  77.1579807
  31.0998693   3.1253556  76.9709736  32.4999593   3.5813816  77.3226327
  37.2841706   8.1800063  76.2527561  38.0145095   7.9185351  76.8135264
  36.6748652   7.4428785  76.2929629  35.3657003   6.3207926  76.8502012
  34.6390167   6.1863891  76.2418504  34.9504290   6.6284754  77.6558730
  23.1887180  10.0397855  84.6149385  24.1090189  10.2176454  84.8089432
  23.1536763   9.0953901  84.4629084  16.1849252   7.9498890  77.2572166
  16.4035262   8.8815998  77.2760200  16.5975026   7.5906865  78.0426970
  28.4122825  -0.3554453  70.3750816  27.8321494   0.3030351  69.9928868
  28.1458758  -1.1777108  69.9638233  20.9208388   6.9529235  85.4639977
  20.4375469   7.7529595  85.6703866  21.0069327   6.9637180  84.5107421
  14.1894347   8.7857614  73.3861796  14.1665035   8.8845302  72.4343679
  14.4994984   9.6322765  73.7078962  16.8481725  10.8433769  77.5008411
  17.8024979  10.8117712  77.4338342  16.6494249  10.3824393  78.3158637
  17.4381107   9.4134885  80.0679208  18.2573996   9.9078964  80.0914046
  17.7117915   8.4966854  80.0396776  27.1947703   1.8045638  69.4307164
  26.3073558   2.0895288  69.2127359  27.6101693   1.6439401  68.5834441
  30.5462240   1.8292159  73.1461503  31.3222630   2.3188611  73.4186120
  29.8210374   2.2550213  73.6033373  32.9834798   2.5419778  74.2035444
  33.5779289   2.3015514  73.4928752  33.0561382   1.8226909  74.8308980
  15.2031954  16.3853389  74.5178609  15.0686422  15.6253790  73.9516607
  14.7864016  17.1094289  74.0507397  26.3390917  11.5690312  63.5255184
  27.0426767  11.7740315  64.1412839  25.6153566  12.1367074  63.7904267
  27.1688727   7.3200174  69.6457454  27.1123929   7.7768725  68.8065086
  27.7217070   6.5590858  69.4680297  30.9793533   3.1089906  70.4707573
  30.7230467   2.7086541  71.3015781  30.3546401   3.8233700  70.3457713
  35.2905871   5.8485979  72.9778865  34.7305429   5.9179168  73.7510427
  34.6849374   5.6726963  72.2578361  18.3601080  17.2822706  74.7297051
  18.2433464  18.2268138  74.6275741  17.5393526  16.9796268  75.1182850
  28.2477614  12.0072842  65.5753644  29.0823218  11.5754040  65.3931119
  28.0861957  11.8354855  66.5030538  27.9023506   8.5104955  66.9409983
  27.8472310   8.3449226  65.9998427  27.2769562   9.2180988  67.0972173
  25.2169414  10.8153867  86.2663546  26.0860573  10.9894519  85.9050181
  24.7376165  11.6348284  86.1439275  19.3855594  17.9350968  77.9452980
  20.2882841  17.9674578  78.2619475  19.1592964  17.0051419  77.9599315
  21.1409196  16.6881954  74.6063058  20.1904827  16.6883816  74.4927430
  21.4441682  15.9414689  74.0899093  36.8761889  22.5242493  75.6708821
  37.5140299  22.4049240  74.9672161  36.7582732  23.4723337  75.7296773
  33.6851596  22.4769921  75.6070345  33.3470107  22.3610986  74.7190880
  34.5541364  22.0761086  75.5871351  29.5438411  24.3305397  71.5967236
  28.9803277  24.2395334  70.8283524  29.4290806  23.5105302  72.0769729
  34.1671379  23.6304773  81.5656551  34.1560019  23.2357571  80.6937054
  34.3292018  22.8970845  82.1590322  27.0902843  25.8256589  74.4351457
  27.8824135  25.4847414  74.0197756  27.3299493  25.9351564  75.3553610
  35.1237970  27.9976365  66.9081701  34.4725950  28.5830445  66.5215715
  35.9182333  28.5282560  66.9676739  29.0493597  25.0865502  67.3068835
  29.8224473  24.5394489  67.1681711  29.4018996  25.9509751  67.5183297
  30.8878640  26.4141884  80.5135735  30.5968506  27.3187515  80.3982401
  31.5235624  26.4558412  81.2279804  31.8134847  23.7918733  77.1037094
  32.4098419  23.5674755  76.3894057  31.8709818  23.0503478  77.7062542
  31.3859875  21.2458168  64.9387285  31.6385396  20.7239690  64.1770748
  30.4484434  21.0824314  65.0413969  36.4303158  20.2493947  72.7462029
  37.2166247  19.8313370  72.3952446  36.6941862  21.1540039  72.9143677
  36.6013235  25.6866797  67.4450685  35.9659068  25.7601423  68.1571590
  36.2710642  26.2760396  66.7669765  41.8311585  20.1869180  73.6495007
  42.5636757  19.6168397  73.8832837  41.0750941  19.7990780  74.0901513
  31.1056164  23.1486274  67.1411660  30.9892422  22.4731178  67.8092745
  31.2158424  22.6618648  66.3243813  33.4487705  22.6096421  70.8458350
  33.0845912  22.0827042  71.5571271  34.3054821  22.2194890  70.6724835
  39.3537005  13.8990754  78.1089616  39.0220330  14.7686165  77.8850831
  38.7582619  13.5827038  78.7883646  33.0893192  17.6386321  65.8419698
  33.2567594  18.5066557  66.2090169  32.8990361  17.8013603  64.9180987
  35.8468525  26.1003300  77.5085528  35.5469248  27.0028339  77.4001336
  35.5019584  25.8335483  78.3606681  29.2981006  22.5517097  73.5422233
  28.3731503  22.4193311  73.7499925  29.5465420  23.3311316  74.0392175
  39.2465669  18.6185840  75.1882966  38.3382546  18.5501249  74.8941727
  39.1953264  19.0957785  76.0164791  33.0682413  20.0943979  66.8266365
  32.9482038  20.5401029  67.6651845  32.3735001  20.4429296  66.2679903
  26.6589817  22.1950370  74.3766022  26.7882199  22.4484849  75.2905434
  25.9787269  22.7878078  74.0570677  30.8289305  32.8647620  70.4756496
  30.7513334  33.8155445  70.5544977  30.2250948  32.5193493  71.1331422
  33.3206534  20.0375486  83.1317863  32.5439869  20.5969406  83.1220728
  33.9597098  20.5232269  83.6532733  41.1127315  16.8202279  76.9660840
  40.4701695  17.1134812  76.3200634  40.6082244  16.7055199  77.7714036
  38.7667479  20.5665452  67.6546699  39.6785335  20.7992838  67.4794397
  38.2577126  21.1502496  67.0921778  31.5752907  22.8460939  82.6935830
  32.3167591  23.3845983  82.4170654  30.8689892  23.4727228  82.8507382
  37.0508246  24.9890080  81.2907992  37.4591602  24.5472490  80.5462624
  36.3285508  24.4142707  81.5442184  33.4039316  19.9262686  78.6641549
  34.2500512  20.3502100  78.8076198  33.3437954  19.2696311  79.3580112
  37.3737061  25.5491270  75.0460280  36.7445923  25.7136984  74.3436348
  36.9862723  25.9632880  75.8171244  41.2526293  26.4845708  72.4004644
  40.5677331  26.8644609  71.8501678  41.3370142  27.0941035  73.1336592
  36.5538762  17.5867055  80.3222722  36.3099694  18.3409115  79.7856998
  36.8298692  17.9652402  81.1569969  38.5077225  24.1305667  78.9999988
  38.7194120  24.7737427  78.3234369  38.4606973  23.2967984  78.5321918
  36.1103454  16.7423488  75.9036560  35.2487933  17.0404741  76.1953297
  36.1365888  16.9593887  74.9717593  32.9265023  25.2865678  72.3110366
  33.3903368  25.5653381  71.5214988  32.6621821  24.3849123  72.1283456
  29.8189104  24.8337160  75.2490129  30.3890461  25.2624428  74.6107613
  30.4097216  24.5519744  75.9474314  31.8633909  21.4088831  69.1199931
  32.5657952  21.8609874  69.5873857  31.5314537  20.7672649  69.7479824
  30.3114271  20.0000587  83.4951140  29.6812931  20.6816868  83.7286537
  30.2050358  19.8883669  82.5504278  25.6059243  19.6672383  74.4217064
  24.8158297  19.9229912  73.9457175  26.0970490  20.4820721  74.5269105
  39.6223053  27.0077622  77.1722345  40.4440496  26.6057810  76.8905027
  39.6185455  26.9045857  78.1238461  27.5573988  20.0316963  71.3800541
  26.7605152  20.1435657  71.8984037  27.3299581  20.3703615  70.5141431
  33.3879656  26.5561666  79.3283056  33.4524088  27.0182073  80.1641227
  32.6790580  25.9259031  79.4565365  23.8896946  19.9202874  76.8532055
  24.1404984  20.8049884  77.1189631  24.4256494  19.7407475  76.0807147
  47.7129046  23.3516371  73.5207317  46.9592754  22.7823769  73.3651321
  47.8476587  23.3179035  74.4677951  33.1027674  28.2229773  69.1962036
  32.9673348  29.0681309  69.6246884  33.6437486  28.4249051  68.4327970
  29.5895013  14.3021353  85.8576391  29.1961959  13.7487552  86.5324035
  30.4061154  14.6131932  86.2482909  26.5557071  25.7405211  69.7689961
  27.0681592  26.5348462  69.9195526  27.2079784  25.0431502  69.7023562
  28.3651956  28.8570968  71.8512714  28.5418584  29.7788932  71.6633698
  29.1608789  28.5429387  72.2807094  32.5062974  15.7179232  83.4496648
  33.2472688  16.3186385  83.3701110  32.7380897  14.9756870  82.8914690
  27.6504312  20.9035599  81.7274877  27.5357827  20.0020857  82.0281976
  26.7948830  21.1499296  81.3759694  34.7296150  28.8453340  83.3262378
  34.2860004  28.0589718  83.0083282  35.3913364  29.0332490  82.6606269
  29.4883271  30.3749141  77.8523056  30.0390696  30.2466205  77.0800050
  28.6494747  30.6744030  77.5017949  36.8277388  29.1256140  81.3543779
  36.8095863  29.9465021  80.8624048  37.7497308  29.0010215  81.5793920
  33.2850442  26.6400269  82.1967288  33.8178779  25.8788557  81.9666596
  32.7564523  26.3473921  82.9391442  36.4520137  11.7460335  77.7260929
  36.1084407  12.6361977  77.6500040  36.8199100  11.5561993  76.8630514
  24.5205988  24.0693866  70.5449532  25.3581210  24.4790874  70.3283239
  24.6984255  23.1293308  70.5149725  36.4170420  21.7368946  66.2333364
  35.9017043  22.5073551  66.4721752  36.1447728  21.0634082  66.8566426
  34.0017531  16.5818647  71.2918603  33.1459127  16.1925497  71.1124242
  34.4144483  16.6610608  70.4318388  35.5316678  14.1164990  75.6910163
  35.0281473  14.0795125  74.8777968  35.8247284  15.0257733  75.7506819
  31.7759563  14.2003720  74.6976344  32.6412560  14.0046529  74.3382234
  31.8437072  13.9714072  75.6245701  41.3904694  24.4901301  68.1686538
  40.6134137  24.1512460  67.7241700  42.0696175  24.4953924  67.4941503
  36.2056723  19.6096038  68.0593146  35.9006859  19.9242187  68.9103289
  37.1587165  19.6877458  68.1020479  34.6503155  25.7686262  69.7086100
  34.1224516  25.0339021  69.3959337  34.1490658  26.5460938  69.4626068
  39.6296001  23.9635282  74.8253146  38.9719675  24.6534544  74.9133275
  40.4336400  24.3531714  75.1687132  29.3821883  16.4305928  72.0692711
  29.9565634  16.2081109  71.3365904  29.9692865  16.4994622  72.8221312
  38.4401460  22.3179655  72.8757088  38.9533341  22.9509647  73.3778797
  39.0902684  21.7180850  72.5100448  29.7091470  18.4610389  66.0888596
  28.8728782  18.7985075  66.4097871  29.5696239  18.3259369  65.1515733
  31.6844550  13.3047177  70.7967781  31.0308963  12.9896194  70.1724395
  31.6425024  12.6822917  71.5227604  32.7955755  23.5866472  62.7121073
  31.8882817  23.3555725  62.9112222  33.2926787  22.7904091  62.8995054
  35.7023834  32.2963979  65.6317759  35.0285533  32.5995676  66.2402717
  36.0889656  33.0993059  65.2823216  34.9182291  19.7929110  75.1215428
  34.0004852  20.0144057  74.9637116  35.3342434  19.8675421  74.2627136
  35.7017338  21.1920526  70.2518108  36.4489157  21.7041923  69.9425231
  35.9708928  20.8704579  71.1122502  33.9743989  23.6879067  67.2345063
  33.0655208  23.4038100  67.3317533  34.0039072  24.1078145  66.3748370
  39.2063256  27.2985656  71.0036230  38.7525583  26.4576566  71.0601421
  38.5757223  27.9347055  71.3411010  38.1496176  18.2277642  72.2336898
  37.4118932  17.7155029  72.5647140  38.4022949  17.7878024  71.4220175
  37.6496195  29.1362153  71.9386048  37.9419170  29.6967210  71.2198414
  38.1594816  29.4290714  72.6939208  38.2507803  11.0053894  72.8278667
  38.5566680  10.1451258  72.5404582  38.9760408  11.5971514  72.6277661
  24.5432159  21.4084581  71.2160265  24.3456559  20.8153942  70.4911332
  23.9878823  21.1036791  71.9336204  32.5228883  21.3007687  73.3354858
  32.5777492  20.3481524  73.2597335  31.7120085  21.4567126  73.8196157
  33.6720076  25.2287810  64.5733141  33.2339506  24.5123669  64.1138779
  34.4130517  25.4563925  64.0118233  30.4621242  19.9184747  71.0945237
  29.6489108  20.2178918  71.5010429  30.9580237  19.5240436  71.8119719
  32.6129820  29.9142504  73.0279502  32.5705999  30.1403350  72.0988034
  33.5292519  29.6805879  73.1765303  36.0595454  20.3826572  79.9260131
  36.4144842  20.6098045  80.7854597  36.7067585  20.7144948  79.3037386
  41.7893191  23.5045007  70.6309460  41.6511090  23.6946603  69.7030649
  41.4329410  24.2664390  71.0877511  29.9535317  17.4903103  76.7106472
  30.5934697  17.3491862  76.0129435  29.1212848  17.2037616  76.3345074
  41.8162571  25.5721534  75.6420731  42.2499077  25.4796824  76.4903785
  42.5294151  25.5479035  75.0040747  30.7295621  26.7905533  72.8241464
  31.5236220  26.2955853  72.6224039  30.0187314  26.2623396  72.4609170
  35.5490466  29.1723629  77.1753832  35.6027488  29.7414565  77.9431548
  34.6805247  29.3425514  76.8107869  27.0378385  20.9348615  68.9001217
  26.1075973  20.8733070  69.1171179  27.1335857  20.4124568  68.1037858
  26.9563934  17.4603428  71.4879459  27.2170751  18.3748761  71.3788619
  27.7781106  16.9927870  71.6376072  28.4288859  18.8741185  78.6578283
  29.1011912  18.6658547  78.0090932  27.6018646  18.6763271  78.2183516
  42.6778120  25.6145235  78.1753617  42.8714010  26.5191046  78.4212892
  42.5778738  25.1552654  79.0092202  34.3314431  15.5003126  80.6743944
  33.6842346  16.1993075  80.5808421  35.1015446  15.9339270  81.0420192
  37.7393229  25.7651978  83.7494497  37.5878735  25.5362530  82.8324581
  37.7297908  26.7222579  83.7625842  34.5078565  23.3383891  78.7340764
  35.4370625  23.4895050  78.5609731  34.0869595  23.4267911  77.8789410
  33.3066897  27.3634555  76.5039301  33.1677983  26.9953339  77.3765240
  32.5181493  27.8782194  76.3323259  33.9015049  32.4643652  67.8464838
  34.0766805  31.9931695  68.6610461  33.2147837  33.0909418  68.0746099
  34.8572112  26.7416158  73.8928139  34.5221945  26.7016928  74.7885789
  34.3576058  26.0760874  73.4198550  28.8316356  22.1483788  79.4180720
  28.6936154  21.4164027  80.0192259  29.7421280  22.0592688  79.1364908
  37.7931304  24.0872192  64.1665199  37.1760475  23.3619020  64.0698252
  37.3247792  24.8481552  63.8232273  31.4598657  21.8603747  78.9064400
  32.1698275  21.2196939  78.8651019  31.4167965  22.1116642  79.8290581
  39.4485436  28.7971100  81.8270979  39.3897982  28.1130321  81.1601562
  39.8504954  29.5390090  81.3751605  30.1727591  18.8468965  80.7260040
  29.6364948  18.3959703  81.3781636  29.5844299  18.9814874  79.9830504
  28.4676134  35.6133014  74.6204698  28.7072733  36.2451538  75.2983717
  27.6245331  35.2621054  74.9070057  29.5829850  18.3057616  63.2886503
  28.7059316  18.1846417  62.9248750  30.0587603  17.5143695  63.0365392
  39.4502843  26.7610684  80.0584959  38.5629622  26.4236606  80.1811358
  40.0201394  26.0293716  80.2953724  21.1031990  23.0934776  73.3828010
  21.7903030  22.7796506  72.7949026  20.9480119  23.9976141  73.1095262
  25.9066712  17.9824973  77.8113034  25.8224901  17.3750642  77.0763444
  25.0849419  18.4733991  77.8122530  32.9803996  31.4212137  77.0246202
  32.9074168  32.2267108  77.5365507  32.5381389  31.6204103  76.1994224
  32.7693776  30.6583907  70.5349024  31.9861298  31.2005587  70.6287248
  33.4686521  31.1757886  70.9343265  36.0790426  16.4678536  73.1783229
  36.5759126  15.7148499  72.8584299  35.3077408  16.5042853  72.6126438
  43.9320183  22.1718902  74.8201521  43.9210060  23.0543617  74.4495454
  43.0637563  21.8190453  74.6256058  35.4402680  31.3198971  79.1804361
  36.1530652  31.9546436  79.1080262  34.9492708  31.4162837  78.3644363
  37.1620207  25.2250223  70.7521652  36.2276485  25.3451686  70.5826357
  37.3396875  24.3222690  70.4881662  32.6625395  18.6095919  72.9054914
  32.2923182  18.0566960  73.5935819  33.1584487  18.0054053  72.3529914
  40.5492758  21.0667543  71.2871687  41.0153210  21.8995534  71.2131989
  41.0000259  20.6012524  71.9916945  30.4914593  29.0693414  80.0009932
  31.1924053  29.7029897  80.1539326  30.0209708  29.4108146  79.2405571
  38.6168989  27.4111364  68.2857839  38.8928833  27.2967959  69.1951713
  37.7473488  27.0128849  68.2470012  38.5209421  13.4348130  75.3262588
  37.6072501  13.6652357  75.4944795  38.9502522  13.5186574  76.1776620
  38.2915879  21.6238022  77.8262482  37.6387330  21.8713929  77.1714935
  38.6696259  20.8102160  77.4924959  35.2523053  31.6597715  71.9290652
  35.4345448  30.8419371  72.3918405  36.0756039  31.8765407  71.4915542
  35.5865219  30.5865900  69.1905701  36.1152985  30.0758355  68.5775863
  35.8493438  30.2708430  70.0551234  34.3403452  22.3657833  84.3128519
  33.6644089  22.2651962  84.9830894  35.1631086  22.2097046  84.7764516
  26.0882311  28.6029769  76.9341034  26.6735748  27.8573457  77.0668939
  25.8907150  28.9133726  77.8177698  28.9420967  31.6381017  71.9503477
  28.2731342  32.1227144  71.4667517  28.8033836  31.8850237  72.8646855
  20.6799966  21.1735369  75.6545477  20.7184066  20.6398960  76.4482596
  20.1740259  20.6470575  75.0356455  33.0826235  33.6724760  78.5486135
  33.6344543  33.8356382  79.3135220  33.4232429  34.2629198  77.8766160
  28.0590728  16.0199910  79.1508020  28.1232055  16.8814741  78.7385417
  27.9957849  15.4073912  78.4180378  27.5343001  18.0923043  82.7981054
  28.1615040  17.7100120  83.4118578  26.6770920  17.8737244  83.1636747
  37.9337110  28.4986018  84.4034790  38.4777013  29.1115976  83.9089744
  37.3523954  29.0565596  84.9201803  24.3108544  19.8999472  68.7299409
  24.6061985  18.9910150  68.6766463  23.4096579  19.8787211  68.4080411
  36.2194622  31.6206736  75.5349817  36.0945762  30.8196476  75.0260763
  36.8773714  32.1152929  75.0463787  27.8402791  17.9755468  74.7126957
  27.1189376  18.5891436  74.5734431  28.6296046  18.5113233  74.6343603
  38.2829531  29.4215756  77.1629367  37.3359866  29.3021107  77.0907694
  38.6312304  28.5338254  77.2455629  30.6429104  15.3109895  80.9867609
  31.1663506  15.5572191  81.7493919  30.4241437  16.1429930  80.5670747
  26.0396385  17.5813569  68.8538734  25.7109091  16.7010948  68.6713840
  26.3935756  17.5261238  69.7415123  35.2875964  29.2168472  73.3633720
  35.1400927  28.2885179  73.5441290  36.1129458  29.2388563  72.8790795
  29.1538208  17.8686539  69.2214212  29.4934281  18.3972460  68.4992820
  29.6010329  18.2066945  69.9972778  38.8910086  30.0397031  74.4498592
  39.8156633  29.8339892  74.3123043  38.7225389  29.7913432  75.3587934
  31.8481649  16.2523590  78.6717280  31.5078470  15.4531403  79.0737960
  31.1420656  16.5525301  78.0994113  32.4998121  13.3372902  77.1244603
  33.3224190  12.8633380  77.0023493  32.7436185  14.1163386  77.6243289
  31.1406356  16.3661161  67.4207504  31.8614718  16.7442413  66.9171221
  30.5171660  17.0850037  67.5242482  35.2837478  17.0706310  68.3565837
  35.5001093  17.9530948  68.0554665  34.8031546  16.6792523  67.6271479
  30.0236700  20.0292023  74.9336581  29.8781281  20.3432326  75.8260863
  29.5461903  20.6476923  74.3807480  31.8833083  17.0194571  74.9817471
  31.8694651  16.1235664  74.6449769  32.6005511  17.0265235  75.6155757
  33.7359213  17.4531911  77.0270598  33.4776991  18.3748982  77.0254929
  33.2044254  17.0562346  77.7171063  38.6805402  30.5582698  69.8060684
  38.8542280  29.9929121  69.0534536  39.1734293  31.3583593  69.6240174
  24.4982362  22.5697367  77.8724243  23.9535830  23.3457175  78.0044517
  25.3761712  22.9168172  77.7143364  31.2869979  15.9008951  70.2505041
  31.4085890  14.9725597  70.4495929  30.9972021  15.9147637  69.3383357
  34.1561169  13.5863862  73.3871761  34.1782866  13.6503195  72.4323740
  34.5729228  12.7468370  73.5812267  44.5344793  23.3219121  71.4250984
  44.9775939  22.5726446  71.0270107  43.6571304  23.3129257  71.0424715
  39.6680575  29.8749463  66.9057582  40.3631479  30.4956155  67.1244897
  40.0103725  29.0244814  67.1809960  25.2848384  21.6967264  80.7654399
  24.5430120  21.8449899  81.3519030  24.9641128  21.9575529  79.9021149
  41.5671998  27.3249168  68.4344913  42.0923322  27.6636441  67.7094233
  41.4794350  26.3896183  68.2508047  33.2292047  31.2383242  80.5634789
  33.5379173  30.9932389  81.4357489  34.0267529  31.4429880  80.0753660
  33.2512659  33.3921151  72.7940166  32.8117649  32.8997530  73.4873023
  34.0020776  32.8494119  72.5532241  25.7304998  29.5832692  72.7964794
  26.5563017  29.2836464  72.4163438  25.3799050  28.8140315  73.2454583
  30.6986531  28.9359160  74.8662468  30.0766540  28.2729866  74.5664696
  31.3691398  28.9620292  74.1836115  23.9313603  27.5019019  73.7553728
  23.0945511  27.0741193  73.5737729  23.9037248  27.6951462  74.6924519
  30.7711058  17.4140949  84.4594974  30.8199214  18.2903071  84.0772743
  31.3133572  16.8718342  83.8866617  41.2565904  27.9582072  83.7396111
  40.4661448  27.9406211  83.2000610  41.0199258  28.4970365  84.4945147
  41.3763779  24.8074538  81.0528839  41.4261784  24.6424546  81.9944362
  41.2677702  23.9401797  80.6626720  30.2600038  27.4863084  68.3420928
  30.4088158  28.1698548  67.6887601  31.0666481  27.4668174  68.8570384
  38.6667541  20.7905466  82.3688146  39.5677404  20.6511931  82.0772144
  38.7415516  20.9559921  83.3086323  33.0010347  18.1672321  81.2141332
  32.1313656  18.4605887  80.9423921  33.2369827  18.7512766  81.9348596
  42.8781976  27.2271480  81.2970861  42.5866784  27.5901460  82.1334322
  42.2654107  26.5138488  81.1184193  44.0777658  24.7924359  73.8173431
  44.9124549  25.2314163  73.9810991  44.2136787  24.3163013  72.9981677
  41.1269164  22.3504094  79.7650919  41.6023286  22.5431741  78.9569770
  40.2034729  22.4063280  79.5194302  28.0152671  23.5128261  69.3481997
  27.7698713  22.6090591  69.5462207  28.1848585  23.5145412  68.4061475
  35.7049380  14.3851938  78.7306753  36.2231324  15.1212965  78.4053241
  35.3504513  14.6915931  79.5653512  27.2848318  19.2456619  66.8468159
  26.5917563  19.3200974  66.1908195  27.0400070  18.4816963  67.3689675
  35.9561975  10.8052220  74.2507649  36.2363728  10.1375409  74.8768076
  36.7412582  10.9981316  73.7382313  33.7595443  29.9811214  65.8132676
  33.1869410  30.6001401  65.3603147  34.3328237  30.5310576  66.3472598
  39.8270833  19.2269854  77.9979224  40.7788256  19.3267952  78.0191448
  39.6574283  18.4348123  78.5077309  37.8485212  16.3125438  78.1838625
  37.2535145  16.5930450  77.4885114  37.5634909  16.8019339  78.9555366
  36.9792703  30.2648364  66.9441258  37.9123376  30.1993926  67.1474133
  36.8915916  31.1004631  66.4855791  39.6080720  29.5814235  63.9045205
  39.5294351  29.2474098  64.7980963  40.4290386  30.0736003  63.9036678
  42.3058911  22.4475974  77.1121524  42.2735231  21.5091975  77.2981208
  42.9159534  22.5260011  76.3787349  34.1442242  21.3172027  63.1548728
  35.0901346  21.1878235  63.2237146  33.7656487  20.5786689  63.6318156
  42.4553399  19.2387017  77.1579807  41.9392448  18.4545474  76.9709736
  43.3393348  18.9105734  77.3226327  40.1164126  12.9828033  73.1175620
  39.9188947  12.6743121  74.0018952  40.7263832  13.7089672  73.2473550
  48.1235461  23.5091981  76.2527561  48.8538849  23.2477269  76.8135264
  47.5142406  22.7720703  76.2929629  46.2050758  21.6499843  76.8502012
  45.4783921  21.5155808  76.2418504  45.7898045  21.9576672  77.6558730
  34.0280934  25.3689773  84.6149385  34.9483944  25.5468372  84.8089432
  33.9930517  24.4245819  84.4629084  32.3285159  19.2422003  63.0903613
  31.4216614  18.9455116  63.1666327  32.6061140  18.9451821  62.2237900
  23.2463099  20.5628367  73.5402660  22.9265884  19.7093675  73.2477034
  22.6996527  20.7776945  74.2960627  27.0243007  23.2790808  77.2572166
  27.2429017  24.2107916  77.2760200  27.4368781  22.9198782  78.0426970
  33.9447225  13.7858893  69.2447855  33.1347953  13.4405978  69.6203101
  34.6331641  13.4766437  69.8335466  35.8737773  12.8636940  70.8672151
  36.4268811  13.2832393  71.5262174  36.1107859  11.9372688  70.9095107
  31.8970872  18.8524014  86.6474915  31.7967599  19.8018371  86.5787006
  31.6792414  18.5242252  85.7750985  31.0983943  16.1008939  63.2315593
  31.9603107  16.4263837  63.4911410  31.2834288  15.3140435  62.7188658
  23.1151359  24.1831278  75.5095781  22.4214831  23.7685231  74.9965736
  23.8624350  24.2251815  74.9129200  39.2516580  14.9737465  70.3750816
  38.6715249  15.6322269  69.9928868  38.9852513  14.1514810  69.9638233
  37.7020146  14.3742523  72.5772136  38.2019925  14.4859057  71.7686455
  38.3455754  14.0703576  73.2172944  31.7602142  22.2821152  85.4639977
  31.2769224  23.0821513  85.6703866  31.8463081  22.2929097  84.5107421
  25.0288102  24.1149532  73.3861796  25.0058790  24.2137219  72.4343679
  25.3388738  24.9614683  73.7078962  27.6875480  26.1725687  77.5008411
  28.6418733  26.1409629  77.4338342  27.4888003  25.7116311  78.3158637
  28.2774862  24.7426803  80.0679208  29.0967751  25.2370882  80.0914046
  28.5511669  23.8258771  80.0396776  38.0341458  17.1337555  69.4307164
  37.1467313  17.4187206  69.2127359  38.4495447  16.9731319  68.5834441
  41.3855994  17.1584076  73.1461503  42.1616384  17.6480529  73.4186120
  40.6604128  17.5842131  73.6033373  43.8228553  17.8711696  74.2035444
  44.4173043  17.6307432  73.4928752  43.8955136  17.1518826  74.8308980
  26.0425708  31.7145307  74.5178609  25.9080176  30.9545707  73.9516607
  25.6257771  32.4386206  74.0507397  37.1784671  26.8982230  63.5255184
  37.8820522  27.1032233  64.1412839  36.4547320  27.4658992  63.7904267
  38.0082482  22.6492091  69.6457454  37.9517683  23.1060643  68.8065086
  38.5610824  21.8882776  69.4680297  41.8187288  18.4381823  70.4707573
  41.5624222  18.0378459  71.3015781  41.1940156  19.1525617  70.3457713
  46.1299625  21.1777897  72.9778865  45.5699183  21.2471086  73.7510427
  45.5243129  21.0018881  72.2578361  29.1994834  32.6114624  74.7297051
  29.0827218  33.5560056  74.6275741  28.3787281  32.3088185  75.1182850
  39.0871369  27.3364759  65.5753644  39.9216973  26.9045958  65.3931119
  38.9255712  27.1646773  66.5030538  38.7417261  23.8396873  66.9409983
  38.6866065  23.6741144  65.9998427  38.1163316  24.5472906  67.0972173
  23.5309776  19.0764937  80.7671405  24.1768640  18.5663891  81.2558631
  23.3226927  19.8133619  81.3414831  36.0563168  26.1445785  86.2663546
  36.9254328  26.3186437  85.9050181  35.5769920  26.9640201  86.1439275
  32.0513386  13.3404982  66.5195302  32.0392056  14.2846822  66.6763572
  32.9436808  13.1575127  66.2254763  30.2249348  33.2642886  77.9452980
  31.1276595  33.2966496  78.2619475  29.9986718  32.3343336  77.9599315
  31.9802950  32.0173872  74.6063058  31.0298581  32.0175734  74.4927430
  32.2835437  31.2706607  74.0899093  35.8665506   9.9347758  70.7741238
  35.0997902   9.3806245  70.9197921  36.2776211  10.0069627  71.6355390
  27.8707267  16.2232554  84.8646420  28.7338729  15.8669359  85.0749744
  27.2972678  15.8846449  85.5521824  47.7155644  37.8534410  75.6708821
  48.3534054  37.7341158  74.9672161  47.5976487  38.8015254  75.7296773
  44.5245350  37.8061839  75.6070345  44.1863862  37.6902903  74.7190880
  45.3935118  37.4053004  75.5871351  40.3832166  39.6597315  71.5967236
  39.8197031  39.5687252  70.8283524  40.2684561  38.8397219  72.0769729
  45.0065133  38.9596690  81.5656551  44.9953774  38.5649489  80.6937054
  45.1685773  38.2262763  82.1590322  37.9296598  41.1548507  74.4351457
  38.7217890  40.8139331  74.0197756  38.1693248  41.2643482  75.3553610
  39.8887352  40.4157420  67.3068835  40.6618228  39.8686407  67.1681711
  40.2412751  41.2801669  67.5183297  41.7272394  41.7433802  80.5135735
  41.4362260  42.6479433  80.3982401  42.3629379  41.7850330  81.2279804
  42.6528601  39.1210651  77.1037094  43.2492173  38.8966673  76.3894057
  42.7103573  38.3795396  77.7062542  42.2253630  36.5750086  64.9387285
  42.4779150  36.0531607  64.1770748  41.2878189  36.4116231  65.0413969
  47.2696912  35.5785864  72.7462029  48.0560002  35.1605287  72.3952446
  47.5335617  36.4831956  72.9143677  52.6705340  35.5161098  73.6495007
  53.4030511  34.9460314  73.8832837  51.9144695  35.1282698  74.0901513
  41.9449918  38.4778192  67.1411660  41.8286176  37.8023095  67.8092745
  42.0552178  37.9910566  66.3243813  44.2881459  37.9388339  70.8458350
  43.9239666  37.4118960  71.5571271  45.1448575  37.5486808  70.6724835
  50.1930760  29.2282672  78.1089616  49.8614085  30.0978083  77.8850831
  49.5976373  28.9118956  78.7883646  43.9286946  32.9678239  65.8419698
  44.0961349  33.8358475  66.2090169  43.7384115  33.1305520  64.9180987
  46.6862279  41.4295218  77.5085528  46.3863002  42.3320256  77.4001336
  46.3413339  41.1627401  78.3606681  40.1374761  37.8809014  73.5422233
  39.2125257  37.7485229  73.7499925  40.3859174  38.6603234  74.0392175
  50.0859423  33.9477758  75.1882966  49.1776301  33.8793166  74.8941727
  50.0347019  34.4249703  76.0164791  43.9076167  35.4235896  66.8266365
  43.7875792  35.8692947  67.6651845  43.2128755  35.7721214  66.2679903
  37.4983572  37.5242288  74.3766022  37.6275953  37.7776767  75.2905434
  36.8181023  38.1169996  74.0570677  44.1600289  35.3667403  83.1317863
  43.3833623  35.9261324  83.1220728  44.7990852  35.8524186  83.6532733
  51.9521070  32.1494196  76.9660840  51.3095450  32.4426729  76.3200634
  51.4475998  32.0347117  77.7714036  49.6061233  35.8957369  67.6546699
  50.5179089  36.1284756  67.4794397  49.0970880  36.4794414  67.0921778
  42.4146661  38.1752857  82.6935830  43.1561346  38.7137901  82.4170654
  41.7083647  38.8019145  82.8507382  47.8902001  40.3181997  81.2907992
  48.2985357  39.8764408  80.5462624  47.1679262  39.7434625  81.5442184
  44.2433071  35.2554604  78.6641549  45.0894266  35.6794018  78.8076198
  44.1831709  34.5988228  79.3580112  48.2130816  40.8783188  75.0460280
  47.5839678  41.0428902  74.3436348  47.8256478  41.2924797  75.8171244
  52.0920047  41.8137626  72.4004644  51.4071086  42.1936527  71.8501678
  52.1763897  42.4232952  73.1336592  47.3932516  32.9158972  80.3222722
  47.1493448  33.6701033  79.7856998  47.6692447  33.2944320  81.1569969
  49.3470979  39.4597585  78.9999988  49.5587874  40.1029345  78.3234369
  49.3000727  38.6259901  78.5321918  46.9497208  32.0715405  75.9036560
  46.0881687  32.3696659  76.1953297  46.9759643  32.2885804  74.9717593
  43.7658777  40.6157596  72.3110366  44.2297123  40.8945299  71.5214988
  43.5015576  39.7141040  72.1283456  40.6582858  40.1629077  75.2490129
  41.2284216  40.5916346  74.6107613  41.2490970  39.8811662  75.9474314
  42.7027663  36.7380748  69.1199931  43.4051707  37.1901792  69.5873857
  42.3708292  36.0964567  69.7479824  41.1508025  35.3292505  83.4951140
  40.5206686  36.0108786  83.7286537  41.0444113  35.2175587  82.5504278
  36.4452997  34.9964301  74.4217064  35.6552051  35.2521829  73.9457175
  36.9364245  35.8112639  74.5269105  50.4616807  42.3369540  77.1722345
  51.2834251  41.9349727  76.8905027  50.4579210  42.2337774  78.1238461
  38.3967743  35.3608880  71.3800541  37.5998906  35.4727574  71.8984037
  38.1693335  35.6995532  70.5141431  44.2273410  41.8853583  79.3283056
  44.2917843  42.3473991  80.1641227  43.5184334  41.2550948  79.4565365
  34.7290700  35.2494791  76.8532055  34.9798739  36.1341801  77.1189631
  35.2650249  35.0699393  76.0807147  58.5522800  38.6808289  73.5207317
  57.7986508  38.1115687  73.3651321  58.6870341  38.6470953  74.4677951
  40.4288768  29.6313271  85.8576391  40.0355713  29.0779469  86.5324035
  41.2454908  29.9423849  86.2482909  37.3950825  41.0697129  69.7689961
  37.9075346  41.8640379  69.9195526  38.0473538  40.3723419  69.7023562
  39.2045710  44.1862885  71.8512714  39.3812339  45.1080850  71.6633698
  40.0002544  43.8721304  72.2807094  43.3456729  31.0471150  83.4496648
  44.0866442  31.6478303  83.3701110  43.5774652  30.3048788  82.8914690
  38.4898067  36.2327517  81.7274877  38.3751582  35.3312774  82.0281976
  37.6342584  36.4791214  81.3759694  45.5689904  44.1745257  83.3262378
  45.1253759  43.3881636  83.0083282  46.2307118  44.3624408  82.6606269
  40.3277026  45.7041059  77.8523056  40.8784451  45.5758122  77.0800050
  39.4888502  46.0035948  77.5017949  47.6671143  44.4548057  81.3543779
  47.6489618  45.2756938  80.8624048  48.5891063  44.3302133  81.5793920
  44.1244197  41.9692187  82.1967288  44.6572533  41.2080475  81.9666596
  43.5958278  41.6765839  82.9391442  47.2913892  27.0752253  77.7260929
  46.9478161  27.9653894  77.6500040  47.6592854  26.8853910  76.8630514
  35.3599742  39.3985783  70.5449532  36.1974964  39.8082792  70.3283239
  35.5378010  38.4585225  70.5149725  44.8411285  31.9110565  71.2918603
  43.9852882  31.5217415  71.1124242  45.2538237  31.9902525  70.4318388
  46.3710432  29.4456908  75.6910163  45.8675228  29.4087043  74.8777968
  46.6641039  30.3549651  75.7506819  42.6153318  29.5295638  74.6976344
  43.4806315  29.3338446  74.3382234  42.6830827  29.3005989  75.6245701
  47.0450478  34.9387956  68.0593146  46.7400613  35.2534105  68.9103289
  47.9980920  35.0169376  68.1020479  50.4689755  39.2927200  74.8253146
  49.8113430  39.9826461  74.9133275  51.2730155  39.6823632  75.1687132
  40.2215637  31.7597846  72.0692711  40.7959389  31.5373027  71.3365904
  40.8086619  31.8286540  72.8221312  49.2795214  37.6471572  72.8757088
  49.7927096  38.2801564  73.3778797  49.9296438  37.0472768  72.5100448
  40.5485224  33.7902307  66.0888596  39.7122536  34.1276993  66.4097871
  40.4089994  33.6551286  65.1515733  42.5238305  28.6339094  70.7967781
  41.8702717  28.3188112  70.1724395  42.4818779  28.0114835  71.5227604
  45.7576045  35.1221028  75.1215428  44.8398606  35.3435975  74.9637116
  46.1736189  35.1967339  74.2627136  46.5411093  36.5212444  70.2518108
  47.2882912  37.0333841  69.9425231  46.8102682  36.1996496  71.1122502
  50.0457010  42.6277574  71.0036230  49.5919338  41.7868484  71.0601421
  49.4150977  43.2638972  71.3411010  48.9889930  33.5569560  72.2336898
  48.2512687  33.0446946  72.5647140  49.2416704  33.1169942  71.4220175
  48.4889950  44.4654071  71.9386048  48.7812924  45.0259128  71.2198414
  48.9988570  44.7582632  72.6939208  49.0901557  26.3345812  72.8278667
  49.3960434  25.4743175  72.5404582  49.8154162  26.9263432  72.6277661
  35.3825913  36.7376499  71.2160265  35.1850313  36.1445859  70.4911332
  34.8272577  36.4328709  71.9336204  43.3622637  36.6299605  73.3354858
  43.4171247  35.6773441  73.2597335  42.5513839  36.7859044  73.8196157
  41.3014997  35.2476665  71.0945237  40.4882863  35.5470835  71.5010429
  41.7973991  34.8532354  71.8119719  46.8989209  35.7118489  79.9260131
  47.2538596  35.9389962  80.7854597  47.5461340  36.0436866  79.3037386
  52.6286946  38.8336925  70.6309460  52.4904844  39.0238521  69.7030649
  52.2723164  39.5956308  71.0877511  40.7929072  32.8195020  76.7106472
  41.4328451  32.6783779  76.0129435  39.9606602  32.5329534  76.3345074
  52.6556325  40.9013452  75.6420731  53.0892832  40.8088741  76.4903785
  53.3687906  40.8770953  75.0040747  37.8772139  36.2640532  68.9001217
  36.9469727  36.2024988  69.1171179  37.9729611  35.7416485  68.1037858
  37.7957688  32.7895345  71.4879459  38.0564505  33.7040679  71.3788619
  38.6174860  32.3219788  71.6376072  39.2682613  34.2033102  78.6578283
  39.9405667  33.9950465  78.0090932  38.4412400  34.0055188  78.2183516
  53.5171875  40.9437153  78.1753617  53.7107765  41.8482963  78.4212892
  53.4172493  40.4844572  79.0092202  45.1708186  30.8295043  80.6743944
  44.5236101  31.5284993  80.5808421  45.9409201  31.2631187  81.0420192
  48.5786983  41.0943896  83.7494497  48.4272490  40.8654447  82.8324581
  48.5691663  42.0514497  83.7625842  45.3472320  38.6675808  78.7340764
  46.2764380  38.8186968  78.5609731  44.9263350  38.7559829  77.8789410
  39.6710111  37.4775705  79.4180720  39.5329909  36.7455944  80.0192259
  40.5815034  37.3884606  79.1364908  42.2992411  37.1895665  78.9064400
  43.0092030  36.5488857  78.8651019  42.2561720  37.4408560  79.8290581
  50.2879190  44.1263018  81.8270979  50.2291736  43.4422238  81.1601562
  50.6898708  44.8682008  81.3751605  41.0121345  34.1760883  80.7260040
  40.4758702  33.7251621  81.3781636  40.4238054  34.3106791  79.9830504
  40.4223604  33.6349534  63.2886503  39.5453071  33.5138335  62.9248750
  40.8981357  32.8435612  63.0365392  50.2896597  42.0902602  80.0584959
  49.4023376  41.7528524  80.1811358  50.8595148  41.3585633  80.2953724
  31.9425744  38.4226694  73.3828010  32.6296784  38.1088424  72.7949026
  31.7873873  39.3268058  73.1095262  36.7460467  33.3116890  77.8113034
  36.6618655  32.7042560  77.0763444  35.9243173  33.8025909  77.8122530
  46.9184180  31.7970454  73.1783229  47.4152880  31.0440416  72.8584299
  46.1471162  31.8334771  72.6126438  54.7713938  37.5010819  74.8201521
  54.7603814  38.3835535  74.4495454  53.9031317  37.1482370  74.6256058
  43.5019149  33.9387837  72.9054914  43.1316937  33.3858877  73.5935819
  43.9978242  33.3345970  72.3529914  51.3886513  36.3959460  71.2871687
  51.8546965  37.2287452  71.2131989  51.8394013  35.9304442  71.9916945
  41.3308348  44.3985332  80.0009932  42.0317807  45.0321815  80.1539326
  40.8603463  44.7400063  79.2405571  49.3603175  28.7640047  75.3262588
  48.4466255  28.9944274  75.4944795  49.7896277  28.8478491  76.1776620
  49.1309634  36.9529939  77.8262482  48.4781084  37.2005847  77.1714935
  49.5090014  36.1394078  77.4924959  45.1797207  37.6949750  84.3128519
  44.5037844  37.5943880  84.9830894  46.0024841  37.5388964  84.7764516
  36.9276066  43.9321687  76.9341034  37.5129503  43.1865375  77.0668939
  36.7300904  44.2425644  77.8177698  31.5193721  36.5027287  75.6545477
  31.5577820  35.9690878  76.4482596  31.0134013  35.9762493  75.0356455
  38.8984483  31.3491828  79.1508020  38.9625809  32.2106659  78.7385417
  38.8351603  30.7365829  78.4180378  38.3736755  33.4214960  82.7981054
  39.0008794  33.0392038  83.4118578  37.5164674  33.2029162  83.1636747
  48.7730864  43.8277935  84.4034790  49.3170768  44.4407894  83.9089744
  48.1917709  44.3857514  84.9201803  35.1502298  35.2291389  68.7299409
  35.4455739  34.3202068  68.6766463  34.2490334  35.2079129  68.4080411
  38.6796545  33.3047386  74.7126957  37.9583131  33.9183354  74.5734431
  39.4689801  33.8405151  74.6343603  49.1223285  44.7507673  77.1629367
  48.1753621  44.6313025  77.0907694  49.4706058  43.8630172  77.2455629
  41.4822859  30.6401812  80.9867609  42.0057261  30.8864109  81.7493919
  41.2635192  31.4721847  80.5670747  36.8790140  32.9105487  68.8538734
  36.5502846  32.0302866  68.6713840  37.2329510  32.8553156  69.7415123
  39.9931963  33.1978457  69.2214212  40.3328035  33.7264378  68.4992820
  40.4404083  33.5358863  69.9972778  49.7303840  45.3688948  74.4498592
  50.6550388  45.1631810  74.3123043  49.5619144  45.1205350  75.3587934
  42.6875404  31.5815507  78.6717280  42.3472224  30.7823321  79.0737960
  41.9814410  31.8817218  78.0994113  43.3391876  28.6664820  77.1244603
  44.1617945  28.1925298  77.0023493  43.5829939  29.4455304  77.6243289
  41.9800110  31.6953078  67.4207504  42.7008473  32.0734331  66.9171221
  41.3565414  32.4141955  67.5242482  46.1231233  32.3998227  68.3565837
  46.3394847  33.2822865  68.0554665  45.6425300  32.0084441  67.6271479
  40.8630454  35.3583941  74.9336581  40.7175035  35.6724244  75.8260863
  40.3855658  35.9768841  74.3807480  42.7226837  32.3486489  74.9817471
  42.7088406  31.4527582  74.6449769  43.4399265  32.3557152  75.6155757
  44.5752968  32.7823829  77.0270598  44.3170746  33.7040899  77.0254929
  44.0438008  32.3854263  77.7171063  35.3376116  37.8989285  77.8724243
  34.7929585  38.6749093  78.0044517  36.2155466  38.2460089  77.7143364
  42.1263733  31.2300869  70.2505041  42.2479644  30.3017515  70.4495929
  41.8365776  31.2439555  69.3383357  44.9954924  28.9155779  73.3871761
  45.0176620  28.9795112  72.4323740  45.4122983  28.0760288  73.5812267
  55.3738548  38.6511039  71.4250984  55.8169694  37.9018364  71.0270107
  54.4965058  38.6421175  71.0424715  36.1242138  37.0259181  80.7654399
  35.3823874  37.1741817  81.3519030  35.8034883  37.2867447  79.9021149
  44.0685801  46.5675159  80.5634789  44.3772927  46.3224306  81.4357489
  44.8661283  46.7721798  80.0753660  36.5698752  44.9124610  72.7964794
  37.3956772  44.6128382  72.4163438  36.2192804  44.1432232  73.2454583
  34.7707357  42.8310936  73.7553728  33.9339265  42.4033111  73.5737729
  34.7431003  43.0243380  74.6924519  41.6104813  32.7432866  84.4594974
  41.6592968  33.6194989  84.0772743  42.1527327  32.2010259  83.8866617
  52.0959658  43.2873989  83.7396111  51.3055202  43.2698128  83.2000610
  51.8593013  43.8262283  84.4945147  52.2157533  40.1366456  81.0528839
  52.2655538  39.9716463  81.9944362  52.1071457  39.2693715  80.6626720
  41.0993792  42.8155002  68.3420928  41.2481912  43.4990466  67.6887601
  41.9060236  42.7960092  68.8570384  49.5061296  36.1197384  82.3688146
  50.4071159  35.9803849  82.0772144  49.5809270  36.2851839  83.3086323
  43.8404101  33.4964239  81.2141332  42.9707411  33.7897805  80.9423921
  44.0763581  34.0804684  81.9348596  53.7175730  42.5563397  81.2970861
  53.4260539  42.9193378  82.1334322  53.1047862  41.8430406  81.1184193
  54.9171413  40.1216277  73.8173431  55.7518304  40.5606081  73.9810991
  55.0530541  39.6454930  72.9981677  51.9662918  37.6796012  79.7650919
  52.4417040  37.8723658  78.9569770  51.0428484  37.7355198  79.5194302
  38.8546425  38.8420179  69.3481997  38.6092467  37.9382509  69.5462207
  39.0242340  38.8437330  68.4061475  46.5443135  29.7143856  78.7306753
  47.0625079  30.4504882  78.4053241  46.1898268  30.0207849  79.5653512
  38.1242073  34.5748537  66.8468159  37.4311318  34.6492892  66.1908195
  37.8793825  33.8108880  67.3689675  46.7955729  26.1344138  74.2507649
  47.0757483  25.4667327  74.8768076  47.5806336  26.3273234  73.7382313
  50.6664587  34.5561772  77.9979224  51.6182010  34.6559870  78.0191448
  50.4968038  33.7640041  78.5077309  48.6878967  31.6417355  78.1838625
  48.0928899  31.9222368  77.4885114  48.4028664  32.1311256  78.9555366
  53.1452665  37.7767892  77.1121524  53.1128985  36.8383892  77.2981208
  53.7553289  37.8551928  76.3787349  44.9835996  36.6463945  63.1548728
  45.9295101  36.5170153  63.2237146  44.6050241  35.9078607  63.6318156
  53.2947154  34.5678935  77.1579807  52.7786202  33.7837392  76.9709736
  54.1787102  34.2397652  77.3226327  50.9557881  28.3119951  73.1175620
  50.7582702  28.0035039  74.0018952  51.5657586  29.0381590  73.2473550
  58.9629215  38.8383899  76.2527561  59.6932604  38.5769187  76.8135264
  58.3536161  38.1012621  76.2929629  57.0444512  36.9791761  76.8502012
  56.3177676  36.8447726  76.2418504  56.6291799  37.2868590  77.6558730
  44.8674689  40.6981691  84.6149385  45.7877698  40.8760290  84.8089432
  44.8324272  39.7537736  84.4629084  43.1678913  34.5713921  63.0903613
  42.2610369  34.2747034  63.1666327  43.4454894  34.2743739  62.2237900
  34.0856854  35.8920285  73.5402660  33.7659638  35.0385593  73.2477034
  33.5390282  36.1068863  74.2960627  37.8636761  38.6082725  77.2572166
  38.0822771  39.5399833  77.2760200  38.2762535  38.2490700  78.0426970
  44.7840979  29.1150811  69.2447855  43.9741707  28.7697896  69.6203101
  45.4725396  28.8058355  69.8335466  46.7131527  28.1928858  70.8672151
  47.2662566  28.6124311  71.5262174  46.9501614  27.2664606  70.9095107
  42.7364627  34.1815931  86.6474915  42.6361353  35.1310288  86.5787006
  42.5186169  33.8534170  85.7750985  41.9377698  31.4300856  63.2315593
  42.7996862  31.7555755  63.4911410  42.1228042  30.6432352  62.7188658
  33.9545114  39.5123196  75.5095781  33.2608585  39.0977149  74.9965736
  34.7018105  39.5543733  74.9129200  50.0910334  30.3029383  70.3750816
  49.5109003  30.9614187  69.9928868  49.8246267  29.4806727  69.9638233
  48.5413901  29.7034440  72.5772136  49.0413679  29.8150975  71.7686455
  49.1849509  29.3995493  73.2172944  42.5995897  37.6113070  85.4639977
  42.1162978  38.4113430  85.6703866  42.6856836  37.6221015  84.5107421
  35.8681856  39.4441450  73.3861796  35.8452544  39.5429137  72.4343679
  36.1782493  40.2906601  73.7078962  38.5269234  41.5017605  77.5008411
  39.4812488  41.4701547  77.4338342  38.3281758  41.0408229  78.3158637
  39.1168616  40.0718721  80.0679208  39.9361505  40.5662800  80.0914046
  39.3905424  39.1550689  80.0396776  48.8735212  32.4629473  69.4307164
  47.9861067  32.7479124  69.2127359  49.2889201  32.3023237  68.5834441
  52.2249749  32.4875994  73.1461503  53.0010139  32.9772447  73.4186120
  51.4997883  32.9134048  73.6033373  54.6622307  33.2003613  74.2035444
  55.2566798  32.9599349  73.4928752  54.7348891  32.4810744  74.8308980
  36.8819463  47.0437224  74.5178609  36.7473931  46.2837625  73.9516607
  36.4651525  47.7678124  74.0507397  48.8476236  37.9784009  69.6457454
  48.7911438  38.4352561  68.8065086  49.4004579  37.2174694  69.4680297
  52.6581042  33.7673741  70.4707573  52.4017976  33.3670377  71.3015781
  52.0333910  34.4817535  70.3457713  56.9693380  36.5069814  72.9778865
  56.4092938  36.5763004  73.7510427  56.3636883  36.3310799  72.2578361
  34.3703530  34.4056855  80.7671405  35.0162394  33.8955809  81.2558631
  34.1620682  35.1425536  81.3414831  46.8956923  41.4737702  86.2663546
  47.7648082  41.6478354  85.9050181  46.4163674  42.2932119  86.1439275
  42.8907141  28.6696899  66.5195302  42.8785811  29.6138739  66.6763572
  43.7830563  28.4867045  66.2254763  46.7059260  25.2639676  70.7741238
  45.9391656  24.7098163  70.9197921  47.1169965  25.3361545  71.6355390
  38.7101021  31.5524472  84.8646420  39.5732483  31.1961277  85.0749744
  38.1366432  31.2138367  85.5521824  63.5099094  50.8453015  73.6495007
  64.2424266  50.2752232  73.8832837  62.7538450  50.4574616  74.0901513
  61.0324514  44.5574589  78.1089616  60.7007839  45.4270000  77.8850831
  60.4370128  44.2410873  78.7883646  57.5256034  56.7587135  77.5085528
  57.2256757  57.6612174  77.4001336  57.1807093  56.4919318  78.3606681
  60.9253178  49.2769675  75.1882966  60.0170055  49.2085084  74.8941727
  60.8740773  49.7541620  76.0164791  48.3377326  52.8534206  74.3766022
  48.4669708  53.1068685  75.2905434  47.6574778  53.4461914  74.0570677
  62.7914824  47.4786114  76.9660840  62.1489204  47.7718647  76.3200634
  62.2869753  47.3639034  77.7714036  58.7295755  55.6473915  81.2907992
  59.1379111  55.2056325  80.5462624  58.0073017  55.0726542  81.5442184
  59.0524570  56.2075106  75.0460280  58.4233432  56.3720820  74.3436348
  58.6650232  56.6216715  75.8171244  58.2326271  48.2450890  80.3222722
  57.9887203  48.9992951  79.7856998  58.5086201  48.6236238  81.1569969
  60.1864734  54.7889502  78.9999988  60.3981629  55.4321262  78.3234369
  60.1394482  53.9551819  78.5321918  57.7890962  47.4007323  75.9036560
  56.9275442  47.6988577  76.1953297  57.8153397  47.6177722  74.9717593
  61.3010561  57.6661458  77.1722345  62.1228005  57.2641645  76.8905027
  61.2972964  57.5629692  78.1238461  51.2682522  44.9605188  85.8576391
  50.8749468  44.4071387  86.5324035  52.0848663  45.2715767  86.2482909
  54.1850483  46.3763068  83.4496648  54.9260197  46.9770221  83.3701110
  54.4168406  45.6340705  82.8914690  58.5064897  59.7839975  81.3543779
  58.4883372  60.6048856  80.8624048  59.4284817  59.6594050  81.5793920
  58.1307646  42.4044170  77.7260929  57.7871916  43.2945812  77.6500040
  58.4986609  42.2145828  76.8630514  57.2104187  44.7748826  75.6910163
  56.7068982  44.7378961  74.8777968  57.5034793  45.6841568  75.7506819
  53.4547072  44.8587555  74.6976344  54.3200069  44.6630364  74.3382234
  53.5224581  44.6297907  75.6245701  61.3083510  54.6219117  74.8253146
  60.6507184  55.3118379  74.9133275  62.1123909  55.0115549  75.1687132
  59.9295312  41.6637730  72.8278667  60.2354189  40.8035093  72.5404582
  60.6547917  42.2555350  72.6277661  57.7382963  51.0410407  79.9260131
  58.0932351  51.2681880  80.7854597  58.3855094  51.3728784  79.3037386
  51.6322826  48.1486938  76.7106472  52.2722206  48.0075697  76.0129435
  50.8000357  47.8621451  76.3345074  63.4950080  56.2305370  75.6420731
  63.9286586  56.1380659  76.4903785  64.2081660  56.2062870  75.0040747
  57.2277975  59.8307464  77.1753832  57.2814997  60.3998400  77.9431548
  56.3592756  60.0009349  76.8107869  64.3565629  56.2729070  78.1753617
  64.5501519  57.1774881  78.4212892  64.2566247  55.8136490  79.0092202
  56.0101940  46.1586961  80.6743944  55.3629855  46.8576911  80.5808421
  56.7802955  46.5923105  81.0420192  59.4180738  56.4235813  83.7494497
  59.2666244  56.1946365  82.8324581  59.4085417  57.3806415  83.7625842
  61.1272945  59.4554936  81.8270979  61.0685491  58.7714156  81.1601562
  61.5292463  60.1973926  81.3751605  61.1290352  57.4194520  80.0584959
  60.2417131  57.0820442  80.1811358  61.6988903  56.6877551  80.2953724
  65.6107692  52.8302737  74.8201521  65.5997569  53.7127453  74.4495454
  64.7425072  52.4774288  74.6256058  60.1996930  44.0931965  75.3262588
  59.2860010  44.3236192  75.4944795  60.6290031  44.1770409  76.1776620
  59.9703388  52.2821857  77.8262482  59.3174839  52.5297764  77.1714935
  60.3483768  51.4685995  77.4924959  59.6124618  59.1569853  84.4034790
  60.1564522  59.7699811  83.9089744  59.0311463  59.7149431  84.9201803
  52.3216613  45.9693730  80.9867609  52.8451015  46.2156027  81.7493919
  52.1028946  46.8013765  80.5670747  53.5269158  46.9107425  78.6717280
  53.1865979  46.1115238  79.0737960  52.8208165  47.2109136  78.0994113
  54.1785630  43.9956738  77.1244603  55.0011699  43.5217216  77.0023493
  54.4223694  44.7747221  77.6243289  55.4146722  48.1115746  77.0270598
  55.1564500  49.0332817  77.0254929  54.8831763  47.7146181  77.7171063
  52.4498567  48.0724784  84.4594974  52.4986723  48.9486907  84.0772743
  52.9921081  47.5302177  83.8866617  62.9353413  58.6165907  83.7396111
  62.1448957  58.5990046  83.2000610  62.6986767  59.1554201  84.4945147
  63.0551288  55.4658373  81.0528839  63.1049293  55.3008381  81.9944362
  62.9465211  54.5985633  80.6626720  60.3455050  51.4489302  82.3688146
  61.2464913  51.3095766  82.0772144  60.4203025  51.6143756  83.3086323
  54.6797856  48.8256156  81.2141332  53.8101165  49.1189722  80.9423921
  54.9157336  49.4096601  81.9348596  64.5569485  57.8855315  81.2970861
  64.2654293  58.2485296  82.1334322  63.9441616  57.1722323  81.1184193
  65.7565167  55.4508195  73.8173431  66.5912058  55.8897999  73.9810991
  65.8924296  54.9746848  72.9981677  62.8056673  53.0087930  79.7650919
  63.2810795  53.2015576  78.9569770  61.8822238  53.0647115  79.5194302
  57.3836889  45.0435773  78.7306753  57.9018833  45.7796800  78.4053241
  57.0292022  45.3499766  79.5653512  57.6349484  41.4636056  74.2507649
  57.9151237  40.7959245  74.8768076  58.4200091  41.6565151  73.7382313
  61.5058342  49.8853690  77.9979224  62.4575765  49.9851787  78.0191448
  61.3361792  49.0931958  78.5077309  59.5272721  46.9709273  78.1838625
  58.9322654  47.2514286  77.4885114  59.2422418  47.4603174  78.9555366
  63.9846420  53.1059809  77.1121524  63.9522740  52.1675810  77.2981208
  64.5947043  53.1843846  76.3787349  64.1340908  49.8970853  77.1579807
  63.6179957  49.1129309  76.9709736  65.0180857  49.5689569  77.3226327
  61.7951635  43.6411868  73.1175620  61.5976456  43.3326957  74.0018952
  62.4051341  44.3673507  73.2473550  69.8022970  54.1675816  76.2527561
  70.5326358  53.9061104  76.8135264  69.1929915  53.4304538  76.2929629
  67.8838267  52.3083679  76.8502012  67.1571430  52.1739644  76.2418504
  67.4685554  52.6160507  77.6558730  53.5758381  49.5107849  86.6474915
  53.4755108  50.4602206  86.5787006  53.3579923  49.1826088  85.7750985
  60.9304089  45.6321300  70.3750816  60.3502758  46.2906104  69.9928868
  60.6640022  44.8098645  69.9638233  63.0643503  47.8167912  73.1461503
  63.8403893  48.3064364  73.4186120  62.3391637  48.2425966  73.6033373
  65.5016062  48.5295531  74.2035444  66.0960552  48.2891267  73.4928752
  65.5742645  47.8102662  74.8308980  67.8087134  51.8361732  72.9778865
  67.2486692  51.9054921  73.7510427  67.2030638  51.6602716  72.2578361
  57.7350677  56.8029620  86.2663546  58.6041837  56.9770272  85.9050181
  57.2557429  57.6224037  86.1439275  57.5453015  40.5931594  70.7741238
  56.7785411  40.0390080  70.9197921  57.9563720  40.6653462  71.6355390
  49.5494776  46.8816389  84.8646420  50.4126237  46.5253194  85.0749744
  48.9760187  46.5430284  85.5521824  62.1076277  60.2897106  85.8576391
  61.7143222  59.7363305  86.5324035  62.9242417  60.6007685  86.2482909
  65.0244238  61.7054985  83.4496648  65.7653951  62.3062138  83.3701110
  65.2562161  60.9632623  82.8914690  60.1685576  66.8911352  81.7274877
  60.0539091  65.9896610  82.0281976  59.3130093  67.1375049  81.3759694
  66.8495694  61.4878879  80.6743944  66.2023610  62.1868828  80.5808421
  67.6196710  61.9215023  81.0420192  62.6908854  64.8344718  80.7260040
  62.1546211  64.3835456  81.3781636  62.1025563  64.9690627  79.9830504
  60.5771992  62.0075663  79.1508020  60.6413318  62.8690494  78.7385417
  60.5139112  61.3949665  78.4180378  63.1610368  61.2985648  80.9867609
  63.6844770  61.5447944  81.7493919  62.9422701  62.1305683  80.5670747
  65.0179385  59.3248655  77.1244603  65.8405454  58.8509133  77.0023493
  65.2617448  60.1039139  77.6243289  63.2892322  63.4016702  84.4594974
  63.3380477  64.2778824  84.0772743  63.8314836  62.8594095  83.8866617
  73.7747167  73.9457825  83.7396111  72.9842711  73.9281964  83.2000610
  73.5380522  74.4846118  84.4945147  73.8945042  70.7950291  81.0528839
  73.9443047  70.6300299  81.9944362  73.7858966  69.9277550  80.6626720
  75.3963239  73.2147233  81.2970861  75.1048048  73.5777213  82.1334322
  74.7835371  72.5014241  81.1184193  64.4152136  64.8399767  86.6474915
  64.3148862  65.7894124  86.5787006  64.1973678  64.5118006  85.7750985
  60.3888530  62.2108307  84.8646420  61.2519992  61.8545112  85.0749744
  59.8153941  61.8722202  85.5521824  80.2336907  83.8410163  75.6708821
  80.8715317  83.7216911  74.9672161  80.1157750  84.7891007  75.7296773
  77.0426614  83.7937592  75.6070345  76.7045125  83.6778656  74.7190880
  77.9116382  83.3928757  75.5871351  77.5246397  84.9472443  81.5656551
  77.5135037  84.5525242  80.6937054  77.6867036  84.2138516  82.1590322
  78.4812988  89.3144036  66.9081701  77.8300968  89.8998116  66.5215715
  79.2757351  89.8450231  66.9676739  74.2453658  87.7309555  80.5135735
  73.9543524  88.6355186  80.3982401  74.8810642  87.7726083  81.2279804
  75.1709865  85.1086404  77.1037094  75.7673437  84.8842426  76.3894057
  75.2284836  84.3671149  77.7062542  79.7878176  81.5661617  72.7462029
  80.5741265  81.1481041  72.3952446  80.0516880  82.4707710  72.9143677
  79.9588253  87.0034468  67.4450685  79.3234086  87.0769094  68.1571590
  79.6285660  87.5928066  66.7669765  85.1886603  81.5036851  73.6495007
  85.9211775  80.9336067  73.8832837  84.4325959  81.1158451  74.0901513
  82.7112023  75.2158425  78.1089616  82.3795348  76.0853836  77.8850831
  82.1157637  74.8994709  78.7883646  79.2043543  87.4170971  77.5085528
  78.9044266  88.3196009  77.4001336  78.8594602  87.1503154  78.3606681
  82.6040687  79.9353511  75.1882966  81.6957564  79.8668919  74.8941727
  82.5528282  80.4125456  76.0164791  74.1864323  94.1815291  70.4756496
  74.1088352  95.1323116  70.5544977  73.5825966  93.8361163  71.1331422
  76.6781552  81.3543156  83.1317863  75.9014886  81.9137077  83.1220728
  77.3172115  81.8399939  83.6532733  84.4702333  78.1369949  76.9660840
  83.8276713  78.4302482  76.3200634  83.9657262  78.0222870  77.7714036
  82.1242497  81.8833122  67.6546699  83.0360353  82.1160509  67.4794397
  81.6152144  82.4670167  67.0921778  74.9327925  84.1628610  82.6935830
  75.6742609  84.7013654  82.4170654  74.2264910  84.7894899  82.8507382
  80.4083264  86.3057750  81.2907992  80.8166620  85.8640161  80.5462624
  79.6860526  85.7310378  81.5442184  76.7614334  81.2430357  78.6641549
  77.6075530  81.6669771  78.8076198  76.7012972  80.5863981  79.3580112
  80.7312079  86.8658941  75.0460280  80.1020941  87.0304655  74.3436348
  80.3437741  87.2800550  75.8171244  84.6101311  87.8013379  72.4004644
  83.9252349  88.1812280  71.8501678  84.6945160  88.4108705  73.1336592
  79.9113780  78.9034725  80.3222722  79.6674712  79.6576786  79.7856998
  80.1873710  79.2820073  81.1569969  81.8652243  85.4473338  78.9999988
  82.0769138  86.0905098  78.3234369  81.8181991  84.6135654  78.5321918
  73.6689288  81.3168258  83.4951140  73.0387949  81.9984539  83.7286537
  73.5625376  81.2051340  82.5504278  82.9798070  88.3245293  77.1722345
  83.8015514  87.9225480  76.8905027  82.9760473  88.2213527  78.1238461
  76.7454674  87.8729336  79.3283056  76.8099106  88.3349744  80.1641227
  76.0365598  87.2426701  79.4565365  91.0704064  84.6684042  73.5207317
  90.3167772  84.0991440  73.3651321  91.2051605  84.6346706  74.4677951
  76.4602692  89.5397444  69.1962036  76.3248366  90.3848980  69.6246884
  77.0012504  89.7416722  68.4327970  72.9470031  75.6189024  85.8576391
  72.5536977  75.0655222  86.5324035  73.7636172  75.9299602  86.2482909
  75.8637992  77.0346903  83.4496648  76.6047706  77.6354056  83.3701110
  76.0955915  76.2924541  82.8914690  78.0871168  90.1621010  83.3262378
  77.6435022  89.3757389  83.0083282  78.7488382  90.3500161  82.6606269
  72.8458289  91.6916812  77.8523056  73.3965714  91.5633875  77.0800050
  72.0069765  91.9911701  77.5017949  80.1852406  90.4423810  81.3543779
  80.1670881  91.2632691  80.8624048  81.1072326  90.3177886  81.5793920
  76.6425460  87.9567940  82.1967288  77.1753797  87.1956228  81.9666596
  76.1139541  87.6641592  82.9391442  79.7745438  83.0536617  66.2333364
  79.2592061  83.8241222  66.4721752  79.5022746  82.3801753  66.8566426
  77.3592549  77.8986318  71.2918603  76.5034145  77.5093168  71.1124242
  77.7719501  77.9778279  70.4318388  84.7479712  85.8068972  68.1686538
  83.9709155  85.4680131  67.7241700  85.4271193  85.8121595  67.4941503
  79.5631741  80.9263709  68.0593146  79.2581877  81.2409858  68.9103289
  80.5162183  81.0045129  68.1020479  82.9871019  85.2802953  74.8253146
  82.3294693  85.9702214  74.9133275  83.7911418  85.6699385  75.1687132
  81.7976478  83.6347326  72.8757088  82.3108359  84.2677317  73.3778797
  82.4477702  83.0348521  72.5100448  79.0598852  93.6131650  65.6317759
  78.3860551  93.9163347  66.2402717  79.4464674  94.4160730  65.2823216
  78.2757309  81.1096781  75.1215428  77.3579870  81.3311728  74.9637116
  78.6917452  81.1843092  74.2627136  79.0592356  82.5088197  70.2518108
  79.8064175  83.0209594  69.9425231  79.3283946  82.1872249  71.1122502
  82.5638274  88.6153327  71.0036230  82.1100601  87.7744237  71.0601421
  81.9332241  89.2514725  71.3411010  81.5071193  79.5445313  72.2336898
  80.7693950  79.0322699  72.5647140  81.7597967  79.1045695  71.4220175
  81.0071213  90.4529824  71.9386048  81.2994188  91.0134881  71.2198414
  81.5169834  90.7458385  72.6939208  77.0295094  86.5455481  64.5733141
  76.5914524  85.8291340  64.1138779  77.7705535  86.7731596  64.0118233
  75.9704838  91.2310175  73.0279502  75.9281017  91.4571021  72.0988034
  76.8867537  90.9973549  73.1765303  79.4170472  81.6994242  79.9260131
  79.7719860  81.9265715  80.7854597  80.0642603  82.0312619  79.3037386
  85.1468209  84.8212678  70.6309460  85.0086108  85.0114274  69.7030649
  84.7904428  85.5832061  71.0877511  85.1737589  86.8889205  75.6420731
  85.6074095  86.7964494  76.4903785  85.8869169  86.8646706  75.0040747
  78.9065484  90.4891299  77.1753832  78.9602506  91.0582236  77.9431548
  78.0380265  90.6593184  76.8107869  86.0353138  86.9312906  78.1753617
  86.2289028  87.8358716  78.4212892  85.9353756  86.4720325  79.0092202
  77.6889449  76.8170796  80.6743944  77.0417364  77.5160746  80.5808421
  78.4590464  77.2506940  81.0420192  81.0968247  87.0819649  83.7494497
  80.9453753  86.8530200  82.8324581  81.0872926  88.0390250  83.7625842
  77.8653583  84.6551561  78.7340764  78.7945643  84.8062721  78.5609731
  77.4444613  84.7435582  77.8789410  76.6641915  88.6802226  76.5039301
  76.5253001  88.3121010  77.3765240  75.8756511  89.1949865  76.3323259
  77.2590067  93.7811322  67.8464838  77.4341823  93.3099365  68.6610461
  76.5722855  94.4077088  68.0746099  78.2147130  88.0583828  73.8928139
  77.8796963  88.0184598  74.7885789  77.7151076  87.3928544  73.4198550
  81.1506322  85.4039863  64.1665199  80.5335493  84.6786691  64.0698252
  80.6822810  86.1649223  63.8232273  74.8173675  83.1771418  78.9064400
  75.5273293  82.5364610  78.8651019  74.7742983  83.4284313  79.8290581
  82.8060454  90.1138771  81.8270979  82.7473000  89.4297991  81.1601562
  83.2079972  90.8557761  81.3751605  71.8251152  96.9300685  74.6204698
  72.0647751  97.5619209  75.2983717  70.9820349  96.5788725  74.9070057
  82.8077861  88.0778355  80.0584959  81.9204640  87.7404277  80.1811358
  83.3776412  87.3461386  80.2953724  76.3379014  92.7379807  77.0246202
  76.2649186  93.5434779  77.5365507  75.8956407  92.9371773  76.1994224
  76.1268794  91.9751577  70.5349024  75.3436316  92.5173258  70.6287248
  76.8261539  92.4925557  70.9343265  87.2895201  83.4886572  74.8201521
  87.2785078  84.3711288  74.4495454  86.4212581  83.1358123  74.6256058
  78.7977698  92.6366641  79.1804361  79.5105670  93.2714106  79.1080262
  78.3067726  92.7330507  78.3644363  80.5195225  86.5417894  70.7521652
  79.5851503  86.6619357  70.5826357  80.6971893  85.6390361  70.4881662
  83.9067776  82.3835213  71.2871687  84.3728228  83.2163205  71.2131989
  84.3575277  81.9180195  71.9916945  73.8489611  90.3861085  80.0009932
  74.5499071  91.0197568  80.1539326  73.3784726  90.7275816  79.2405571
  81.9744007  88.7279035  68.2857839  82.2503851  88.6135629  69.1951713
  81.1048506  88.3296520  68.2470012  81.6490897  82.9405692  77.8262482
  80.9962347  83.1881600  77.1714935  82.0271277  82.1269831  77.4924959
  78.6098071  92.9765386  71.9290652  78.7920466  92.1587041  72.3918405
  79.4331057  93.1933078  71.4915542  78.9440237  91.9033571  69.1905701
  79.4728003  91.3926025  68.5775863  79.2068456  91.5876101  70.0551234
  77.6978470  83.6825503  84.3128519  77.0219107  83.5819633  84.9830894
  78.5206104  83.5264717  84.7764516  72.2995985  92.9548687  71.9503477
  71.6306360  93.4394815  71.4667517  72.1608854  93.2017908  72.8646855
  76.4401253  94.9892431  78.5486135  76.9919561  95.1524052  79.3135220
  76.7807447  95.5796869  77.8766160  81.2912127  89.8153688  84.4034790
  81.8352031  90.4283647  83.9089744  80.7098972  90.3733267  84.9201803
  79.5769640  92.9374406  75.5349817  79.4520780  92.1364146  75.0260763
  80.2348732  93.4320600  75.0463787  81.6404549  90.7383426  77.1629367
  80.6934884  90.6188778  77.0907694  81.9887322  89.8505925  77.2455629
  74.0004122  76.6277565  80.9867609  74.5238524  76.8739862  81.7493919
  73.7816455  77.4597600  80.5670747  78.6450982  90.5336143  73.3633720
  78.4975945  89.6052850  73.5441290  79.4704476  90.5556233  72.8790795
  82.2485104  91.3564701  74.4498592  83.1731651  91.1507563  74.3123043
  82.0800407  91.1081103  75.3587934  75.2056667  77.5691261  78.6717280
  74.8653488  76.7699074  79.0737960  74.4995673  77.8692971  78.0994113
  78.6412496  78.3873980  68.3565837  78.8576111  79.2698618  68.0554665
  78.1606564  77.9960194  67.6271479  75.2408101  78.3362242  74.9817471
  75.2269669  77.4403335  74.6449769  75.9580529  78.3432905  75.6155757
  77.0934231  78.7699582  77.0270598  76.8352009  79.6916652  77.0254929
  76.5619272  78.3730016  77.7171063  82.0380420  91.8750369  69.8060684
  82.2117298  91.3096791  69.0534536  82.5309311  92.6751264  69.6240174
  87.8919811  84.6386792  71.4250984  88.3350957  83.8894117  71.0270107
  87.0146322  84.6296928  71.0424715  83.0255593  91.1917133  66.9057582
  83.7206497  91.8123826  67.1244897  83.3678743  90.3412485  67.1809960
  84.9247016  88.6416839  68.4344913  85.4498340  88.9804112  67.7094233
  84.8369368  87.7063854  68.2508047  76.5867064  92.5550912  80.5634789
  76.8954191  92.3100059  81.4357489  77.3842546  92.7597551  80.0753660
  76.6087677  94.7088822  72.7940166  76.1692667  94.2165201  73.4873023
  77.3595793  94.1661790  72.5532241  74.0561549  90.2526831  74.8662468
  73.4341558  89.5897536  74.5664696  74.7266416  90.2787963  74.1836115
  74.1286076  78.7308619  84.4594974  74.1774232  79.6070742  84.0772743
  74.6708590  78.1886012  83.8866617  84.6140922  89.2749742  83.7396111
  83.8236466  89.2573881  83.2000610  84.3774276  89.8138036  84.4945147
  84.7338797  86.1242209  81.0528839  84.7836802  85.9592216  81.9944362
  84.6252720  85.2569468  80.6626720  82.0242559  82.1073137  82.3688146
  82.9252422  81.9679602  82.0772144  82.0990534  82.2727592  83.3086323
  76.3585365  79.4839992  81.2141332  75.4888674  79.7773558  80.9423921
  76.5944845  80.0680437  81.9348596  86.2356994  88.5439150  81.2970861
  85.9441802  88.9069131  82.1334322  85.6229125  87.8306159  81.1184193
  87.4352676  86.1092030  73.8173431  88.2699567  86.5481834  73.9810991
  87.5711805  85.6330683  72.9981677  84.4844182  83.6671765  79.7650919
  84.9598304  83.8599411  78.9569770  83.5609747  83.7230951  79.5194302
  79.0624398  75.7019609  78.7306753  79.5806342  76.4380635  78.4053241
  78.7079531  76.0083602  79.5653512  77.1170461  91.2978885  65.8132676
  76.5444428  91.9169072  65.3603147  77.6903255  91.8478247  66.3472598
  83.1845851  80.5437525  77.9979224  84.1363274  80.6435623  78.0191448
  83.0149301  79.7515794  78.5077309  81.2060230  77.6293108  78.1838625
  80.6110163  77.9098121  77.4885114  80.9209927  78.1187009  78.9555366
  80.3367721  91.5816035  66.9441258  81.2698394  91.5161597  67.1474133
  80.2490934  92.4172302  66.4855791  82.9655738  90.8981905  63.9045205
  82.8869369  90.5641769  64.7980963  83.7865404  91.3903673  63.9036678
  85.6633929  83.7643645  77.1121524  85.6310249  82.8259645  77.2981208
  86.2734552  83.8427681  76.3787349  85.8128417  80.5554688  77.1579807
  85.2967466  79.7713145  76.9709736  86.6968366  80.2273405  77.3226327
  83.4739144  74.2995704  73.1175620  83.2763965  73.9910792  74.0018952
  84.0838850  75.0257343  73.2473550  91.4810479  84.8259652  76.2527561
  92.2113867  84.5644940  76.8135264  90.8717424  84.0888374  76.2929629
  89.5625776  82.9667514  76.8502012  88.8358939  82.8323479  76.2418504
  89.1473063  83.2744343  77.6558730  77.3855952  86.6857444  84.6149385
  78.3058962  86.8636043  84.8089432  77.3505535  85.7413489  84.4629084
  77.3022242  75.1026564  69.2447855  76.4922971  74.7573649  69.6203101
  77.9906659  74.7934108  69.8335466  75.2545890  80.1691684  86.6474915
  75.1542617  81.1186041  86.5787006  75.0367432  79.8409923  85.7750985
  82.6091598  76.2905136  70.3750816  82.0290267  76.9489940  69.9928868
  82.3427531  75.4682480  69.9638233  75.1177160  83.5988823  85.4639977
  74.6344242  84.3989183  85.6703866  75.2038099  83.6096768  84.5107421
  81.3916476  78.4505226  69.4307164  80.5042331  78.7354877  69.2127359
  81.8070465  78.2898990  68.5834441  84.7431012  78.4751747  73.1461503
  85.5191402  78.9648200  73.4186120  84.0179146  78.9009801  73.6033373
  87.1803571  79.1879366  74.2035444  87.7748061  78.9475102  73.4928752
  87.2530154  78.4686497  74.8308980  69.4000726  93.0312977  74.5178609
  69.2655194  92.2713378  73.9516607  68.9832789  93.7553877  74.0507397
  80.5359689  88.2149901  63.5255184  81.2395539  88.4199903  64.1412839
  79.8122338  88.7826663  63.7904267  81.3657500  83.9659762  69.6457454
  81.3092701  84.4228314  68.8065086  81.9185842  83.2050447  69.4680297
  85.1762306  79.7549494  70.4707573  84.9199240  79.3546130  71.3015781
  84.5515174  80.4693288  70.3457713  89.4874643  82.4945567  72.9778865
  88.9274201  82.5638757  73.7510427  88.8818147  82.3186552  72.2578361
  72.5569852  93.9282294  74.7297051  72.4402236  94.8727727  74.6275741
  71.7362298  93.6255856  75.1182850  82.4446387  88.6532430  65.5753644
  83.2791991  88.2213629  65.3931119  82.2830730  88.4814444  66.5030538
  82.0992279  85.1564543  66.9409983  82.0441083  84.9908815  65.9998427
  81.4738334  85.8640576  67.0972173  79.4138186  87.4613455  86.2663546
  80.2829346  87.6354108  85.9050181  78.9344938  88.2807872  86.1439275
  73.5824366  94.5810556  77.9452980  74.4851613  94.6134166  78.2619475
  73.3561736  93.6511007  77.9599315  75.3377968  93.3341543  74.6063058
  74.3873599  93.3343404  74.4927430  75.6410454  92.5874277  74.0899093
  91.0730662  99.1702081  75.6708821  91.7109072  99.0508829  74.9672161
  90.9551505 100.1182925  75.7296773  87.8820368  99.1229509  75.6070345
  87.5438880  99.0070574  74.7190880  88.7510136  98.7220674  75.5871351
  83.7407184 100.9764986  71.5967236  83.1772049 100.8854923  70.8283524
  83.6259579 100.1564890  72.0769729  88.3640151 100.2764361  81.5656551
  88.3528792  99.8817159  80.6937054  88.5260791  99.5430434  82.1590322
  81.2871616 102.4716177  74.4351457  82.0792908 102.1307002  74.0197756
  81.5268266 102.5811152  75.3553610  89.3206743 104.6435953  66.9081701
  88.6694722 105.2290034  66.5215715  90.1151105 105.1742148  66.9676739
  83.2462370 101.7325091  67.3068835  84.0193246 101.1854078  67.1681711
  83.5987769 102.5969340  67.5183297  85.0847412 103.0601473  80.5135735
  84.7937278 103.9647104  80.3982401  85.7204397 103.1018000  81.2279804
  86.0103619 100.4378321  77.1037094  86.6067191 100.2134344  76.3894057
  86.0678591  99.6963067  77.7062542  85.5828648  97.8917757  64.9387285
  85.8354168  97.3699278  64.1770748  84.6453207  97.7283902  65.0413969
  90.6271930  96.8953535  72.7462029  91.4135020  96.4772958  72.3952446
  90.8910635  97.7999627  72.9143677  90.7982008 102.3326385  67.4450685
  90.1627841 102.4061012  68.1571590  90.4679414 102.9219984  66.7669765
  96.0280357  96.8328768  73.6495007  96.7605529  96.2627985  73.8832837
  95.2719713  96.4450369  74.0901513  85.3024936  99.7945863  67.1411660
  85.1861194  99.1190766  67.8092745  85.4127196  99.3078237  66.3243813
  87.6456477  99.2556010  70.8458350  87.2814684  98.7286631  71.5571271
  88.5023593  98.8654479  70.6724835  93.5505778  90.5450342  78.1089616
  93.2189103  91.4145753  77.8850831  92.9551391  90.2286626  78.7883646
  87.2861964  94.2845909  65.8419698  87.4536367  95.1526146  66.2090169
  87.0959133  94.4473191  64.9180987  90.0437297 102.7462888  77.5085528
  89.7438020 103.6487927  77.4001336  89.6988357 102.4795072  78.3606681
  83.4949779  99.1976685  73.5422233  82.5700275  99.0652899  73.7499925
  83.7434192  99.9770904  74.0392175  93.4434441  95.2645429  75.1882966
  92.5351318  95.1960837  74.8941727  93.3922037  95.7417373  76.0164791
  87.2651185  96.7403567  66.8266365  87.1450810  97.1860618  67.6651845
  86.5703773  97.0888885  66.2679903  80.8558590  98.8409959  74.3766022
  80.9850971  99.0944438  75.2905434  80.1756041  99.4337667  74.0570677
  85.0258077 109.5107209  70.4756496  84.9482107 110.4615034  70.5544977
  84.4219721 109.1653081  71.1331422  87.5175307  96.6835074  83.1317863
  86.7408641  97.2428994  83.1220728  88.1565870  97.1691857  83.6532733
  95.3096088  93.4661867  76.9660840  94.6670468  93.7594400  76.3200634
  94.8051016  93.3514787  77.7714036  92.9636251  97.2125040  67.6546699
  93.8754107  97.4452427  67.4794397  92.4545898  97.7962084  67.0921778
  85.7721679  99.4920527  82.6935830  86.5136364 100.0305571  82.4170654
  85.0658665 100.1186816  82.8507382  91.2477019 101.6349668  81.2907992
  91.6560375 101.1932078  80.5462624  90.5254280 101.0602295  81.5442184
  87.6008089  96.5722275  78.6641549  88.4469284  96.9961688  78.8076198
  87.5406727  95.9155899  79.3580112  91.5705834 102.1950859  75.0460280
  90.9414696 102.3596573  74.3436348  91.1831496 102.6092468  75.8171244
  95.4495065 103.1305296  72.4004644  94.7646104 103.5104198  71.8501678
  95.5338915 103.7400623  73.1336592  90.7507534  94.2326643  80.3222722
  90.5068466  94.9868704  79.7856998  91.0267465  94.6111991  81.1569969
  92.7045997 100.7765255  78.9999988  92.9162892 101.4197015  78.3234369
  92.6575745  99.9427572  78.5321918  90.3072226  93.3883076  75.9036560
  89.4456705  93.6864330  76.1953297  90.3334661  93.6053475  74.9717593
  87.1233795 101.9325267  72.3110366  87.5872141 102.2112970  71.5214988
  86.8590593 101.0308711  72.1283456  84.0157876 101.4796748  75.2490129
  84.5859234 101.9084017  74.6107613  84.6065988 101.1979333  75.9474314
  86.0602681  98.0548419  69.1199931  86.7626725  98.5069463  69.5873857
  85.7283310  97.4132238  69.7479824  84.5083043  96.6460176  83.4951140
  83.8781704  97.3276456  83.7286537  84.4019131  96.5343257  82.5504278
  79.8028015  96.3131972  74.4217064  79.0127069  96.5689500  73.9457175
  80.2939263  97.1280310  74.5269105  93.8191825 103.6537211  77.1722345
  94.6409269 103.2517398  76.8905027  93.8154228 103.5505445  78.1238461
  81.7542761  96.6776551  71.3800541  80.9573924  96.7895245  71.8984037
  81.5268353  97.0163203  70.5141431  87.5848428 103.2021254  79.3283056
  87.6492861 103.6641661  80.1641227  86.8759352 102.5718619  79.4565365
  78.0865718  96.5662462  76.8532055  78.3373757  97.4509472  77.1189631
  78.6225267  96.3867064  76.0807147 101.9097818  99.9975959  73.5207317
 101.1561526  99.4283357  73.3651321 102.0445359  99.9638624  74.4677951
  87.2996446 104.8689362  69.1962036  87.1642121 105.7140897  69.6246884
  87.8406259 105.0708639  68.4327970  83.7863786  90.9480941  85.8576391
  83.3930731  90.3947140  86.5324035  84.6029926  91.2591520  86.2482909
  80.7525843 102.3864800  69.7689961  81.2650364 103.1808050  69.9195526
  81.4048556 101.6891090  69.7023562  82.5620728 105.5030556  71.8512714
  82.7387356 106.4248521  71.6633698  83.3577562 105.1888975  72.2807094
  86.7031747  92.3638821  83.4496648  87.4441460  92.9645974  83.3701110
  86.9349670  91.6216458  82.8914690  81.8473085  97.5495188  81.7274877
  81.7326600  96.6480445  82.0281976  80.9917602  97.7958885  81.3759694
  88.9264922 105.4912928  83.3262378  88.4828777 104.7049307  83.0083282
  89.5882136 105.6792079  82.6606269  83.6852044 107.0208730  77.8523056
  84.2359469 106.8925793  77.0800050  82.8463520 107.3203619  77.5017949
  91.0246160 105.7715728  81.3543779  91.0064636 106.5924609  80.8624048
  91.9466081 105.6469803  81.5793920  87.4819215 103.2859858  82.1967288
  88.0147551 102.5248146  81.9666596  86.9533296 102.9933509  82.9391442
  90.6488910  88.3919923  77.7260929  90.3053179  89.2821565  77.6500040
  91.0167872  88.2021581  76.8630514  78.7174760 100.7153454  70.5449532
  79.5549982 101.1250462  70.3283239  78.8953028  99.7752896  70.5149725
  90.6139192  98.3828535  66.2333364  90.0985816  99.1533139  66.4721752
  90.3416501  97.7093671  66.8566426  88.1986303  93.2278235  71.2918603
  87.3427900  92.8385086  71.1124242  88.6113255  93.3070196  70.4318388
  89.7285450  90.7624579  75.6910163  89.2250246  90.7254714  74.8777968
  90.0216057  91.6717321  75.7506819  85.9728336  90.8463308  74.6976344
  86.8381333  90.6506117  74.3382234  86.0405845  90.6173660  75.6245701
  95.5873466 101.1360889  68.1686538  94.8102909 100.7972049  67.7241700
  96.2664947 101.1413512  67.4941503  90.4025496  96.2555627  68.0593146
  90.0975631  96.5701776  68.9103289  91.3555938  96.3337047  68.1020479
  88.8471927 102.4145850  69.7086100  88.3193289 101.6798610  69.3959337
  88.3459430 103.1920526  69.4626068  93.8264773 100.6094871  74.8253146
  93.1688448 101.2994132  74.9133275  94.6305173 100.9991302  75.1687132
  83.5790655  93.0765516  72.0692711  84.1534407  92.8540698  71.3365904
  84.1661637  93.1454211  72.8221312  92.6370232  98.9639243  72.8757088
  93.1502114  99.5969235  73.3778797  93.2871456  98.3640439  72.5100448
  83.9060242  95.1069977  66.0888596  83.0697554  95.4444664  66.4097871
  83.7665012  94.9718957  65.1515733  85.8813323  89.9506765  70.7967781
  85.2277735  89.6355782  70.1724395  85.8393797  89.3282506  71.5227604
  86.9924528 100.2326060  62.7121073  86.0851589 100.0015314  62.9112222
  87.4895560  99.4363680  62.8995054  89.8992606 108.9423567  65.6317759
  89.2254305 109.2455264  66.2402717  90.2858428 109.7452648  65.2823216
  89.1151063  96.4388699  75.1215428  88.1973624  96.6603646  74.9637116
  89.5311207  96.5135009  74.2627136  89.8986111  97.8380114  70.2518108
  90.6457930  98.3501512  69.9425231  90.1677700  97.5164167  71.1122502
  88.1712761 100.3338655  67.2345063  87.2623980 100.0497688  67.3317533
  88.2007845 100.7537734  66.3748370  93.4032028 103.9445245  71.0036230
  92.9494355 103.1036155  71.0601421  92.7725995 104.5806643  71.3411010
  92.3464948  94.8737231  72.2336898  91.6087705  94.3614617  72.5647140
  92.5991721  94.4337612  71.4220175  91.8464968 105.7821741  71.9386048
  92.1387942 106.3426798  71.2198414  92.3563588 106.0750302  72.6939208
  92.4476575  87.6513483  72.8278667  92.7535452  86.7910846  72.5404582
  93.1729180  88.2431103  72.6277661  78.7400931  98.0544169  71.2160265
  78.5425331  97.4613530  70.4911332  78.1847595  97.7496379  71.9336204
  86.7197655  97.9467276  73.3354858  86.7746265  96.9941112  73.2597335
  85.9088857  98.1026715  73.8196157  87.8688849 101.8747399  64.5733141
  87.4308279 101.1583258  64.1138779  88.6099290 102.1023514  64.0118233
  84.6590015  96.5644335  71.0945237  83.8457880  96.8638506  71.5010429
  85.1549009  96.1700024  71.8119719  86.8098593 106.5602092  73.0279502
  86.7674772 106.7862939  72.0988034  87.7261292 106.3265467  73.1765303
  90.2564227  97.0286160  79.9260131  90.6113614  97.2557633  80.7854597
  90.9036358  97.3604537  79.3037386  95.9861964 100.1504596  70.6309460
  95.8479862 100.3406192  69.7030649  95.6298182 100.9123979  71.0877511
  84.1504090  94.1362691  76.7106472  84.7903469  93.9951450  76.0129435
  83.3181620  93.8497204  76.3345074  96.0131343 102.2181123  75.6420731
  96.4467850 102.1256412  76.4903785  96.7262924 102.1938623  75.0040747
  84.9264394 103.4365121  72.8241464  85.7204992 102.9415442  72.6224039
  84.2156086 102.9082985  72.4609170  89.7459238 105.8183217  77.1753832
  89.7996260 106.3874153  77.9431548  88.8774019 105.9885102  76.8107869
  81.2347157  97.5808203  68.9001217  80.3044745  97.5192659  69.1171179
  81.3304629  97.0584156  68.1037858  81.1532706  94.1063016  71.4879459
  81.4139523  95.0208349  71.3788619  81.9749878  93.6387459  71.6376072
  82.6257631  95.5200773  78.6578283  83.2980685  95.3118135  78.0090932
  81.7987418  95.3222859  78.2183516  96.8746893 102.2604824  78.1753617
  97.0682783 103.1650634  78.4212892  96.7747511 101.8012243  79.0092202
  88.5283203  92.1462714  80.6743944  87.8811119  92.8452664  80.5808421
  89.2984219  92.5798858  81.0420192  91.9362001 102.4111566  83.7494497
  91.7847508 102.1822118  82.8324581  91.9266681 103.3682168  83.7625842
  88.7047338  99.9843479  78.7340764  89.6339398 100.1354639  78.5609731
  88.2838368 100.0727500  77.8789410  87.5035670 104.0094143  76.5039301
  87.3646755 103.6412928  77.3765240  86.7150266 104.5241783  76.3323259
  88.0983822 109.1103240  67.8464838  88.2735577 108.6391283  68.6610461
  87.4116610 109.7369006  68.0746099  89.0540885 103.3875746  73.8928139
  88.7190717 103.3476516  74.7885789  88.5544830 102.7220462  73.4198550
  83.0285129  98.7943376  79.4180720  82.8904927  98.0623615  80.0192259
  83.9390052  98.7052276  79.1364908  91.9900076 100.7331780  64.1665199
  91.3729247 100.0078609  64.0698252  91.5216565 101.4941141  63.8232273
  85.6567429  98.5063335  78.9064400  86.3667048  97.8656528  78.8651019
  85.6136738  98.7576230  79.8290581  93.6454208 105.4430689  81.8270979
  93.5866754 104.7589909  81.1601562  94.0473726 106.1849679  81.3751605
  84.3696363  95.4928553  80.7260040  83.8333720  95.0419292  81.3781636
  83.7813072  95.6274462  79.9830504  82.6644907 112.2592603  74.6204698
  82.9041505 112.8911127  75.2983717  81.8214103 111.9080643  74.9070057
  83.7798622  94.9517205  63.2886503  82.9028089  94.8306006  62.9248750
  84.2556375  94.1603283  63.0365392  93.6471615 103.4070273  80.0584959
  92.7598394 103.0696195  80.1811358  94.2170166 102.6753304  80.2953724
  75.3000762  99.7394364  73.3828010  75.9871802  99.4256095  72.7949026
  75.1448891 100.6435729  73.1095262  80.1035485  94.6284561  77.8113034
  80.0193673  94.0210231  77.0763444  79.2818191  95.1193579  77.8122530
  87.1772769 108.0671725  77.0246202  87.1042940 108.8726697  77.5365507
  86.7350162 108.2663691  76.1994224  86.9662548 107.3043495  70.5349024
  86.1830070 107.8465175  70.6287248  87.6655294 107.8217475  70.9343265
  90.2759198  93.1138125  73.1783229  90.7727898  92.3608087  72.8584299
  89.5046180  93.1502441  72.6126438  98.1288956  98.8178490  74.8201521
  98.1178832  99.7003206  74.4495454  97.2606335  98.4650041  74.6256058
  89.6371452 107.9658559  79.1804361  90.3499424 108.6006024  79.1080262
  89.1461481 108.0622425  78.3644363  91.3588979 101.8709812  70.7521652
  90.4245258 101.9911274  70.5826357  91.5365648 100.9682279  70.4881662
  86.8594167  95.2555508  72.9054914  86.4891955  94.7026548  73.5935819
  87.3553260  94.6513641  72.3529914  94.7461530  97.7127131  71.2871687
  95.2121983  98.5455123  71.2131989  95.1969031  97.2472113  71.9916945
  84.6883366 105.7153003  80.0009932  85.3892825 106.3489486  80.1539326
  84.2178481 106.0567734  79.2405571  92.8137762 104.0570952  68.2857839
  93.0897605 103.9427547  69.1951713  91.9442260 103.6588437  68.2470012
  92.7178193  90.0807718  75.3262588  91.8041273  90.3111945  75.4944795
  93.1471295  90.1646162  76.1776620  92.4884652  98.2697610  77.8262482
  91.8356102  98.5173517  77.1714935  92.8665032  97.4561748  77.4924959
  89.4491826 108.3057303  71.9290652  89.6314220 107.4878959  72.3918405
  90.2724812 108.5224995  71.4915542  89.7833991 107.2325488  69.1905701
  90.3121758 106.7217943  68.5775863  90.0462211 106.9168019  70.0551234
  88.5372225  99.0117421  84.3128519  87.8612862  98.9111550  84.9830894
  89.3599859  98.8556635  84.7764516  80.2851084 105.2489358  76.9341034
  80.8704521 104.5033046  77.0668939  80.0875922 105.5593314  77.8177698
  83.1389739 108.2840605  71.9503477  82.4700114 108.7686733  71.4667517
  83.0002609 108.5309825  72.8646855  74.8768739  97.8194958  75.6545477
  74.9152838  97.2858549  76.4482596  74.3709031  97.2930163  75.0356455
  87.2795008 110.3184349  78.5486135  87.8313316 110.4815970  79.3135220
  87.6201201 110.9088786  77.8766160  82.2559501  92.6659498  79.1508020
  82.3200827  93.5274329  78.7385417  82.1926621  92.0533500  78.4180378
  81.7311773  94.7382631  82.7981054  82.3583812  94.3559708  83.4118578
  80.8739692  94.5196833  83.1636747  92.1305882 105.1445606  84.4034790
  92.6745786 105.7575564  83.9089744  91.5492727 105.7025184  84.9201803
  78.5077316  96.5459060  68.7299409  78.8030757  95.6369738  68.6766463
  77.6065352  96.5246799  68.4080411  90.4163395 108.2666324  75.5349817
  90.2914534 107.4656064  75.0260763  91.0742486 108.7612517  75.0463787
  82.0371563  94.6215057  74.7126957  81.3158149  95.2351024  74.5734431
  82.8264819  95.1572821  74.6343603  92.4798303 106.0675344  77.1629367
  91.5328639 105.9480695  77.0907694  92.8281076 105.1797842  77.2455629
  84.8397877  91.9569483  80.9867609  85.3632278  92.2031780  81.7493919
  84.6210210  92.7889518  80.5670747  80.2365158  94.2273158  68.8538734
  79.9077864  93.3470537  68.6713840  80.5904528  94.1720826  69.7415123
  89.4844737 105.8628060  73.3633720  89.3369699 104.9344768  73.5441290
  90.3098230 105.8848151  72.8790795  83.3506981  94.5146127  69.2214212
  83.6903053  95.0432049  68.4992820  83.7979101  94.8526534  69.9972778
  93.0878858 106.6856619  74.4498592  94.0125406 106.4799480  74.3123043
  92.9194162 106.4373020  75.3587934  86.0450422  92.8983178  78.6717280
  85.7047242  92.0990991  79.0737960  85.3389428  93.1984889  78.0994113
  86.6966894  89.9832491  77.1244603  87.5192963  89.5092969  77.0023493
  86.9404957  90.7622974  77.6243289  85.3375128  93.0120749  67.4207504
  86.0583491  93.3902002  66.9171221  84.7140432  93.7309626  67.5242482
  89.4806251  93.7165898  68.3565837  89.6969865  94.5990536  68.0554665
  89.0000318  93.3252111  67.6271479  84.2205472  96.6751611  74.9336581
  84.0750053  96.9891914  75.8260863  83.7430676  97.2936512  74.3807480
  86.0801855  93.6654159  74.9817471  86.0663424  92.7695253  74.6449769
  86.7974283  93.6724823  75.6155757  87.9327986  94.0991499  77.0270598
  87.6745764  95.0208570  77.0254929  87.4013026  93.7021934  77.7171063
  92.8774175 107.2042287  69.8060684  93.0511052 106.6388709  69.0534536
  93.3703066 108.0043181  69.6240174  78.6951134  99.2156956  77.8724243
  78.1504603  99.9916764  78.0044517  79.5730484  99.5627760  77.7143364
  85.4838751  92.5468540  70.2505041  85.6054662  91.6185186  70.4495929
  85.1940793  92.5607225  69.3383357  88.3529941  90.2323450  73.3871761
  88.3751638  90.2962783  72.4323740  88.7698001  89.3927959  73.5812267
  98.7313566  99.9678710  71.4250984  99.1744712  99.2186035  71.0270107
  97.8540076  99.9588846  71.0424715  93.8649347 106.5209051  66.9057582
  94.5600252 107.1415744  67.1244897  94.2072497 105.6704402  67.1809960
  79.4817156  98.3426852  80.7654399  78.7398892  98.4909487  81.3519030
  79.1609901  98.6035118  79.9021149  95.7640770 103.9708756  68.4344913
  96.2892094 104.3096029  67.7094233  95.6763123 103.0355772  68.2508047
  87.4260819 107.8842830  80.5634789  87.7347945 107.6391977  81.4357489
  88.2236301 108.0889469  80.0753660  87.4481431 110.0380740  72.7940166
  87.0086421 109.5457118  73.4873023  88.1989548 109.4953707  72.5532241
  79.9273770 106.2292281  72.7964794  80.7531790 105.9296053  72.4163438
  79.5767822 105.4599903  73.2454583  84.8955303 105.5818749  74.8662468
  84.2735312 104.9189454  74.5664696  85.5660170 105.6079881  74.1836115
  78.1282375 104.1478607  73.7553728  77.2914283 103.7200781  73.5737729
  78.1006020 104.3411050  74.6924519  84.9679831  94.0600537  84.4594974
  85.0167986  94.9362660  84.0772743  85.5102345  93.5177930  83.8866617
  95.4534676 104.6041660  83.7396111  94.6630220 104.5865799  83.2000610
  95.2168031 105.1429954  84.4945147  95.5732551 101.4534127  81.0528839
  95.6230556 101.2884134  81.9944362  95.4646475 100.5861386  80.6626720
  84.4568810 104.1322672  68.3420928  84.6056930 104.8158137  67.6887601
  85.2635254 104.1127762  68.8570384  92.8636314  97.4365055  82.3688146
  93.7646177  97.2971519  82.0772144  92.9384288  97.6019509  83.3086323
  87.1979119  94.8131909  81.2141332  86.3282428  95.1065475  80.9423921
  87.4338599  95.3972354  81.9348596  97.0750748 103.8731068  81.2970861
  96.7835557 104.2361049  82.1334322  96.4622879 103.1598076  81.1184193
  98.2746431 101.4383948  73.8173431  99.1093322 101.8773752  73.9810991
  98.4105559 100.9622601  72.9981677  95.3237936  98.9963683  79.7650919
  95.7992058  99.1891329  78.9569770  94.4003502  99.0522868  79.5194302
  82.2121443 100.1587850  69.3481997  81.9667485  99.2550180  69.5462207
  82.3817358 100.1605000  68.4061475  89.9018153  91.0311526  78.7306753
  90.4200097  91.7672553  78.4053241  89.5473286  91.3375520  79.5653512
  81.4817091  95.8916207  66.8468159  80.7886336  95.9660562  66.1908195
  81.2368842  95.1276551  67.3689675  90.1530747  87.4511809  74.2507649
  90.4332501  86.7834998  74.8768076  90.9381354  87.6440904  73.7382313
  87.9564216 106.6270803  65.8132676  87.3838183 107.2460990  65.3603147
  88.5297009 107.1770164  66.3472598  94.0239605  95.8729443  77.9979224
  94.9757028  95.9727540  78.0191448  93.8543056  95.0807711  78.5077309
  92.0453985  92.9585026  78.1838625  91.4503917  93.2390039  77.4885114
  91.7603682  93.4478927  78.9555366  91.1761475 106.9107953  66.9441258
  92.1092149 106.8453514  67.1474133  91.0884688 107.7464220  66.4855791
  93.8049492 106.2273823  63.9045205  93.7263124 105.8933687  64.7980963
  94.6259159 106.7195591  63.9036678  96.5027683  99.0935562  77.1121524
  96.4704003  98.1551563  77.2981208  97.1128307  99.1719599  76.3787349
  88.3411014  97.9631615  63.1548728  89.2870119  97.8337824  63.2237146
  87.9625259  97.2246277  63.6318156  96.6522172  95.8846606  77.1579807
  96.1361220  95.1005062  76.9709736  97.5362120  95.5565322  77.3226327
  94.3132899  89.6287621  73.1175620  94.1157720  89.3202710  74.0018952
  94.9232604  90.3549260  73.2473550 102.3204233 100.1551569  76.2527561
 103.0507622  99.8936857  76.8135264 101.7111179  99.4180291  76.2929629
 100.4019530  98.2959432  76.8502012  99.6752694  98.1615397  76.2418504
  99.9866817  98.6036260  77.6558730  88.2249707 102.0149362  84.6149385
  89.1452716 102.1927961  84.8089432  88.1899290 101.0705407  84.4629084
  86.5253931  95.8881592  63.0903613  85.6185387  95.5914705  63.1666327
  86.8029912  95.5911410  62.2237900  77.4431872  97.2087955  73.5402660
  77.1234656  96.3553263  73.2477034  76.8965300  97.4236533  74.2960627
  81.2211779  99.9250396  77.2572166  81.4397789 100.8567504  77.2760200
  81.6337553  99.5658371  78.0426970  88.1415997  90.4318482  69.2447855
  87.3316725  90.0865566  69.6203101  88.8300414  90.1226025  69.8335466
  90.0706545  89.5096528  70.8672151  90.6237584  89.9291982  71.5262174
  90.3076632  88.5832276  70.9095107  86.0939644  95.4983602  86.6474915
  85.9936371  96.4477959  86.5787006  85.8761187  95.1701841  85.7750985
  85.2952716  92.7468527  63.2315593  86.1571880  93.0723425  63.4911410
  85.4803060  91.9600023  62.7188658  77.3120132 100.8290867  75.5095781
  76.6183603 100.4144819  74.9965736  78.0593123 100.8711403  74.9129200
  93.4485352  91.6197053  70.3750816  92.8684021  92.2781858  69.9928868
  93.1821285  90.7974398  69.9638233  91.8988919  91.0202111  72.5772136
  92.3988697  91.1318646  71.7686455  92.5424527  90.7163164  73.2172944
  85.9570915  98.9280741  85.4639977  85.4737996  99.7281101  85.6703866
  86.0431854  98.9388686  84.5107421  79.2256874 100.7609120  73.3861796
  79.2027562 100.8596808  72.4343679  79.5357511 101.6074271  73.7078962
  81.8844252 102.8185275  77.5008411  82.8387506 102.7869218  77.4338342
  81.6856776 102.3575899  78.3158637  82.4743634 101.3886392  80.0679208
  83.2936523 101.8830470  80.0914046  82.7480442 100.4718360  80.0396776
  92.2310230  93.7797144  69.4307164  91.3436085  94.0646794  69.2127359
  92.6464219  93.6190907  68.5834441  95.5824767  93.8043665  73.1461503
  96.3585157  94.2940117  73.4186120  94.8572901  94.2301719  73.6033373
  98.0197325  94.5171284  74.2035444  98.6141816  94.2767020  73.4928752
  98.0923909  93.7978415  74.8308980  80.2394481 108.3604895  74.5178609
  80.1048949 107.6005296  73.9516607  79.8226543 109.0845795  74.0507397
  91.3753444 103.5441819  63.5255184  92.0789294 103.7491821  64.1412839
  90.6516093 104.1118580  63.7904267  92.2051254  99.2951680  69.6457454
  92.1486456  99.7520231  68.8065086  92.7579597  98.5342364  69.4680297
  96.0156060  95.0841412  70.4707573  95.7592994  94.6838047  71.3015781
  95.3908928  95.7985206  70.3457713 100.3268398  97.8237485  72.9778865
  99.7667956  97.8930674  73.7510427  99.7211901  97.6478470  72.2578361
  83.3963607 109.2574212  74.7297051  83.2795991 110.2019644  74.6275741
  82.5756053 108.9547774  75.1182850  93.2840141 103.9824348  65.5753644
  94.1185745 103.5505546  65.3931119  93.1224484 103.8106361  66.5030538
  92.9386033 100.4856461  66.9409983  92.8834837 100.3200732  65.9998427
  92.3132089 101.1932494  67.0972173  77.7278548  95.7224525  80.7671405
  78.3737412  95.2123479  81.2558631  77.5195700  96.4593207  81.3414831
  90.2531941 102.7905373  86.2663546  91.1223100 102.9646025  85.9050181
  89.7738692 103.6099790  86.1439275  86.2482159  89.9864570  66.5195302
  86.2360829  90.9306410  66.6763572  87.1405581  89.8034715  66.2254763
  84.4218121 109.9102474  77.9452980  85.3245368 109.9426084  78.2619475
  84.1955491 108.9802925  77.9599315  86.1771723 108.6633460  74.6063058
  85.2267354 108.6635322  74.4927430  86.4804209 107.9166195  74.0899093
  90.0634278  86.5807347  70.7741238  89.2966674  86.0265833  70.9197921
  90.4744983  86.6529215  71.6355390  82.0676039  92.8692142  84.8646420
  82.9307501  92.5128947  85.0749744  81.4941450  92.5306037  85.5521824
 101.9124416 114.4993999  75.6708821 102.5502826 114.3800746  74.9672161
 101.7945259 115.4474843  75.7296773  98.7214123 114.4521427  75.6070345
  98.3832634 114.3362492  74.7190880  99.5903891 114.0512592  75.5871351
  94.5800938 116.3056903  71.5967236  94.0165803 116.2146840  70.8283524
  94.4653333 115.4856808  72.0769729  99.2033906 115.6056279  81.5656551
  99.1922546 115.2109077  80.6937054  99.3654545 114.8722351  82.1590322
  92.1265370 117.8008095  74.4351457  92.9186662 117.4598920  74.0197756
  92.3662020 117.9103070  75.3553610  94.0856124 117.0617008  67.3068835
  94.8587000 116.5145995  67.1681711  94.4381523 117.9261258  67.5183297
  95.9241167 118.3893390  80.5135735  95.6331033 119.2939021  80.3982401
  96.5598151 118.4309918  81.2279804  96.8497374 115.7670239  77.1037094
  97.4460946 115.5426261  76.3894057  96.9072345 115.0254984  77.7062542
  96.4222402 113.2209674  64.9387285  96.6747923 112.6991196  64.1770748
  95.4846961 113.0575820  65.0413969 101.4665685 112.2245453  72.7462029
 102.2528774 111.8064876  72.3952446 101.7304389 113.1291545  72.9143677
 106.8674112 112.1620686  73.6495007 107.5999284 111.5919903  73.8832837
 106.1113468 111.7742286  74.0901513  96.1418691 115.1237780  67.1411660
  96.0254949 114.4482684  67.8092745  96.2520951 114.6370154  66.3243813
  98.4850232 114.5847927  70.8458350  98.1208439 114.0578548  71.5571271
  99.3417348 114.1946396  70.6724835 104.3899532 105.8742260  78.1089616
 104.0582857 106.7437671  77.8850831 103.7945146 105.5578544  78.7883646
  98.1255719 109.6137827  65.8419698  98.2930121 110.4818063  66.2090169
  97.9352888 109.7765109  64.9180987  94.3343533 114.5268603  73.5422233
  93.4094030 114.3944817  73.7499925  94.5827947 115.3062822  74.0392175
 104.2828196 110.5937346  75.1882966 103.3745073 110.5252755  74.8941727
 104.2315791 111.0709291  76.0164791  98.1044940 112.0695485  66.8266365
  97.9844565 112.5152535  67.6651845  97.4097528 112.4180802  66.2679903
  91.6952344 114.1701876  74.3766022  91.8244726 114.4236355  75.2905434
  91.0149796 114.7629584  74.0570677  98.3569061 112.0126992  83.1317863
  97.5802395 112.5720912  83.1220728  98.9959624 112.4983775  83.6532733
 106.1489842 108.7953785  76.9660840 105.5064222 109.0886318  76.3200634
 105.6444771 108.6806705  77.7714036 103.8030006 112.5416958  67.6546699
 104.7147862 112.7744345  67.4794397 103.2939653 113.1254002  67.0921778
  96.6115434 114.8212445  82.6935830  97.3530118 115.3597489  82.4170654
  95.9052419 115.4478734  82.8507382 102.0870773 116.9641586  81.2907992
 102.4954129 116.5223996  80.5462624 101.3648035 116.3894213  81.5442184
  98.4401843 111.9014192  78.6641549  99.2863039 112.3253606  78.8076198
  98.3800481 111.2447817  79.3580112 101.5901289 109.5618561  80.3222722
 101.3462221 110.3160621  79.7856998 101.8661219 109.9403908  81.1569969
 101.1465980 108.7174994  75.9036560 100.2850459 109.0156247  76.1953297
 101.1728415 108.9345393  74.9717593  97.9627550 117.2617184  72.3110366
  98.4265895 117.5404887  71.5214988  97.6984348 116.3600629  72.1283456
  94.8551631 116.8088666  75.2490129  95.4252988 117.2375934  74.6107613
  95.4459743 116.5271251  75.9474314  96.8996436 113.3840337  69.1199931
  97.6020479 113.8361380  69.5873857  96.5677064 112.7424156  69.7479824
  95.3476797 111.9752093  83.4951140  94.7175458 112.6568374  83.7286537
  95.2412885 111.8635175  82.5504278  90.6421770 111.6423889  74.4217064
  89.8520824 111.8981418  73.9457175  91.1333017 112.4572227  74.5269105
  92.5936515 112.0068469  71.3800541  91.7967679 112.1187163  71.8984037
  92.3662107 112.3455121  70.5141431  98.4242183 118.5313172  79.3283056
  98.4886615 118.9933579  80.1641227  97.7153107 117.9010537  79.4565365
  88.9259473 111.8954380  76.8532055  89.1767511 112.7801390  77.1189631
  89.4619021 111.7158981  76.0807147  94.6257540 106.2772859  85.8576391
  94.2324486 105.7239058  86.5324035  95.4423680 106.5883438  86.2482909
  91.5919598 117.7156717  69.7689961  92.1044118 118.5099968  69.9195526
  92.2442311 117.0183008  69.7023562  93.4014483 120.8322474  71.8512714
  93.5781111 121.7540438  71.6633698  94.1971316 120.5180893  72.2807094
  97.5425501 107.6930738  83.4496648  98.2835215 108.2937891  83.3701110
  97.7743424 106.9508376  82.8914690  92.6866839 112.8787105  81.7274877
  92.5720354 111.9772363  82.0281976  91.8311357 113.1250802  81.3759694
  94.5245798 122.3500647  77.8523056  95.0753223 122.2217711  77.0800050
  93.6857274 122.6495536  77.5017949  98.3212969 118.6151775  82.1967288
  98.8541306 117.8540063  81.9666596  97.7927050 118.3225427  82.9391442
 101.4882664 103.7211841  77.7260929 101.1446934 104.6113483  77.6500040
 101.8561627 103.5313499  76.8630514  89.5568515 116.0445372  70.5449532
  90.3943737 116.4542380  70.3283239  89.7346782 115.1044814  70.5149725
 101.4532947 113.7120452  66.2333364 100.9379570 114.4825057  66.4721752
 101.1810255 113.0385588  66.8566426  99.0380058 108.5570153  71.2918603
  98.1821654 108.1677003  71.1124242  99.4507010 108.6362114  70.4318388
 100.5679204 106.0916496  75.6910163 100.0644000 106.0546631  74.8777968
 100.8609811 107.0009239  75.7506819  96.8122090 106.1755226  74.6976344
  97.6775087 105.9798035  74.3382234  96.8799599 105.9465578  75.6245701
 101.2419250 111.5847544  68.0593146 100.9369386 111.8993694  68.9103289
 102.1949692 111.6628964  68.1020479  99.6865682 117.7437768  69.7086100
  99.1587043 117.0090527  69.3959337  99.1853185 118.5212444  69.4626068
  94.4184409 108.4057434  72.0692711  94.9928161 108.1832615  71.3365904
  95.0055392 108.4746128  72.8221312 103.4763987 114.2931161  72.8757088
 103.9895868 114.9261153  73.3778797 104.1265211 113.6932356  72.5100448
  94.7453997 110.4361895  66.0888596  93.9091309 110.7736582  66.4097871
  94.6058766 110.3010875  65.1515733  96.7207077 105.2798683  70.7967781
  96.0671490 104.9647700  70.1724395  96.6787551 104.6574423  71.5227604
  97.8318282 115.5617978  62.7121073  96.9245344 115.3307231  62.9112222
  98.3289314 114.7655597  62.8995054  99.9544818 111.7680616  75.1215428
  99.0367379 111.9895563  74.9637116 100.3704961 111.8426927  74.2627136
 100.7379865 113.1672032  70.2518108 101.4851684 113.6793429  69.9425231
 101.0071455 112.8456085  71.1122502  99.0106515 115.6630573  67.2345063
  98.1017735 115.3789606  67.3317533  99.0401599 116.0829651  66.3748370
 103.1858702 110.2029148  72.2336898 102.4481459 109.6906535  72.5647140
 103.4385476 109.7629530  71.4220175 103.2870330 102.9805400  72.8278667
 103.5929207 102.1202764  72.5404582 104.0122935 103.5723021  72.6277661
  89.5794686 113.3836087  71.2160265  89.3819086 112.7905448  70.4911332
  89.0241350 113.0788297  71.9336204  97.5591410 113.2759193  73.3354858
  97.6140019 112.3233030  73.2597335  96.7482612 113.4318633  73.8196157
  98.7082603 117.2039316  64.5733141  98.2702033 116.4875175  64.1138779
  99.4493044 117.4315431  64.0118233  95.4983769 111.8936253  71.0945237
  94.6851635 112.1930424  71.5010429  95.9942764 111.4991942  71.8119719
 101.0957981 112.3578078  79.9260131 101.4507369 112.5849551  80.7854597
 101.7430112 112.6896454  79.3037386  94.9897844 109.4654609  76.7106472
  95.6297224 109.3243368  76.0129435  94.1575375 109.1789122  76.3345074
  95.7658148 118.7657039  72.8241464  96.5598747 118.2707359  72.6224039
  95.0549840 118.2374902  72.4609170  92.0740912 112.9100121  68.9001217
  91.1438500 112.8484576  69.1171179  92.1698384 112.3876074  68.1037858
  91.9926461 109.4354934  71.4879459  92.2533278 110.3500267  71.3788619
  92.8143633 108.9679376  71.6376072  93.4651386 110.8492691  78.6578283
  94.1374439 110.6410053  78.0090932  92.6381172 110.6514777  78.2183516
  99.3676958 107.4754632  80.6743944  98.7204873 108.1744581  80.5808421
 100.1377973 107.9090776  81.0420192  99.5441092 115.3135397  78.7340764
 100.4733152 115.4646556  78.5609731  99.1232122 115.4019417  77.8789410
  98.3429424 119.3386061  76.5039301  98.2040510 118.9704846  77.3765240
  97.5544020 119.8533701  76.3323259  99.8934639 118.7167664  73.8928139
  99.5584472 118.6768434  74.7885789  99.3938585 118.0512380  73.4198550
  93.8678883 114.1235294  79.4180720  93.7298681 113.3915533  80.0192259
  94.7783807 114.0344194  79.1364908 102.8293831 116.0623698  64.1665199
 102.2123002 115.3370526  64.0698252 102.3610319 116.8233058  63.8232273
  96.4961184 113.8355253  78.9064400  97.2060802 113.1948445  78.8651019
  96.4530492 114.0868148  79.8290581  95.2090118 110.8220471  80.7260040
  94.6727475 110.3711209  81.3781636  94.6206826 110.9566380  79.9830504
  94.6192377 110.2809122  63.2886503  93.7421843 110.1597923  62.9248750
  95.0950130 109.4895201  63.0365392  86.1394517 115.0686282  73.3828010
  86.8265557 114.7548012  72.7949026  85.9842646 115.9727647  73.1095262
  90.9429239 109.9576479  77.8113034  90.8587428 109.3502148  77.0763444
  90.1211945 110.4485497  77.8122530 101.1152953 108.4430042  73.1783229
 101.6121652 107.6900005  72.8584299 100.3439934 108.4794359  72.6126438
 102.1982734 117.2001729  70.7521652 101.2639012 117.3203192  70.5826357
 102.3759402 116.2974196  70.4881662  97.6987922 110.5847425  72.9054914
  97.3285709 110.0318466  73.5935819  98.1947014 109.9805559  72.3529914
 105.5855285 113.0419049  71.2871687 106.0515737 113.8747040  71.2131989
 106.0362785 112.5764030  71.9916945  95.5277120 121.0444920  80.0009932
  96.2286580 121.6781403  80.1539326  95.0572235 121.3859652  79.2405571
 103.5571948 105.4099636  75.3262588 102.6435028 105.6403863  75.4944795
 103.9865049 105.4938080  76.1776620 103.3278406 113.5989528  77.8262482
 102.6749856 113.8465435  77.1714935 103.7058786 112.7853666  77.4924959
  99.3765979 114.3409339  84.3128519  98.7006616 114.2403468  84.9830894
 100.1993613 114.1848553  84.7764516  91.1244838 120.5781275  76.9341034
  91.7098275 119.8324963  77.0668939  90.9269677 120.8885232  77.8177698
  85.7162493 113.1486876  75.6545477  85.7546593 112.6150466  76.4482596
  85.2102786 112.6222081  75.0356455  93.0953255 107.9951416  79.1508020
  93.1594582 108.8566247  78.7385417  93.0320376 107.3825418  78.4180378
  92.5705528 110.0674549  82.7981054  93.1977567 109.6851626  83.4118578
  91.7133447 109.8488751  83.1636747  89.3471071 111.8750978  68.7299409
  89.6424512 110.9661656  68.6766463  88.4459106 111.8538717  68.4080411
  92.8765318 109.9506974  74.7126957  92.1551903 110.5642942  74.5734431
  93.6658573 110.4864739  74.6343603  95.6791631 107.2861401  80.9867609
  96.2026033 107.5323697  81.7493919  95.4603964 108.1181436  80.5670747
  91.0758912 109.5565075  68.8538734  90.7471618 108.6762454  68.6713840
  91.4298283 109.5012744  69.7415123  94.1900735 109.8438045  69.2214212
  94.5296808 110.3723966  68.4992820  94.6372856 110.1818451  69.9972778
  96.8844176 108.2275096  78.6717280  96.5440997 107.4282909  79.0737960
  96.1783182 108.5276807  78.0994113  97.5360648 105.3124408  77.1244603
  98.3586717 104.8384886  77.0023493  97.7798712 106.0914892  77.6243289
  96.1768883 108.3412667  67.4207504  96.8977245 108.7193920  66.9171221
  95.5534187 109.0601544  67.5242482 100.3200005 109.0457816  68.3565837
 100.5363620 109.9282454  68.0554665  99.8394073 108.6544029  67.6271479
  95.0599227 112.0043529  74.9336581  94.9143808 112.3183832  75.8260863
  94.5824430 112.6228429  74.3807480  96.9195610 108.9946077  74.9817471
  96.9057178 108.0987170  74.6449769  97.6368038 109.0016741  75.6155757
  98.7721740 109.4283417  77.0270598  98.5139518 110.3500488  77.0254929
  98.2406781 109.0313852  77.7171063  89.5344889 114.5448873  77.8724243
  88.9898357 115.3208681  78.0044517  90.4124239 114.8919678  77.7143364
  96.3232506 107.8760457  70.2505041  96.4448417 106.9477103  70.4495929
  96.0334548 107.8899143  69.3383357  99.1923696 105.5615368  73.3871761
  99.2145393 105.6254701  72.4323740  99.6091755 104.7219876  73.5812267
  90.3210911 113.6718770  80.7654399  89.5792647 113.8201405  81.3519030
  90.0003655 113.9327035  79.9021149  90.7667524 121.5584198  72.7964794
  91.5925544 121.2587970  72.4163438  90.4161576 120.7891821  73.2454583
  95.7349058 120.9110667  74.8662468  95.1129067 120.2481372  74.5664696
  96.4053925 120.9371798  74.1836115  88.9676130 119.4770525  73.7553728
  88.1308038 119.0492699  73.5737729  88.9399775 119.6702968  74.6924519
  95.8073585 109.3892455  84.4594974  95.8561741 110.2654577  84.0772743
  96.3496099 108.8469848  83.8866617  95.2962565 119.4614590  68.3420928
  95.4450685 120.1450054  67.6887601  96.1029008 119.4419680  68.8570384
 103.7030068 112.7656972  82.3688146 104.6039931 112.6263437  82.0772144
 103.7778043 112.9311427  83.3086323  98.0372874 110.1423827  81.2141332
  97.1676183 110.4357393  80.9423921  98.2732354 110.7264272  81.9348596
  93.0515198 115.4879768  69.3481997  92.8061239 114.5842098  69.5462207
  93.2211112 115.4896918  68.4061475 100.7411907 106.3603444  78.7306753
 101.2593851 107.0964471  78.4053241 100.3867040 106.6667437  79.5653512
  92.3210845 111.2208125  66.8468159  91.6280090 111.2952480  66.1908195
  92.0762597 110.4568469  67.3689675 100.9924502 102.7803726  74.2507649
 101.2726255 102.1126915  74.8768076 101.7775109 102.9732822  73.7382313
 104.8633360 111.2021360  77.9979224 105.8150783 111.3019458  78.0191448
 104.6936810 110.4099629  78.5077309 102.8847739 108.2876944  78.1838625
 102.2897672 108.5681956  77.4885114 102.5997436 108.7770845  78.9555366
  99.1804769 113.2923533  63.1548728 100.1263873 113.1629741  63.2237146
  98.8019014 112.5538195  63.6318156 107.4915926 111.2138524  77.1579807
 106.9754975 110.4296980  76.9709736 108.3755875 110.8857240  77.3226327
 105.1526653 104.9579539  73.1175620 104.9551474 104.6494627  74.0018952
 105.7626359 105.6841178  73.2473550  99.0643461 117.3441279  84.6149385
  99.9846471 117.5219878  84.8089432  99.0293044 116.3997325  84.4629084
  97.3647686 111.2173509  63.0903613  96.4579141 110.9206622  63.1666327
  97.6423667 110.9203328  62.2237900  88.2825626 112.5379873  73.5402660
  87.9628410 111.6845181  73.2477034  87.7359054 112.7528451  74.2960627
  92.0605534 115.2542314  77.2572166  92.2791543 116.1859422  77.2760200
  92.4731307 114.8950288  78.0426970  98.9809751 105.7610399  69.2447855
  98.1710480 105.4157484  69.6203101  99.6694168 105.4517943  69.8335466
 100.9100300 104.8388446  70.8672151 101.4631338 105.2583899  71.5262174
 101.1470386 103.9124194  70.9095107  96.9333399 110.8275520  86.6474915
  96.8330126 111.7769877  86.5787006  96.7154941 110.4993759  85.7750985
  96.1346470 108.0760445  63.2315593  96.9965634 108.4015343  63.4911410
  96.3196815 107.2891941  62.7188658  88.1513886 116.1582784  75.5095781
  87.4577358 115.7436737  74.9965736  88.8986877 116.2003321  74.9129200
 104.2879107 106.9488971  70.3750816 103.7077776 107.6073775  69.9928868
 104.0215040 106.1266316  69.9638233 102.7382673 106.3494029  72.5772136
 103.2382452 106.4610563  71.7686455 103.3818281 106.0455082  73.2172944
  96.7964669 114.2572658  85.4639977  96.3131751 115.0573019  85.6703866
  96.8825608 114.2680603  84.5107421  90.0650629 116.0901038  73.3861796
  90.0421317 116.1888725  72.4343679  90.3751265 116.9366189  73.7078962
  92.7238007 118.1477193  77.5008411  93.6781260 118.1161136  77.4338342
  92.5250530 117.6867817  78.3158637  93.3137389 116.7178309  80.0679208
  94.1330278 117.2122388  80.0914046  93.5874196 115.8010277  80.0396776
 103.0703985 109.1089062  69.4307164 102.1829840 109.3938712  69.2127359
 103.4857974 108.9482825  68.5834441 106.4218521 109.1335583  73.1461503
 107.1978911 109.6232035  73.4186120 105.6966655 109.5593637  73.6033373
 108.8591080 109.8463202  74.2035444 109.4535570 109.6058938  73.4928752
 108.9317663 109.1270332  74.8308980  91.0788235 123.6896813  74.5178609
  90.9442703 122.9297214  73.9516607  90.6620298 124.4137713  74.0507397
 103.0445009 114.6243597  69.6457454 102.9880210 115.0812149  68.8065086
 103.5973351 113.8634282  69.4680297 106.8549815 110.4133329  70.4707573
 106.5986749 110.0129965  71.3015781 106.2302683 111.1277123  70.3457713
 103.7779788 115.8148379  66.9409983 103.7228592 115.6492650  65.9998427
 103.1525843 116.5224412  67.0972173  88.5672303 111.0516443  80.7671405
  89.2131166 110.5415397  81.2558631  88.3589454 111.7885125  81.3414831
  97.0875913 105.3156488  66.5195302  97.0754583 106.2598328  66.6763572
  97.9799335 105.1326633  66.2254763 100.9028033 101.9099264  70.7741238
 100.1360429 101.3557751  70.9197921 101.3138738 101.9821133  71.6355390
  92.9069794 108.1984060  84.8646420  93.7701255 107.8420865  85.0749744
  92.3335205 107.8597955  85.5521824  36.8761891  -0.4695385  62.3954127
  37.5140301  -0.5888637  61.6917467  36.7582734   0.4785459  62.4542079
  33.6851597  -0.5167957  62.3315652  33.3470108  -0.6326892  61.4436187
  34.5541365  -0.9176791  62.3116658  29.5438413   1.3367520  58.3212543
  28.9803278   1.2457457  57.5528831  29.4290808   0.5167424  58.8015035
  34.1671380   0.6366895  68.2901857  34.1560021   0.2419693  67.4182361
  34.3292019  -0.0967032  68.8835629  27.0902845   2.8318711  61.1596763
  27.8824136   2.4909536  60.7443063  27.3299495   2.9413687  62.0798917
  35.1237971   5.0038488  53.6327008  34.4725951   5.5892568  53.2461022
  35.9182334   5.5344683  53.6922045  29.0493598   2.0927625  54.0314142
  29.8224474   1.5456612  53.8927018  29.4018997   2.9571874  54.2428604
  30.8878641   3.4204007  67.2381041  30.5968507   4.3249638  67.1227708
  31.5235625   3.4620535  67.9525111  31.8134848   0.7980856  63.8282401
  32.4098420   0.5736878  63.1139364  31.8709819   0.0565601  64.4307849
  31.3859876  -1.7479709  51.6632592  31.6385397  -2.2698188  50.9016055
  30.4484435  -1.9113564  51.7659276  36.4303159  -2.7443931  59.4707335
  37.2166248  -3.1624508  59.1197752  36.6941863  -1.8397839  59.6388984
  36.6013236   2.6928920  54.1695992  35.9659069   2.7663546  54.8816897
  36.2710643   3.2822518  53.4915071  41.8311586  -2.8068698  60.3740314
  42.5636758  -3.3769481  60.6078143  41.0750942  -3.1947097  60.8146819
  31.1056165   0.1548397  53.8656967  30.9892423  -0.5206700  54.5338051
  31.2158425  -0.3319229  53.0489120  33.4487706  -0.3841456  57.5703656
  33.0845913  -0.9110835  58.2816578  34.3054822  -0.7742987  57.3970142
  35.8468526   3.1065423  64.2330835  35.5469249   4.0090461  64.1246642
  35.5019586   2.8397606  65.0851988  29.2981008  -0.4420781  60.2667540
  28.3731504  -0.5744567  60.4745231  29.5465421   0.3373439  60.7637482
  39.2465670  -4.3752037  61.9128272  38.3382547  -4.4436629  61.6187033
  39.1953266  -3.8980092  62.7410098  33.0682414  -2.8993899  53.5511672
  32.9482039  -2.4536848  54.3897152  32.3735002  -2.5508581  52.9925210
  30.8289306   9.8709743  57.2001803  30.7513336  10.8217568  57.2790283
  30.2250950   9.5255615  57.8576729  33.3206536  -2.9562392  69.8563170
  32.5439870  -2.3968472  69.8466034  33.9597099  -2.4705609  70.3778040
  41.1127316  -6.1735599  63.6906146  40.4701697  -5.8803066  63.0445941
  40.6082245  -6.2882679  64.4959343  38.7667480  -2.4272426  54.3792006
  39.6785336  -2.1945039  54.2039703  38.2577127  -1.8435381  53.8167084
  31.5752908  -0.1476938  69.4181137  32.3167592   0.3908106  69.1415960
  30.8689893   0.4789350  69.5752689  37.0508248   1.9952202  68.0153298
  37.4591604   1.5534613  67.2707931  36.3285509   1.4204830  68.2687491
  33.4039318  -3.0675191  65.3886855  34.2500513  -2.6435778  65.5321504
  33.3437955  -3.7241567  66.0825418  37.3737062   2.5553393  61.7705587
  36.7445925   2.7199107  61.0681655  36.9862724   2.9695002  62.5416551
  41.2526294   3.4907831  59.1249951  40.5677332   3.8706732  58.5746984
  41.3370144   4.1003157  59.8581899  36.5538763  -5.4070823  67.0468029
  36.3099695  -4.6528762  66.5102304  36.8298694  -5.0285475  67.8815276
  38.5077226   1.1367790  65.7245294  38.7194121   1.7799550  65.0479675
  38.4606974   0.3030106  65.2567224  36.1103455  -6.2514390  62.6281867
  35.2487934  -5.9533136  62.9198604  36.1365889  -6.0343991  61.6962899
  32.9265024   2.2927801  59.0355672  33.3903370   2.5715504  58.2460295
  32.6621822   1.3911245  58.8528763  29.8189105   1.8399282  61.9735435
  30.3890462   2.2686551  61.3352920  30.4097217   1.5581867  62.6719621
  31.8633910  -1.5849047  55.8445237  32.5657954  -1.1328003  56.3119164
  31.5314539  -2.2265228  56.4725130  39.6223054   4.0139745  63.8967652
  40.4440497   3.6119932  63.6150333  39.6185457   3.9107979  64.8483768
  33.3879657   3.5623788  66.0528362  33.4524090   4.0244196  66.8886534
  32.6790581   2.9321153  66.1810672  47.7129047   0.3578494  60.2452623
  46.9592755  -0.2114108  60.0896628  47.8476588   0.3241158  61.1923258
  33.1027675   5.2291896  55.9207343  32.9673350   6.0743432  56.3492190
  33.6437487   5.4311173  55.1573276  26.5557072   2.7467334  56.4935268
  27.0681593   3.5410584  56.6440832  27.2079785   2.0493624  56.4268869
  28.3651957   5.8633090  58.5758021  28.5418585   6.7851055  58.3879005
  29.1608790   5.5491509  59.0052401  34.7296151   5.8515462  70.0507685
  34.2860005   5.0651841  69.7328589  35.3913365   6.0394613  69.3851575
  29.4883272   7.3811264  64.5768363  30.0390698   7.2528327  63.8045357
  28.6494748   7.6806153  64.2263256  36.8277389   6.1318262  68.0789086
  36.8095865   6.9527143  67.5869355  37.7497309   6.0072337  68.3039227
  33.2850443   3.6462392  68.9212594  33.8178780   2.8850680  68.6911902
  32.7564525   3.3536044  69.6636749  36.4170421  -1.2568931  52.9578671
  35.9017045  -0.4864327  53.1967059  36.1447730  -1.9303795  53.5811733
  41.3904695   1.4963423  54.8931845  40.6134138   1.1574583  54.4487007
  42.0696176   1.5016047  54.2186810  36.2056724  -3.3841839  54.7838452
  35.9006860  -3.0695690  55.6348595  37.1587166  -3.3060419  54.8265785
  34.6503156   2.7748384  56.4331406  34.1224518   2.0401144  56.1204644
  34.1490659   3.5523061  56.1871375  39.6296002   0.9697405  61.5498453
  38.9719677   1.6596666  61.6378581  40.4336401   1.3593837  61.8932439
  38.4401461  -0.6758223  59.6002394  38.9533343  -0.0428231  60.1024104
  39.0902685  -1.2757027  59.2345754  32.7955756   0.5928594  49.4366379
  31.8882818   0.3617848  49.6357528  33.2926788  -0.2033786  49.6240361
  35.7023835   9.3026102  52.3563065  35.0285534   9.6057798  52.9648023
  36.0889657  10.1055182  52.0068523  34.9182292  -3.2008767  61.8460735
  34.0004853  -2.9793820  61.6882423  35.3342435  -3.1262457  60.9872442
  35.7017340  -1.8017351  56.9763415  36.4489159  -1.2895954  56.6670537
  35.9708929  -2.1233299  57.8367809  33.9743990   0.6941189  53.9590369
  33.0655209   0.4100222  54.0562839  34.0039074   1.1140268  53.0993676
  39.2063257   4.3047779  57.7281537  38.7525584   3.4638689  57.7846727
  38.5757224   4.9409177  58.0656317  38.1496177  -4.7660235  58.9582204
  37.4118934  -5.2782849  59.2892447  38.4022950  -5.2059854  58.1465481
  37.6496196   6.1424276  58.6631355  37.9419171   6.7029333  57.9443721
  38.1594817   6.4352837  59.4184514  32.5228884  -1.6930190  60.0600165
  32.5777494  -2.6456354  59.9842641  31.7120086  -1.5370751  60.5441463
  33.6720078   2.2349933  51.2978448  33.2339508   1.5185792  50.8384085
  34.4130518   2.4626048  50.7363539  32.6129822   6.9204627  59.7524808
  32.5706000   7.1465473  58.8233340  33.5292520   6.6868001  59.9010609
  36.0595455  -2.6111306  66.6505438  36.4144843  -2.3839833  67.5099903
  36.7067587  -2.2792929  66.0282693  41.7893192   0.5107130  57.3554767
  41.6511091   0.7008726  56.4275956  41.4329411   1.2726513  57.8122818
  41.8162572   2.5783657  62.3666038  42.2499079   2.4858946  63.2149092
  42.5294153   2.5541158  61.7286054  30.7295622   3.7967656  59.5486771
  31.5236221   3.3017976  59.3469346  30.0187315   3.2685519  59.1854477
  35.5490467   6.1785751  63.8999139  35.6027489   6.7476687  64.6676855
  34.6805248   6.3487636  63.5353176  42.6778122   2.6207358  64.8998923
  42.8714012   3.5253168  65.1458198  42.5778740   2.1614777  65.7337508
  37.7393230   2.7714100  70.4739804  37.5878737   2.5424652  69.5569888
  37.7297910   3.7284702  70.4871149  34.5078567   0.3446013  65.4586070
  35.4370627   0.4957173  65.2855038  34.0869597   0.4330034  64.6034717
  33.3066898   4.3696678  63.2284608  33.1677984   4.0015462  64.1010546
  32.5181495   4.8844317  63.0568566  33.9015050   9.4705774  54.5710145
  34.0766806   8.9993817  55.3855767  33.2147838  10.0971540  54.7991405
  34.8572114   3.7478280  60.6173446  34.5221946   3.7079050  61.5131096
  34.3576059   3.0822996  60.1443856  28.8316358  -0.8454090  66.1426027
  28.6936155  -1.5773851  66.7437566  29.7421281  -0.9345190  65.8610215
  37.7931305   1.0934315  50.8910506  37.1760476   0.3681143  50.7943558
  37.3247794   1.8543675  50.5477580  31.4598658  -1.1334130  65.6309707
  32.1698277  -1.7740938  65.5896325  31.4167966  -0.8821235  66.5535887
  39.4485437   5.8033223  68.5516286  39.3897983   5.1192443  67.8846869
  39.8504955   6.5452213  68.0996912  28.4676136  12.6195137  61.3450005
  28.7072734  13.2513661  62.0229023  27.6245332  12.2683177  61.6315364
  39.4502844   3.7672807  66.7830266  38.5629623   3.4298729  66.9056664
  40.0201395   3.0355838  67.0199031  32.9803998   8.4274259  63.7491509
  32.9074169   9.2329231  64.2610813  32.5381391   8.6266225  62.9239530
  32.7693777   7.6646029  57.2594330  31.9861299   8.2067710  57.3532555
  33.4686522   8.1820009  57.6588572  36.0790427  -6.5259341  59.9028536
  36.5759127  -7.2789379  59.5829606  35.3077409  -6.4895025  59.3371745
  43.9320185  -0.8218976  61.5446827  43.9210061   0.0605740  61.1740760
  43.0637564  -1.1747425  61.3501364  35.4402681   8.3261093  65.9049667
  36.1530653   8.9608558  65.8325569  34.9492710   8.4224959  65.0889669
  37.1620208   2.2312346  57.4766959  36.2276487   2.3513808  57.3071663
  37.3396876   1.3284813  57.2126969  40.5492759  -1.9270335  58.0116993
  41.0153212  -1.0942343  57.9377296  41.0000260  -2.3925353  58.7162252
  30.4914595   6.0755537  66.7255238  31.1924054   6.7092020  66.8784633
  30.0209710   6.4170268  65.9650878  38.6168990   4.4173487  55.0103145
  38.8928834   4.3030081  55.9197019  37.7473489   4.0190971  54.9715318
  38.2915881  -1.3699856  64.5507789  37.6387331  -1.1223948  63.8960241
  38.6696260  -2.1835718  64.2170266  35.2523054   8.6659837  58.6535959
  35.4345449   7.8481493  59.1163711  36.0756040   8.8827530  58.2160849
  35.5865220   7.5928023  55.9151007  36.1152986   7.0820477  55.3021170
  35.8493440   7.2770553  56.7796540  34.3403454  -0.6280045  71.0373826
  33.6644091  -0.7285915  71.7076201  35.1631087  -0.7840831  71.5009823
  26.0882313   5.6091892  63.6586341  26.6735749   4.8635580  63.7914245
  25.8907151   5.9195849  64.5423005  28.9420968   8.6443139  58.6748783
  28.2731343   9.1289267  58.1912823  28.8033838   8.8912360  59.5892162
  33.0826236  10.6786883  65.2731442  33.6344544  10.8418504  66.0380527
  33.4232430  11.2691321  64.6011467  37.9337111   5.5048140  71.1280096
  38.4777015   6.1178099  70.6335051  37.3523956   6.0627719  71.6447109
  36.2194624   8.6268858  62.2595124  36.0945763   7.8258598  61.7506069
  36.8773715   9.1215052  61.7709094  38.2829532   6.4277878  63.8874674
  37.3359868   6.3083230  63.8153001  38.6312305   5.5400376  63.9700935
  35.2875965   6.2230595  60.0879026  35.1400928   5.2947302  60.2686596
  36.1129459   6.2450685  59.6036101  38.8910087   7.0459153  61.1743899
  39.8156635   6.8402015  61.0368350  38.7225391   6.7975554  62.0833240
  38.6805403   7.5644821  56.5305990  38.8542281   6.9991243  55.7779843
  39.1734295   8.3645716  56.3485480  44.5344795   0.3281244  58.1496290
  44.9775941  -0.4211431  57.7515413  43.6571305   0.3191380  57.7670022
  39.6680576   6.8811585  53.6302889  40.3631481   7.5018278  53.8490203
  40.0103726   6.0306936  53.9055267  41.5671999   4.3311291  55.1590219
  42.0923323   4.6698563  54.4339539  41.4794352   3.3958306  54.9753354
  33.2292048   8.2445364  67.2880096  33.5379174   7.9994511  68.1602796
  34.0267530   8.4492003  66.7998966  33.2512660  10.3983274  59.5185473
  32.8117650   9.9059653  60.2118329  34.0020777   9.8556242  59.2777548
  25.7304999   6.5894815  59.5210101  26.5563019   6.2898587  59.1408744
  25.3799051   5.8202437  59.9699889  30.6986532   5.9421283  61.5907774
  30.0766541   5.2791988  61.2910002  31.3691399   5.9682415  60.9081422
  23.9313604   4.5081141  60.4799034  23.0945512   4.0803316  60.2983036
  23.9037249   4.7013585  61.4169825  41.2565905   4.9644194  70.4641417
  40.4661449   4.9468333  69.9245917  41.0199260   5.5032488  71.2190454
  41.3763780   1.8136661  67.7774146  41.4261785   1.6486668  68.7189669
  41.2677704   0.9463920  67.3872027  30.2600039   4.4925206  55.0666235
  30.4088159   5.1760671  54.4132908  31.0666482   4.4730296  55.5815691
  38.6667543  -2.2032411  69.0933453  39.5677405  -2.3425946  68.8017450
  38.7415517  -2.0377956  70.0331630  42.8781977   4.2333602  68.0216167
  42.5866785   4.5963583  68.8579628  42.2654108   3.5200611  67.8429500
  44.0777659   1.7986482  60.5418738  44.9124551   2.2376286  60.7056298
  44.2136788   1.3225135  59.7226983  41.1269165  -0.6433783  66.4896225
  41.6023287  -0.4506137  65.6815077  40.2034731  -0.5874597  66.2439609
  28.0152672   0.5190384  56.0727304  27.7698714  -0.3847286  56.2707514
  28.1848586   0.5207534  55.1306782  33.7595444   6.9873337  52.5377982
  33.1869411   7.6063524  52.0848454  34.3328238   7.5372699  53.0717904
  39.8270834  -3.7668023  64.7224531  40.7788257  -3.6669925  64.7436755
  39.6574285  -4.5589754  65.2322615  37.8485214  -6.6812440  64.9083932
  37.2535146  -6.4007427  64.2130421  37.5634910  -6.1918539  65.6800673
  36.9792704   7.2710487  53.6686565  37.9123377   7.2056049  53.8719440
  36.8915917   8.1066754  53.2101097  39.6080721   6.5876357  50.6290512
  39.5294352   6.2536221  51.5226270  40.4290388   7.0798125  50.6281984
  42.3058912  -0.5461903  63.8366831  42.2735232  -1.4845903  64.0226515
  42.9159536  -0.4677867  63.1032656  34.1442243  -1.6765850  49.8794035
  35.0901348  -1.8059642  49.9482453  33.7656488  -2.4151188  50.3563463
  42.4553401  -3.7550860  63.8825114  41.9392449  -4.5392403  63.6955043
  43.3393349  -4.0832143  64.0471633  48.1235462   0.5154103  62.9772868
  48.8538850   0.2539392  63.5380571  47.5142407  -0.2217175  63.0174935
  46.2050759  -1.3438034  63.5747319  45.4783923  -1.4782069  62.9663810
  45.7898046  -1.0361205  64.3804037  34.0280935   2.3751896  71.3394692
  34.9483945   2.5530495  71.5334738  33.9930518   1.4307941  71.1874391
  27.0243008   0.2852930  63.9817473  27.2429018   1.2170038  64.0005507
  27.4368782  -0.0739095  64.7672277  39.2516581  -8.0200412  57.0996122
  38.6715250  -7.3615608  56.7174175  38.9852514  -8.8423068  56.6883540
  31.7602143  -0.7116725  72.1885283  31.2769225   0.0883635  72.3949173
  31.8463082  -0.7008780  71.2352727  25.0288103   1.1211655  60.1107103
  25.0058791   1.2199342  59.1588986  25.3388739   1.9676805  60.4324269
  27.6875481   3.1787810  64.2253717  28.6418734   3.1471752  64.1583649
  27.4888004   2.7178433  65.0403943  28.2774863   1.7488926  66.7924515
  29.0967752   2.2433004  66.8159352  28.5511671   0.8320894  66.7642082
  38.0341459  -5.8600322  56.1552470  37.1467314  -5.5750671  55.9372665
  38.4495448  -6.0206559  55.3079747  41.3855995  -5.8353801  59.8706810
  42.1616385  -5.3457349  60.1431427  40.6604129  -5.4095747  60.3278679
  43.8228554  -5.1226182  60.9280750  44.4173045  -5.3630446  60.2174059
  43.8955138  -5.8419051  61.5554287  26.0425710   8.7207429  61.2423915
  25.9080178   7.9607830  60.6761913  25.6257772   9.4448329  60.7752704
  37.1784673   3.9044353  50.2500490  37.8820523   4.1094355  50.8658146
  36.4547321   4.4721115  50.5149574  38.0082483  -0.3445786  56.3702761
  37.9517684   0.1122765  55.5310393  38.5610825  -1.1055101  56.1925603
  41.8187289  -4.5556054  57.1952880  41.5624223  -4.9559418  58.0261088
  41.1940157  -3.8412260  57.0703019  46.1299627  -1.8159981  59.7024171
  45.5699185  -1.7466792  60.4755734  45.5243130  -1.9918996  58.9823668
  29.1994836   9.6176746  61.4542358  29.0827220  10.5622179  61.3521048
  28.3787282   9.3150308  61.8428157  39.0871370   4.3426882  52.2998950
  39.9216974   3.9108080  52.1176425  38.9255713   4.1708896  53.2275845
  38.7417262   0.8458995  53.6655290  38.6866066   0.6803267  52.7243734
  38.1163318   1.5535028  53.8217479  36.0563169   3.1507907  72.9908853
  36.9254329   3.3248559  72.6295487  35.5769921   3.9702324  72.8684582
  30.2249350  10.2705008  64.6698286  31.1276596  10.3028618  64.9864781
  29.9986720   9.3405459  64.6844622  31.9802952   9.0235995  61.3308365
  31.0298583   9.0237856  61.2172737  32.2835438   8.2768729  60.8144399
  47.7155645  14.8596533  62.3954127  48.3534055  14.7403280  61.6917467
  47.5976488  15.8077377  62.4542079  44.5245351  14.8123961  62.3315652
  44.1863863  14.6965026  61.4436187  45.3935120  14.4115126  62.3116658
  40.3832167  16.6659438  58.3212543  39.8197032  16.5749375  57.5528831
  40.2684562  15.8459342  58.8015035  45.0065134  15.9658813  68.2901857
  44.9953775  15.5711611  67.4182361  45.1685774  15.2324885  68.8835629
  37.9296599  18.1610629  61.1596763  38.7217891  17.8201454  60.7443063
  38.1693249  18.2705604  62.0798917  45.9631726  20.3330405  53.6327008
  45.3119706  20.9184486  53.2461022  46.7576089  20.8636600  53.6922045
  39.8887353  17.4219542  54.0314142  40.6618229  16.8748530  53.8927018
  40.2412752  18.2863792  54.2428604  41.7272396  18.7495925  67.2381041
  41.4362262  19.6541556  67.1227708  42.3629380  18.7912452  67.9525111
  42.6528602  16.1272773  63.8282401  43.2492175  15.9028796  63.1139364
  42.7103574  15.3857519  64.4307849  42.2253631  13.5812209  51.6632592
  42.4779151  13.0593730  50.9016055  41.2878190  13.4178354  51.7659276
  47.2696914  12.5847987  59.4707335  48.0560003  12.1667410  59.1197752
  47.5335618  13.4894079  59.6388984  47.4406991  18.0220837  54.1695992
  46.8052824  18.0955464  54.8816897  47.1104397  18.6114436  53.4915071
  52.6705341  12.5223220  60.3740314  53.4030513  11.9522437  60.6078143
  51.9144696  12.1344821  60.8146819  41.9449920  15.4840314  53.8656967
  41.8286178  14.8085218  54.5338051  42.0552179  14.9972688  53.0489120
  44.2881460  14.9450462  57.5703656  43.9239668  14.4181083  58.2816578
  45.1448576  14.5548931  57.3970142  50.1930761   6.2344794  64.8334922
  49.8614086   7.1040205  64.6096137  49.5976374   5.9181078  65.5128953
  43.9286947   9.9740361  52.5665005  44.0961350  10.8420598  52.9335476
  43.7384117  10.1367643  51.6426294  46.6862281  18.4357340  64.2330835
  46.3863004  19.3382379  64.1246642  46.3413340  18.1689523  65.0851988
  40.1374762  14.8871137  60.2667540  39.2125259  14.7547351  60.4745231
  40.3859175  15.6665356  60.7637482  50.0859424  10.9539880  61.9128272
  49.1776302  10.8855289  61.6187033  50.0347020  11.4311825  62.7410098
  43.9076168  12.4298019  53.5511672  43.7875794  12.8755070  54.3897152
  43.2128757  12.7783336  52.9925210  37.4983573  14.5304411  61.1011329
  37.6275954  14.7838890  62.0150740  36.8181024  15.1232119  60.7815984
  41.6683060  25.2001661  57.2001803  41.5907090  26.1509486  57.2790283
  41.0644704  24.8547533  57.8576729  44.1600290  12.3729526  69.8563170
  43.3833624  12.9323446  69.8466034  44.7990853  12.8586309  70.3778040
  51.9521071   9.1556319  63.6906146  51.3095451   9.4488852  63.0445941
  51.4475999   9.0409239  64.4959343  49.6061234  12.9019492  54.3792006
  50.5179091  13.1346879  54.2039703  49.0970882  13.4856536  53.8167084
  42.4146663  15.1814979  69.4181137  43.1561347  15.7200023  69.1415960
  41.7083648  15.8081268  69.5752689  47.8902002  17.3244120  68.0153298
  48.2985358  16.8826530  67.2707931  47.1679264  16.7496747  68.2687491
  44.2433072  12.2616727  65.3886855  45.0894267  12.6856140  65.5321504
  44.1831710  11.6050351  66.0825418  48.2130817  17.8845310  61.7705587
  47.5839679  18.0491025  61.0681655  47.8256479  18.2986920  62.5416551
  52.0920049  18.8199748  59.1249951  51.4071087  19.1998650  58.5746984
  52.1763898  19.4295075  59.8581899  47.3932518   9.9221095  67.0468029
  47.1493449  10.6763155  66.5102304  47.6692448  10.3006443  67.8815276
  49.3470980  16.4659707  65.7245294  49.5587876  17.1091467  65.0479675
  49.3000729  15.6322024  65.2567224  46.9497209   9.0777528  62.6281867
  46.0881688   9.3758782  62.9198604  46.9759644   9.2947927  61.6962899
  43.7658779  17.6219719  59.0355672  44.2297124  17.9007422  58.2460295
  43.5015577  16.7203163  58.8528763  40.6582860  17.1691200  61.9735435
  41.2284217  17.5978468  61.3352920  41.2490972  16.8873785  62.6719621
  42.7027665  13.7442871  55.8445237  43.4051708  14.1963915  56.3119164
  42.3708293  13.1026690  56.4725130  41.1508026  12.3354628  70.2196447
  40.5206687  13.0170908  70.4531844  41.0444114  12.2237709  69.2749585
  36.4452999  12.0026424  61.1462371  35.6552053  12.2583952  60.6702481
  36.9364246  12.8174761  61.2514411  50.4616808  19.3431663  63.8967652
  51.2834252  18.9411850  63.6150333  50.4579211  19.2399897  64.8483768
  38.3967744  12.3671003  58.1045848  37.5998907  12.4789697  58.6229343
  38.1693336  12.7057655  57.2386738  44.2273412  18.8915706  66.0528362
  44.2917844  19.3536113  66.8886534  43.5184336  18.2613071  66.1810672
  34.7290702  12.2556914  63.5777362  34.9798740  13.1403924  63.8434938
  35.2650250  12.0761516  62.8052454  58.5522801  15.6870411  60.2452623
  57.7986510  15.1177809  60.0896628  58.6870343  15.6533076  61.1923258
  43.9421429  20.5583814  55.9207343  43.8067104  21.4035349  56.3492190
  44.4831242  20.7603091  55.1573276  40.4288769   6.6375393  72.5821698
  40.0355715   6.0841592  73.2569342  41.2454909   6.9485972  72.9728215
  37.3950827  18.0759252  56.4935268  37.9075347  18.8702502  56.6440832
  38.0473540  17.3785542  56.4268869  39.2045711  21.1925008  58.5758021
  39.3812340  22.1142973  58.3879005  40.0002545  20.8783427  59.0052401
  43.3456730   8.0533272  70.1741954  44.0866443   8.6540426  70.0946417
  43.5774653   7.3110910  69.6159997  38.4898068  13.2389640  68.4520184
  38.3751583  12.3374897  68.7527283  37.6342586  13.4853336  68.1005001
  45.5689906  21.1807380  70.0507685  45.1253760  20.3943759  69.7328589
  46.2307119  21.3686531  69.3851575  40.3277027  22.7103182  64.5768363
  40.8784452  22.5820245  63.8045357  39.4888503  23.0098071  64.2263256
  47.6671144  21.4610180  68.0789086  47.6489619  22.2819061  67.5869355
  48.5891064  21.3364255  68.3039227  44.1244198  18.9754309  68.9212594
  44.6572535  18.2142598  68.6911902  43.5958279  18.6827961  69.6636749
  47.2913893   4.0814375  64.4506236  46.9478162   4.9716017  64.3745347
  47.6592856   3.8916033  63.5875821  35.3599744  16.4047906  57.2694838
  36.1974966  16.8144914  57.0528546  35.5378011  15.4647348  57.2395032
  47.2564176  14.0722986  52.9578671  46.7410799  14.8427591  53.1967059
  46.9841484  13.3988123  53.5811733  44.8411287   8.9172687  58.0163909
  43.9852883   8.5279538  57.8369548  45.2538238   8.9964648  57.1563695
  46.3710433   6.4519031  62.4155469  45.8675229   6.4149166  61.6023275
  46.6641040   7.3611773  62.4752126  42.6153319   6.5357760  61.4221651
  43.4806316   6.3400569  61.0627540  42.6830828   6.3068112  62.3491008
  52.2298450  16.8255341  54.8931845  51.4527893  16.4866501  54.4487007
  52.9089931  16.8307964  54.2186810  47.0450479  11.9450079  54.7838452
  46.7400614  12.2596228  55.6348595  47.9980921  12.0231498  54.8265785
  45.4896911  18.1040302  56.4331406  44.9618272  17.3693061  56.1204644
  44.9884413  18.8814978  56.1871375  50.4689757  16.2989322  61.5498453
  49.8113431  16.9888584  61.6378581  51.2730156  16.6885754  61.8932439
  40.2215638   8.7659968  58.7938018  40.7959390   8.5435150  58.0611211
  40.8086621   8.8348663  59.5466619  49.2795215  14.6533695  59.6002394
  49.7927097  15.2863687  60.1024104  49.9296439  14.0534891  59.2345754
  40.5485225  10.7964429  52.8133903  39.7122538  11.1339116  53.1343178
  40.4089995  10.6613409  51.8761040  42.5238306   5.6401217  57.5213087
  41.8702718   5.3250234  56.8969702  42.4818780   5.0176958  58.2472910
  43.6349511  15.9220512  49.4366379  42.7276573  15.6909766  49.6357528
  44.1320543  15.1258131  49.6240361  46.5417590  24.6318019  52.3563065
  45.8679288  24.9349716  52.9648023  46.9283412  25.4347100  52.0068523
  45.7576046  12.1283151  61.8460735  44.8398608  12.3498098  61.6882423
  46.1736190  12.2029461  60.9872442  46.5411094  13.5274566  56.9763415
  47.2882913  14.0395964  56.6670537  46.8102684  13.2058619  57.8367809
  44.8137744  16.0233107  53.9590369  43.9048964  15.7392140  54.0562839
  44.8432828  16.4432186  53.0993676  50.0457012  19.6339697  57.7281537
  49.5919339  18.7930606  57.7846727  49.4150978  20.2701095  58.0656317
  48.9889931  10.5631683  58.9582204  48.2512688  10.0509069  59.2892447
  49.2416705  10.1232064  58.1465481  48.4889951  21.4716193  58.6631355
  48.7812925  22.0321250  57.9443721  48.9988572  21.7644754  59.4184514
  49.0901559   3.3407935  59.5523974  49.3960435   2.4805298  59.2649889
  49.8154163   3.9325555  59.3522968  35.3825915  13.7438621  57.9405572
  35.1850314  13.1507982  57.2156638  34.8272579  13.4390831  58.6581510
  43.3622638  13.6361728  60.0600165  43.4171248  12.6835564  59.9842641
  42.5513840  13.7921167  60.5441463  44.5113832  17.5641851  51.2978448
  44.0733262  16.8477710  50.8384085  45.2524273  17.7917966  50.7363539
  41.3014998  12.2538787  57.8190544  40.4882864  12.5532958  58.2255736
  41.7973992  11.8594476  58.5365026  43.4523576  22.2496544  59.7524808
  43.4099755  22.4757391  58.8233340  44.3686275  22.0159919  59.9010609
  46.8989210  12.7180612  66.6505438  47.2538598  12.9452085  67.5099903
  47.5461341  13.0498989  66.0282693  52.6286947  15.8399048  57.3554767
  52.4904845  16.0300644  56.4275956  52.2723166  16.6018431  57.8122818
  40.7929073   9.8257143  63.4351779  41.4328452   9.6845902  62.7374742
  39.9606604   9.5391656  63.0590381  52.6556326  17.9075575  62.3666038
  53.0892833  17.8150864  63.2149092  53.3687907  17.8833075  61.7286054
  41.5689377  19.1259573  59.5486771  42.3629975  18.6309893  59.3469346
  40.8581069  18.5977436  59.1854477  46.3884221  21.5077669  63.8999139
  46.4421244  22.0768605  64.6676855  45.5199003  21.6779554  63.5353176
  37.8772140  13.2702655  55.6246524  36.9469728  13.2087111  55.8416486
  37.9729612  12.7478608  54.8283165  37.7957689   9.7957468  58.2124765
  38.0564507  10.7102801  58.1033926  38.6174862   9.3281910  58.3621378
  39.2682615  11.2095225  65.3823590  39.9405668  11.0012587  64.7336239
  38.4412401  11.0117311  64.9428822  53.5171876  17.9499275  64.8998923
  53.7107766  18.8545086  65.1458198  53.4172494  17.4906694  65.7337508
  45.1708187   7.8357166  67.3989251  44.5236102   8.5347116  67.3053727
  45.9409202   8.2693310  67.7665499  48.5786985  18.1006018  70.4739804
  48.4272491  17.8716570  69.5569888  48.5691664  19.0576620  70.4871149
  45.3472321  15.6737931  65.4586070  46.2764381  15.8249091  65.2855038
  44.9263351  15.7621952  64.6034717  44.1460653  19.6988595  63.2284608
  44.0071739  19.3307380  64.1010546  43.3575249  20.2136235  63.0568566
  44.7408805  24.7997692  54.5710145  44.9160561  24.3285735  55.3855767
  44.0541593  25.4263458  54.7991405  45.6965868  19.0770198  60.6173446
  45.3615701  19.0370968  61.5131096  45.1969814  18.4114914  60.1443856
  39.6710112  14.4837828  66.1426027  39.5329910  13.7518067  66.7437566
  40.5815035  14.3946728  65.8610215  48.6325060  16.4226232  50.8910506
  48.0154230  15.6973061  50.7943558  48.1641548  17.1835593  50.5477580
  42.2992413  14.1957787  65.6309707  43.0092031  13.5550980  65.5896325
  42.2561721  14.4470682  66.5535887  50.2879191  21.1325141  68.5516286
  50.2291738  20.4484361  67.8846869  50.6898710  21.8744131  68.0996912
  41.0121347  11.1823005  67.4505346  40.4758704  10.7313744  68.1026943
  40.4238055  11.3168914  66.7075811  39.3069890  27.9487055  61.3450005
  39.5466488  28.5805579  62.0229023  38.4639087  27.5975095  61.6315364
  40.4223606  10.6411657  50.0131810  39.5453072  10.5200457  49.6494057
  40.8981359   9.8497735  49.7610698  50.2896599  19.0964725  66.7830266
  49.4023377  18.7590646  66.9056664  50.8595150  18.3647756  67.0199031
  31.9425746  15.4288816  60.1073317  32.6296786  15.1150546  59.5194332
  31.7873874  16.3330181  59.8340568  36.7460468  10.3179013  64.5358341
  36.6618657   9.7104683  63.8008751  35.9243174  10.8088031  64.5367837
  43.8197752  23.7566177  63.7491509  43.7467923  24.5621148  64.2610813
  43.3775145  23.9558143  62.9239530  43.6087532  22.9937947  57.2594330
  42.8255054  23.5359627  57.3532555  44.3080277  23.5111927  57.6588572
  46.9184182   8.8032576  59.9028536  47.4152881   8.0502539  59.5829606
  46.1471163   8.8396893  59.3371745  54.7713939  14.5072942  61.5446827
  54.7603815  15.3897657  61.1740760  53.9031319  14.1544493  61.3501364
  46.2796436  23.6553011  65.9049667  46.9924408  24.2900476  65.8325569
  45.7886464  23.7516877  65.0889669  48.0013962  17.5604264  57.4766959
  47.0670241  17.6805726  57.3071663  48.1790631  16.6576730  57.2126969
  43.5019151  10.9449959  59.6300220  43.1316938  10.3921000  60.3181126
  43.9978243  10.3408093  59.0775220  51.3886514  13.4021583  58.0116993
  51.8546966  14.2349575  57.9377296  51.8394014  12.9366565  58.7162252
  41.3308349  21.4047454  66.7255238  42.0317809  22.0383937  66.8784633
  40.8603464  21.7462186  65.9650878  49.4562745  19.7465404  55.0103145
  49.7322589  19.6321999  55.9197019  48.5867244  19.3482889  54.9715318
  49.3603177   5.7702170  62.0507895  48.4466256   6.0006397  62.2190102
  49.7896278   5.8540614  62.9021927  49.1309635  13.9592062  64.5507789
  48.4781085  14.2067969  63.8960241  49.5090015  13.1456200  64.2170266
  46.0916809  23.9951755  58.6535959  46.2739203  23.1773411  59.1163711
  46.9149795  24.2119447  58.2160849  46.4258974  22.9219940  55.9151007
  46.9546741  22.4112395  55.3021170  46.6887194  22.6062470  56.7796540
  45.1797208  14.7011873  71.0373826  44.5037845  14.6006002  71.7076201
  46.0024842  14.5451087  71.5009823  36.9276067  20.9383810  63.6586341
  37.5129504  20.1927497  63.7914245  36.7300906  21.2487766  64.5423005
  39.7814722  23.9735057  58.6748783  39.1125098  24.4581185  58.1912823
  39.6427592  24.2204277  59.5892162  31.5193722  13.5089410  62.3790784
  31.5577821  12.9753000  63.1727902  31.0134015  12.9824615  61.7601761
  43.9219991  26.0078800  65.2731442  44.4738299  26.1710422  66.0380527
  44.2626184  26.5983238  64.6011467  38.8984484   8.3553950  65.8753326
  38.9625811   9.2168781  65.4630724  38.8351604   7.7427952  65.1425685
  38.3736757  10.4277083  69.5226361  39.0008796  10.0454160  70.1363885
  37.5164676  10.2091285  69.8882053  48.7730865  20.8340058  71.1280096
  49.3170769  21.4470016  70.6335051  48.1917710  21.3919636  71.6447109
  35.1502299  12.2353512  55.4544715  35.4455741  11.3264190  55.4011769
  34.2490335  12.2141251  55.1325718  47.0588378  23.9560776  62.2595124
  46.9339518  23.1550516  61.7506069  47.7167469  24.4506969  61.7709094
  38.6796546  10.3109508  61.4372264  37.9583132  10.9245476  61.2979737
  39.4689802  10.8467273  61.3588910  49.1223287  21.7569796  63.8874674
  48.1753622  21.6375147  63.8153001  49.4706060  20.8692294  63.9700935
  41.4822860   7.6463935  67.7112916  42.0057262   7.8926232  68.4739225
  41.2635193   8.4783970  67.2916053  36.8790141   9.9167610  55.5784041
  36.5502847   9.0364988  55.3959147  37.2329512   9.8615278  56.4660430
  46.1269720  21.5522512  60.0879026  45.9794682  20.6239220  60.2686596
  46.9523213  21.5742603  59.6036101  39.9931964  10.2040579  55.9459518
  40.3328037  10.7326501  55.2238127  40.4404085  10.5420985  56.7218085
  49.7303842  22.3751071  61.1743899  50.6550389  22.1693932  61.0368350
  49.5619145  22.1267472  62.0833240  42.6875405   8.5877630  65.3962586
  42.3472225   7.7885443  65.7983266  41.9814411   8.8879341  64.8239420
  43.3391877   5.6726942  63.8489909  44.1617946   5.1987421  63.7268800
  43.5829940   6.4517426  64.3488596  41.9800111   8.7015201  54.1452811
  42.7008474   9.0796454  53.6416528  41.3565415   9.4204078  54.2487789
  46.1231234   9.4060350  55.0811143  46.3394849  10.2884988  54.7799972
  45.6425301   9.0146563  54.3516785  40.8630456  12.3646063  61.6581888
  40.7175036  12.6786366  62.5506170  40.3855659  12.9830963  61.1052787
  42.7226838   9.3548611  61.7062778  42.7088407   8.4589704  61.3695076
  43.4399267   9.3619275  62.3401064  44.5752969   9.7885951  63.7515905
  44.3170747  10.7103022  63.7500235  44.0438010   9.3916386  64.4416369
  49.5199158  22.8936738  56.5305990  49.6936035  22.3283161  55.7779843
  50.0128049  23.6937633  56.3485480  35.3376118  14.9051408  64.5969549
  34.7929586  15.6811215  64.7289824  36.2155468  15.2522212  64.4388671
  42.1263734   8.2362991  56.9750348  42.2479646   7.3079638  57.1741235
  41.8365777   8.2501677  56.0628663  44.9954925   5.9217902  60.1117068
  45.0176622   5.9857235  59.1569047  45.4122984   5.0822410  60.3057574
  55.3738549  15.6573161  58.1496290  55.8169695  14.9080487  57.7515413
  54.4965059  15.6483298  57.7670022  50.5074330  22.2103503  53.6302889
  51.2025235  22.8310196  53.8490203  50.8497481  21.3598854  53.9055267
  36.1242140  14.0321304  67.4899706  35.3823876  14.1803939  68.0764336
  35.8034884  14.2929569  66.6266455  52.4065754  19.6603208  55.1590219
  52.9317078  19.9990481  54.4339539  52.3188106  18.7250224  54.9753354
  44.0685802  23.5737282  67.2880096  44.3772929  23.3286429  68.1602796
  44.8661284  23.7783920  66.7998966  44.0906414  25.7275192  59.5185473
  43.6511405  25.2351570  60.2118329  44.8414531  25.1848159  59.2777548
  36.5698753  21.9186733  59.5210101  37.3956773  21.6190504  59.1408744
  36.2192805  21.1494355  59.9699889  41.5380286  21.2713201  61.5907774
  40.9160296  20.6083906  61.2910002  42.2085153  21.2974333  60.9081422
  34.7707358  19.8373059  60.4799034  33.9339267  19.4095233  60.2983036
  34.7431004  20.0305502  61.4169825  41.6104814   9.7494989  71.1840280
  41.6592969  10.6257112  70.8018050  42.1527328   9.2072382  70.6111924
  52.0959660  20.2936112  70.4641417  51.3055203  20.2760251  69.9245917
  51.8593014  20.8324406  71.2190454  52.2157535  17.1428578  67.7774146
  52.2655540  16.9778586  68.7189669  52.1071458  16.2755837  67.3872027
  41.0993793  19.8217124  55.0666235  41.2481914  20.5052588  54.4132908
  41.9060237  19.8022214  55.5815691  49.5061297  13.1259506  69.0933453
  50.4071160  12.9865971  68.8017450  49.5809272  13.2913961  70.0331630
  43.8404102  10.5026361  67.9386639  42.9707412  10.7959927  67.6669228
  44.0763583  11.0866806  68.6593903  53.7175732  19.5625520  68.0216167
  53.4260540  19.9255500  68.8579628  53.1047863  18.8492528  67.8429500
  54.9171414  17.1278400  60.5418738  55.7518305  17.5668204  60.7056298
  55.0530543  16.6517053  59.7226983  51.9662920  14.6858135  66.4896225
  52.4417041  14.8785781  65.6815077  51.0428485  14.7417320  66.2439609
  38.8546426  15.8482302  56.0727304  38.6092468  14.9444632  56.2707514
  39.0242341  15.8499452  55.1306782  46.5443136   6.7205978  65.4552059
  47.0625080   7.4567005  65.1298548  46.1898269   7.0269971  66.2898818
  38.1242074  11.5810659  53.5713465  37.4311319  11.6555014  52.9153501
  37.8793826  10.8171003  54.0934982  46.7955730   3.1406261  60.9752956
  47.0757484   2.4729450  61.6013382  47.5806337   3.3335356  60.4627620
  44.5989199  22.3165255  52.5377982  44.0263166  22.9355442  52.0848454
  45.1721993  22.8664616  53.0717904  50.6664589  11.5623895  64.7224531
  51.6182012  11.6621992  64.7436755  50.4968039  10.7702163  65.2322615
  48.6878968   8.6479478  64.9083932  48.0928900   8.9284491  64.2130421
  48.4028665   9.1373379  65.6800673  47.8186459  22.6002405  53.6686565
  48.7517132  22.5347966  53.8719440  47.7309672  23.4358672  53.2101097
  50.4474475  21.9168275  50.6290512  50.3688107  21.5828139  51.5226270
  51.2684142  22.4090043  50.6281984  53.1452667  14.7830014  63.8366831
  53.1128987  13.8446015  64.0226515  53.7553290  14.8614051  63.1032656
  44.9835997  13.6526067  49.8794035  45.9295102  13.5232275  49.9482453
  44.6050242  12.9140729  50.3563463  53.2947155  11.5741058  63.8825114
  52.7786204  10.7899514  63.6955043  54.1787104  11.2459774  64.0471633
  50.9557882   5.3182073  59.8420927  50.7582703   5.0097162  60.7264259
  51.5657588   6.0443712  59.9718856  58.9629216  15.8446021  62.9772868
  59.6932605  15.5831309  63.5380571  58.3536162  15.1074743  63.0174935
  57.0444514  13.9853884  63.5747319  56.3177677  13.8509849  62.9663810
  56.6291800  14.2930712  64.3804037  44.8674690  17.7043813  71.3394692
  45.7877699  17.8822412  71.5334738  44.8324273  16.7599859  71.1874391
  43.1678915  11.5776044  49.8148920  42.2610370  11.2809156  49.8911634
  43.4454896  11.2805862  48.9483206  34.0856855  12.8982407  60.2647966
  33.7659639  12.0447715  59.9722340  33.5390283  13.1130985  61.0205934
  37.8636762  15.6144848  63.9817473  38.0822772  16.5461956  64.0005507
  38.2762536  15.2552822  64.7672277  44.7840980   6.1212933  55.9693161
  43.9741709   5.7760018  56.3448407  45.4725397   5.8120477  56.5580773
  46.7131529   5.1990980  57.5917458  47.2662567   5.6186434  58.2507481
  46.9501615   4.2726728  57.6340414  42.7364628  11.1878054  73.3720222
  42.6361355  12.1372411  73.3032313  42.5186170  10.8596293  72.4996292
  41.9377699   8.4362979  49.9560899  42.7996863   8.7617877  50.2156717
  42.1228043   7.6494475  49.4433965  33.9545115  16.5185319  62.2341088
  33.2608586  16.1039271  61.7211042  34.7018106  16.5605855  61.6374507
  50.0910336   7.3091505  57.0996122  49.5109005   7.9676309  56.7174175
  49.8246268   6.4868850  56.6883540  48.5413902   6.7096563  59.3017443
  49.0413680   6.8213098  58.4931761  49.1849510   6.4057616  59.9418251
  42.5995898  14.6175193  72.1885283  42.1162980  15.4175553  72.3949173
  42.6856837  14.6283138  71.2352727  35.8681857  16.4503572  60.1107103
  35.8452546  16.5491260  59.1588986  36.1782494  17.2968723  60.4324269
  38.5269235  18.5079727  64.2253717  39.4812489  18.4763670  64.1583649
  38.3281759  18.0470351  65.0403943  39.1168617  17.0780843  66.7924515
  39.9361506  17.5724922  66.8159352  39.3905425  16.1612812  66.7642082
  48.8735214   9.4691596  56.1552470  47.9861069   9.7541246  55.9372665
  49.2889203   9.3085359  55.3079747  52.2249750   9.4938117  59.8706810
  53.0010140   9.9834569  60.1431427  51.4997884   9.9196171  60.3278679
  54.6622308  10.2065736  60.9280750  55.2566799   9.9661472  60.2174059
  54.7348892   9.4872867  61.5554287  36.8819464  24.0499347  61.2423915
  36.7473932  23.2899748  60.6761913  36.4651526  24.7740247  60.7752704
  48.0178427  19.2336270  50.2500490  48.7214277  19.4386273  50.8658146
  47.2941076  19.8013032  50.5149574  48.8476237  14.9846132  56.3702761
  48.7911439  15.4414683  55.5310393  49.4004580  14.2236816  56.1925603
  52.6581043  10.7735864  57.1952880  52.4017978  10.3732499  58.0261088
  52.0333911  11.4879657  57.0703019  56.9693381  13.5131937  59.7024171
  56.4092939  13.5825126  60.4755734  56.3636885  13.3372921  58.9823668
  40.0388590  24.9468664  61.4542358  39.9220974  25.8914096  61.3521048
  39.2181036  24.6442225  61.8428157  49.9265125  19.6718800  52.2998950
  50.7610728  19.2399998  52.1176425  49.7649467  19.5000813  53.2275845
  49.5811017  16.1750913  53.6655290  49.5259821  16.0095184  52.7243734
  48.9557072  16.8826946  53.8217479  34.3703532  11.4118977  67.4916712
  35.0162395  10.9017931  67.9803937  34.1620683  12.1487659  68.0660137
  46.8956924  18.4799825  72.9908853  47.7648084  18.6540477  72.6295487
  46.4163675  19.2994242  72.8684582  42.8907142   5.6759022  53.2440608
  42.8785812   6.6200862  53.4008879  43.7830564   5.4929167  52.9500069
  41.0643104  25.5996926  64.6698286  41.9670351  25.6320536  64.9864781
  40.8380474  24.6697377  64.6844622  42.8196706  24.3527912  61.3308365
  41.8692337  24.3529774  61.2172737  43.1229192  23.6060647  60.8144399
  46.7059262   2.2701799  57.4986545  45.9391657   1.7160285  57.6443227
  47.1169967   2.3423667  58.3600697  38.7101023   8.5586594  71.5891726
  39.5732484   8.2023399  71.7995051  38.1366433   8.2200489  72.2767130
  58.5549400  30.1888451  62.3954127  59.1927810  30.0695198  61.6917467
  58.4370243  31.1369295  62.4542079  55.3639106  30.1415879  62.3315652
  55.0257617  30.0256944  61.4436187  56.2328874  29.7407044  62.3116658
  51.2225922  31.9951355  58.3212543  50.6590787  31.9041292  57.5528831
  51.1078317  31.1751260  58.8015035  55.8458889  31.2950731  68.2901857
  55.8347530  30.9003529  67.4182361  56.0079528  30.5616803  68.8835629
  56.8025480  35.6622323  53.6327008  56.1513460  36.2476403  53.2461022
  57.5969843  36.1928518  53.6922045  52.5666150  34.0787842  67.2381041
  52.2756016  34.9833473  67.1227708  53.2023134  34.1204370  67.9525111
  53.4922357  31.4564691  63.8282401  54.0885929  31.2320713  63.1139364
  53.5497328  30.7149436  64.4307849  53.0647385  28.9104126  51.6632592
  53.3172906  28.3885647  50.9016055  52.1271944  28.7470272  51.7659276
  58.1090668  27.9139905  59.4707335  58.8953757  27.4959328  59.1197752
  58.3729372  28.8185997  59.6388984  58.2800745  33.3512755  54.1695992
  57.6446578  33.4247381  54.8816897  57.9498152  33.9406354  53.4915071
  63.5099095  27.8515138  60.3740314  64.2424267  27.2814355  60.6078143
  62.7538451  27.4636738  60.8146819  52.7843674  30.8132232  53.8656967
  52.6679932  30.1377136  54.5338051  52.8945934  30.3264606  53.0489120
  55.1275215  30.2742379  57.5703656  54.7633422  29.7473000  58.2816578
  55.9842331  29.8840848  57.3970142  61.0324516  21.5636712  64.8334922
  60.7007840  22.4332123  64.6096137  60.4370129  21.2472996  65.5128953
  54.7680702  25.3032279  52.5665005  54.9355104  26.1712515  52.9335476
  54.5777871  25.4659561  51.6426294  57.5256035  33.7649258  64.2330835
  57.2256758  34.6674297  64.1246642  57.1807095  33.4981441  65.0851988
  50.9768517  30.2163055  60.2667540  50.0519013  30.0839269  60.4745231
  51.2252930  30.9957274  60.7637482  60.9253179  26.2831798  61.9128272
  60.0170056  26.2147206  61.6187033  60.8740775  26.7603743  62.7410098
  54.7469923  27.7589936  53.5511672  54.6269548  28.2046987  54.3897152
  54.0522511  28.1075254  52.9925210  48.3377328  29.8596328  61.1011329
  48.4669709  30.1130807  62.0150740  47.6574779  30.4524036  60.7815984
  54.9994045  27.7021444  69.8563170  54.2227379  28.2615364  69.8466034
  55.6384608  28.1878227  70.3778040  62.7914825  24.4848236  63.6906146
  62.1489206  24.7780770  63.0445941  62.2869754  24.3701157  64.4959343
  60.4454989  28.2311410  54.3792006  61.3572845  28.4638796  54.2039703
  59.9364636  28.8148454  53.8167084  53.2540417  30.5106897  69.4181137
  53.9955101  31.0491941  69.1415960  52.5477402  31.1373186  69.5752689
  58.7295757  32.6536037  68.0153298  59.1379113  32.2118448  67.2707931
  58.0073018  32.0788665  68.2687491  55.0826827  27.5908644  65.3886855
  55.9288022  28.0148058  65.5321504  55.0225464  26.9342269  66.0825418
  59.0524571  33.2137228  61.7705587  58.4233434  33.3782942  61.0681655
  58.6650233  33.6278838  62.5416551  62.9313803  34.1491666  59.1249951
  62.2464841  34.5290567  58.5746984  63.0157652  34.7586993  59.8581899
  58.2326272  25.2513013  67.0468029  57.9887204  26.0055073  66.5102304
  58.5086203  25.6298360  67.8815276  60.1864735  31.7951625  65.7245294
  60.3981630  32.4383385  65.0479675  60.1394483  30.9613942  65.2567224
  57.7890964  24.4069446  62.6281867  56.9275443  24.7050699  62.9198604
  57.8153398  24.6239845  61.6962899  54.6052533  32.9511636  59.0355672
  55.0690879  33.2299339  58.2460295  54.3409331  32.0495081  58.8528763
  53.5421419  29.0734789  55.8445237  54.2445463  29.5255832  56.3119164
  53.2102048  28.4318607  56.4725130  51.9901781  27.6646545  70.2196447
  51.3600441  28.3462826  70.4531844  51.8837869  27.5529627  69.2749585
  47.2846753  27.3318341  61.1462371  46.4945807  27.5875870  60.6702481
  47.7758001  28.1466679  61.2514411  61.3010563  34.6723580  63.8967652
  62.1228006  34.2703768  63.6150333  61.2972966  34.5691815  64.8483768
  49.2361499  27.6962920  58.1045848  48.4392662  27.8081615  58.6229343
  49.0087091  28.0349573  57.2386738  55.0667166  34.2207624  66.0528362
  55.1311599  34.6828031  66.8886534  54.3578090  33.5904989  66.1810672
  45.5684456  27.5848832  63.5777362  45.8192495  28.4695842  63.8434938
  46.1044005  27.4053433  62.8052454  69.3916556  31.0162329  60.2452623
  68.6380264  30.4469727  60.0896628  69.5264097  30.9824993  61.1923258
  51.2682523  21.9667311  72.5821698  50.8749469  21.4133510  73.2569342
  52.0848664  22.2777890  72.9728215  54.1850484  23.3825190  70.1741954
  54.9260198  23.9832343  70.0946417  54.4168407  22.6402828  69.6159997
  49.3291822  28.5681557  68.4520184  49.2145338  27.6666815  68.7527283
  48.4736340  28.8145254  68.1005001  56.4083660  36.5099298  70.0507685
  55.9647514  35.7235676  69.7328589  57.0700874  36.6978448  69.3851575
  58.5064898  36.7902098  68.0789086  58.4883374  37.6110979  67.5869355
  59.4284818  36.6656173  68.3039227  54.9637952  34.3046227  68.9212594
  55.4966289  33.5434515  68.6911902  54.4352034  34.0119879  69.6636749
  58.1307647  19.4106293  64.4506236  57.7871917  20.3007935  64.3745347
  58.4986610  19.2207951  63.5875821  58.0957930  29.4014904  52.9578671
  57.5804554  30.1719509  53.1967059  57.8235239  28.7280040  53.5811733
  55.6805041  24.2464605  58.0163909  54.8246638  23.8571455  57.8369548
  56.0931993  24.3256566  57.1563695  57.2104188  21.7810948  62.4155469
  56.7068983  21.7441083  61.6023275  57.5034795  22.6903691  62.4752126
  53.4547074  21.8649678  61.4221651  54.3200070  21.6692487  61.0627540
  53.5224583  21.6360030  62.3491008  63.0692204  32.1547259  54.8931845
  62.2921647  31.8158418  54.4487007  63.7483685  32.1599882  54.2186810
  57.8844233  27.2741996  54.7838452  57.5794369  27.5888145  55.6348595
  58.8374675  27.3523416  54.8265785  56.3290665  33.4332220  56.4331406
  55.8012027  32.6984979  56.1204644  55.8278168  34.2106896  56.1871375
  61.3083511  31.6281240  61.5498453  60.6507186  32.3180501  61.6378581
  62.1123910  32.0177672  61.8932439  51.0609393  24.0951886  58.7938018
  51.6353145  23.8727067  58.0611211  51.6480375  24.1640580  59.5466619
  60.1188970  29.9825613  59.6002394  60.6320852  30.6155605  60.1024104
  60.7690194  29.3826808  59.2345754  51.3878980  26.1256347  52.8133903
  50.5516292  26.4631033  53.1343178  51.2483750  25.9905327  51.8761040
  53.3632060  20.9693135  57.5213087  52.7096473  20.6542152  56.8969702
  53.3212535  20.3468875  58.2472910  54.4743265  31.2512430  49.4366379
  53.5670327  31.0201683  49.6357528  54.9714297  30.4550049  49.6240361
  57.3811344  39.9609937  52.3563065  56.7073043  40.2641634  52.9648023
  57.7677166  40.7639017  52.0068523  56.5969801  27.4575068  61.8460735
  55.6792362  27.6790015  61.6882423  57.0129944  27.5321379  60.9872442
  57.3804849  28.8566484  56.9763415  58.1276668  29.3687881  56.6670537
  57.6496438  28.5350537  57.8367809  55.6531499  31.3525025  53.9590369
  54.7442718  31.0684058  54.0562839  55.6826583  31.7724103  53.0993676
  60.8850766  34.9631614  57.7281537  60.4313093  34.1222524  57.7846727
  60.2544733  35.5993013  58.0656317  59.8283686  25.8923600  58.9582204
  59.0906443  25.3800986  59.2892447  60.0810459  25.4523982  58.1465481
  59.3283705  36.8008111  58.6631355  59.6206680  37.3613168  57.9443721
  59.8382326  37.0936672  59.4184514  59.9295313  18.6699852  59.5523974
  60.2354190  17.8097216  59.2649889  60.6547918  19.2617472  59.3522968
  46.2219669  29.0730539  57.9405572  46.0244069  28.4799900  57.2156638
  45.6666333  28.7682749  58.6581510  54.2016393  28.9653645  60.0600165
  54.2565003  28.0127482  59.9842641  53.3907595  29.1213084  60.5441463
  55.3507587  32.8933768  51.2978448  54.9127016  32.1769627  50.8384085
  56.0918027  33.1209883  50.7363539  52.1408753  27.5830705  57.8190544
  51.3276618  27.8824876  58.2255736  52.6367747  27.1886394  58.5365026
  57.7382964  28.0472530  66.6505438  58.0932352  28.2744003  67.5099903
  58.3855096  28.3790906  66.0282693  63.4680701  31.1690965  57.3554767
  63.3298600  31.3592561  56.4275956  63.1116920  31.9310348  57.8122818
  51.6322827  25.1549061  63.4351779  52.2722207  25.0137820  62.7374742
  50.8000358  24.8683574  63.0590381  63.4950081  33.2367492  62.3666038
  63.9286588  33.1442782  63.2149092  64.2081662  33.2124993  61.7286054
  57.2277976  36.8369587  63.8999139  57.2814998  37.4060523  64.6676855
  56.3592757  37.0071472  63.5353176  48.7165895  28.5994573  55.6246524
  47.7863483  28.5379028  55.8416486  48.8123367  28.0770526  54.8283165
  48.6351444  25.1249386  58.2124765  48.8958261  26.0394719  58.1033926
  49.4568616  24.6573828  58.3621378  50.1076369  26.5387143  65.3823590
  50.7799423  26.3304505  64.7336239  49.2806156  26.3409229  64.9428822
  64.3565631  33.2791193  64.8998923  64.5501521  34.1837004  65.1458198
  64.2566249  32.8198612  65.7337508  56.0101941  23.1649084  67.3989251
  55.3629856  23.8639033  67.3053727  56.7802957  23.5985228  67.7665499
  59.4180739  33.4297936  70.4739804  59.2666246  33.2008488  69.5569888
  59.4085419  34.3868537  70.4871149  56.1866076  31.0029849  65.4586070
  57.1158136  31.1541008  65.2855038  55.7657106  31.0913869  64.6034717
  54.9854407  35.0280513  63.2284608  54.8465493  34.6599297  64.1010546
  54.1969004  35.5428152  63.0568566  56.5359623  34.4062116  60.6173446
  56.2009455  34.3662886  61.5131096  56.0363568  33.7406832  60.1443856
  50.5103866  29.8129746  66.1426027  50.3723664  29.0809985  66.7437566
  51.4208790  29.7238646  65.8610215  59.4718814  31.7518150  50.8910506
  58.8547985  31.0264978  50.7943558  59.0035303  32.5127510  50.5477580
  53.1386167  29.5249705  65.6309707  53.8485786  28.8842897  65.5896325
  53.0955475  29.7762600  66.5535887  61.1272946  36.4617058  68.5516286
  61.0685492  35.7776279  67.8846869  61.5292464  37.2036048  68.0996912
  51.8515101  26.5114923  67.4505346  51.3152458  26.0605661  68.1026943
  51.2631810  26.6460832  66.7075811  51.2617360  25.9703574  50.0131810
  50.3846826  25.8492375  49.6494057  51.7375113  25.1789653  49.7610698
  61.1290353  34.4256642  66.7830266  60.2417132  34.0882564  66.9056664
  61.6988904  33.6939674  67.0199031  42.7819500  30.7580734  60.1073317
  43.4690540  30.4442464  59.5194332  42.6267629  31.6622099  59.8340568
  47.5854222  25.6470931  64.5358341  47.5012411  25.0396600  63.8008751
  46.7636929  26.1379949  64.5367837  57.7577936  24.1324494  59.9028536
  58.2546636  23.3794456  59.5829606  56.9864918  24.1688811  59.3371745
  65.6107694  29.8364860  61.5446827  65.5997570  30.7189575  61.1740760
  64.7425073  29.4836411  61.3501364  57.1190190  38.9844929  65.9049667
  57.8318162  39.6192394  65.8325569  56.6280219  39.0808795  65.0889669
  58.8407717  32.8896181  57.4766959  57.9063996  33.0097644  57.3071663
  59.0184385  31.9868648  57.2126969  54.3412905  26.2741877  59.6300220
  53.9710693  25.7212918  60.3181126  54.8371997  25.6700011  59.0775220
  62.2280268  28.7313501  58.0116993  62.6940720  29.5641492  57.9377296
  62.6787769  28.2658482  58.7162252  52.1702104  36.7339372  66.7255238
  52.8711563  37.3675855  66.8784633  51.6997219  37.0754104  65.9650878
  60.2956499  35.0757322  55.0103145  60.5716343  34.9613917  55.9197019
  59.4260998  34.6774807  54.9715318  60.1996931  21.0994088  62.0507895
  59.2860011  21.3298314  62.2190102  60.6290032  21.1832532  62.9021927
  59.9703390  29.2883980  64.5507789  59.3174840  29.5359887  63.8960241
  60.3483769  28.4748118  64.2170266  57.2652729  38.2511858  55.9151007
  57.7940495  37.7404313  55.3021170  57.5280948  37.9354388  56.7796540
  56.0190963  30.0303791  71.0373826  55.3431600  29.9297920  71.7076201
  56.8418596  29.8743004  71.5009823  42.3587476  28.8381327  62.3790784
  42.3971576  28.3044918  63.1727902  41.8527769  28.3116533  61.7601761
  49.7378239  23.6845868  65.8753326  49.8019565  24.5460699  65.4630724
  49.6745359  23.0719870  65.1425685  49.2130511  25.7569000  69.5226361
  49.8402550  25.3746078  70.1363885  48.3558430  25.5383202  69.8882053
  59.6124620  36.1631976  71.1280096  60.1564524  36.7761934  70.6335051
  59.0311465  36.7211554  71.6447109  45.9896054  27.5645430  55.4544715
  46.2849495  26.6556108  55.4011769  45.0884090  27.5433169  55.1325718
  49.5190301  25.6401426  61.4372264  48.7976887  26.2537394  61.2979737
  50.3083557  26.1759191  61.3588910  59.9617041  37.0861714  63.8874674
  59.0147377  36.9667065  63.8153001  60.3099814  36.1984212  63.9700935
  52.3216614  22.9755853  67.7112916  52.8451016  23.2218149  68.4739225
  52.1028948  23.8075887  67.2916053  47.7183896  25.2459527  55.5784041
  47.3896602  24.3656906  55.3959147  48.0723266  25.1907196  56.4660430
  50.8325719  25.5332497  55.9459518  51.1721791  26.0618418  55.2238127
  51.2797839  25.8712903  56.7218085  60.5697596  37.7042989  61.1743899
  61.4944144  37.4985850  61.0368350  60.4012900  37.4559390  62.0833240
  53.5269160  23.9169548  65.3962586  53.1865980  23.1177361  65.7983266
  52.8208166  24.2171259  64.8239420  54.1785631  21.0018860  63.8489909
  55.0011701  20.5279338  63.7268800  54.4223695  21.7809344  64.3488596
  52.8193866  24.0307119  54.1452811  53.5402228  24.4088371  53.6416528
  52.1959170  24.7495995  54.2487789  56.9624989  24.7352268  55.0811143
  57.1788603  25.6176905  54.7799972  56.4819056  24.3438481  54.3516785
  51.7024210  27.6937981  61.6581888  51.5568791  28.0078284  62.5506170
  51.2249414  28.3122881  61.1052787  53.5620593  24.6840529  61.7062778
  53.5482162  23.7881622  61.3695076  54.2793021  24.6911193  62.3401064
  55.4146724  25.1177869  63.7515905  55.1564502  26.0394940  63.7500235
  54.8831764  24.7208304  64.4416369  60.3592912  38.2228656  56.5305990
  60.5329790  37.6575079  55.7779843  60.8521804  39.0229551  56.3485480
  46.1769872  30.2343325  64.5969549  45.6323340  31.0103133  64.7289824
  47.0549222  30.5814130  64.4388671  52.9657489  23.5654909  56.9750348
  53.0873400  22.6371555  57.1741235  52.6759531  23.5793595  56.0628663
  55.8348679  21.2509820  60.1117068  55.8570376  21.3149153  59.1569047
  56.2516738  20.4114328  60.3057574  66.2132304  30.9865079  58.1496290
  66.6563450  30.2372404  57.7515413  65.3358814  30.9775215  57.7670022
  61.3468085  37.5395421  53.6302889  62.0418990  38.1602113  53.8490203
  61.6891235  36.6890772  53.9055267  46.9635894  29.3613221  67.4899706
  46.2217630  29.5095857  68.0764336  46.6428638  29.6221487  66.6266455
  63.2459508  34.9895126  55.1590219  63.7710832  35.3282399  54.4339539
  63.1581861  34.0542141  54.9753354  54.9079557  38.9029200  67.2880096
  55.2166683  38.6578346  68.1602796  55.7055039  39.1075838  66.7998966
  52.4498568  25.0786906  71.1840280  52.4986724  25.9549029  70.8018050
  52.9921083  24.5364300  70.6111924  62.9353414  35.6228030  70.4641417
  62.1448958  35.6052169  69.9245917  62.6986769  36.1616323  71.2190454
  63.0551289  32.4720496  67.7774146  63.1049294  32.3070504  68.7189669
  62.9465213  31.6047755  67.3872027  60.3455052  28.4551424  69.0933453
  61.2464914  28.3157889  68.8017450  60.4203026  28.6205879  70.0331630
  54.6797857  25.8318279  67.9386639  53.8101166  26.1251845  67.6669228
  54.9157337  26.4158724  68.6593903  64.5569486  34.8917438  68.0216167
  64.2654294  35.2547418  68.8579628  63.9441617  34.1784446  67.8429500
  65.7565168  32.4570317  60.5418738  66.5912060  32.8960121  60.7056298
  65.8924297  31.9808971  59.7226983  62.8056674  30.0150052  66.4896225
  63.2810796  30.2077699  65.6815077  61.8822240  30.0709238  66.2439609
  49.6940181  31.1774219  56.0727304  49.4486223  30.2736549  56.2707514
  49.8636095  31.1791370  55.1306782  57.3836891  22.0497896  65.4552059
  57.9018835  22.7858923  65.1298548  57.0292023  22.3561889  66.2898818
  48.9635828  26.9102577  53.5713465  48.2705073  26.9846932  52.9153501
  48.7187580  26.1462921  54.0934982  57.6349485  18.4698178  60.9752956
  57.9151239  17.8021367  61.6013382  58.4200092  18.6627274  60.4627620
  55.4382953  37.6457172  52.5377982  54.8656920  38.2647359  52.0848454
  56.0115747  38.1956534  53.0717904  61.5058343  26.8915812  64.7224531
  62.4575766  26.9913910  64.7436755  61.3361794  26.0994081  65.2322615
  59.5272723  23.9771396  64.9083932  58.9322655  24.2576408  64.2130421
  59.2422419  24.4665296  65.6800673  58.6580213  37.9294322  53.6686565
  59.5910886  37.8639884  53.8719440  58.5703426  38.7650589  53.2101097
  61.2868230  37.2460193  50.6290512  61.2081861  36.9120056  51.5226270
  62.1077897  37.7381961  50.6281984  63.9846421  30.1121932  63.8366831
  63.9522741  29.1737933  64.0226515  64.5947045  30.1905969  63.1032656
  55.8229752  28.9817985  49.8794035  56.7688857  28.8524193  49.9482453
  55.4443997  28.2432647  50.3563463  64.1340910  26.9032975  63.8825114
  63.6179958  26.1191432  63.6955043  65.0180858  26.5751692  64.0471633
  61.7951636  20.6473991  59.8420927  61.5976458  20.3389079  60.7264259
  62.4051342  21.3735630  59.9718856  69.8022971  31.1737939  62.9772868
  70.5326359  30.9123227  63.5380571  69.1929916  30.4366661  63.0174935
  67.8838268  29.3145801  63.5747319  67.1571432  29.1801766  62.9663810
  67.4685555  29.6222630  64.3804037  55.7068444  33.0335731  71.3394692
  56.6271454  33.2114330  71.5334738  55.6718027  32.0891776  71.1874391
  54.0072669  26.9067961  49.8148920  53.1004124  26.6101074  49.8911634
  54.2848650  26.6097779  48.9483206  44.9250609  28.2274325  60.2647966
  44.6053394  27.3739633  59.9722340  44.3784038  28.4422903  61.0205934
  48.7030517  30.9436766  63.9817473  48.9216527  31.8753874  64.0005507
  49.1156291  30.5844740  64.7672277  55.6234735  21.4504851  55.9693161
  54.8135463  21.1051936  56.3448407  56.3119152  21.1412395  56.5580773
  57.5525283  20.5282898  57.5917458  58.1056322  20.9478351  58.2507481
  57.7895369  19.6018646  57.6340414  53.5758382  26.5169972  73.3720222
  53.4755109  27.4664328  73.3032313  53.3579924  26.1888210  72.4996292
  52.7771454  23.7654897  49.9560899  53.6390618  24.0909795  50.2156717
  52.9621798  22.9786392  49.4433965  44.7938869  31.8477236  62.2341088
  44.1002341  31.4331189  61.7211042  45.5411860  31.8897773  61.6374507
  60.9304090  22.6383423  57.0996122  60.3502759  23.2968227  56.7174175
  60.6640023  21.8160768  56.6883540  59.3807657  22.0388481  59.3017443
  59.8807435  22.1505015  58.4931761  60.0243264  21.7349534  59.9418251
  53.4389652  29.9467110  72.1885283  52.9556734  30.7467470  72.3949173
  53.5250591  29.9575055  71.2352727  46.7075612  31.7795490  60.1107103
  46.6846300  31.8783177  59.1588986  47.0176248  32.6260641  60.4324269
  49.9562372  32.4072761  66.7924515  50.7755261  32.9016840  66.8159352
  50.2299180  31.4904729  66.7642082  59.7128968  24.7983513  56.1552470
  58.8254823  25.0833164  55.9372665  60.1282957  24.6377277  55.3079747
  63.0643504  24.8230034  59.8706810  63.8403894  25.3126487  60.1431427
  62.3391638  25.2488089  60.3278679  65.5016063  25.5357654  60.9280750
  66.0960554  25.2953390  60.2174059  65.5742647  24.8164784  61.5554287
  58.8572182  34.5628188  50.2500490  59.5608032  34.7678191  50.8658146
  58.1334830  35.1304950  50.5149574  59.6869992  30.3138049  56.3702761
  59.6305193  30.7706601  55.5310393  60.2398334  29.5528734  56.1925603
  63.4974798  26.1027781  57.1952880  63.2411732  25.7024417  58.0261088
  62.8727666  26.8171575  57.0703019  67.8087136  28.8423854  59.7024171
  67.2486694  28.9117044  60.4755734  67.2030639  28.6664839  58.9823668
  60.7658879  35.0010717  52.2998950  61.6004483  34.5691916  52.1176425
  60.6043222  34.8292731  53.2275845  60.4204771  31.5042831  53.6655290
  60.3653575  31.3387102  52.7243734  59.7950826  32.2118864  53.8217479
  45.2097286  26.7410895  67.4916712  45.8556150  26.2309849  67.9803937
  45.0014437  27.4779577  68.0660137  57.7350678  33.8091742  72.9908853
  58.6041838  33.9832395  72.6295487  57.2557430  34.6286159  72.8684582
  53.7300897  21.0050940  53.2440608  53.7179566  21.9492780  53.4008879
  54.6224319  20.8221085  52.9500069  57.5453016  17.5993716  57.4986545
  56.7785412  17.0452203  57.6443227  57.9563721  17.6715585  58.3600697
  49.5494777  23.8878512  71.5891726  50.4126239  23.5315317  71.7995051
  48.9760188  23.5492407  72.2767130  66.2032860  45.4707797  62.3315652
  65.8651372  45.3548861  61.4436187  67.0722629  45.0698962  62.3116658
  62.0619676  47.3243273  58.3212543  61.4984541  47.2333210  57.5528831
  61.9472071  46.5043177  58.8015035  66.6852643  46.6242648  68.2901857
  66.6741284  46.2295447  67.4182361  66.8473283  45.8908721  68.8835629
  67.6419235  50.9914241  53.6327008  66.9907215  51.5768321  53.2461022
  68.4363598  51.5220436  53.6922045  68.9484423  43.2431822  59.4707335
  69.7347512  42.8251245  59.1197752  69.2123127  44.1477914  59.6388984
  69.1194500  48.6804673  54.1695992  68.4840333  48.7539299  54.8816897
  68.7891906  49.2698271  53.4915071  74.3492850  43.1807055  60.3740314
  75.0818022  42.6106272  60.6078143  73.5932205  42.7928656  60.8146819
  63.6237429  46.1424150  53.8656967  63.5073687  45.4669053  54.5338051
  63.7339688  45.6556524  53.0489120  65.9668969  45.6034297  57.5703656
  65.6027177  45.0764918  58.2816578  66.8236085  45.2132766  57.3970142
  71.8718270  36.8928630  64.8334922  71.5401595  37.7624041  64.6096137
  71.2763883  36.5764914  65.5128953  65.6074456  40.6324197  52.5665005
  65.7748859  41.5004433  52.9335476  65.4171626  40.7951478  51.6426294
  71.7646933  41.6123716  61.9128272  70.8563811  41.5439124  61.6187033
  71.7134529  42.0895661  62.7410098  65.5863677  43.0881854  53.5511672
  65.4663303  43.5338905  54.3897152  64.8916266  43.4367172  52.9925210
  65.8387799  43.0313361  69.8563170  65.0621133  43.5907281  69.8466034
  66.4778362  43.5170144  70.3778040  73.6308580  39.8140154  63.6906146
  72.9882960  40.1072687  63.0445941  73.1263508  39.6993074  64.4959343
  71.2848743  43.5603327  54.3792006  72.1966600  43.7930714  54.2039703
  70.7758391  44.1440372  53.8167084  64.0934171  45.8398815  69.4181137
  64.8348856  46.3783859  69.1415960  63.3871157  46.4665103  69.5752689
  65.9220581  42.9200562  65.3886855  66.7681776  43.3439975  65.5321504
  65.8619219  42.2634186  66.0825418  73.7707558  49.4783584  59.1249951
  73.0858596  49.8582485  58.5746984  73.8551407  50.0878910  59.8581899
  69.0720027  40.5804930  67.0468029  68.8280958  41.3346991  66.5102304
  69.3479957  40.9590278  67.8815276  68.6284718  39.7361363  62.6281867
  67.7669197  40.0342617  62.9198604  68.6547153  39.9531762  61.6962899
  64.3815174  44.4026706  55.8445237  65.0839217  44.8547750  56.3119164
  64.0495802  43.7610525  56.4725130  62.8295535  42.9938463  70.2196447
  62.1994196  43.6754744  70.4531844  62.7231623  42.8821544  69.2749585
  60.0755253  43.0254838  58.1045848  59.2786416  43.1373532  58.6229343
  59.8480845  43.3641490  57.2386738  80.2310310  46.3454247  60.2452623
  79.4774019  45.7761645  60.0896628  80.3657851  46.3116911  61.1923258
  62.1076278  37.2959229  72.5821698  61.7143224  36.7425427  73.2569342
  62.9242418  37.6069807  72.9728215  65.0244239  38.7117108  70.1741954
  65.7653952  39.3124261  70.0946417  65.2562162  37.9694746  69.6159997
  67.2477415  51.8391215  70.0507685  66.8041269  51.0527594  69.7328589
  67.9094628  52.0270366  69.3851575  68.9701402  34.7398211  64.4506236
  68.6265671  35.6299852  64.3745347  69.3380365  34.5499868  63.5875821
  66.5198796  39.5756523  58.0163909  65.6640392  39.1863373  57.8369548
  66.9325747  39.6548483  57.1563695  68.0497942  37.1102866  62.4155469
  67.5462738  37.0733001  61.6023275  68.3428549  38.0195609  62.4752126
  64.2940828  37.1941596  61.4221651  65.1593825  36.9984404  61.0627540
  64.3618337  36.9651947  62.3491008  73.9085959  47.4839176  54.8931845
  73.1315402  47.1450336  54.4487007  74.5877440  47.4891800  54.2186810
  68.7237988  42.6033914  54.7838452  68.4188123  42.9180063  55.6348595
  69.6768430  42.6815334  54.8265785  67.1684420  48.7624137  56.4331406
  66.6405781  48.0276897  56.1204644  66.6671922  49.5398814  56.1871375
  61.9003147  39.4243804  58.7938018  62.4746899  39.2018985  58.0611211
  62.4874130  39.4932498  59.5466619  62.2272734  41.4548265  52.8133903
  61.3910047  41.7922951  53.1343178  62.0877504  41.3197244  51.8761040
  64.2025815  36.2985052  57.5213087  63.5490227  35.9834070  56.8969702
  64.1606289  35.6760793  58.2472910  67.4363555  42.7866986  61.8460735
  66.5186117  43.0081933  61.6882423  67.8523699  42.8613296  60.9872442
  68.2198603  44.1858402  56.9763415  68.9670422  44.6979799  56.6670537
  68.4890193  43.8642454  57.8367809  66.4925253  46.6816942  53.9590369
  65.5836473  46.3975975  54.0562839  66.5220337  47.1016021  53.0993676
  70.6677440  41.2215518  58.9582204  69.9300197  40.7092904  59.2892447
  70.9204214  40.7815900  58.1465481  70.7689068  33.9991770  59.5523974
  71.0747944  33.1389133  59.2649889  71.4941672  34.5909390  59.3522968
  65.0410147  44.2945563  60.0600165  65.0958757  43.3419399  59.9842641
  64.2301349  44.4505002  60.5441463  62.9802507  42.9122623  57.8190544
  62.1670373  43.2116793  58.2255736  63.4761501  42.5178312  58.5365026
  68.5776719  43.3764447  66.6505438  68.9326107  43.6035920  67.5099903
  69.2248850  43.7082824  66.0282693  74.3074456  46.4982883  57.3554767
  74.1692354  46.6884479  56.4275956  73.9510675  47.2602266  57.8122818
  62.4716582  40.4840978  63.4351779  63.1115961  40.3429737  62.7374742
  61.6394113  40.1975492  63.0590381  59.4745198  40.4541303  58.2124765
  59.7352016  41.3686636  58.1033926  60.2962371  39.9865746  58.3621378
  60.9470124  41.8679060  65.3823590  61.6193177  41.6596423  64.7336239
  60.1199910  41.6701146  64.9428822  66.8495696  38.4941001  67.3989251
  66.2023611  39.1930951  67.3053727  67.6196711  38.9277145  67.7665499
  70.2574494  48.7589854  70.4739804  70.1060000  48.5300405  69.5569888
  70.2479173  49.7160455  70.4871149  62.6908856  41.8406841  67.4505346
  62.1546213  41.3897579  68.1026943  62.1025564  41.9752749  66.7075811
  58.4247977  40.9762848  64.5358341  58.3406166  40.3688518  63.8008751
  57.6030683  41.4671867  64.5367837  68.5971691  39.4616412  59.9028536
  69.0940390  38.7086374  59.5829606  67.8258672  39.4980728  59.3371745
  76.4501448  45.1656777  61.5446827  76.4391324  46.0481493  61.1740760
  75.5818828  44.8128328  61.3501364  69.6801471  48.2188099  57.4766959
  68.7457750  48.3389562  57.3071663  69.8578140  47.3160566  57.2126969
  65.1806659  41.6033795  59.6300220  64.8104447  41.0504835  60.3181126
  65.6765752  40.9991928  59.0775220  73.0674023  44.0605418  58.0116993
  73.5334475  44.8933410  57.9377296  73.5181523  43.5950400  58.7162252
  71.1350254  50.4049240  55.0103145  71.4110098  50.2905834  55.9197019
  70.2654753  50.0066724  54.9715318  71.0390686  36.4286005  62.0507895
  70.1253765  36.6590232  62.2190102  71.4683787  36.5124449  62.9021927
  66.8584717  45.3595708  71.0373826  66.1825354  45.2589838  71.7076201
  67.6812351  45.2034922  71.5009823  60.5771993  39.0137786  65.8753326
  60.6413320  39.8752617  65.4630724  60.5139113  38.4011787  65.1425685
  60.0524266  41.0860918  69.5226361  60.6796304  40.7037995  70.1363885
  59.1952185  40.8675120  69.8882053  60.3584055  40.9693344  61.4372264
  59.6370641  41.5829312  61.2979737  61.1477311  41.5051109  61.3588910
  63.1610369  38.3047770  67.7112916  63.6844771  38.5510067  68.4739225
  62.9422702  39.1367805  67.2916053  58.5577650  40.5751445  55.5784041
  58.2290356  39.6948824  55.3959147  58.9117021  40.5199114  56.4660430
  61.6719473  40.8624415  55.9459518  62.0115546  41.3910336  55.2238127
  62.1191594  41.2004821  56.7218085  64.3662914  39.2461465  65.3962586
  64.0259734  38.4469278  65.7983266  63.6601920  39.5463176  64.8239420
  65.0179386  36.3310778  63.8489909  65.8405455  35.8571256  63.7268800
  65.2617449  37.1101262  64.3488596  63.6587620  39.3599036  54.1452811
  64.3795983  39.7380289  53.6416528  63.0352924  40.0787913  54.2487789
  67.8018743  40.0644185  55.0811143  68.0182358  40.9468823  54.7799972
  67.3212810  39.6730399  54.3516785  62.5417965  43.0229898  61.6581888
  62.3962545  43.3370202  62.5506170  62.0643168  43.6414799  61.1052787
  64.4014347  40.0132446  61.7062778  64.3875916  39.1173540  61.3695076
  65.1186776  40.0203110  62.3401064  66.2540478  40.4469787  63.7515905
  65.9958256  41.3686857  63.7500235  65.7225519  40.0500221  64.4416369
  63.8051243  38.8946827  56.9750348  63.9267155  37.9663473  57.1741235
  63.5153286  38.9085513  56.0628663  66.6742434  36.5801737  60.1117068
  66.6964131  36.6441070  59.1569047  67.0910493  35.7406246  60.3057574
  77.0526058  46.3156997  58.1496290  77.4957204  45.5664322  57.7515413
  76.1752568  46.3067133  57.7670022  63.2892323  40.4078824  71.1840280
  63.3380478  41.2840947  70.8018050  63.8314837  39.8656217  70.6111924
  71.1848806  43.7843342  69.0933453  72.0858669  43.6449807  68.8017450
  71.2596781  43.9497797  70.0331630  65.5191611  41.1610197  67.9386639
  64.6494921  41.4543763  67.6669228  65.7551092  41.7450642  68.6593903
  76.5958923  47.7862235  60.5418738  77.4305814  48.2252039  60.7056298
  76.7318052  47.3100888  59.7226983  73.6450429  45.3441970  66.4896225
  74.1204550  45.5369616  65.6815077  72.7215994  45.4001156  66.2439609
  68.2230645  37.3789813  65.4552059  68.7412589  38.1150840  65.1298548
  67.8685778  37.6853807  66.2898818  59.8029583  42.2394495  53.5713465
  59.1098828  42.3138850  52.9153501  59.5581335  41.4754838  54.0934982
  68.4743239  33.7990096  60.9752956  68.7544993  33.1313285  61.6013382
  69.2593846  33.9919192  60.4627620  66.2776708  52.9749090  52.5377982
  65.7050675  53.5939277  52.0848454  66.8509502  53.5248452  53.0717904
  72.3452098  42.2207730  64.7224531  73.2969521  42.3205828  64.7436755
  72.1755548  41.4285999  65.2322615  70.3666477  39.3063313  64.9083932
  69.7716409  39.5868326  64.2130421  70.0816174  39.7957214  65.6800673
  74.8240176  45.4413850  63.8366831  74.7916496  44.5029850  64.0226515
  75.4340799  45.5197886  63.1032656  74.9734664  42.2324893  63.8825114
  74.4573713  41.4483350  63.6955043  75.8574613  41.9043610  64.0471633
  72.6345391  35.9765909  59.8420927  72.4370212  35.6680997  60.7264259
  73.2445096  36.7027548  59.9718856  80.6416725  46.5029857  62.9772868
  81.3720114  46.2415145  63.5380571  80.0323671  45.7658578  63.0174935
  78.7232022  44.6437719  63.5747319  77.9965186  44.5093684  62.9663810
  78.3079309  44.9514548  64.3804037  66.5462199  48.3627649  71.3394692
  67.4665208  48.5406248  71.5334738  66.5111782  47.4183694  71.1874391
  66.4628489  36.7796769  55.9693161  65.6529218  36.4343854  56.3448407
  67.1512906  36.4704312  56.5580773  68.3919038  35.8574816  57.5917458
  68.9450076  36.2770269  58.2507481  68.6289124  34.9310564  57.6340414
  64.4152137  41.8461889  73.3720222  64.3148864  42.7956246  73.3032313
  64.1973679  41.5180128  72.4996292  63.6165208  39.0946814  49.9560899
  64.4784372  39.4201713  50.2156717  63.8015552  38.3078310  49.4433965
  71.7697845  37.9675341  57.0996122  71.1896514  38.6260145  56.7174175
  71.5033777  37.1452685  56.6883540  70.2201411  37.3680398  59.3017443
  70.7201189  37.4796933  58.4931761  70.8637019  37.0641451  59.9418251
  64.2783407  45.2759028  72.1885283  63.7950489  46.0759388  72.3949173
  64.3644346  45.2866973  71.2352727  70.5522723  40.1275431  56.1552470
  69.6648578  40.4125082  55.9372665  70.9676712  39.9669194  55.3079747
  73.9037259  40.1521952  59.8706810  74.6797649  40.6418405  60.1431427
  73.1785393  40.5780006  60.3278679  76.3409817  40.8649571  60.9280750
  76.9354308  40.6245307  60.2174059  76.4136401  40.1456702  61.5554287
  70.5263746  45.6429967  56.3702761  70.4698948  46.0998518  55.5310393
  71.0792089  44.8820652  56.1925603  74.3368552  41.4319699  57.1952880
  74.0805487  41.0316335  58.0261088  73.7121420  42.1463493  57.0703019
  78.6480890  44.1715772  59.7024171  78.0880448  44.2408961  60.4755734
  78.0424394  43.9956757  58.9823668  71.2598526  46.8334748  53.6655290
  71.2047329  46.6679020  52.7243734  70.6344581  47.5410781  53.8217479
  68.5744433  49.1383660  72.9908853  69.4435593  49.3124312  72.6295487
  68.0951184  49.9578077  72.8684582  64.5694651  36.3342857  53.2440608
  64.5573321  37.2784697  53.4008879  65.4618073  36.1513003  52.9500069
  68.3846771  32.9285634  57.4986545  67.6179166  32.3744121  57.6443227
  68.7957476  33.0007503  58.3600697  60.3888532  39.2170430  71.5891726
  61.2519993  38.8607235  71.7995051  59.8153942  38.8784325  72.2767130
  85.1886604  58.5098973  60.3740314  85.9211776  57.9398190  60.6078143
  84.4325960  58.1220574  60.8146819  82.7112025  52.2220547  64.8334922
  82.3795349  53.0915958  64.6096137  82.1157638  51.9056831  65.5128953
  82.6040688  56.9415633  61.9128272  81.6957565  56.8731042  61.6187033
  82.5528284  57.4187578  62.7410098  84.4702334  55.1432072  63.6906146
  83.8276715  55.4364605  63.0445941  83.9657263  55.0284992  64.4959343
  84.6101312  64.8075501  59.1249951  83.9252350  65.1874403  58.5746984
  84.6945161  65.4170828  59.8581899  79.4678473  55.0653281  62.6281867
  78.6062952  55.3634535  62.9198604  79.4940907  55.2823680  61.6962899
  91.0704065  61.6746164  60.2452623  90.3167773  61.1053562  60.0896628
  91.2051606  61.6408829  61.1923258  79.8095156  50.0690128  64.4506236
  79.4659426  50.9591770  64.3745347  80.1774119  49.8791786  63.5875821
  78.8891697  52.4394784  62.4155469  78.3856492  52.4024919  61.6023275
  79.1822304  53.3487526  62.4752126  84.7479713  62.8131094  54.8931845
  83.9709156  62.4742254  54.4487007  85.4271194  62.8183717  54.2186810
  75.0419569  51.6276970  57.5213087  74.3883982  51.3125987  56.8969702
  75.0000044  51.0052711  58.2472910  81.5071195  56.5507436  58.9582204
  80.7693952  56.0384822  59.2892447  81.7597968  56.1107817  58.1465481
  81.6082822  49.3283688  59.5523974  81.9141699  48.4681051  59.2649889
  82.3335427  49.9201308  59.3522968  85.1468210  61.8274801  57.3554767
  85.0086109  62.0176397  56.4275956  84.7904429  62.5894184  57.8122818
  85.1737590  63.8951328  62.3666038  85.6074097  63.8026617  63.2149092
  85.8869171  63.8708828  61.7286054  86.0353140  63.9375028  64.8998923
  86.2289030  64.8420839  65.1458198  85.9353758  63.4782448  65.7337508
  81.1506323  62.4101985  50.8910506  80.5335494  61.6848814  50.7943558
  80.6822812  63.1711346  50.5477580  79.4365445  54.7908330  59.9028536
  79.9334145  54.0378292  59.5829606  78.6652427  54.8272646  59.3371745
  87.2895203  60.4948695  61.5446827  87.2785079  61.3773410  61.1740760
  86.4212582  60.1420246  61.3501364  83.9067777  59.3897336  58.0116993
  84.3728229  60.2225328  57.9377296  84.3575278  58.9242318  58.7162252
  81.8784440  51.7577923  62.0507895  80.9647520  51.9882150  62.2190102
  82.3077541  51.8416367  62.9021927  81.6490899  59.9467815  64.5507789
  80.9962349  60.1943722  63.8960241  82.0271278  59.1331953  64.2170266
  82.0380421  68.8812491  56.5305990  82.2117299  68.3158914  55.7779843
  82.5309313  69.6813386  56.3485480  77.5136188  51.9093655  60.1117068
  77.5357885  51.9732988  59.1569047  77.9304247  51.0698164  60.3057574
  87.8919813  61.6448914  58.1496290  88.3350959  60.8956240  57.7515413
  87.0146323  61.6359051  57.7670022  83.0255594  68.1979256  53.6302889
  83.7206499  68.8185949  53.8490203  83.3678744  67.3474607  53.9055267
  84.9247017  65.6478961  55.1590219  85.4498341  65.9866234  54.4339539
  84.8369370  64.7125977  54.9753354  84.7338798  63.1304331  67.7774146
  84.7836803  62.9654339  68.7189669  84.6252721  62.2631590  67.3872027
  82.0242561  59.1135259  69.0933453  82.9252423  58.9741724  68.8017450
  82.0990535  59.2789714  70.0331630  86.2356995  65.5501273  68.0216167
  85.9441803  65.9131253  68.8579628  85.6229126  64.8368281  67.8429500
  87.4352677  63.1154153  60.5418738  88.2699569  63.5543957  60.7056298
  87.5711806  62.6392806  59.7226983  84.4844183  60.6733888  66.4896225
  84.9598305  60.8661534  65.6815077  83.5609749  60.7293073  66.2439609
  79.0624400  52.7081731  65.4552059  79.5806344  53.4442758  65.1298548
  78.7079532  53.0145724  66.2898818  79.3136994  49.1282014  60.9752956
  79.5938748  48.4605203  61.6013382  80.0987601  49.3211109  60.4627620
  83.1845852  57.5499648  64.7224531  84.1363275  57.6497745  64.7436755
  83.0149303  56.7577916  65.2322615  81.2060232  54.6355231  64.9083932
  80.6110164  54.9160244  64.2130421  80.9209928  55.1249132  65.6800673
  82.9655739  67.9044028  50.6290512  82.8869370  67.5703892  51.5226270
  83.7865406  68.3965796  50.6281984  85.6633930  60.7705767  63.8366831
  85.6310250  59.8321768  64.0226515  86.2734554  60.8489804  63.1032656
  85.8128418  57.5616811  63.8825114  85.2967467  56.7775267  63.6955043
  86.6968367  57.2335527  64.0471633  83.4739145  51.3057826  59.8420927
  83.2763967  50.9972915  60.7264259  84.0838851  52.0319465  59.9718856
  91.4810480  61.8321774  62.9772868  92.2113868  61.5707062  63.5380571
  90.8717425  61.0950496  63.0174935  89.5625777  59.9729637  63.5747319
  88.8358941  59.8385602  62.9663810  89.1473064  60.2806465  64.3804037
  79.2312792  51.1866733  57.5917458  79.7843831  51.6062187  58.2507481
  79.4682878  50.2602481  57.6340414  82.6091599  53.2967258  57.0996122
  82.0290268  53.9552062  56.7174175  82.3427532  52.4744603  56.6883540
  81.0595165  52.6972316  59.3017443  81.5594944  52.8088851  58.4931761
  81.7030773  52.3933369  59.9418251  84.7431013  55.4813870  59.8706810
  85.5191403  55.9710322  60.1431427  84.0179147  55.9071924  60.3278679
  87.1803572  56.1941489  60.9280750  87.7748063  55.9537225  60.2174059
  87.2530156  55.4748620  61.5554287  80.5359691  65.2212023  50.2500490
  81.2395541  65.4262026  50.8658146  79.8122339  65.7888785  50.5149574
  85.1762307  56.7611617  57.1952880  84.9199241  56.3608252  58.0261088
  84.5515175  57.4755411  57.0703019  89.4874645  59.5007690  59.7024171
  88.9274203  59.5700879  60.4755734  88.8818148  59.3248674  58.9823668
  82.4446388  65.6594553  52.2998950  83.2791992  65.2275751  52.1176425
  82.2830731  65.4876566  53.2275845  79.2240525  48.2577552  57.4986545
  78.4572921  47.7036038  57.6443227  79.6351230  48.3299420  58.3600697
  91.0730663  76.1764204  62.3954127  91.7109073  76.0570951  61.6917467
  90.9551506  77.1245048  62.4542079  87.8820369  76.1291632  62.3315652
  87.5438881  76.0132697  61.4436187  88.7510138  75.7282797  62.3116658
  83.7407185  77.9827108  58.3212543  83.1772050  77.8917045  57.5528831
  83.6259580  77.1627013  58.8015035  88.3640152  77.2826484  68.2901857
  88.3528793  76.8879282  67.4182361  88.5260792  76.5492556  68.8835629
  81.2871617  79.4778300  61.1596763  82.0792909  79.1369125  60.7443063
  81.5268267  79.5873275  62.0798917  89.3206744  81.6498076  53.6327008
  88.6694724  82.2352156  53.2461022  90.1151107  82.1804271  53.6922045
  83.2462371  78.7387213  54.0314142  84.0193247  78.1916200  53.8927018
  83.5987770  79.6031462  54.2428604  85.0847414  80.0663595  67.2381041
  84.7937279  80.9709226  67.1227708  85.7204398  80.1080123  67.9525111
  86.0103620  77.4440444  63.8282401  86.6067193  77.2196466  63.1139364
  86.0678592  76.7025189  64.4307849  85.5828649  74.8979879  51.6632592
  85.8354169  74.3761401  50.9016055  84.6453208  74.7346025  51.7659276
  90.6271932  73.9015658  59.4707335  91.4135021  73.4835081  59.1197752
  90.8910636  74.8061750  59.6388984  90.7982009  79.3388508  54.1695992
  90.1627842  79.4123134  54.8816897  90.4679415  79.9282107  53.4915071
  96.0280359  73.8390891  60.3740314  96.7605531  73.2690108  60.6078143
  95.2719714  73.4512491  60.8146819  85.3024938  76.8007985  53.8656967
  85.1861196  76.1252889  54.5338051  85.4127197  76.3140359  53.0489120
  87.6456478  76.2618132  57.5703656  87.2814686  75.7348753  58.2816578
  88.5023594  75.8716601  57.3970142  93.5505779  67.5512465  64.8334922
  93.2189104  68.4207876  64.6096137  92.9551392  67.2348749  65.5128953
  87.2861965  71.2908032  52.5665005  87.4536368  72.1588268  52.9335476
  87.0959134  71.4535314  51.6426294  90.0437299  79.7525011  64.2330835
  89.7438022  80.6550050  64.1246642  89.6988358  79.4857194  65.0851988
  83.4949780  76.2038808  60.2667540  82.5700277  76.0715022  60.4745231
  83.7434193  76.9833027  60.7637482  93.4434442  72.2707551  61.9128272
  92.5351320  72.2022960  61.6187033  93.3922038  72.7479496  62.7410098
  87.2651186  73.7465689  53.5511672  87.1450811  74.1922740  54.3897152
  86.5703775  74.0951007  52.9925210  80.8558591  75.8472081  61.1011329
  80.9850972  76.1006560  62.0150740  80.1756042  76.4399789  60.7815984
  85.0258078  86.5169331  57.2001803  84.9482108  87.4677156  57.2790283
  84.4219722  86.1715204  57.8576729  87.5175308  73.6897197  69.8563170
  86.7408642  74.2491117  69.8466034  88.1565871  74.1753980  70.3778040
  95.3096089  70.4723989  63.6906146  94.6670469  70.7656523  63.0445941
  94.8051017  70.3576910  64.4959343  92.9636252  74.2187163  54.3792006
  93.8754109  74.4514549  54.2039703  92.4545900  74.8024207  53.8167084
  85.7721680  76.4982650  69.4181137  86.5136365  77.0367694  69.1415960
  85.0658666  77.1248939  69.5752689  91.2477020  78.6411791  68.0153298
  91.6560376  78.1994201  67.2707931  90.5254282  78.0664418  68.2687491
  87.6008090  73.5784397  65.3886855  88.4469285  74.0023811  65.5321504
  87.5406728  72.9218022  66.0825418  91.5705835  79.2012981  61.7705587
  90.9414697  79.3658695  61.0681655  91.1831497  79.6154591  62.5416551
  95.4495067  80.1367419  59.1249951  94.7646105  80.5166320  58.5746984
  95.5338916  80.7462746  59.8581899  90.7507535  71.2388766  67.0468029
  90.5068467  71.9930826  66.5102304  91.0267466  71.6174113  67.8815276
  92.7045998  77.7827378  65.7245294  92.9162894  78.4259138  65.0479675
  92.6575747  76.9489695  65.2567224  90.3072227  70.3945199  62.6281867
  89.4456706  70.6926452  62.9198604  90.3334662  70.6115598  61.6962899
  87.1233797  78.9387389  59.0355672  87.5872142  79.2175092  58.2460295
  86.8590595  78.0370834  58.8528763  84.0157878  78.4858871  61.9735435
  84.5859235  78.9146139  61.3352920  84.6065990  78.2041455  62.6719621
  86.0602683  75.0610542  55.8445237  86.7626726  75.5131585  56.3119164
  85.7283311  74.4194360  56.4725130  84.5083044  73.6522298  70.2196447
  83.8781705  74.3338579  70.4531844  84.4019132  73.5405380  69.2749585
  93.8191826  80.6599333  63.8967652  94.6409270  80.2579521  63.6150333
  93.8154229  80.5567568  64.8483768  87.5848430  80.2083377  66.0528362
  87.6492862  80.6703784  66.8886534  86.8759354  79.5780742  66.1810672
 101.9097819  77.0038082  60.2452623 101.1561528  76.4345480  60.0896628
 102.0445360  76.9700746  61.1923258  87.2996447  81.8751484  55.9207343
  87.1642122  82.7203020  56.3492190  87.8406260  82.0770762  55.1573276
  80.7525845  79.3926922  56.4935268  81.2650365  80.1870173  56.6440832
  81.4048558  78.6953213  56.4268869  82.5620729  82.5092679  58.5758021
  82.7387358  83.4310643  58.3879005  83.3577563  82.1951098  59.0052401
  86.7031748  69.3700943  70.1741954  87.4441461  69.9708096  70.0946417
  86.9349671  68.6278581  69.6159997  81.8473086  74.5557310  68.4520184
  81.7326601  73.6542568  68.7527283  80.9917604  74.8021007  68.1005001
  88.9264924  82.4975051  70.0507685  88.4828778  81.7111429  69.7328589
  89.5882137  82.6854201  69.3851575  83.6852045  84.0270852  64.5768363
  84.2359470  83.8987916  63.8045357  82.8463521  84.3265741  64.2263256
  91.0246162  82.7777851  68.0789086  91.0064637  83.5986732  67.5869355
  91.9466082  82.6531926  68.3039227  87.4819216  80.2921980  68.9212594
  88.0147553  79.5310268  68.6911902  86.9533297  79.9995632  69.6636749
  90.6488911  65.3982046  64.4506236  90.3053180  66.2883688  64.3745347
  91.0167873  65.2083704  63.5875821  90.6139194  75.3890657  52.9578671
  90.0985817  76.1595262  53.1967059  90.3416502  74.7155793  53.5811733
  88.1986305  70.2340358  58.0163909  87.3427901  69.8447208  57.8369548
  88.6113256  70.3132319  57.1563695  89.7285451  67.7686701  62.4155469
  89.2250247  67.7316836  61.6023275  90.0216058  68.6779444  62.4752126
  85.9728337  67.8525431  61.4221651  86.8381334  67.6568240  61.0627540
  86.0405846  67.6235783  62.3491008  95.5873468  78.1423012  54.8931845
  94.8102910  77.8034171  54.4487007  96.2664949  78.1475635  54.2186810
  90.4025497  73.2617749  54.7838452  90.0975632  73.5763898  55.6348595
  91.3555939  73.3399169  54.8265785  88.8471929  79.4207973  56.4331406
  88.3193290  78.6860732  56.1204644  88.3459431  80.1982649  56.1871375
  93.8264775  77.6156993  61.5498453  93.1688449  78.3056254  61.6378581
  94.6305174  78.0053425  61.8932439  83.5790656  70.0827639  58.7938018
  84.1534408  69.8602820  58.0611211  84.1661639  70.1516333  59.5466619
  92.6370233  75.9701366  59.6002394  93.1502115  76.6031358  60.1024104
  93.2871457  75.3702561  59.2345754  83.9060243  72.1132100  52.8133903
  83.0697556  72.4506786  53.1343178  83.7665013  71.9781080  51.8761040
  85.8813324  66.9568888  57.5213087  85.2277736  66.6417905  56.8969702
  85.8393798  66.3344628  58.2472910  86.9924529  77.2388183  49.4366379
  86.0851591  77.0077436  49.6357528  87.4895561  76.4425802  49.6240361
  89.8992608  85.9485690  52.3563065  89.2254306  86.2517387  52.9648023
  90.2858430  86.7514770  52.0068523  89.1151064  73.4450821  61.8460735
  88.1973626  73.6665768  61.6882423  89.5311208  73.5197132  60.9872442
  89.8986112  74.8442237  56.9763415  90.6457931  75.3563634  56.6670537
  90.1677702  74.5226290  57.8367809  88.1712762  77.3400778  53.9590369
  87.2623981  77.0559811  54.0562839  88.2007846  77.7599856  53.0993676
  93.4032030  80.9507367  57.7281537  92.9494357  80.1098277  57.7846727
  92.7725996  81.5868766  58.0656317  92.3464949  71.8799353  58.9582204
  91.6087706  71.3676739  59.2892447  92.5991723  71.4399735  58.1465481
  91.8464969  82.7883864  58.6631355  92.1387943  83.3488921  57.9443721
  92.3563589  83.0812425  59.4184514  92.4476577  64.6575605  59.5523974
  92.7535453  63.7972969  59.2649889  93.1729181  65.2493225  59.3522968
  86.7197656  74.9529398  60.0600165  86.7746266  74.0003235  59.9842641
  85.9088858  75.1088837  60.5441463  87.8688850  78.8809521  51.2978448
  87.4308280  78.1645380  50.8384085  88.6099291  79.1085636  50.7363539
  84.6590016  73.5706458  57.8190544  83.8457882  73.8700629  58.2255736
  85.1549010  73.1762147  58.5365026  86.8098594  83.5664215  59.7524808
  86.7674773  83.7925061  58.8233340  87.7261293  83.3327590  59.9010609
  90.2564228  74.0348283  66.6505438  90.6113616  74.2619756  67.5099903
  90.9036359  74.3666659  66.0282693  95.9861965  77.1566718  57.3554767
  95.8479863  77.3468314  56.4275956  95.6298184  77.9186101  57.8122818
  96.0131344  79.2243245  62.3666038  96.4467851  79.1318535  63.2149092
  96.7262925  79.2000746  61.7286054  84.9264395  80.4427244  59.5486771
  85.7204993  79.9477564  59.3469346  84.2156087  79.9145107  59.1854477
  89.7459239  82.8245340  63.8999139  89.7996262  83.3936276  64.6676855
  88.8774021  82.9947225  63.5353176  81.2347158  74.5870326  55.6246524
  80.3044746  74.5254781  55.8416486  81.3304630  74.0646279  54.8283165
  96.8746894  79.2666946  64.8998923  97.0682784  80.1712757  65.1458198
  96.7747512  78.8074365  65.7337508  88.5283205  69.1524837  67.3989251
  87.8811120  69.8514786  67.3053727  89.2984220  69.5860981  67.7665499
  91.9362003  79.4173689  70.4739804  91.7847509  79.1884241  69.5569888
  91.9266682  80.3744290  70.4871149  88.7047339  76.9905602  65.4586070
  89.6339399  77.1416761  65.2855038  88.2838369  77.0789622  64.6034717
  87.5035671  81.0156266  63.2284608  87.3646757  80.6475050  64.1010546
  86.7150267  81.5303905  63.0568566  88.0983823  86.1165362  54.5710145
  88.2735579  85.6453406  55.3855767  87.4116611  86.7431129  54.7991405
  89.0540886  80.3937869  60.6173446  88.7190719  80.3538639  61.5131096
  88.5544832  79.7282585  60.1443856  83.0285130  75.8005499  66.1426027
  82.8904928  75.0685738  66.7437566  83.9390053  75.7114399  65.8610215
  91.9900078  77.7393903  50.8910506  91.3729248  77.0140731  50.7943558
  91.5216566  78.5003263  50.5477580  85.6567431  75.5125458  65.6309707
  86.3667049  74.8718650  65.5896325  85.6136739  75.7638353  66.5535887
  93.6454209  82.4492811  68.5516286  93.5866755  81.7652032  67.8846869
  94.0473728  83.1911801  68.0996912  84.3696365  72.4990676  67.4505346
  83.8333722  72.0481414  68.1026943  83.7813073  72.6336585  66.7075811
  82.6644908  89.2654725  61.3450005  82.9041506  89.8973249  62.0229023
  81.8214105  88.9142765  61.6315364  83.7798624  71.9579327  50.0131810
  82.9028090  71.8368128  49.6494057  84.2556377  71.1665406  49.7610698
  93.6471617  80.4132395  66.7830266  92.7598395  80.0758317  66.9056664
  94.2170168  79.6815427  67.0199031  87.1772770  85.0733848  63.7491509
  87.1042941  85.8788819  64.2610813  86.7350163  85.2725814  62.9239530
  86.9662550  84.3105618  57.2594330  86.1830071  84.8527298  57.3532555
  87.6655295  84.8279597  57.6588572  90.2759200  70.1200247  59.9028536
  90.7727899  69.3670210  59.5829606  89.5046181  70.1564564  59.3371745
  98.1288957  75.8240613  61.5446827  98.1178833  76.7065328  61.1740760
  97.2606337  75.4712164  61.3501364  89.6371453  84.9720682  65.9049667
  90.3499426  85.6068147  65.8325569  89.1461482  85.0684548  65.0889669
  91.3588980  78.8771934  57.4766959  90.4245259  78.9973397  57.3071663
  91.5365649  77.9744401  57.2126969  86.8594168  72.2617630  59.6300220
  86.4891956  71.7088671  60.3181126  87.3553261  71.6575764  59.0775220
  94.7461532  74.7189254  58.0116993  95.2121984  75.5517245  57.9377296
  95.1969032  74.2534235  58.7162252  84.6883367  82.7215125  66.7255238
  85.3892827  83.3551608  66.8784633  84.2178482  83.0629857  65.9650878
  92.8137763  81.0633075  55.0103145  93.0897607  80.9489670  55.9197019
  91.9442262  80.6650560  54.9715318  92.7178194  67.0869841  62.0507895
  91.8041274  67.3174068  62.2190102  93.1471296  67.1708285  62.9021927
  92.4884653  75.2759733  64.5507789  91.8356103  75.5235640  63.8960241
  92.8665033  74.4623871  64.2170266  89.4491827  85.3119426  58.6535959
  89.6314221  84.4941082  59.1163711  90.2724813  85.5287118  58.2160849
  89.7833992  84.2387611  55.9151007  90.3121759  83.7280066  55.3021170
  90.0462212  83.9230141  56.7796540  88.5372226  76.0179544  71.0373826
  87.8612863  75.9173673  71.7076201  89.3599860  75.8618757  71.5009823
  80.2851085  82.2551480  63.6586341  80.8704522  81.5095168  63.7914245
  80.0875924  82.5655437  64.5423005  83.1389740  85.2902728  58.6748783
  82.4700116  85.7748855  58.1912823  83.0002610  85.5371948  59.5892162
  87.2795009  87.3246471  65.2731442  87.8313317  87.4878093  66.0380527
  87.6201202  87.9150909  64.6011467  81.7311775  71.7444753  69.5226361
  82.3583813  71.3621831  70.1363885  80.8739694  71.5258955  69.8882053
  92.1305883  82.1507729  71.1280096  92.6745787  82.7637687  70.6335051
  91.5492728  82.7087307  71.6447109  90.4163396  85.2728447  62.2595124
  90.2914536  84.4718187  61.7506069  91.0742487  85.7674640  61.7709094
  92.4798305  83.0737467  63.8874674  91.5328640  82.9542818  63.8153001
  92.8281078  82.1859965  63.9700935  89.4844738  82.8690183  60.0879026
  89.3369700  81.9406890  60.2686596  90.3098231  82.8910274  59.6036101
  83.3506982  71.5208250  55.9459518  83.6903055  72.0494171  55.2238127
  83.7979103  71.8588656  56.7218085  93.0878860  83.6918742  61.1743899
  94.0125407  83.4861603  61.0368350  92.9194163  83.4435143  62.0833240
  86.0450423  69.9045301  65.3962586  85.7047243  69.1053114  65.7983266
  85.3389429  70.2047012  64.8239420  86.6966895  66.9894613  63.8489909
  87.5192964  66.5155091  63.7268800  86.9404958  67.7685097  64.3488596
  85.3375129  70.0182872  54.1452811  86.0583492  70.3964124  53.6416528
  84.7140433  70.7371748  54.2487789  89.4806252  70.7228021  55.0811143
  89.6969867  71.6052658  54.7799972  89.0000319  70.3314234  54.3516785
  84.2205474  73.6813734  61.6581888  84.0750054  73.9954037  62.5506170
  83.7430677  74.2998634  61.1052787  86.0801856  70.6716282  61.7062778
  86.0663425  69.7757375  61.3695076  86.7974285  70.6786946  62.3401064
  87.9327987  71.1053622  63.7515905  87.6745765  72.0270693  63.7500235
  87.4013028  70.7084057  64.4416369  92.8774176  84.2104409  56.5305990
  93.0511053  83.6450832  55.7779843  93.3703067  85.0105304  56.3485480
  78.6951136  76.2219078  64.5969549  78.1504604  76.9978886  64.7289824
  79.5730486  76.5689883  64.4388671  85.4838752  69.5530662  56.9750348
  85.6054664  68.6247308  57.1741235  85.1940795  69.5669348  56.0628663
  88.3529943  67.2385573  60.1117068  88.3751640  67.3024906  59.1569047
  88.7698002  66.3990081  60.3057574  98.7313567  76.9740832  58.1496290
  99.1744713  76.2248157  57.7515413  97.8540077  76.9650968  57.7670022
  93.8649348  83.5271174  53.6302889  94.5600253  84.1477866  53.8490203
  94.2072499  82.6766525  53.9055267  79.4817158  75.3488975  67.4899706
  78.7398894  75.4971610  68.0764336  79.1609902  75.6097240  66.6266455
  95.7640772  80.9770879  55.1590219  96.2892096  81.3158152  54.4339539
  95.6763124  80.0417894  54.9753354  87.4260820  84.8904953  67.2880096
  87.7347947  84.6454100  68.1602796  88.2236302  85.0951591  66.7998966
  87.4481432  87.0442862  59.5185473  87.0086423  86.5519241  60.2118329
  88.1989549  86.5015830  59.2777548  79.9273771  83.2354403  59.5210101
  80.7531791  82.9358175  59.1408744  79.5767823  82.4662026  59.9699889
  84.8955304  82.5880871  61.5907774  84.2735314  81.9251576  61.2910002
  85.5660171  82.6142003  60.9081422  84.9679832  71.0662659  71.1840280
  85.0167987  71.9424782  70.8018050  85.5102346  70.5240053  70.6111924
  95.4534678  81.6103783  70.4641417  94.6630221  81.5927922  69.9245917
  95.2168032  82.1492076  71.2190454  95.5732553  78.4596249  67.7774146
  95.6230558  78.2946257  68.7189669  95.4646476  77.5923508  67.3872027
  84.4568811  81.1384795  55.0666235  84.6056932  81.8220259  54.4132908
  85.2635255  81.1189885  55.5815691  92.8636315  74.4427177  69.0933453
  93.7646178  74.3033642  68.8017450  92.9384290  74.6081632  70.0331630
  87.1979120  71.8194032  67.9386639  86.3282430  72.1127598  67.6669228
  87.4338601  72.4034477  68.6593903  97.0750749  80.8793191  68.0216167
  96.7835558  81.2423171  68.8579628  96.4622881  80.1660199  67.8429500
  98.2746432  78.4446070  60.5418738  99.1093323  78.8835874  60.7056298
  98.4105561  77.9684724  59.7226983  95.3237938  76.0025805  66.4896225
  95.7992059  76.1953452  65.6815077  94.4003503  76.0584991  66.2439609
  82.2121444  77.1649972  56.0727304  81.9667486  76.2612302  56.2707514
  82.3817359  77.1667123  55.1306782  89.9018154  68.0373649  65.4552059
  90.4200098  68.7734676  65.1298548  89.5473287  68.3437642  66.2898818
  81.4817092  72.8978330  53.5713465  80.7886337  72.9722685  52.9153501
  81.2368844  72.1338674  54.0934982  90.1530748  64.4573931  60.9752956
  90.4332502  63.7897120  61.6013382  90.9381355  64.6503027  60.4627620
  87.9564217  83.6332925  52.5377982  87.3838184  84.2523112  52.0848454
  88.5297011  84.1832287  53.0717904  94.0239607  72.8791565  64.7224531
  94.9757030  72.9789663  64.7436755  93.8543057  72.0869834  65.2322615
  92.0453986  69.9647149  64.9083932  91.4503918  70.2452161  64.2130421
  91.7603683  70.4541049  65.6800673  91.1761477  83.9170075  53.6686565
  92.1092150  83.8515637  53.8719440  91.0884689  84.7526342  53.2101097
  93.8049493  83.2335946  50.6290512  93.7263125  82.8995809  51.5226270
  94.6259160  83.7257714  50.6281984  96.5027684  76.0997685  63.8366831
  96.4704005  75.1613686  64.0226515  97.1128308  76.1781722  63.1032656
  88.3411015  74.9693738  49.8794035  89.2870120  74.8399946  49.9482453
  87.9625260  74.2308400  50.3563463  96.6522173  72.8908728  63.8825114
  96.1361222  72.1067185  63.6955043  97.5362121  72.5627445  64.0471633
  94.3132900  66.6349744  59.8420927  94.1157721  66.3264832  60.7264259
  94.9232605  67.3611383  59.9718856 102.3204234  77.1613692  62.9772868
 103.0507623  76.8998980  63.5380571 101.7111180  76.4242414  63.0174935
 100.4019531  75.3021554  63.5747319  99.6752695  75.1677519  62.9663810
  99.9866818  75.6098383  64.3804037  88.2249708  79.0211484  71.3394692
  89.1452717  79.1990083  71.5334738  88.1899291  78.0767529  71.1874391
  86.5253933  72.8943714  49.8148920  85.6185388  72.5976827  49.8911634
  86.8029914  72.5973532  48.9483206  81.2211780  76.9312519  63.9817473
  81.4397790  77.8629627  64.0005507  81.6337554  76.5720493  64.7672277
  88.1415998  67.4380604  55.9693161  87.3316727  67.0927689  56.3448407
  88.8300415  67.1288148  56.5580773  90.0706547  66.5158651  57.5917458
  90.6237585  66.9354104  58.2507481  90.3076633  65.5894399  57.6340414
  86.0939646  72.5045725  73.3720222  85.9936373  73.4540082  73.3032313
  85.8761188  72.1763963  72.4996292  85.2952717  69.7530650  49.9560899
  86.1571881  70.0785548  50.2156717  85.4803061  68.9662146  49.4433965
  93.4485354  68.6259176  57.0996122  92.8684023  69.2843980  56.7174175
  93.1821286  67.8036521  56.6883540  91.8988920  68.0264234  59.3017443
  92.3988698  68.1380768  58.4931761  92.5424528  67.7225287  59.9418251
  85.9570916  75.9342863  72.1885283  85.4737998  76.7343224  72.3949173
  86.0431855  75.9450808  71.2352727  81.8844253  79.8247398  64.2253717
  82.8387507  79.7931340  64.1583649  81.6856777  79.3638022  65.0403943
  82.4743635  78.3948514  66.7924515  83.2936524  78.8892593  66.8159352
  82.7480443  77.4780482  66.7642082  92.2310232  70.7859266  56.1552470
  91.3436087  71.0708917  55.9372665  92.6464221  70.6253030  55.3079747
  95.5824768  70.8105787  59.8706810  96.3585158  71.3002240  60.1431427
  94.8572902  71.2363842  60.3278679  98.0197326  71.5233407  60.9280750
  98.6141817  71.2829143  60.2174059  98.0923910  70.8040537  61.5554287
  80.2394482  85.3667018  61.2423915  80.1048950  84.6067418  60.6761913
  79.8226544  86.0907917  60.7752704  91.3753445  80.5503941  50.2500490
  92.0789295  80.7553944  50.8658146  90.6516094  81.1180703  50.5149574
  92.2051255  76.3013802  56.3702761  92.1486457  76.7582354  55.5310393
  92.7579598  75.5404487  56.1925603  96.0156061  72.0903534  57.1952880
  95.7592996  71.6900170  58.0261088  95.3908929  72.8047328  57.0703019
 100.3268399  74.8299607  59.7024171  99.7667957  74.8992797  60.4755734
  99.7211903  74.6540592  58.9823668  83.3963608  86.2636335  61.4542358
  83.2795992  87.2081767  61.3521048  82.5756054  85.9609896  61.8428157
  93.2840142  80.9886470  52.2998950  94.1185746  80.5567669  52.1176425
  93.1224485  80.8168484  53.2275845  92.9386035  77.4918584  53.6655290
  92.8834838  77.3262855  52.7243734  92.3132090  78.1994617  53.8217479
  90.2531942  79.7967495  72.9908853  91.1223101  79.9708148  72.6295487
  89.7738693  80.6161912  72.8684582  86.2482160  66.9926693  53.2440608
  86.2360830  67.9368533  53.4008879  87.1405582  66.8096838  52.9500069
  84.4218122  86.9164596  64.6698286  85.3245369  86.9488207  64.9864781
  84.1955492  85.9865047  64.6844622  86.1771724  85.6695583  61.3308365
  85.2267355  85.6697445  61.2172737  86.4804210  84.9228318  60.8144399
  90.0634280  63.5869469  57.4986545  89.2966675  63.0327956  57.6443227
  90.4744985  63.6591338  58.3600697 101.9124418  91.5056121  62.3954127
 102.5502828  91.3862869  61.6917467 101.7945260  92.4536965  62.4542079
  98.7214124  91.4583550  62.3315652  98.3832635  91.3424614  61.4436187
  99.5903892  91.0574715  62.3116658  94.5800940  93.3119026  58.3212543
  94.0165805  93.2208963  57.5528831  94.4653335  92.4918930  58.8015035
  99.2033907  92.6118401  68.2901857  99.1922548  92.2171200  67.4182361
  99.3654546  91.8784474  68.8835629  92.1265371  94.8070218  61.1596763
  92.9186663  94.4661042  60.7443063  92.3662022  94.9165193  62.0798917
 100.1600498  96.9789994  53.6327008  99.5088478  97.5644074  53.2461022
 100.9544861  97.5096189  53.6922045  94.0856125  94.0679131  54.0314142
  94.8587001  93.5208118  53.8927018  94.4381524  94.9323380  54.2428604
  95.9241168  95.3955513  67.2381041  95.6331034  96.3001144  67.1227708
  96.5598152  95.4372041  67.9525111  96.8497375  92.7732362  63.8282401
  97.4460947  92.5488384  63.1139364  96.9072346  92.0317107  64.4307849
  96.4222403  90.2271797  51.6632592  96.6747924  89.7053318  50.9016055
  95.4846962  90.0637942  51.7659276 101.4665686  89.2307575  59.4707335
 102.2528775  88.8126998  59.1197752 101.7304390  90.1353667  59.6388984
 101.6375763  94.6680426  54.1695992 101.0021596  94.7415052  54.8816897
 101.3073170  95.2574024  53.4915071 106.8674113  89.1682808  60.3740314
 107.5999285  88.5982025  60.6078143 106.1113469  88.7804409  60.8146819
  96.1418692  92.1299903  53.8656967  96.0254950  91.4544806  54.5338051
  96.2520952  91.6432277  53.0489120  98.4850233  91.5910050  57.5703656
  98.1208440  91.0640671  58.2816578  99.3417349  91.2008519  57.3970142
 104.3899534  82.8804383  64.8334922 104.0582858  83.7499794  64.6096137
 103.7945147  82.5640667  65.5128953  98.1255720  86.6199950  52.5665005
  98.2930122  87.4880186  52.9335476  97.9352889  86.7827231  51.6426294
 100.8831053  95.0816929  64.2330835 100.5831776  95.9841967  64.1246642
 100.5382113  94.8149112  65.0851988  94.3343535  91.5330725  60.2667540
  93.4094031  91.4006940  60.4745231  94.5827948  92.3124945  60.7637482
 104.2828197  87.5999469  61.9128272 103.3745074  87.5314877  61.6187033
 104.2315793  88.0771414  62.7410098  98.1044941  89.0757607  53.5511672
  97.9844566  89.5214658  54.3897152  97.4097529  89.4242925  52.9925210
  91.6952346  91.1763999  61.1011329  91.8244727  91.4298478  62.0150740
  91.0149797  91.7691707  60.7815984  95.8651833 101.8461249  57.2001803
  95.7875863 102.7969074  57.2790283  95.2613476 101.5007121  57.8576729
  98.3569063  89.0189114  69.8563170  97.5802397  89.5783034  69.8466034
  98.9959626  89.5045897  70.3778040 106.1489843  85.8015907  63.6906146
 105.5064224  86.0948440  63.0445941 105.6444772  85.6868828  64.4959343
 103.8030007  89.5479080  54.3792006 104.7147863  89.7806467  54.2039703
 103.2939654  90.1316125  53.8167084  96.6115435  91.8274568  69.4181137
  97.3530119  92.3659612  69.1415960  95.9052420  92.4540856  69.5752689
 102.0870775  93.9703708  68.0153298 102.4954131  93.5286119  67.2707931
 101.3648036  93.3956336  68.2687491  98.4401845  88.9076315  65.3886855
  99.2863040  89.3315729  65.5321504  98.3800482  88.2509939  66.0825418
 102.4099589  94.5304899  61.7705587 101.7808452  94.6950613  61.0681655
 102.0225251  94.9446508  62.5416551 106.2888821  95.4659337  59.1249951
 105.6039859  95.8458238  58.5746984 106.3732670  96.0754663  59.8581899
 101.5901290  86.5680683  67.0468029 101.3462222  87.3222744  66.5102304
 101.8661220  86.9466031  67.8815276 103.5439753  93.1119296  65.7245294
 103.7556648  93.7551056  65.0479675 103.4969501  92.2781612  65.2567224
 101.1465982  85.7237116  62.6281867 100.2850461  86.0218370  62.9198604
 101.1728416  85.9407515  61.6962899  97.9627551  94.2679307  59.0355672
  98.4265897  94.5467010  58.2460295  97.6984349  93.3662751  58.8528763
  94.8551632  93.8150788  61.9735435  95.4252989  94.2438057  61.3352920
  95.4459744  93.5333373  62.6719621  96.8996437  90.3902459  55.8445237
  97.6020481  90.8423503  56.3119164  96.5677066  89.7486278  56.4725130
  95.3476799  88.9814216  70.2196447  94.7175459  89.6630497  70.4531844
  95.2412887  88.8697297  69.2749585  90.6421771  88.6486012  61.1462371
  89.8520825  88.9043540  60.6702481  91.1333019  89.4634350  61.2514411
 104.6585581  95.9891251  63.8967652 105.4803024  95.5871438  63.6150333
 104.6547984  95.8859485  64.8483768  92.5936517  89.0130591  58.1045848
  91.7967680  89.1249285  58.6229343  92.3662109  89.3517243  57.2386738
  98.4242184  95.5375294  66.0528362  98.4886617  95.9995702  66.8886534
  97.7153108  94.9072659  66.1810672  88.9259474  88.9016502  63.5777362
  89.1767513  89.7863512  63.8434938  89.4619023  88.7221104  62.8052454
 112.7491574  92.3330000  60.2452623 111.9955282  91.7637398  60.0896628
 112.8839115  92.2992664  61.1923258  98.1390202  97.2043402  55.9207343
  98.0035877  98.0494938  56.3492190  98.6800014  97.4062680  55.1573276
  94.6257541  83.2834982  72.5821698  94.2324487  82.7301180  73.2569342
  95.4423682  83.5945560  72.9728215  91.5919599  94.7218840  56.4935268
  92.1044120  95.5162090  56.6440832  92.2442312  94.0245130  56.4268869
  93.4014484  97.8384596  58.5758021  93.5781112  98.7602561  58.3879005
  94.1971317  97.5243015  59.0052401  97.5425502  84.6992861  70.1741954
  98.2835216  85.3000014  70.0946417  97.7743425  83.9570499  69.6159997
  92.6866840  89.8849228  68.4520184  92.5720356  88.9834485  68.7527283
  91.8311358  90.1312925  68.1005001  99.7658678  97.8266968  70.0507685
  99.3222532  97.0403347  69.7328589 100.4275892  98.0146119  69.3851575
  94.5245799  99.3562770  64.5768363  95.0753224  99.2279833  63.8045357
  93.6857275  99.6557659  64.2263256 101.8639916  98.1069768  68.0789086
 101.8458392  98.9278649  67.5869355 102.7859836  97.9823844  68.3039227
  98.3212970  95.6213898  68.9212594  98.8541307  94.8602186  68.6911902
  97.7927051  95.3287550  69.6636749 101.4882665  80.7273964  64.4506236
 101.1446935  81.6175605  64.3745347 101.8561628  80.5375621  63.5875821
  89.5568516  93.0507494  57.2694838  90.3943738  93.4604503  57.0528546
  89.7346784  92.1106936  57.2395032 101.4532948  90.7182575  52.9578671
 100.9379572  91.4887180  53.1967059 101.1810257  90.0447711  53.5811733
  99.0380059  85.5632276  58.0163909  98.1821655  85.1739126  57.8369548
  99.4507011  85.6424236  57.1563695 100.5679206  83.0978619  62.4155469
 100.0644001  83.0608754  61.6023275 100.8609813  84.0071362  62.4752126
  96.8122092  83.1817349  61.4221651  97.6775088  82.9860157  61.0627540
  96.8799601  82.9527700  62.3491008 106.4267222  93.4714930  54.8931845
 105.6496665  93.1326089  54.4487007 107.1058703  93.4767553  54.2186810
 101.2419251  88.5909667  54.7838452 100.9369387  88.9055816  55.6348595
 102.1949693  88.6691087  54.8265785  99.6865683  94.7499890  56.4331406
  99.1587045  94.0152650  56.1204644  99.1853186  95.5274567  56.1871375
 104.6658529  92.9448911  61.5498453 104.0082204  93.6348172  61.6378581
 105.4698928  93.3345343  61.8932439  94.4184411  85.4119557  58.7938018
  94.9928163  85.1894738  58.0611211  95.0055393  85.4808251  59.5466619
 103.4763988  91.2993283  59.6002394 103.9895870  91.9323275  60.1024104
 104.1265212  90.6994479  59.2345754  94.7453998  87.4424018  52.8133903
  93.9091310  87.7798704  53.1343178  94.6058767  87.3072997  51.8761040
  96.7207078  82.2860805  57.5213087  96.0671491  81.9709823  56.8969702
  96.6787553  81.6636546  58.2472910  97.8318283  92.5680101  49.4366379
  96.9245345  92.3369354  49.6357528  98.3289315  91.7717720  49.6240361
 100.7386362 101.2777608  52.3563065 100.0648061 101.5809304  52.9648023
 101.1252184 102.0806688  52.0068523  99.9544819  88.7742739  61.8460735
  99.0367380  88.9957686  61.6882423 100.3704962  88.8489049  60.9872442
 100.7379867  90.1734155  56.9763415 101.4851685  90.6855552  56.6670537
 101.0071456  89.8518207  57.8367809  99.0106517  92.6692695  53.9590369
  98.1017736  92.3851728  54.0562839  99.0401601  93.0891774  53.0993676
 104.2425784  96.2799285  57.7281537 103.7888111  95.4390195  57.7846727
 103.6119751  96.9160683  58.0656317 103.1858704  87.2091271  58.9582204
 102.4481460  86.6968657  59.2892447 103.4385477  86.7691653  58.1465481
 102.6858723  98.1175782  58.6631355 102.9781698  98.6780839  57.9443721
 103.1957344  98.4104343  59.4184514 103.2870331  79.9867523  59.5523974
 103.5929208  79.1264886  59.2649889 104.0122936  80.5785143  59.3522968
  89.5794687  90.3898210  57.9405572  89.3819087  89.7967570  57.2156638
  89.0241351  90.0850420  58.6581510  97.5591411  90.2821316  60.0600165
  97.6140021  89.3295152  59.9842641  96.7482613  90.4380755  60.5441463
  98.7082605  94.2101439  51.2978448  98.2702034  93.4937298  50.8384085
  99.4493045  94.4377554  50.7363539  95.4983771  88.8998376  57.8190544
  94.6851636  89.1992546  58.2255736  95.9942765  88.5054065  58.5365026
  97.6492349  98.8956133  59.7524808  97.6068527  99.1216979  58.8233340
  98.5655047  98.6619507  59.9010609 101.0957982  89.3640200  66.6505438
 101.4507370  89.5911673  67.5099903 101.7430114  89.6958577  66.0282693
 106.8255719  92.4858636  57.3554767 106.6873618  92.6760232  56.4275956
 106.4691938  93.2478019  57.8122818  94.9897845  86.4716731  63.4351779
  95.6297225  86.3305490  62.7374742  94.1575376  86.1851245  63.0590381
 106.8525099  94.5535163  62.3666038 107.2861606  94.4610452  63.2149092
 107.5656680  94.5292664  61.7286054  95.7658149  95.7719162  59.5486771
  96.5598748  95.2769482  59.3469346  95.0549842  95.2437025  59.1854477
 100.5852994  98.1537257  63.8999139 100.6390016  98.7228194  64.6676855
  99.7167775  98.3239142  63.5353176  92.0740913  89.9162243  55.6246524
  91.1438501  89.8546699  55.8416486  92.1698385  89.3938196  54.8283165
  91.9926462  86.4417056  58.2124765  92.2533279  87.3562390  58.1033926
  92.8143634  85.9741499  58.3621378  93.4651387  87.8554813  65.3823590
  94.1374441  87.6472176  64.7336239  92.6381174  87.6576899  64.9428822
 107.7140648  94.5958864  64.8998923 107.9076539  95.5004674  65.1458198
 107.6141267  94.1366283  65.7337508  99.3676959  84.4816754  67.3989251
  98.7204874  85.1806704  67.3053727 100.1377975  84.9152898  67.7665499
 102.7755757  94.7465607  70.4739804 102.6241264  94.5176158  69.5569888
 102.7660437  95.7036208  70.4871149  99.5441094  92.3197519  65.4586070
 100.4733154  92.4708679  65.2855038  99.1232124  92.4081540  64.6034717
  98.3429425  96.3448184  63.2284608  98.2040511  95.9766968  64.1010546
  97.5544022  96.8595823  63.0568566  98.9377577 101.4457280  54.5710145
  99.1129333 100.9745323  55.3855767  98.2510365 102.0723046  54.7991405
  99.8934640  95.7229786  60.6173446  99.5584473  95.6830556  61.5131096
  99.3938586  95.0574502  60.1443856  93.8678884  91.1297416  66.1426027
  93.7298682  90.3977655  66.7437566  94.7783808  91.0406317  65.8610215
 102.8293832  93.0685821  50.8910506 102.2123003  92.3432649  50.7943558
 102.3610321  93.8295181  50.5477580  96.4961185  90.8417376  65.6309707
  97.2060804  90.2010568  65.5896325  96.4530493  91.0930271  66.5535887
 104.4847964  97.7784729  68.5516286 104.4260510  97.0943949  67.8846869
 104.8867482  98.5203719  68.0996912  95.2090119  87.8282594  67.4505346
  94.6727476  87.3773332  68.1026943  94.6206828  87.9628502  66.7075811
  93.5038663 104.5946643  61.3450005  93.7435261 105.2265167  62.0229023
  92.6607859 104.2434683  61.6315364  94.6192378  87.2871245  50.0131810
  93.7421844  87.1660046  49.6494057  95.0950131  86.4957323  49.7610698
 104.4865371  95.7424313  66.7830266 103.5992150  95.4050235  66.9056664
 105.0563922  95.0107344  67.0199031  86.1394518  92.0748405  60.1073317
  86.8265558  91.7610135  59.5194332  85.9842647  92.9789769  59.8340568
  90.9429240  86.9638601  64.5358341  90.8587429  86.3564271  63.8008751
  90.1211947  87.4547620  64.5367837  98.0166524 100.4025765  63.7491509
  97.9436696 101.2080737  64.2610813  97.5743918 100.6017731  62.9239530
  97.8056304  99.6397535  57.2594330  97.0223826 100.1819216  57.3532555
  98.5049049 100.1571515  57.6588572 101.1152954  85.4492165  59.9028536
 101.6121654  84.6962127  59.5829606 100.3439936  85.4856482  59.3371745
 108.9682712  91.1532530  61.5446827 108.9572588  92.0357246  61.1740760
 108.1000091  90.8004081  61.3501364 100.4765208 100.3012599  65.9049667
 101.1893180 100.9360064  65.8325569  99.9855237 100.3976465  65.0889669
 102.1982735  94.2063852  57.4766959 101.2639014  94.3265315  57.3071663
 102.3759403  93.3036319  57.2126969  97.6987923  87.5909548  59.6300220
  97.3285710  87.0380588  60.3181126  98.1947015  86.9867681  59.0775220
 105.5855286  90.0481171  58.0116993 106.0515738  90.8809163  57.9377296
 106.0362787  89.5826153  58.7162252  95.5277122  98.0507043  66.7255238
  96.2286581  98.6843526  66.8784633  95.0572237  98.3921774  65.9650878
 103.6531517  96.3924993  55.0103145 103.9291361  96.2781587  55.9197019
 102.7836016  95.9942478  54.9715318 103.5571949  82.4161758  62.0507895
 102.6435029  82.6465985  62.2190102 103.9865050  82.5000202  62.9021927
 103.3278407  90.6051650  64.5507789 102.6749858  90.8527558  63.8960241
 103.7058787  89.7915789  64.2170266 100.2885581 100.6411343  58.6535959
 100.4707976  99.8232999  59.1163711 101.1118567 100.8579036  58.2160849
 100.6227747  99.5679529  55.9151007 101.1515513  99.0571983  55.3021170
 100.8855966  99.2522059  56.7796540  99.3765981  91.3471461  71.0373826
  98.7006618  91.2465591  71.7076201 100.1993614  91.1910675  71.5009823
  91.1244840  97.5843398  63.6586341  91.7098276  96.8387086  63.7914245
  90.9269678  97.8947355  64.5423005  93.9783495 100.6194645  58.6748783
  93.3093870 101.1040773  58.1912823  93.8396364 100.8663866  59.5892162
  85.7162494  90.1548998  62.3790784  85.7546594  89.6212589  63.1727902
  85.2102787  89.6284204  61.7601761  98.1188763 102.6538389  65.2731442
  98.6707071 102.8170010  66.0380527  98.4594957 103.2442827  64.6011467
  93.0953257  85.0013539  65.8753326  93.1594583  85.8628370  65.4630724
  93.0320377  84.3887540  65.1425685  92.5705529  87.0736671  69.5226361
  93.1977568  86.6913748  70.1363885  91.7133448  86.8550873  69.8882053
 102.9699638  97.4799646  71.1280096 103.5139542  98.0929605  70.6335051
 102.3886483  98.0379225  71.6447109  89.3471072  88.8813100  55.4544715
  89.6424513  87.9723779  55.4011769  88.4459108  88.8600840  55.1325718
 101.2557151 100.6020364  62.2595124 101.1308290  99.8010104  61.7506069
 101.9136242 101.0966558  61.7709094  92.8765319  86.9569097  61.4372264
  92.1551905  87.5705065  61.2979737  93.6658575  87.4926862  61.3588910
 103.3192059  98.4029384  63.8874674 102.3722395  98.2834736  63.8153001
 103.6674832  97.5151882  63.9700935  95.6791632  84.2923523  67.7112916
  96.2026034  84.5385820  68.4739225  95.4603966  85.1243558  67.2916053
  91.0758913  86.5627198  55.5784041  90.7471620  85.6824577  55.3959147
  91.4298284  86.5074867  56.4660430 100.3238492  98.1982101  60.0879026
 100.1763455  97.2698808  60.2686596 101.1491986  98.2202191  59.6036101
  94.1900737  86.8500168  55.9459518  94.5296809  87.3786089  55.2238127
  94.6372857  87.1880574  56.7218085 103.9272614  99.0210659  61.1743899
 104.8519162  98.8153521  61.0368350 103.7587918  98.7727061  62.0833240
  96.8844177  85.2337218  65.3962586  96.5440998  84.4345032  65.7983266
  96.1783184  85.5338929  64.8239420  97.5360649  82.3186531  63.8489909
  98.3586719  81.8447009  63.7268800  97.7798713  83.0977015  64.3488596
  96.1768884  85.3474789  54.1452811  96.8977246  85.7256042  53.6416528
  95.5534188  86.0663666  54.2487789 100.3200007  86.0519938  55.0811143
 100.5363621  86.9344576  54.7799972  99.8394074  85.6606152  54.3516785
  95.0599228  89.0105652  61.6581888  94.9143809  89.3245955  62.5506170
  94.5824432  89.6290552  61.1052787  96.9195611  86.0008200  61.7062778
  96.9057180  85.1049293  61.3695076  97.6368039  86.0078863  62.3401064
  98.7721742  86.4345540  63.7515905  98.5139519  87.3562610  63.7500235
  98.2406782  86.0375974  64.4416369 103.7167930  99.5396327  56.5305990
 103.8904808  98.9742749  55.7779843 104.2096822 100.3397222  56.3485480
  89.5344890  91.5510996  64.5969549  88.9898358  92.3270804  64.7289824
  90.4124240  91.8981800  64.4388671  96.3232507  84.8822580  56.9750348
  96.4448418  83.9539226  57.1741235  96.0334549  84.8961266  56.0628663
  99.1923697  82.5677490  60.1117068  99.2145394  82.6316823  59.1569047
  99.6091756  81.7281999  60.3057574 109.5707322  92.3032750  58.1496290
 110.0138468  91.5540075  57.7515413 108.6933832  92.2942886  57.7670022
 104.7043103  98.8563091  53.6302889 105.3994008  99.4769784  53.8490203
 105.0466253  98.0058442  53.9055267  90.3210912  90.6780892  67.4899706
  89.5792648  90.8263528  68.0764336  90.0003656  90.9389158  66.6266455
 106.6034526  96.3062797  55.1590219 107.1285850  96.6450070  54.4339539
 106.5156879  95.3709812  54.9753354  98.2654575 100.2196870  67.2880096
  98.5741701  99.9746017  68.1602796  99.0630057 100.4243509  66.7998966
  98.2875187 102.3734780  59.5185473  97.8480177 101.8811159  60.2118329
  99.0383304 101.8307748  59.2777548  90.7667526  98.5646321  59.5210101
  91.5925546  98.2650093  59.1408744  90.4161578  97.7953943  59.9699889
  95.7349059  97.9172789  61.5907774  95.1129068  97.2543494  61.2910002
  96.4053926  97.9433921  60.9081422  88.9676131  96.4832647  60.4799034
  88.1308039  96.0554822  60.2983036  88.9399776  96.6765091  61.4169825
  95.8073586  86.3954577  71.1840280  95.8561742  87.2716700  70.8018050
  96.3496101  85.8531970  70.6111924 106.2928432  96.9395700  70.4641417
 105.5023976  96.9219839  69.9245917 106.0561787  97.4783994  71.2190454
 106.4126307  93.7888167  67.7774146 106.4624312  93.6238174  68.7189669
 106.3040230  92.9215426  67.3872027  95.2962566  96.4676712  55.0666235
  95.4450686  97.1512177  54.4132908  96.1029009  96.4481803  55.5815691
 103.7030070  89.7719095  69.0933453 104.6039932  89.6325560  68.8017450
 103.7778044  89.9373550  70.0331630  98.0372875  87.1485950  67.9386639
  97.1676184  87.4419516  67.6669228  98.2732355  87.7326395  68.6593903
 107.9144504  96.2085108  68.0216167 107.6229312  96.5715089  68.8579628
 107.3016635  95.4952117  67.8429500 109.1140186  93.7737988  60.5418738
 109.9487078  94.2127792  60.7056298 109.2499315  93.2976641  59.7226983
 106.1631692  91.3317723  66.4896225 106.6385814  91.5245369  65.6815077
 105.2397258  91.3876909  66.2439609  93.0515199  92.4941890  56.0727304
  92.8061241  91.5904220  56.2707514  93.2211113  92.4959041  55.1306782
 100.7411909  83.3665566  65.4552059 101.2593853  84.1026593  65.1298548
 100.3867041  83.6729560  66.2898818  92.3210846  88.2270248  53.5713465
  91.6280091  88.3014603  52.9153501  92.0762598  87.4630591  54.0934982
 100.9924503  79.7865849  60.9752956 101.2726257  79.1189038  61.6013382
 101.7775110  79.9794945  60.4627620  98.7957971  98.9624843  52.5377982
  98.2231938  99.5815030  52.0848454  99.3690765  99.5124205  53.0717904
 104.8633361  88.2083483  64.7224531 105.8150784  88.3081581  64.7436755
 104.6936812  87.4161752  65.2322615 102.8847741  85.2939066  64.9083932
 102.2897673  85.5744079  64.2130421 102.5997437  85.7832967  65.6800673
 102.0155231  99.2461993  53.6686565 102.9485904  99.1807555  53.8719440
 101.9278444 100.0818260  53.2101097 104.6443248  98.5627863  50.6290512
 104.5656879  98.2287727  51.5226270 105.4652915  99.0549631  50.6281984
 107.3421439  91.4289603  63.8366831 107.3097759  90.4905603  64.0226515
 107.9522063  91.5073639  63.1032656  99.1804770  90.2985656  49.8794035
 100.1263875  90.1691864  49.9482453  98.8019015  89.5600318  50.3563463
 107.4915927  88.2200646  63.8825114 106.9754976  87.4359103  63.6955043
 108.3755876  87.8919363  64.0471633 105.1526654  81.9641662  59.8420927
 104.9551476  81.6556750  60.7264259 105.7626360  82.6903301  59.9718856
 113.1597989  92.4905610  62.9772868 113.8901377  92.2290898  63.5380571
 112.5504934  91.7534331  63.0174935 111.2413286  90.6313472  63.5747319
 110.5146450  90.4969437  62.9663810 110.8260573  90.9390301  64.3804037
  99.0643462  94.3503402  71.3394692  99.9846472  94.5282001  71.5334738
  99.0293045  93.4059447  71.1874391  97.3647687  88.2235632  49.8148920
  96.4579142  87.9268745  49.8911634  97.6423668  87.9265450  48.9483206
  88.2825627  89.5441995  60.2647966  87.9628412  88.6907304  59.9722340
  87.7359056  89.7590574  61.0205934  92.0605535  92.2604436  63.9817473
  92.2791545  93.1921544  64.0005507  92.4731309  91.9012411  64.7672277
  98.9809753  82.7672522  55.9693161  98.1710481  82.4219607  56.3448407
  99.6694170  82.4580066  56.5580773 100.9100301  81.8450569  57.5917458
 101.4631340  82.2646022  58.2507481 101.1470387  80.9186317  57.6340414
  96.9333400  87.8337642  73.3720222  96.8330127  88.7831999  73.3032313
  96.7154942  87.5055881  72.4996292  96.1346472  85.0822567  49.9560899
  96.9965636  85.4077466  50.2156717  96.3196816  84.2954063  49.4433965
  88.1513887  93.1644907  62.2341088  87.4577359  92.7498860  61.7211042
  88.8986878  93.2065443  61.6374507 104.2879108  83.9551094  57.0996122
 103.7077777  84.6135898  56.7174175 104.0215041  83.1328438  56.6883540
 102.7382674  83.3556151  59.3017443 103.2382453  83.4672686  58.4931761
 103.3818282  83.0517204  59.9418251  96.7964670  91.2634781  72.1885283
  96.3131752  92.0635141  72.3949173  96.8825609  91.2742726  71.2352727
  90.0650630  93.0963161  60.1107103  90.0421318  93.1950848  59.1588986
  90.3751266  93.9428312  60.4324269  92.7238008  95.1539316  64.2253717
  93.6781261  95.1223258  64.1583649  92.5250531  94.6929940  65.0403943
  93.3137390  93.7240432  66.7924515  94.1330279  94.2184510  66.8159352
  93.5874198  92.8072400  66.7642082 103.0703986  86.1151184  56.1552470
 102.1829841  86.4000835  55.9372665 103.4857975  85.9544948  55.3079747
 106.4218522  86.1397705  59.8706810 107.1978912  86.6294158  60.1431427
 105.6966656  86.5655759  60.3278679 108.8591081  86.8525324  60.9280750
 109.4535572  86.6121060  60.2174059 108.9317665  86.1332455  61.5554287
  91.0788237 100.6958935  61.2423915  90.9442705  99.9359336  60.6761913
  90.6620299 101.4199835  60.7752704 102.2147200  95.8795859  50.2500490
 102.9183050  96.0845861  50.8658146 101.4909848  96.4472621  50.5149574
 103.0445010  91.6305720  56.3702761 102.9880211  92.0874271  55.5310393
 103.5973352  90.8696405  56.1925603 106.8549816  87.4195452  57.1952880
 106.5986750  87.0192088  58.0261088 106.2302684  88.1339246  57.0703019
 111.1662154  90.1591525  59.7024171 110.6061712  90.2284714  60.4755734
 110.5605657  89.9832510  58.9823668  94.2357362 101.5928252  61.4542358
  94.1189747 102.5373685  61.3521048  93.4149809 101.2901814  61.8428157
 104.1233897  96.3178388  52.2998950 104.9579501  95.8859586  52.1176425
 103.9618240  96.1460402  53.2275845 103.7779789  92.8210501  53.6655290
 103.7228593  92.6554773  52.7243734 103.1525844  93.5286534  53.8217479
  88.5672304  88.0578566  67.4916712  89.2131168  87.5477520  67.9803937
  88.3589455  88.7947247  68.0660137 101.0925696  95.1259413  72.9908853
 101.9616856  95.3000065  72.6295487 100.6132448  95.9453830  72.8684582
  97.0875915  82.3218610  53.2440608  97.0754584  83.2660450  53.4008879
  97.9799336  82.1388756  52.9500069  95.2611877 102.2456514  64.6698286
  96.1639123 102.2780124  64.9864781  95.0349247 101.3156965  64.6844622
  97.0165479 100.9987501  61.3308365  96.0661110 100.9989362  61.2172737
  97.3197965 100.2520235  60.8144399 100.9028034  78.9161387  57.4986545
 100.1360430  78.3619874  57.6443227 101.3138739  78.9883256  58.3600697
  92.9069795  85.2046183  71.5891726  93.7701257  84.8482988  71.7995051
  92.3335206  84.8660078  72.2767130 112.7518172 106.8348039  62.3954127
 113.3896582 106.7154786  61.6917467 112.6339015 107.7828883  62.4542079
 109.5607878 106.7875467  62.3315652 109.2226390 106.6716532  61.4436187
 110.4297647 106.3866632  62.3116658 105.4194694 108.6410944  58.3212543
 104.8559559 108.5500881  57.5528831 105.3047089 107.8210848  58.8015035
 110.0427661 107.9410319  68.2901857 110.0316302 107.5463117  67.4182361
 110.2048301 107.2076392  68.8835629 102.9659126 110.1362135  61.1596763
 103.7580418 109.7952960  60.7443063 103.2055776 110.2457110  62.0798917
 104.9249880 109.3971048  54.0314142 105.6980756 108.8500036  53.8927018
 105.2775279 110.2615298  54.2428604 106.7634922 110.7247431  67.2381041
 106.4724788 111.6293062  67.1227708 107.3991907 110.7663958  67.9525111
 107.6891129 108.1024279  63.8282401 108.2854702 107.8780302  63.1139364
 107.7466101 107.3609025  64.4307849 107.2616158 105.5563715  51.6632592
 107.5141678 105.0345236  50.9016055 106.3240717 105.3929860  51.7659276
 112.3059441 104.5599493  59.4707335 113.0922530 104.1418916  59.1197752
 112.5698145 105.4645585  59.6388984 117.7067868 104.4974726  60.3740314
 118.4393040 103.9273943  60.6078143 116.9507223 104.1096327  60.8146819
 106.9812446 107.4591821  53.8656967 106.8648705 106.7836724  54.5338051
 107.0914706 106.9724194  53.0489120 109.3243987 106.9201968  57.5703656
 108.9602195 106.3932589  58.2816578 110.1811103 106.5300437  57.3970142
 115.2293288  98.2096300  64.8334922 114.8976613  99.0791711  64.6096137
 114.6338901  97.8932584  65.5128953 108.9649474 101.9491867  52.5665005
 109.1323877 102.8172104  52.9335476 108.7746643 102.1119149  51.6426294
 105.1737289 106.8622643  60.2667540 104.2487786 106.7298857  60.4745231
 105.4221702 107.6416862  60.7637482 115.1221951 102.9291386  61.9128272
 114.2138829 102.8606795  61.6187033 115.0709547 103.4063331  62.7410098
 108.9438695 104.4049525  53.5511672 108.8238320 104.8506576  54.3897152
 108.2491284 104.7534843  52.9925210 102.5346100 106.5055917  61.1011329
 102.6638481 106.7590396  62.0150740 101.8543551 107.0983625  60.7815984
 109.1962817 104.3481032  69.8563170 108.4196151 104.9074952  69.8466034
 109.8353380 104.8337815  70.3778040 116.9883598 101.1307825  63.6906146
 116.3457978 101.4240358  63.0445941 116.4838526 101.0160745  64.4959343
 114.6423761 104.8770998  54.3792006 115.5541618 105.1098385  54.2039703
 114.1333408 105.4608042  53.8167084 107.4509189 107.1566485  69.4181137
 108.1923874 107.6951529  69.1415960 106.7446175 107.7832774  69.5752689
 112.9264529 109.2995626  68.0153298 113.3347885 108.8578036  67.2707931
 112.2041791 108.7248253  68.2687491 109.2795599 104.2368233  65.3886855
 110.1256794 104.6607646  65.5321504 109.2194237 103.5801857  66.0825418
 112.4295044 101.8972601  67.0468029 112.1855976 102.6514662  66.5102304
 112.7054975 102.2757949  67.8815276 111.9859736 101.0529034  62.6281867
 111.1244215 101.3510288  62.9198604 112.0122171 101.2699433  61.6962899
 108.8021306 109.5971225  59.0355672 109.2659651 109.8758928  58.2460295
 108.5378104 108.6954669  58.8528763 105.6945387 109.1442706  61.9735435
 106.2646744 109.5729974  61.3352920 106.2853499 108.8625291  62.6719621
 107.7390192 105.7194377  55.8445237 108.4414235 106.1715421  56.3119164
 107.4070820 105.0778196  56.4725130 106.1870553 104.3106134  70.2196447
 105.5569214 104.9922414  70.4531844 106.0806641 104.1989215  69.2749585
 101.4815526 103.9777930  61.1462371 100.6914580 104.2335458  60.6702481
 101.9726773 104.7926267  61.2514411 103.4330271 104.3422509  58.1045848
 102.6361434 104.4541203  58.6229343 103.2055863 104.6809161  57.2386738
 109.2635939 110.8667212  66.0528362 109.3280371 111.3287619  66.8886534
 108.5546863 110.2364577  66.1810672  99.7653229 104.2308420  63.5777362
 100.0161267 105.1155430  63.8434938 100.3012777 104.0513022  62.8052454
 105.4651296  98.6126899  72.5821698 105.0718241  98.0593098  73.2569342
 106.2817436  98.9237478  72.9728215 102.4313354 110.0510758  56.4935268
 102.9437874 110.8454008  56.6440832 103.0836067 109.3537048  56.4268869
 104.2408238 113.1676514  58.5758021 104.4174867 114.0894479  58.3879005
 105.0365072 112.8534933  59.0052401 108.3819257 100.0284779  70.1741954
 109.1228970 100.6291932  70.0946417 108.6137180  99.2862416  69.6159997
 103.5260595 105.2141146  68.4520184 103.4114110 104.3126403  68.7527283
 102.6705113 105.4604843  68.1005001 105.3639554 114.6854688  64.5768363
 105.9146979 114.5571751  63.8045357 104.5251030 114.9849577  64.2263256
 109.1606725 110.9505815  68.9212594 109.6935062 110.1894104  68.6911902
 108.6320806 110.6579467  69.6636749 112.3276420  96.0565881  64.4506236
 111.9840689  96.9467523  64.3745347 112.6955382  95.8667539  63.5875821
 100.3962270 108.3799412  57.2694838 101.2337492 108.7896420  57.0528546
 100.5740538 107.4398854  57.2395032 112.2926703 106.0474493  52.9578671
 111.7773326 106.8179097  53.1967059 112.0204011 105.3739629  53.5811733
 109.8773814 100.8924193  58.0163909 109.0215410 100.5031044  57.8369548
 110.2900765 100.9716154  57.1563695 111.4072960  98.4270537  62.4155469
 110.9037756  98.3900672  61.6023275 111.7003567  99.3363279  62.4752126
 107.6515846  98.5109266  61.4221651 108.5168843  98.3152075  61.0627540
 107.7193355  98.2819618  62.3491008 112.0813006 103.9201585  54.7838452
 111.7763141 104.2347734  55.6348595 113.0343448 103.9983005  54.8265785
 110.5259438 110.0791808  56.4331406 109.9980799 109.3444568  56.1204644
 110.0246940 110.8566484  56.1871375 105.2578165 100.7411474  58.7938018
 105.8321917 100.5186656  58.0611211 105.8449148 100.8100169  59.5466619
 114.3157742 106.6285201  59.6002394 114.8289624 107.2615193  60.1024104
 114.9658966 106.0286397  59.2345754 105.5847752 102.7715935  52.8133903
 104.7485065 103.1090622  53.1343178 105.4452522 102.6364915  51.8761040
 107.5600833  97.6152723  57.5213087 106.9065245  97.3001740  56.8969702
 107.5181307  96.9928464  58.2472910 108.6712038 107.8972018  49.4366379
 107.7639100 107.6661272  49.6357528 109.1683070 107.1009637  49.6240361
 110.7938573 104.1034657  61.8460735 109.8761135 104.3249604  61.6882423
 111.2098717 104.1780967  60.9872442 111.5773621 105.5026072  56.9763415
 112.3245440 106.0147470  56.6670537 111.8465211 105.1810125  57.8367809
 109.8500271 107.9984613  53.9590369 108.9411490 107.7143646  54.0562839
 109.8795355 108.4183692  53.0993676 114.0252458 102.5383189  58.9582204
 113.2875215 102.0260575  59.2892447 114.2779232 102.0983570  58.1465481
 114.1264086  95.3159441  59.5523974 114.4322962  94.4556804  59.2649889
 114.8516690  95.9077061  59.3522968 100.4188442 105.7190127  57.9405572
 100.2212841 105.1259488  57.2156638  99.8635106 105.4142337  58.6581510
 108.3985165 105.6113234  60.0600165 108.4533775 104.6587070  59.9842641
 107.5876367 105.7672673  60.5441463 109.5476359 109.5393357  51.2978448
 109.1095789 108.8229216  50.8384085 110.2886800 109.7669472  50.7363539
 106.3377525 104.2290293  57.8190544 105.5245391 104.5284464  58.2255736
 106.8336519 103.8345982  58.5365026 111.9351737 104.6932118  66.6505438
 112.2901125 104.9203591  67.5099903 112.5823868 105.0250495  66.0282693
 105.8291600 101.8008649  63.4351779 106.4690979 101.6597408  62.7374742
 104.9969130 101.5143162  63.0590381 106.6051904 111.1011079  59.5486771
 107.3992502 110.6061400  59.3469346 105.8943596 110.5728943  59.1854477
 102.9134667 105.2454161  55.6246524 101.9832255 105.1838617  55.8416486
 103.0092139 104.7230114  54.8283165 102.8320216 101.7708974  58.2124765
 103.0927034 102.6854307  58.1033926 103.6537389 101.3033417  58.3621378
 104.3045142 103.1846731  65.3823590 104.9768195 102.9764093  64.7336239
 103.4774928 102.9868817  64.9428822 110.2070714  99.8108672  67.3989251
 109.5598629 100.5098622  67.3053727 110.9771729 100.2444816  67.7665499
 110.3834848 107.6489437  65.4586070 111.3126908 107.8000597  65.2855038
 109.9625878 107.7373458  64.6034717 109.1823180 111.6740101  63.2284608
 109.0434266 111.3058886  64.1010546 108.3937776 112.1887741  63.0568566
 110.7328395 111.0521704  60.6173446 110.3978228 111.0122474  61.5131096
 110.2332341 110.3866420  60.1443856 104.7072639 106.4589334  66.1426027
 104.5692437 105.7269573  66.7437566 105.6177562 106.3698234  65.8610215
 113.6687587 108.3977738  50.8910506 113.0516757 107.6724567  50.7943558
 113.2004075 109.1587099  50.5477580 107.3354940 106.1709293  65.6309707
 108.0454558 105.5302486  65.5896325 107.2924248 106.4222188  66.5535887
 106.0483874 103.1574511  67.4505346 105.5121231 102.7065250  68.1026943
 105.4600582 103.2920420  66.7075811 105.4586133 102.6163163  50.0131810
 104.5815599 102.4951964  49.6494057 105.9343886 101.8249241  49.7610698
  96.9788273 107.4040322  60.1073317  97.6659313 107.0902052  59.5194332
  96.8236401 108.3081687  59.8340568 101.7822995 102.2930519  64.5358341
 101.6981184 101.6856189  63.8008751 100.9605701 102.7839537  64.5367837
 111.9546709 100.7784083  59.9028536 112.4515408 100.0254045  59.5829606
 111.1833690 100.8148399  59.3371745 113.0376489 109.5355770  57.4766959
 112.1032768 109.6557232  57.3071663 113.2153158 108.6328237  57.2126969
 108.5381677 102.9201466  59.6300220 108.1679465 102.3672506  60.3181126
 109.0340770 102.3159599  59.0775220 116.4249041 105.3773089  58.0116993
 116.8909493 106.2101081  57.9377296 116.8756541 104.9118071  58.7162252
 106.3670876 113.3798961  66.7255238 107.0680335 114.0135444  66.8784633
 105.8965991 113.7213692  65.9650878 114.3965703  97.7453676  62.0507895
 113.4828783  97.9757903  62.2190102 114.8258805  97.8292120  62.9021927
 114.1672162 105.9343568  64.5507789 113.5143612 106.1819475  63.8960241
 114.5452542 105.1207706  64.2170266 110.2159735 106.6763379  71.0373826
 109.5400372 106.5757508  71.7076201 111.0387369 106.5202593  71.5009823
 101.9638594 112.9135316  63.6586341 102.5492031 112.1679003  63.7914245
 101.7663433 113.2239272  64.5423005  96.5556249 105.4840916  62.3790784
  96.5940348 104.9504506  63.1727902  96.0496542 104.9576121  61.7601761
 103.9347011 100.3305456  65.8753326 103.9988338 101.1920287  65.4630724
 103.8714131  99.7179458  65.1425685 103.4099284 102.4028589  69.5226361
 104.0371322 102.0205666  70.1363885 102.5527202 102.1842791  69.8882053
 100.1864826 104.2105018  55.4544715 100.4818267 103.3015696  55.4011769
  99.2852862 104.1892757  55.1325718 103.7159073 102.2861015  61.4372264
 102.9945659 102.8996982  61.2979737 104.5052329 102.8218779  61.3588910
 106.5185387  99.6215441  67.7112916 107.0419789  99.8677738  68.4739225
 106.2997720 100.4535476  67.2916053 101.9152668 101.8919116  55.5784041
 101.5865374 101.0116495  55.3959147 102.2692039 101.8366784  56.4660430
 105.0294491 102.1792085  55.9459518 105.3690564 102.7078007  55.2238127
 105.4766612 102.5172492  56.7218085 107.7237932 100.5629136  65.3962586
 107.3834752  99.7636949  65.7983266 107.0176938 100.8630847  64.8239420
 108.3754404  97.6478449  63.8489909 109.1980473  97.1738927  63.7268800
 108.6192467  98.4268932  64.3488596 107.0162638 100.6766707  54.1452811
 107.7371001 101.0547960  53.6416528 106.3927942 101.3955584  54.2487789
 111.1593761 101.3811856  55.0811143 111.3757376 102.2636494  54.7799972
 110.6787828 100.9898069  54.3516785 105.8992983 104.3397569  61.6581888
 105.7537563 104.6537872  62.5506170 105.4218186 104.9582470  61.1052787
 107.7589365 101.3300117  61.7062778 107.7450934 100.4341210  61.3695076
 108.4761794 101.3370781  62.3401064 109.6115496 101.7637457  63.7515905
 109.3533274 102.6854528  63.7500235 109.0800537 101.3667892  64.4416369
 100.3738645 106.8802914  64.5969549  99.8292113 107.6562722  64.7289824
 101.2517995 107.2273718  64.4388671 107.1626261 100.2114497  56.9750348
 107.2842173  99.2831144  57.1741235 106.8728304 100.2253183  56.0628663
 110.0317452  97.8969408  60.1117068 110.0539149  97.9608741  59.1569047
 110.4485511  97.0573917  60.3057574 101.1604667 106.0072810  67.4899706
 100.4186403 106.1555445  68.0764336 100.8397411 106.2681075  66.6266455
 101.6061280 113.8938239  59.5210101 102.4319300 113.5942010  59.1408744
 101.2555332 113.1245861  59.9699889 106.5742813 113.2464707  61.5907774
 105.9522823 112.5835412  61.2910002 107.2447680 113.2725839  60.9081422
  99.8069885 111.8124565  60.4799034  98.9701794 111.3846739  60.2983036
  99.7793531 112.0057008  61.4169825 106.6467341 101.7246495  71.1840280
 106.6955496 102.6008618  70.8018050 107.1889855 101.1823888  70.6111924
 106.1356320 111.7968630  55.0666235 106.2844441 112.4804095  54.4132908
 106.9422764 111.7773720  55.5815691 114.5423824 105.1011012  69.0933453
 115.4433687 104.9617477  68.8017450 114.6171799 105.2665467  70.0331630
 108.8766629 102.4777867  67.9386639 108.0069939 102.7711433  67.6669228
 109.1126110 103.0618312  68.6593903 103.8908953 107.8233808  56.0727304
 103.6454995 106.9196138  56.2707514 104.0604868 107.8250958  55.1306782
 111.5805663  98.6957484  65.4552059 112.0987607  99.4318511  65.1298548
 111.2260796  99.0021477  66.2898818 103.1604601 103.5562165  53.5713465
 102.4673846 103.6306520  52.9153501 102.9156353 102.7922509  54.0934982
 111.8318257  95.1157767  60.9752956 112.1120011  94.4480956  61.6013382
 112.6168864  95.3086862  60.4627620 115.7027116 103.5375401  64.7224531
 116.6544539 103.6373498  64.7436755 115.5330566 102.7453669  65.2322615
 113.7241495 100.6230984  64.9083932 113.1291427 100.9035997  64.2130421
 113.4391192 101.1124885  65.6800673 110.0198524 105.6277573  49.8794035
 110.9657629 105.4983781  49.9482453 109.6412769 104.8892235  50.3563463
 118.3309682 103.5492564  63.8825114 117.8148731 102.7651020  63.6955043
 119.2149630 103.2211280  64.0471633 115.9920409  97.2933579  59.8420927
 115.7945230  96.9848668  60.7264259 116.6020114  98.0195218  59.9718856
 109.9037217 109.6795319  71.3394692 110.8240226 109.8573918  71.5334738
 109.8686800 108.7351365  71.1874391 108.2041441 103.5527550  49.8148920
 107.2972897 103.2560662  49.8911634 108.4817422 103.2557368  48.9483206
  99.1219382 104.8733913  60.2647966  98.8022166 104.0199221  59.9722340
  98.5752810 105.0882491  61.0205934 102.8999289 107.5896354  63.9817473
 103.1185299 108.5213462  64.0005507 103.3125063 107.2304329  64.7672277
 109.8203507  98.0964439  55.9693161 109.0104236  97.7511524  56.3448407
 110.5087924  97.7871983  56.5580773 111.7494055  97.1742486  57.5917458
 112.3025094  97.5937940  58.2507481 111.9864142  96.2478234  57.6340414
 107.7727155 103.1629560  73.3720222 107.6723882 104.1123917  73.3032313
 107.5548697 102.8347799  72.4996292 106.9740226 100.4114485  49.9560899
 107.8359390 100.7369383  50.2156717 107.1590570  99.6245981  49.4433965
  98.9907642 108.4936825  62.2341088  98.2971113 108.0790777  61.7211042
  99.7380633 108.5357361  61.6374507 115.1272863  99.2843011  57.0996122
 114.5471532  99.9427815  56.7174175 114.8608795  98.4620356  56.6883540
 113.5776429  98.6848069  59.3017443 114.0776207  98.7964604  58.4931761
 114.2212037  98.3809122  59.9418251 107.6358425 106.5926699  72.1885283
 107.1525506 107.3927059  72.3949173 107.7219364 106.6034644  71.2352727
 100.9044384 108.4255078  60.1107103 100.8815073 108.5242766  59.1588986
 101.2145021 109.2720229  60.4324269 103.5631762 110.4831233  64.2253717
 104.5175016 110.4515176  64.1583649 103.3644286 110.0221857  65.0403943
 104.1531144 109.0532349  66.7924515 104.9724033 109.5476428  66.8159352
 104.4267952 108.1364318  66.7642082 113.9097741 101.4443102  56.1552470
 113.0223596 101.7292752  55.9372665 114.3251730 101.2836865  55.3079747
 117.2612277 101.4689623  59.8706810 118.0372667 101.9586075  60.1431427
 116.5360411 101.8947677  60.3278679 119.6984835 102.1817242  60.9280750
 120.2929326 101.9412978  60.2174059 119.7711419 101.4624373  61.5554287
 101.9181991 116.0250853  61.2423915 101.7836459 115.2651254  60.6761913
 101.5014053 116.7491753  60.7752704 113.8838764 106.9597638  56.3702761
 113.8273966 107.4166189  55.5310393 114.4367107 106.1988322  56.1925603
 117.6943570 102.7487370  57.1952880 117.4380504 102.3484005  58.0261088
 117.0696438 103.4631164  57.0703019 114.6173544 108.1502419  53.6655290
 114.5622347 107.9846690  52.7243734 113.9919599 108.8578452  53.8217479
  99.4066059 103.3870483  67.4916712 100.0524922 102.8769437  67.9803937
  99.1983210 104.1239165  68.0660137 107.9269669  97.6510528  53.2440608
 107.9148339  98.5952368  53.4008879 108.8193091  97.4680673  52.9500069
 111.7421789  94.2453305  57.4986545 110.9754184  93.6911791  57.6443227
 112.1532494  94.3175173  58.3600697 103.7463550 100.5338100  71.5891726
 104.6095011 100.1774905  71.7995051 103.1728960 100.1951995  72.2767130
  44.5245353  -8.1813916  49.0560959  44.1863864  -8.2972852  48.1681493
  45.3935121  -8.5822751  49.0361965  40.3832168  -6.3278440  45.0457850
  39.8197034  -6.4188503  44.2774137  40.2684563  -7.1478535  45.5260342
  45.0065136  -7.0279065  55.0147164  44.9953776  -7.4226266  54.1427668
  45.1685775  -7.7612992  55.6080936  37.9296600  -4.8327248  47.8842070
  38.7217892  -5.1736424  47.4688369  38.1693250  -4.7232273  48.8044223
  45.9631727  -2.6607472  40.3572314  45.3119707  -2.0753392  39.9706328
  46.7576090  -2.1301277  40.4167352  39.8887354  -5.5718335  40.7559449
  40.6618230  -6.1189348  40.6172325  40.2412753  -4.7074086  40.9673910
  41.7272397  -4.2441953  53.9626348  41.4362263  -3.3396322  53.8473014
  42.3629381  -4.2025425  54.6770418  42.6528604  -6.8665104  50.5527708
  43.2492176  -7.0909082  49.8384671  42.7103575  -7.6080359  51.1553156
  47.4406992  -4.9717040  40.8941299  46.8052825  -4.8982414  41.6062203
  47.1104399  -4.3823441  40.2160378  41.9449921  -7.5097563  40.5902274
  41.8286179  -8.1852660  41.2583358  42.0552181  -7.9965189  39.7734427
  44.2881462  -8.0487416  44.2948963  43.9239669  -8.5756795  45.0061884
  45.1448578  -8.4388947  44.1215448  46.6862282  -4.5580537  50.9576142
  46.3863005  -3.6555498  50.8491949  46.3413341  -4.8248354  51.8097295
  40.1374763  -8.1066740  46.9912846  39.2125260  -8.2390526  47.1990538
  40.3859177  -7.3272521  47.4882789  41.6683062   2.2063783  43.9247109
  41.5907091   3.1571608  44.0035590  41.0644705   1.8609656  44.5822036
  42.4146664  -7.8122898  56.1426443  43.1561348  -7.2737854  55.8661267
  41.7083649  -7.1856609  56.2997995  47.8902003  -5.6693758  54.7398605
  48.2985359  -6.1111347  53.9953237  47.1679265  -6.2441130  54.9932798
  48.2130818  -5.1092567  48.4950894  47.5839680  -4.9446853  47.7926962
  47.8256480  -4.6950957  49.2661858  52.0920050  -4.1738129  45.8495257
  51.4071088  -3.7939228  45.2992291  52.1763899  -3.5642802  46.5827205
  49.3470982  -6.5278170  52.4490601  49.5587877  -5.8846410  51.7724982
  49.3000730  -7.3615854  51.9812531  43.7658780  -5.3718159  45.7600979
  44.2297125  -5.0930456  44.9705601  43.5015578  -6.2734714  45.5774070
  40.6582861  -5.8246677  48.6980742  41.2284218  -5.3959409  48.0598227
  41.2490973  -6.1064093  49.3964928  50.4616810  -3.6506215  50.6212958
  51.2834253  -4.0526027  50.3395640  50.4579212  -3.7537981  51.5729074
  44.2273413  -4.1022171  52.7773669  44.2917845  -3.6401764  53.6131841
  43.5184337  -4.7324806  52.9055979  43.9421431  -2.4354064  42.6452649
  43.8067105  -1.5902528  43.0737497  44.4831243  -2.2334786  41.8818583
  37.3950828  -4.9178626  43.2180574  37.9075349  -4.1235376  43.3686139
  38.0473541  -5.6152335  43.1514176  39.2045713  -1.8012870  45.3003327
  39.3812341  -0.8794905  45.1124311  40.0002546  -2.1154450  45.7297707
  45.5689907  -1.8130497  56.7752991  45.1253761  -2.5994119  56.4573896
  46.2307121  -1.6251347  56.1096882  40.3277028  -0.2834696  51.3013670
  40.8784453  -0.4117632  50.5290664  39.4888504   0.0160193  50.9508563
  47.6671145  -1.5327697  54.8034393  47.6489620  -0.7118816  54.3114662
  48.5891065  -1.6573622  55.0284534  44.1244199  -4.0183568  55.6457901
  44.6572536  -4.7795280  55.4157209  43.5958280  -4.3109916  56.3882055
  45.4896912  -4.8897575  43.1576713  44.9618273  -5.6244816  42.8449950
  44.9884415  -4.1122899  42.9116681  50.4689758  -6.6948555  48.2743759
  49.8113432  -6.0049294  48.3623888  51.2730157  -6.3052123  48.6177746
  43.6349512  -7.0717365  36.1611686  42.7276574  -7.3028112  36.3602835
  44.1320544  -7.8679746  36.3485667  46.5417591   1.6380142  39.0808372
  45.8679290   1.9411839  39.6893330  46.9283413   2.4409222  38.7313829
  44.8137746  -6.9704770  40.6835676  43.9048965  -7.2545738  40.7808146
  44.8432829  -6.5505692  39.8238983  50.0457013  -3.3598181  44.4526844
  49.5919340  -4.2007271  44.5092034  49.4150980  -2.7236782  44.7901624
  48.4889952  -1.5221684  45.3876662  48.7812927  -0.9616627  44.6689027
  48.9988573  -1.2293123  46.1429821  44.5113833  -5.4296027  38.0223755
  44.0733263  -6.1460168  37.5629392  45.2524274  -5.2019912  37.4608846
  43.4523577  -0.7441333  46.4770115  43.4099756  -0.5180487  45.5478647
  44.3686276  -0.9777959  46.6255916  52.6556328  -5.0862303  49.0911345
  53.0892834  -5.1787014  49.9394399  53.3687908  -5.1104802  48.4531361
  41.5689378  -3.8678304  46.2732078  42.3629977  -4.3627984  46.0714653
  40.8581071  -4.3960441  45.9099783  46.3884223  -1.4860209  50.6244445
  46.4421245  -0.9169272  51.3922161  45.5199004  -1.3158324  50.2598482
  53.5171877  -5.0438602  51.6244230  53.7107767  -4.1392791  51.8703505
  53.4172495  -5.5031183  52.4582815  48.5786986  -4.8931859  57.1985111
  48.4272492  -5.1221308  56.2815194  48.5691665  -3.9361258  57.2116456
  45.3472322  -7.3199947  52.1831377  46.2764382  -7.1688787  52.0100344
  44.9263352  -7.2315926  51.3280024  44.1460654  -3.2949282  49.9529915
  44.0071740  -3.6630498  50.8255853  43.3575250  -2.7801643  49.7813873
  44.7408806   1.8059814  41.2955451  44.9160562   1.3347858  42.1101074
  44.0541594   2.4325581  41.5236712  45.6965869  -3.9167679  47.3418753
  45.3615702  -3.9566909  48.2376402  45.1969815  -4.5822963  46.8689163
  39.6710113  -8.5100049  52.8671334  39.5329911  -9.2419811  53.4682873
  40.5815037  -8.5991149  52.5855521  48.6325061  -6.5711645  37.6155812
  48.0154232  -7.2964817  37.5188865  48.1641549  -5.8102285  37.2722886
  42.2992414  -8.7980090  52.3555013  43.0092032  -9.4386898  52.3141632
  42.2561722  -8.5467195  53.2781194  50.2879193  -1.8612737  55.2761593
  50.2291739  -2.5453517  54.6092176  50.6898711  -1.1193747  54.8242219
  39.3069891   4.9549177  48.0695311  39.5466490   5.5867701  48.7474330
  38.4639088   4.6037217  48.3560671  50.2896600  -3.8973153  53.5075572
  49.4023379  -4.2347231  53.6301971  50.8595151  -4.6290122  53.7444338
  43.8197753   0.7628300  50.4736815  43.7467925   1.5683271  50.9856120
  43.3775146   0.9620265  49.6484837  43.6087533   0.0000070  43.9839637
  42.8255055   0.5421750  44.0777862  44.3080278   0.5174049  44.3833878
  46.2796437   0.6615134  52.6294974  46.9924409   1.2962598  52.5570876
  45.7886465   0.7579000  51.8134976  48.0013964  -5.4333614  44.2012266
  47.0670242  -5.3132151  44.0316970  48.1790632  -6.3361147  43.9372276
  41.3308350  -1.5890423  53.4500545  42.0317810  -0.9553940  53.6029939
  40.8603465  -1.2475691  52.6896184  49.4562746  -3.2472473  41.7348452
  49.7322590  -3.3615879  42.6442326  48.5867245  -3.6454988  41.6960625
  46.0916810   1.0013878  45.3781266  46.2739205   0.1835534  45.8409018
  46.9149796   1.2181570  44.9406156  46.4258976  -0.0717937  42.6396314
  46.9546742  -0.5825483  42.0266476  46.6887195  -0.3875407  43.5041847
  45.1797209  -8.2926004  57.7619132  44.5037846  -8.3931875  58.4321508
  46.0024843  -8.4486791  58.2255130  36.9276068  -2.0554068  50.3831648
  37.5129505  -2.8010380  50.5159552  36.7300907  -1.7450111  51.2668312
  39.7814724   0.9797180  45.3994090  39.1125099   1.4643307  44.9158130
  39.6427593   1.2266400  46.3137469  43.9219992   3.0140923  51.9976748
  44.4738300   3.1772545  52.7625834  44.2626186   3.6045361  51.3256773
  48.7730867  -2.1597819  57.8525403  49.3170770  -1.5467861  57.3580358
  48.1917711  -1.6018241  58.3692416  47.0588379   0.9622899  48.9840431
  46.9339519   0.1612638  48.4751376  47.7167471   1.4569092  48.4954400
  49.1223288  -1.2368081  50.6119981  48.1753623  -1.3562730  50.5398307
  49.4706061  -2.1245583  50.6946242  46.1269721  -1.4415365  46.8124333
  45.9794684  -2.3698658  46.9931903  46.9523215  -1.4195274  46.3281408
  49.7303843  -0.6186806  47.8989206  50.6550390  -0.8243945  47.7613657
  49.5619146  -0.8670405  48.8078547  49.5199159  -0.1001139  43.2551297
  49.6936037  -0.6654716  42.5025149  50.0128050   0.6999756  43.0730787
  50.5074332  -0.7834375  40.3548195  51.2025236  -0.1627682  40.5735510
  50.8497482  -1.6339023  40.6300573  52.4065755  -3.3334669  41.8835526
  52.9317079  -2.9947396  41.1584846  52.3188107  -4.2687654  41.6998661
  44.0685804   0.5799405  54.0125403  44.3772930   0.3348551  54.8848102
  44.8661286   0.7846043  53.5244273  44.0906416   2.7337314  46.2430779
  43.6511406   2.2413693  46.9363636  44.8414533   2.1910282  46.0022855
  36.5698755  -1.0751145  46.2455407  37.3956774  -1.3747373  45.8654051
  36.2192807  -1.8443522  46.6945196  41.5380288  -1.7224677  48.3153081
  40.9160297  -2.3853972  48.0155309  42.2085155  -1.6963545  47.6326729
  34.7707360  -3.1564818  47.2044341  33.9339268  -3.5842644  47.0228342
  34.7431005  -2.9632375  48.1415132  52.0959661  -2.7001765  57.1886724
  51.3055205  -2.7177627  56.6491223  51.8593015  -2.1613472  57.9435761
  41.0993795  -3.1720753  41.7911541  41.2481915  -2.4885289  41.1378214
  41.9060238  -3.1915663  42.3060997  53.7175733  -3.4312357  54.7461474
  53.4260541  -3.0682377  55.5824935  53.1047864  -4.1445349  54.5674806
  38.8546428  -7.1455576  42.7972610  38.6092470  -8.0493246  42.9952821
  39.0242342  -7.1438425  41.8552088  44.5989200  -0.6772623  39.2623289
  44.0263167  -0.0582436  38.8093761  45.1721994  -0.1273261  39.7963211
  47.8186460  -0.3935473  40.3931871  48.7517133  -0.4589911  40.5964747
  47.7309673   0.4420794  39.9346404  50.4474477  -1.0769602  37.3535819
  50.3688108  -1.4109739  38.2471577  51.2684143  -0.5847834  37.3527291
  44.8674691  -5.2894064  58.0639998  45.7877701  -5.1115465  58.2580045
  44.8324274  -6.2338019  57.9119698  37.8636764  -7.3793029  50.7062780
  38.0822774  -6.4475922  50.7250813  38.2762538  -7.7385055  51.4917583
  42.5995899  -8.3762685  58.9130590  42.1162981  -7.5762325  59.1194479
  42.6856838  -8.3654740  57.9598034  35.8681859  -6.5434305  46.8352409
  35.8452547  -6.4446618  45.8834293  36.1782495  -5.6969154  47.1569576
  38.5269237  -4.4858150  50.9499024  39.4812490  -4.5174208  50.8828955
  38.3281760  -4.9467526  51.7649250  39.1168619  -5.9157034  53.5169822
  39.9361508  -5.4212955  53.5404659  39.3905426  -6.8325066  53.4887389
  36.8819465   1.0561469  47.9669222  36.7473933   0.2961870  47.4007220
  36.4651528   1.7802369  47.4998011  48.0178428  -3.7601607  36.9745797
  48.7214279  -3.5551604  37.5903453  47.2941077  -3.1924845  37.2394881
  40.0388591   1.9530787  48.1787664  39.9220975   2.8976219  48.0766355
  39.2181038   1.6504348  48.5673464  49.9265126  -3.3219078  39.0244257
  50.7610730  -3.7537879  38.8421732  49.7649469  -3.4937064  39.9521152
  49.5811018  -6.8186964  40.3900596  49.5259822  -6.9842693  39.4489041
  48.9557073  -6.1110932  40.5462786  46.8956925  -4.5138053  59.7154159
  47.7648085  -4.3397400  59.3540794  46.4163677  -3.6943636  59.5929889
  41.0643105   2.6059048  51.3943593  41.9670352   2.6382659  51.7110088
  40.8380475   1.6759499  51.4089929  42.8196707   1.3590035  48.0553671
  41.8692338   1.3591897  47.9418044  43.1229194   0.6122770  47.5389706
  58.5549401   7.1950573  49.1199434  59.1927811   7.0757321  48.4162774
  58.4370244   8.1431417  49.1787386  55.3639107   7.1478001  49.0560959
  55.0257619   7.0319066  48.1681493  56.2328875   6.7469167  49.0361965
  51.2225923   9.0013478  45.0457850  50.6590788   8.9103415  44.2774137
  51.1078318   8.1813382  45.5260342  55.8458890   8.3012853  55.0147164
  55.8347531   7.9065651  54.1427668  56.0079530   7.5678926  55.6080936
  48.7690355  10.4964669  47.8842070  49.5611647  10.1555494  47.4688369
  49.0087005  10.6059644  48.8044223  56.8025482  12.6684446  40.3572314
  56.1513461  13.2538526  39.9706328  57.5969844  13.1990640  40.4167352
  50.7281109   9.7573583  40.7559449  51.5011985   9.2102570  40.6172325
  51.0806508  10.6217832  40.9673910  52.5666151  11.0849965  53.9626348
  52.2756017  11.9895596  53.8473014  53.2023136  11.1266493  54.6770418
  53.4922358   8.4626813  50.5527708  54.0885930   8.2382836  49.8384671
  53.5497330   7.7211559  51.1553156  53.0647387   5.9166249  38.3877899
  53.3172907   5.3947770  37.6261362  52.1271946   5.7532394  38.4904582
  58.1090669   4.9202027  46.1952642  58.8953759   4.5021450  45.8443059
  58.3729374   5.8248119  46.3634290  58.2800747  10.3574877  40.8941299
  57.6446580  10.4309504  41.6062203  57.9498153  10.9468476  40.2160378
  63.5099097   4.8577260  47.0985620  64.2424268   4.2876477  47.3323450
  62.7538452   4.4698861  47.5392126  52.7843675   7.8194355  40.5902274
  52.6679933   7.1439258  41.2583358  52.8945935   7.3326729  39.7734427
  55.1275216   7.2804502  44.2948963  54.7633423   6.7535123  45.0061884
  55.9842332   6.8902971  44.1215448  61.0324517  -1.4301166  51.5580229
  60.7007842  -0.5605755  51.3341444  60.4370130  -1.7464882  52.2374259
  54.7680703   2.3094402  39.2910311  54.9355106   3.1774638  39.6580782
  54.5777872   2.4721683  38.3671601  57.5256036  10.7711380  50.9576142
  57.2256759  11.6736419  50.8491949  57.1807096  10.5043564  51.8097295
  50.9768518   7.2225177  46.9912846  50.0519014   7.0901391  47.1990538
  51.2252931   8.0019397  47.4882789  60.9253180   3.2893921  48.6373579
  60.0170058   3.2209329  48.3432340  60.8740776   3.7665866  49.4655405
  54.7469924   4.7652059  40.2756978  54.6269549   5.2109110  41.1142458
  54.0522512   5.1137377  39.7170516  48.3377329   6.8658451  47.8256635
  48.4669710   7.1192930  48.7396047  47.6574780   7.4586159  47.5061290
  52.5076816  17.5355701  43.9247109  52.4300846  18.4863526  44.0035590
  51.9038460  17.1901573  44.5822036  54.9994046   4.7083566  56.5808476
  54.2227380   5.2677486  56.5711341  55.6384609   5.1940349  57.1023346
  62.7914827   1.4910359  50.4151453  62.1489207   1.7842892  49.7691248
  62.2869755   1.3763279  51.2204650  60.4454990   5.2373532  41.1037312
  61.3572846   5.4700919  40.9285010  59.9364637   5.8210576  40.5412391
  53.2540418   7.5169020  56.1426443  53.9955103   8.0554064  55.8661267
  52.5477404   8.1435308  56.2997995  58.7295758   9.6598160  54.7398605
  59.1379114   9.2180571  53.9953237  58.0073019   9.0850788  54.9932798
  55.0826828   4.5970767  52.1132162  55.9288023   5.0210180  52.2566811
  55.0225466   3.9404391  52.8070725  59.0524573  10.2199351  48.4950894
  58.4233435  10.3845065  47.7926962  58.6650235  10.6340960  49.2661858
  62.9313804  11.1553789  45.8495257  62.2464843  11.5352690  45.2992291
  63.0157654  11.7649115  46.5827205  58.2326273   2.2575135  53.7713335
  57.9887205   3.0117196  53.2347611  58.5086204   2.6360483  54.6060582
  60.1864736   8.8013748  52.4490601  60.3981631   9.4445507  51.7724982
  60.1394484   7.9676064  51.9812531  57.7890965   1.4131568  49.3527173
  56.9275444   1.7112822  49.6443911  57.8153400   1.6301967  48.4208206
  54.6052534   9.9573759  45.7600979  55.0690880  10.2361462  44.9705601
  54.3409333   9.0557203  45.5774070  51.4976615   9.5045240  48.6980742
  52.0677973   9.9332509  48.0598227  52.0884727   9.2227825  49.3964928
  53.5421420   6.0796911  42.5690544  54.2445464   6.5317955  43.0364470
  53.2102049   5.4380730  43.1970437  51.9901782   4.6708668  56.9441753
  51.3600443   5.3524949  57.1777150  51.8837870   4.5591749  55.9994892
  47.2846754   4.3380464  47.8707678  46.4945808   4.5937992  47.3947788
  47.7758002   5.1528802  47.9759718  61.3010564  11.6785703  50.6212958
  62.1228008  11.2765890  50.3395640  61.2972967  11.5753937  51.5729074
  49.2361500   4.7025043  44.8291154  48.4392663   4.8143737  45.3474650
  49.0087092   5.0411695  43.9632045  55.0667167  11.2269746  52.7773669
  55.1311600  11.6890154  53.6131841  54.3578091  10.5967111  52.9055979
  45.5684457   4.5910954  50.3022668  45.8192496   5.4757964  50.5680244
  46.1044006   4.4115556  49.5297760  69.3916557   8.0224451  46.9697930
  68.6380265   7.4531850  46.8141934  69.5264098   7.9887116  47.9168565
  54.7815185  12.8937854  42.6452649  54.6460860  13.7389390  43.0737497
  55.3224998  13.0957131  41.8818583  51.2682525  -1.0270566  59.3067004
  50.8749470  -1.5804368  59.9814649  52.0848665  -0.7159988  59.6973522
  48.2344582  10.4113292  43.2180574  48.7469103  11.2056542  43.3686139
  48.8867295   9.7139582  43.1514176  50.0439467  13.5279048  45.3003327
  50.2206096  14.4497013  45.1124311  50.8396301  13.2137467  45.7297707
  54.1850486   0.3887313  56.8987261  54.9260199   0.9894466  56.8191723
  54.4168409  -0.3535049  56.3405304  49.3291824   5.5743680  55.1765491
  49.2145339   4.6728937  55.4772590  48.4736341   5.8207377  54.8250307
  56.4083661  13.5161420  56.7752991  55.9647516  12.7297799  56.4573896
  57.0700875  13.7040571  56.1096882  51.1670783  15.0457222  51.3013670
  51.7178208  14.9174285  50.5290664  50.3282259  15.3452111  50.9508563
  58.5064900  13.7964220  54.8034393  58.4883375  14.6173101  54.3114662
  59.4284820  13.6718295  55.0284534  54.9637954  11.3108350  55.6457901
  55.4966290  10.5496638  55.4157209  54.4352035  11.0182002  56.3882055
  58.1307649  -3.5831584  51.1751543  57.7871918  -2.6929943  51.0990653
  58.4986611  -3.7729927  50.3121128  46.1993499   8.7401946  43.9940145
  47.0368721   9.1498954  43.7773853  46.3771767   7.8001388  43.9640339
  58.0957931   6.4077027  39.6823978  57.5804555   7.1781631  39.9212365
  57.8235240   5.7342163  40.3057039  55.6805042   1.2526728  44.7409216
  54.8246639   0.8633578  44.5614855  56.0931994   1.3318688  43.8809002
  57.2104189  -1.2126929  49.1400776  56.7068985  -1.2496794  48.3268581
  57.5034796  -0.3034186  49.1997433  53.4547075  -1.1288199  48.1466958
  54.3200072  -1.3245391  47.7872847  53.5224584  -1.3577848  49.0736314
  63.0692206   9.1609381  41.6177151  62.2921648   8.8220541  41.1732313
  63.7483686   9.1662005  40.9432116  57.8844235   4.2804119  41.5083759
  57.5794370   4.5950268  42.3593902  58.8374677   4.3585539  41.5511092
  56.3290666  10.4394342  43.1576713  55.8012028   9.7047102  42.8449950
  55.8278169  11.2169019  42.9116681  61.3083512   8.6343363  48.2743759
  60.6507187   9.3242624  48.3623888  62.1123912   9.0239795  48.6177746
  51.0609394   1.1014008  45.5183324  51.6353146   0.8789190  44.7856517
  51.6480376   1.1702703  46.2711926  60.1188971   6.9887735  46.3247701
  60.6320853   7.6217727  46.8269411  60.7690195   6.3888931  45.9591061
  51.3878981   3.1318469  39.5379210  50.5516293   3.4693156  39.8588484
  51.2483751   2.9967449  38.6006347  53.3632062  -2.0244743  44.2458394
  52.7096474  -2.3395725  43.6215009  53.3212536  -2.6469002  44.9718217
  54.4743267   8.2574552  36.1611686  53.5670328   8.0263806  36.3602835
  54.9714299   7.4612172  36.3485667  57.3811345  16.9672060  39.0808372
  56.7073044  17.2703756  39.6893330  57.7677167  17.7701140  38.7313829
  56.5969802   4.4637191  48.5706041  55.6792363   4.6852138  48.4127730
  57.0129946   4.5383501  47.7117749  57.3804850   5.8628607  43.7008722
  58.1276669   6.3750004  43.3915844  57.6496439   5.5412659  44.5613115
  55.6531500   8.3587147  40.6835676  54.7442719   8.0746180  40.7808146
  55.6826584   8.7786226  39.8238983  60.8850767  11.9693737  44.4526844
  60.4313095  11.1284647  44.5092034  60.2544734  12.6055135  44.7901624
  59.8283687   2.8985723  45.6827511  59.0906444   2.3863109  46.0137754
  60.0810461   2.4586104  44.8710788  59.3283707  13.8070234  45.3876662
  59.6206681  14.3675291  44.6689027  59.8382327  14.0998794  46.1429821
  46.2219670   6.0792661  44.6650878  46.0244070   5.4862022  43.9401945
  45.6666334   5.7744872  45.3826817  54.2016394   5.9715768  46.7845471
  54.2565004   5.0189604  46.7087948  53.3907596   6.1275207  47.2686770
  55.3507588   9.8995891  38.0223755  54.9127018   9.1831750  37.5629392
  56.0918029  10.1272006  37.4608846  52.1408754   4.5892828  44.5435850
  51.3276620   4.8886998  44.9501042  52.6367748   4.1948516  45.2610333
  54.2917332  14.5850585  46.4770115  54.2493511  14.8111431  45.5478647
  55.2080031  14.3513959  46.6255916  57.7382966   5.0534652  53.3750744
  58.0932353   5.2806125  54.2345210  58.3855097   5.3853029  52.7527999
  63.4680703   8.1753088  44.0800073  63.3298601   8.3654684  43.1521262
  63.1116921   8.9372471  44.5368124  51.6322829   2.1611183  50.1597085
  52.2722208   2.0199942  49.4620049  50.8000359   1.8745697  49.7835687
  63.4950082  10.2429615  49.0911345  63.9286589  10.1504904  49.9394399
  64.2081663  10.2187115  48.4531361  52.4083133  11.4613614  46.2732078
  53.2023731  10.9663934  46.0714653  51.6974825  10.9331477  45.9099783
  57.2277977  13.8431709  50.6244445  57.2814999  14.4122645  51.3922161
  56.3592758  14.0133594  50.2598482  48.7165896   5.6056695  42.3491830
  47.7863484   5.5441151  42.5661792  48.8123368   5.0832648  41.5528472
  48.6351445   2.1311508  44.9370072  48.8958262   3.0456841  44.8279232
  49.4568617   1.6635951  45.0866685  50.1076370   3.5449265  52.1068897
  50.7799424   3.3366627  51.4581545  49.2806157   3.3471351  51.6674129
  64.3565632  10.2853316  51.6244230  64.5501522  11.1899126  51.8703505
  64.2566250   9.8260735  52.4582815  56.0101943   0.1711206  54.1234557
  55.3629858   0.8701156  54.0299034  56.7802958   0.6047350  54.4910806
  59.4180740  10.4360058  57.1985111  59.2666247  10.2070610  56.2815194
  59.4085420  11.3930660  57.2116456  56.1866077   8.0091971  52.1831377
  57.1158137   8.1603131  52.0100344  55.7657107   8.0975992  51.3280024
  54.9854409  12.0342636  49.9529915  54.8465494  11.6661420  50.8255853
  54.1969005  12.5490275  49.7813873  55.5802561  17.1351732  41.2955451
  55.7554316  16.6639775  42.1101074  54.8935349  17.7617498  41.5236712
  56.5359624  11.4124238  47.3418753  56.2009456  11.3725008  48.2376402
  56.0363569  10.7468954  46.8689163  50.5103868   6.8191868  52.8671334
  50.3723666   6.0872107  53.4682873  51.4208791   6.7300768  52.5855521
  59.4718815   8.7580273  37.6155812  58.8547986   8.0327101  37.5188865
  59.0035304   9.5189633  37.2722886  53.1386168   6.5311828  52.3555013
  53.8485787   5.8905020  52.3141632  53.0955477   6.7824722  53.2781194
  61.1272947  13.4679181  55.2761593  61.0685493  12.7838401  54.6092176
  61.5292465  14.2098171  54.8242219  51.8515102   3.5177046  54.1750653
  51.3152459   3.0667784  54.8272249  51.2631811   3.6522954  53.4321117
  50.1463646  20.2841095  48.0695311  50.3860244  20.9159619  48.7474330
  49.3032842  19.9329135  48.3560671  51.2617361   2.9765697  36.7377116
  50.3846828   2.8554498  36.3739363  51.7375114   2.1851775  36.4856005
  61.1290354  11.4318765  53.5075572  60.2417133  11.0944687  53.6301971
  61.6988905  10.7001796  53.7444338  42.7819501   7.7642857  46.8318624
  43.4690541   7.4504587  46.2439639  42.6267630   8.6684221  46.5585875
  47.5854224   2.6533053  51.2603647  47.5012412   2.0458723  50.5254057
  46.7636930   3.1442072  51.2613144  54.6591508  16.0920217  50.4736815
  54.5861679  16.8975189  50.9856120  54.2168901  16.2912183  49.6484837
  54.4481287  15.3291987  43.9839637  53.6648809  15.8713667  44.0777862
  55.1474033  15.8465967  44.3833878  57.7577937   1.1386617  46.6273842
  58.2546637   0.3856579  46.3074913  56.9864919   1.1750933  46.0617052
  65.6107695   6.8426982  48.2692134  65.5997571   7.7251698  47.8986067
  64.7425074   6.4898533  48.0746671  57.1190191  15.9907051  52.6294974
  57.8318163  16.6254516  52.5570876  56.6280220  16.0870917  51.8134976
  58.8407718   9.8958304  44.2012266  57.9063997  10.0159766  44.0316970
  59.0184387   8.9930771  43.9372276  54.3412906   3.2804000  46.3545527
  53.9710694   2.7275040  47.0426433  54.8371999   2.6762133  45.8020527
  62.2280270   5.7375623  44.7362300  62.6940722   6.5703615  44.6622603
  62.6787770   5.2720605  45.4407558  52.1702105  13.7401495  53.4500545
  52.8711564  14.3737978  53.6029939  51.6997220  14.0816226  52.6896184
  60.2956501  12.0819445  41.7348452  60.5716345  11.9676039  42.6442326
  59.4260999  11.6836929  41.6960625  60.1996932  -1.8943790  48.7753201
  59.2860012  -1.6639563  48.9435408  60.6290034  -1.8105346  49.6267234
  59.9703391   6.2946102  51.2753095  59.3174841   6.5422010  50.6205548
  60.3483771   5.4810240  50.9415573  56.9310565  16.3305795  45.3781266
  57.1132959  15.5127451  45.8409018  57.7543551  16.5473488  44.9406156
  57.2652730  15.2573981  42.6396314  57.7940497  14.7466435  42.0266476
  57.5280950  14.9416511  43.5041847  56.0190964   7.0365913  57.7619132
  55.3431601   6.9360043  58.4321508  56.8418598   6.8805127  58.2255130
  47.7669823  13.2737850  50.3831648  48.3523260  12.5281538  50.5159552
  47.5694661  13.5841807  51.2668312  50.6208478  16.3089097  45.3994090
  49.9518853  16.7935225  44.9158130  50.4821348  16.5558318  46.3137469
  42.3587478   5.8443450  49.1036091  42.3971577   5.3107041  49.8973209
  41.8527770   5.3178656  48.4847068  54.7613747  18.3432841  51.9976748
  55.3132055  18.5064462  52.7625834  55.1019940  18.9337279  51.3256773
  49.7378240   0.6907991  52.5998633  49.8019566   1.5522821  52.1876031
  49.6745360   0.0781992  51.8670992  49.2130512   2.7631123  56.2471667
  49.8402551   2.3808200  56.8609192  48.3558431   2.5445325  56.6127360
  59.6124621  13.1694098  57.8525403  60.1564525  13.7824057  57.3580358
  59.0311466  13.7273677  58.3692416  45.9896055   4.5707552  42.1790022
  46.2849496   3.6618231  42.1257076  45.0884091   4.5495292  41.8571024
  57.8982134  16.2914816  48.9840431  57.7733273  15.4904556  48.4751376
  58.5561225  16.7861010  48.4954400  49.5190302   2.6463549  48.1617571
  48.7976888   3.2599516  48.0225044  50.3083558   3.1821314  48.0834217
  59.9617042  14.0923836  50.6119981  59.0147378  13.9729188  50.5398307
  60.3099815  13.2046334  50.6946242  52.3216616  -0.0182025  54.4358223
  52.8451018   0.2280272  55.1984532  52.1028949   0.8138010  54.0161360
  47.7183897   2.2521650  42.3029347  47.3896603   1.3719029  42.1204453
  48.0723267   2.1969319  43.1905737  56.9663476  13.8876553  46.8124333
  56.8188438  12.9593260  46.9931903  57.7916969  13.9096643  46.3281408
  50.8325720   2.5394620  42.6704825  51.1721792   3.0680541  41.9483433
  51.2797840   2.8775026  43.4463392  60.5697597  14.7105111  47.8989206
  61.4944145  14.5047973  47.7613657  60.4012901  14.4621512  48.8078547
  53.5269161   0.9231670  52.1207893  53.1865981   0.1239483  52.5228573
  52.8208167   1.2233381  51.5484726  54.1785633  -1.9919017  50.5735216
  55.0011702  -2.4658539  50.4514106  54.4223696  -1.2128533  51.0733902
  52.8193867   1.0369241  40.8698118  53.5402230   1.4150494  40.3661835
  52.1959171   1.7558118  40.9733096  56.9624990   1.7414390  41.8056450
  57.1788604   2.6239028  41.5045278  56.4819057   1.3500604  41.0762092
  51.7024211   4.7000103  48.3827195  51.5568792   5.0140406  49.2751476
  51.2249415   5.3185004  47.8298093  53.5620594   1.6902651  48.4308084
  53.5482163   0.7943745  48.0940382  54.2793022   1.6973315  49.0646370
  55.4146725   2.1239992  50.4761212  55.1564503   3.0457062  50.4745542
  54.8831765   1.7270426  51.1661676  60.3592914  15.2290779  43.2551297
  60.5329791  14.6637201  42.5025149  60.8521805  16.0291674  43.0730787
  46.1769873   7.2405448  51.3214856  45.6323342   8.0165256  51.4535130
  47.0549223   7.5876252  51.1633977  52.9657490   0.5717032  43.6995654
  53.0873401  -0.3566322  43.8986542  52.6759533   0.5855718  42.7873970
  55.8348681  -1.7428058  46.8362374  55.8570377  -1.6788725  45.8814354
  56.2516740  -2.5823549  47.0302880  66.2132305   7.9927202  44.8741597
  66.6563451   7.2434527  44.4760720  65.3358815   7.9837338  44.4915329
  61.3468086  14.5457543  40.3548195  62.0418991  15.1664236  40.5735510
  61.6891236  13.6952894  40.6300573  46.9635895   6.3675344  54.2145013
  46.2217631   6.5157979  54.8009643  46.6428640   6.6283610  53.3511762
  63.2459509  11.9957249  41.8835526  63.7710833  12.3344521  41.1584846
  63.1581862  11.0604264  41.6998661  54.9079558  15.9091322  54.0125403
  55.2166684  15.6640469  54.8848102  55.7055040  16.1137961  53.5244273
  54.9300170  18.0629232  46.2430779  54.4905160  17.5705611  46.9363636
  55.6808287  17.5202200  46.0022855  47.4092509  14.2540773  46.2455407
  48.2350529  13.9544545  45.8654051  47.0586561  13.4848395  46.6945196
  52.3774042  13.6067241  48.3153081  51.7554051  12.9437946  48.0155309
  53.0478909  13.6328373  47.6326729  45.6101114  12.1727099  47.2044341
  44.7733022  11.7449274  47.0228342  45.5824760  12.3659543  48.1415132
  52.4498570   2.0849029  57.9085587  52.4986725   2.9611152  57.5263357
  52.9921084   1.5426422  57.3357230  62.9353415  12.6290152  57.1886724
  62.1448959  12.6114291  56.6491223  62.6986770  13.1678446  57.9435761
  63.0551290   9.4782619  54.5019453  63.1049295   9.3132626  55.4434975
  62.9465214   8.6109878  54.1117333  51.9387549  12.1571164  41.7911541
  52.0875669  12.8406629  41.1378214  52.7453993  12.1376254  42.3060997
  60.3455053   5.4613547  55.8178759  61.2464916   5.3220012  55.5262757
  60.4203027   5.6268002  56.7576937  54.6797858   2.8380401  54.6631946
  53.8101168   3.1313968  54.3914534  54.9157339   3.4220846  55.3839209
  64.5569487  11.8979560  54.7461474  64.2654296  12.2609541  55.5824935
  63.9441619  11.1846568  54.5674806  65.7565170   9.4632440  47.2664044
  66.5912061   9.9022244  47.4301605  65.8924298   8.9871093  46.4472290
  62.8056675   7.0212175  53.2141532  63.2810797   7.2139821  52.4060383
  61.8822241   7.0771361  52.9684916  49.6940182   8.1836342  42.7972610
  49.4486224   7.2798672  42.9952821  49.8636097   8.1853492  41.8552088
  57.3836892  -0.9439982  52.1797366  57.9018836  -0.2078955  51.8543855
  57.0292025  -0.6375988  53.0144125  48.9635830   3.9164700  40.2958772
  48.2705075   3.9909055  39.6398808  48.7187582   3.1525043  40.8180289
  55.4382955  14.6519295  39.2623289  54.8656922  15.2709482  38.8093761
  56.0115748  15.2018657  39.7963211  61.5058344   3.8977935  51.4469838
  62.4575767   3.9976033  51.4682062  61.3361795   3.1056203  51.9567922
  59.5272724   0.9833518  51.6329239  58.9322656   1.2638531  50.9375727
  59.2422421   1.4727419  52.4045980  58.6580214  14.9356445  40.3931871
  59.5910888  14.8702007  40.5964747  58.5703427  15.7712712  39.9346404
  61.2868231  14.2522315  37.3535819  61.2081863  13.9182179  38.2471577
  62.1077898  14.7444083  37.3527291  63.9846422   7.1184055  50.5612137
  63.9522742   6.1800055  50.7471821  64.5947046   7.1968091  49.8277962
  55.8229753   5.9880108  36.6039341  56.7688858   5.8586316  36.6727759
  55.4443998   5.2494769  37.0808770  64.1340911   3.9095098  50.6070421
  63.6179959   3.1253555  50.4200349  65.0180859   3.5813815  50.7716940
  61.7951638  -2.3463886  46.5666233  61.5976459  -2.6548798  47.4509565
  62.4051343  -1.6202247  46.6964163  69.8022972   8.1800061  49.7018174
  70.5326361   7.9185350  50.2625877  69.1929918   7.4428783  49.7420242
  67.8838269   6.3207924  50.2992625  67.1571433   6.1863889  49.6909117
  67.4685556   6.6284753  51.1049343  55.7068446  10.0397854  58.0639998
  56.6271455  10.2176453  58.2580045  55.6718029   9.0953899  57.9119698
  54.0072670   3.9130084  36.5394227  53.1004126   3.6163197  36.6156940
  54.2848651   3.6159902  35.6728513  44.9250611   5.2336447  46.9893273
  44.6053395   4.3801756  46.6967647  44.3784039   5.4485026  47.7451240
  48.7030518   7.9498888  50.7062780  48.9216528   8.8815996  50.7250813
  49.1156292   7.5906863  51.4917583  55.6234736  -1.5433026  42.6938468
  54.8135464  -1.8885941  43.0693714  56.3119153  -1.8525483  43.2826079
  57.5525284  -2.4654980  44.3162765  58.1056323  -2.0459526  44.9752788
  57.7895371  -3.3919231  44.3585721  53.5758384   3.5232094  60.0965528
  53.4755110   4.4726451  60.0277620  53.3579926   3.1950333  59.2241599
  52.7771455   0.7717019  36.6806206  53.6390619   1.0971917  36.9402023
  52.9621799  -0.0151485  36.1679272  44.7938871   8.8539359  48.9586395
  44.1002342   8.4393312  48.4456349  45.5411862   8.8959895  48.3619814
  60.9304091  -0.3554454  43.8241429  60.3502760   0.3030350  43.4419481
  60.6640024  -1.1777110  43.4128846  59.3807658  -0.9549397  46.0262749
  59.8807436  -0.8432862  45.2177068  60.0243266  -1.2588344  46.6663558
  53.4389654   6.9529233  58.9130590  52.9556735   7.7529593  59.1194479
  53.5250593   6.9637178  57.9598034  46.7075613   8.7857613  46.8352409
  46.6846301   8.8845300  45.8834293  47.0176250   9.6322763  47.1569576
  49.3662991  10.8433768  50.9499024  50.3206245  10.8117710  50.8828955
  49.1675515  10.3824391  51.7649250  49.9562373   9.4134884  53.5169822
  50.7755262   9.9078962  53.5404659  50.2299181   8.4966852  53.4887389
  59.7128969   1.8045636  42.8797777  58.8254824   2.0895287  42.6617972
  60.1282958   1.6439399  42.0325054  63.0643506   1.8292157  46.5952116
  63.8403896   2.3188609  46.8676733  62.3391640   2.2550211  47.0523986
  65.5016064   2.5419776  47.6526057  66.0960555   2.3015512  46.9419365
  65.5742648   1.8226907  48.2799593  47.7213220  16.3853387  47.9669222
  47.5867688  15.6253788  47.4007220  47.3045282  17.1094287  47.4998011
  58.8572183  11.5690311  36.9745797  59.5608033  11.7740313  37.5903453
  58.1334832  12.1367073  37.2394881  59.6869993   7.3200172  43.0948067
  59.6305195   7.7768723  42.2555700  60.2398336   6.5590857  42.9170910
  63.4974799   3.1089904  43.9198187  63.2411733   2.7086539  44.7506394
  62.8727667   3.8233698  43.7948326  67.8087137   5.8485977  46.4269478
  67.2486695   5.9179166  47.2001040  67.2030640   5.6726962  45.7068974
  50.8782346  17.2822704  48.1787664  50.7614730  18.2268137  48.0766355
  50.0574792  16.9796266  48.5673464  60.7658880  12.0072840  39.0244257
  61.6004484  11.5754038  38.8421732  60.6043223  11.8354854  39.9521152
  60.4204772   8.5104953  40.3900596  60.3653576   8.3449225  39.4489041
  59.7950828   9.2180986  40.5462786  45.2097287   3.7473018  54.2162019
  45.8556151   3.2371972  54.7049244  45.0014439   4.4841699  54.7905444
  57.7350680  10.8153865  59.7154159  58.6041839  10.9894517  59.3540794
  57.2557431  11.6348282  59.5929889  53.7300898  -1.9886938  39.9685915
  53.7179568  -1.0445098  40.1254186  54.6224320  -2.1716792  39.6745376
  51.9036860  17.9350966  51.3943593  52.8064107  17.9674576  51.7110088
  51.6774230  17.0051417  51.4089929  53.6590462  16.6881953  48.0553671
  52.7086093  16.6883814  47.9418044  53.9622948  15.9414687  47.5389706
  49.5494778   0.8940635  58.3137033  50.4126240   0.5377440  58.5240357
  48.9760189   0.5554529  59.0012437  69.3943155  22.5242491  49.1199434
  70.0321565  22.4049238  48.4162774  69.2763998  23.4723335  49.1787386
  66.2032862  22.4769919  49.0560959  65.8651373  22.3610984  48.1681493
  67.0722630  22.0761084  49.0361965  62.0619677  24.3305396  45.0457850
  61.4984542  24.2395332  44.2774137  61.9472072  23.5105300  45.5260342
  66.6852645  23.6304771  55.0147164  66.6741285  23.2357569  54.1427668
  66.8473284  22.8970843  55.6080936  59.6084109  25.8256587  47.8842070
  60.4005401  25.4847412  47.4688369  59.8480759  25.9351562  48.8044223
  67.6419236  27.9976363  40.3572314  66.9907216  28.5830444  39.9706328
  68.4363599  28.5282558  40.4167352  61.5674863  25.0865500  40.7559449
  62.3405739  24.5394487  40.6172325  61.9200262  25.9509750  40.9673910
  63.4059906  26.4141883  53.9626348  63.1149772  27.3187513  53.8473014
  64.0416890  26.4558410  54.6770418  64.3316113  23.7918731  50.5527708
  64.9279685  23.5674754  49.8384671  64.3891084  23.0503477  51.1553156
  63.9041141  21.2458166  38.3877899  64.1566662  20.7239688  37.6261362
  62.9665700  21.0824312  38.4904582  68.9484424  20.2493945  46.1952642
  69.7347513  19.8313368  45.8443059  69.2123128  21.1540037  46.3634290
  69.1194501  25.6866795  40.8941299  68.4840334  25.7601422  41.6062203
  68.7891908  26.2760394  40.2160378  74.3492851  20.1869178  47.0985620
  75.0818023  19.6168395  47.3323450  73.5932207  19.7990778  47.5392126
  63.6237430  23.1486272  40.5902274  63.5073688  22.4731176  41.2583358
  63.7339690  22.6618646  39.7734427  65.9668971  22.6096420  44.2948963
  65.6027178  22.0827041  45.0061884  66.8236087  22.2194889  44.1215448
  71.8718271  13.8990752  51.5580229  71.5401596  14.7686163  51.3341444
  71.2763885  13.5827036  52.2374259  65.6074458  17.6386319  39.2910311
  65.7748860  18.5066556  39.6580782  65.4171627  17.8013601  38.3671601
  68.3649791  26.1003298  50.9576142  68.0650514  27.0028337  50.8491949
  68.0200850  25.8335481  51.8097295  61.8162272  22.5517095  46.9912846
  60.8912769  22.4193309  47.1990538  62.0646686  23.3311314  47.4882789
  71.7646935  18.6185838  48.6373579  70.8563812  18.5501247  48.3432340
  71.7134530  19.0957783  49.4655405  65.5863679  20.0943977  40.2756978
  65.4663304  20.5401028  41.1142458  64.8916267  20.4429294  39.7170516
  59.1771083  22.1950369  47.8256635  59.3063465  22.4484847  48.7396047
  58.4968535  22.7878077  47.5061290  63.3470571  32.8647618  43.9247109
  63.2694600  33.8155444  44.0035590  62.7432214  32.5193491  44.5822036
  65.8387800  20.0375484  56.5808476  65.0621135  20.5969404  56.5711341
  66.4778363  20.5232267  57.1023346  73.6308581  16.8202277  50.4151453
  72.9882961  17.1134810  49.7691248  73.1263510  16.7055197  51.2204650
  71.2848745  20.5665450  41.1037312  72.1966601  20.7992837  40.9285010
  70.7758392  21.1502494  40.5412391  64.0934173  22.8460937  56.1426443
  64.8348857  23.3845981  55.8661267  63.3871158  23.4727226  56.2997995
  69.5689512  24.9890078  54.7398605  69.9772868  24.5472488  53.9953237
  68.8466774  24.4142705  54.9932798  65.9220582  19.9262685  52.1132162
  66.7681778  20.3502098  52.2566811  65.8619220  19.2696309  52.8070725
  69.8918327  25.5491268  48.4950894  69.2627189  25.7136983  47.7926962
  69.5043989  25.9632878  49.2661858  69.0720028  17.5867053  53.7713335
  68.8280960  18.3409113  53.2347611  69.3479958  17.9652400  54.6060582
  71.0258491  24.1305665  52.4490601  71.2375386  24.7737425  51.7724982
  70.9788239  23.2967982  51.9812531  68.6284719  16.7423486  49.3527173
  67.7669199  17.0404739  49.6443911  68.6547154  16.9593885  48.4208206
  65.4446289  25.2865676  45.7600979  65.9084634  25.5653379  44.9705601
  65.1803087  24.3849121  45.5774070  62.3370370  24.8337158  48.6980742
  62.9071727  25.2624426  48.0598227  62.9278482  24.5519743  49.3964928
  64.3815175  21.4088829  42.5690544  65.0839218  21.8609872  43.0364470
  64.0495803  20.7672648  43.1970437  62.8295536  20.0000585  56.9441753
  62.1994197  20.6816866  57.1777150  62.7231624  19.8883667  55.9994892
  58.1240509  19.6672381  47.8707678  57.3339563  19.9229910  47.3947788
  58.6151756  20.4820719  47.9759718  72.1404318  27.0077621  50.6212958
  72.9621762  26.6057808  50.3395640  72.1366721  26.9045855  51.5729074
  60.0755254  20.0316961  44.8291154  59.2786418  20.1435655  45.3474650
  59.8480847  20.3703613  43.9632045  65.9060922  26.5561664  52.7773669
  65.9705354  27.0182071  53.6131841  65.1971846  25.9259029  52.9055979
  56.4078212  19.9202872  50.3022668  56.6586250  20.8049882  50.5680244
  56.9437760  19.7407473  49.5297760  65.6208940  28.2229771  42.6452649
  65.4854614  29.0681307  43.0737497  66.1618752  28.4249049  41.8818583
  62.1076279  14.3021351  59.3067004  61.7143225  13.7487550  59.9814649
  62.9242420  14.6131930  59.6973522  59.0738337  25.7405209  43.2180574
  59.5862858  26.5348460  43.3686139  59.7261050  25.0431500  43.1514176
  60.8833222  28.8570966  45.3003327  61.0599850  29.7788930  45.1124311
  61.6790055  28.5429385  45.7297707  65.0244240  15.7179230  56.8987261
  65.7653954  16.3186384  56.8191723  65.2562163  14.9756868  56.3405304
  60.1685578  20.9035598  55.1765491  60.0539093  20.0020855  55.4772590
  59.3130096  21.1499294  54.8250307  67.2477416  28.8453338  56.7752991
  66.8041270  28.0589717  56.4573896  67.9094630  29.0332488  56.1096882
  62.0064537  30.3749140  51.3013670  62.5571962  30.2466203  50.5290664
  61.1676013  30.6744029  50.9508563  69.3458654  29.1256138  54.8034393
  69.3277129  29.9465019  54.3114662  70.2678574  29.0010213  55.0284534
  65.8031708  26.6400267  55.6457901  66.3360045  25.8788556  55.4157209
  65.2745789  26.3473919  56.3882055  68.9701403  11.7460333  51.1751543
  68.6265673  12.6361975  51.0990653  69.3380366  11.5561991  50.3121128
  57.0387254  24.0693864  43.9940145  57.8762476  24.4790872  43.7773853
  57.2165521  23.1293306  43.9640339  68.9351686  21.7368944  39.6823978
  68.4198309  22.5073549  39.9212365  68.6628994  21.0634081  40.3057039
  66.5198797  16.5818645  44.7409216  65.6640393  16.1925496  44.5614855
  66.9325749  16.6610606  43.8809002  68.0497944  14.1164988  49.1400776
  67.5462739  14.0795124  48.3268581  68.3428550  15.0257731  49.1997433
  64.2940829  14.2003718  48.1466958  65.1593826  14.0046527  47.7872847
  64.3618338  13.9714070  49.0736314  68.7237989  19.6096037  41.5083759
  68.4188125  19.9242186  42.3593902  69.6768431  19.6877456  41.5511092
  67.1684421  25.7686260  43.1576713  66.6405782  25.0339019  42.8449950
  66.6671924  26.5460936  42.9116681  61.9003149  16.4305926  45.5183324
  62.4746900  16.2081108  44.7856517  62.4874131  16.4994621  46.2711926
  70.9582726  22.3179653  46.3247701  71.4714607  22.9509645  46.8269411
  71.6083950  21.7180849  45.9591061  62.2272736  18.4610387  39.5379210
  61.3910048  18.7985074  39.8588484  62.0877505  18.3259367  38.6006347
  64.2025816  13.3047175  44.2458394  63.5490229  12.9896192  43.6215009
  64.1606290  12.6822916  44.9718217  65.3137021  23.5866470  36.1611686
  64.4064083  23.3555724  36.3602835  65.8108053  22.7904089  36.3485667
  67.4363557  19.7929109  48.5706041  66.5186118  20.0144056  48.4127730
  67.8523700  19.8675419  47.7117749  68.2198604  21.1920524  43.7008722
  68.9670423  21.7041921  43.3915844  68.4890194  20.8704577  44.5613115
  66.4925255  23.6879065  40.6835676  65.5836474  23.4038098  40.7808146
  66.5220338  24.1078144  39.8238983  70.6677441  18.2277641  45.6827511
  69.9300198  17.7155027  46.0137754  70.9204215  17.7878022  44.8710788
  70.7689069  11.0053893  46.2769280  71.0747946  10.1451256  45.9895195
  71.4941674  11.5971513  46.0768274  57.0613425  21.4084579  44.6650878
  56.8637825  20.8153940  43.9401945  56.5060089  21.1036789  45.3826817
  65.0410149  21.3007686  46.7845471  65.0958758  20.3481522  46.7087948
  64.2301351  21.4567125  47.2686770  66.1901342  25.2287809  38.0223755
  65.7520772  24.5123668  37.5629392  66.9311783  25.4563923  37.4608846
  62.9802508  19.9184745  44.5435850  62.1670374  20.2178916  44.9501042
  63.4761503  19.5240434  45.2610333  65.1311086  29.9142502  46.4770115
  65.0887265  30.1403349  45.5478647  66.0473785  29.6805877  46.6255916
  68.5776720  20.3826570  53.3750744  68.9326108  20.6098043  54.2345210
  69.2248851  20.7144947  52.7527999  62.4716583  17.4903101  50.1597085
  63.1115963  17.3491860  49.4620049  61.6394114  17.2037614  49.7835687
  63.2476887  26.7905531  46.2732078  64.0417486  26.2955851  46.0714653
  62.5368580  26.2623394  45.9099783  68.0671732  29.1723627  50.6244445
  68.1208754  29.7414563  51.3922161  67.1986513  29.3425512  50.2598482
  59.5559651  20.9348613  42.3491830  58.6257239  20.8733069  42.5661792
  59.6517123  20.4124566  41.5528472  59.4745200  17.4603426  44.9370072
  59.7352017  18.3748759  44.8279232  60.2962372  16.9927868  45.0866685
  60.9470125  18.8741183  52.1068897  61.6193178  18.6658545  51.4581545
  60.1199912  18.6763269  51.6674129  75.1959386  25.6145233  51.6244230
  75.3895276  26.5191044  51.8703505  75.0960004  25.1552652  52.4582815
  66.8495697  15.5003124  54.1234557  66.2023612  16.1993074  54.0299034
  67.6196712  15.9339268  54.4910806  70.2574495  25.7651976  57.1985111
  70.1060001  25.5362528  56.2815194  70.2479174  26.7222578  57.2116456
  67.0259831  23.3383889  52.1831377  67.9551891  23.4895048  52.0100344
  66.6050861  23.4267910  51.3280024  65.8248163  27.3634553  49.9529915
  65.6859249  26.9953338  50.8255853  65.0362759  27.8782193  49.7813873
  67.3753378  26.7416156  47.3418753  67.0403211  26.7016926  48.2376402
  66.8757324  26.0760872  46.8689163  61.3497622  22.1483786  52.8671334
  61.2117420  21.4164025  53.4682873  62.2602546  22.0592686  52.5855521
  70.3112570  24.0872190  37.6155812  69.6941741  23.3619018  37.5188865
  69.8429058  24.8481551  37.2722886  63.9779923  21.8603745  52.3555013
  64.6879541  21.2196938  52.3141632  63.9349231  22.1116640  53.2781194
  71.9666702  28.7971099  55.2761593  71.9079248  28.1130319  54.6092176
  72.3686220  29.5390089  54.8242219  62.6908857  18.8468963  54.1750653
  62.1546214  18.3959702  54.8272249  62.1025565  18.9814872  53.4321117
  60.9857400  35.6133012  48.0695311  61.2253999  36.2451537  48.7474330
  60.1426597  35.2621053  48.3560671  62.1011116  18.3057615  36.7377116
  61.2240582  18.1846415  36.3739363  62.5768869  17.5143693  36.4856005
  71.9684109  26.7610683  53.5075572  71.0810888  26.4236604  53.6301971
  72.5382660  26.0293714  53.7444338  53.6213256  23.0934774  46.8318624
  54.3084296  22.7796504  46.2439639  53.4661385  23.9976139  46.5585875
  58.4247978  17.9824971  51.2603647  58.3406167  17.3750640  50.5254057
  57.6030685  18.4733989  51.2613144  65.4985262  31.4212135  50.4736815
  65.4255434  32.2267106  50.9856120  65.0562655  31.6204101  49.6484837
  68.5971692  16.4678534  46.6273842  69.0940392  15.7148497  46.3074913
  67.8258673  16.5042851  46.0617052  76.4501449  22.1718900  48.2692134
  76.4391326  23.0543615  47.8986067  75.5818829  21.8190451  48.0746671
  67.9583946  31.3198969  52.6294974  68.6711918  31.9546434  52.5570876
  67.4673974  31.4162835  51.8134976  65.1806661  18.6095917  46.3545527
  64.8104448  18.0566958  47.0426433  65.6765753  18.0054051  45.8020527
  73.0674024  21.0667541  44.7362300  73.5334476  21.8995533  44.6622603
  73.5181525  20.6012523  45.4407558  63.0095859  29.0693412  53.4500545
  63.7105319  29.7029895  53.6029939  62.5390974  29.4108144  52.6896184
  71.0390687  13.4348128  48.7753201  70.1253767  13.6652355  48.9435408
  71.4683788  13.5186572  49.6267234  70.8097145  21.6238020  51.2753095
  70.1568596  21.8713927  50.6205548  71.1877525  20.8102158  50.9415573
  66.8584718  22.3657831  57.7619132  66.1825355  22.2651960  58.4321508
  67.6812352  22.2097045  58.2255130  58.6063577  28.6029767  50.3831648
  59.1917014  27.8573455  50.5159552  58.4088416  28.9133724  51.2668312
  61.4602233  31.6381015  45.3994090  60.7912608  32.1227143  44.9158130
  61.3215102  31.8850235  46.3137469  53.1981232  21.1735368  49.1036091
  53.2365332  20.6398958  49.8973209  52.6921525  20.6470573  48.4847068
  65.6007501  33.6724758  51.9976748  66.1525809  33.8356380  52.7625834
  65.9413695  34.2629196  51.3256773  60.5771994  16.0199908  52.5998633
  60.6413321  16.8814739  52.1876031  60.5139115  15.4073910  51.8670992
  60.0524267  18.0923041  56.2471667  60.6796306  17.7100118  56.8609192
  59.1952186  17.8737243  56.6127360  70.4518375  28.4986016  57.8525403
  70.9958279  29.1115974  57.3580358  69.8705220  29.0565594  58.3692416
  56.8289810  19.8999470  42.1790022  57.1243251  18.9910148  42.1257076
  55.9277845  19.8787209  41.8571024  68.7375888  31.6206734  48.9840431
  68.6127028  30.8196474  48.4751376  69.3954980  32.1152927  48.4954400
  60.3584057  17.9755466  48.1617571  59.6370642  18.5891434  48.0225044
  61.1477312  18.5113231  48.0834217  70.8010797  29.4215754  50.6119981
  69.8541132  29.3021105  50.5398307  71.1493570  28.5338252  50.6946242
  63.1610370  15.3109893  54.4358223  63.6844772  15.5572189  55.1984532
  62.9422703  16.1429928  54.0161360  58.5577651  17.5813568  42.3029347
  58.2290357  16.7010946  42.1204453  58.9117022  17.5261236  43.1905737
  61.6719474  17.8686537  42.6704825  62.0115547  18.3972459  41.9483433
  62.1191595  18.2066943  43.4463392  64.3662915  16.2523588  52.1207893
  64.0259736  15.4531401  52.5228573  63.6601922  16.5525299  51.5484726
  65.0179387  13.3372900  50.5735216  65.8405456  12.8633379  50.4514106
  65.2617451  14.1163384  51.0733902  63.6587622  16.3661159  40.8698118
  64.3795984  16.7442412  40.3661835  63.0352926  17.0850036  40.9733096
  67.8018744  17.0706308  41.8056450  68.0182359  17.9530946  41.5045278
  67.3212812  16.6792521  41.0762092  62.5417966  20.0292021  48.3827195
  62.3962547  20.3432324  49.2751476  62.0643169  20.6476921  47.8298093
  64.4014349  17.0194569  48.4308084  64.3875917  16.1235662  48.0940382
  65.1186777  17.0265233  49.0646370  66.2540479  17.4531909  50.4761212
  65.9958257  18.3748980  50.4745542  65.7225520  17.0562344  51.1661676
  57.0163628  22.5697365  51.3214856  56.4717096  23.3457173  51.4535130
  57.8942978  22.9168170  51.1633977  63.8051245  15.9008949  43.6995654
  63.9267156  14.9725596  43.8986542  63.5153287  15.9147635  42.7873970
  66.6742435  13.5863860  46.8362374  66.6964132  13.6503193  45.8814354
  67.0910494  12.7468368  47.0302880  57.8029650  21.6967262  54.2145013
  57.0611386  21.8449897  54.8009643  57.4822394  21.9575527  53.3511762
  65.7473312  31.2383240  54.0125403  66.0560439  30.9932387  54.8848102
  66.5448795  31.4429878  53.5244273  65.7693925  33.3921150  46.2430779
  65.3298915  32.8997528  46.9363636  66.5202041  32.8494117  46.0022855
  58.2486264  29.5832690  46.2455407  59.0744283  29.2836462  45.8654051
  57.8980316  28.8140313  46.6945196  63.2167797  28.9359159  48.3153081
  62.5947806  28.2729864  48.0155309  63.8872664  28.9620291  47.6326729
  56.4494869  27.5019017  47.2044341  55.6126777  27.0741191  47.0228342
  56.4218514  27.6951460  48.1415132  63.2892324  17.4140947  57.9085587
  63.3380480  18.2903070  57.5263357  63.8314838  16.8718340  57.3357230
  73.7747170  27.9582070  57.1886724  72.9842714  27.9406209  56.6491223
  73.5380524  28.4970364  57.9435761  73.8945045  24.8074536  54.5019453
  73.9443050  24.6424544  55.4434975  73.7858968  23.9401795  54.1117333
  62.7781304  27.4863082  41.7911541  62.9269424  28.1698546  41.1378214
  63.5847747  27.4668172  42.3060997  71.1848807  20.7905464  55.8178759
  72.0858670  20.6511929  55.5262757  71.2596782  20.9559919  56.7576937
  65.5191613  18.1672319  54.6631946  64.6494922  18.4605885  54.3914534
  65.7551093  18.7512764  55.3839209  75.3963242  27.2271478  54.7461474
  75.1048050  27.5901458  55.5824935  74.7835373  26.5138486  54.5674806
  73.6450430  22.3504092  53.2141532  74.1204552  22.5431739  52.4060383
  72.7215995  22.4063278  52.9684916  60.5333937  23.5128260  42.7972610
  60.2879979  22.6090590  42.9952821  60.7029851  23.5145410  41.8552088
  68.2230646  14.3851936  52.1797366  68.7412590  15.1212963  51.8543855
  67.8685779  14.6915929  53.0144125  59.8029584  19.2456617  40.2958772
  59.1098829  19.3200972  39.6398808  59.5581336  18.4816961  40.8180289
  68.4743241  10.8052219  47.6998263  68.7544994  10.1375408  48.3258689
  69.2593848  10.9981314  47.1872926  66.2776709  29.9811212  39.2623289
  65.7050676  30.6001400  38.8093761  66.8509503  30.5310574  39.7963211
  72.3452099  19.2269853  51.4469838  73.2969522  19.3267950  51.4682062
  72.1755549  18.4348121  51.9567922  70.3666478  16.3125436  51.6329239
  69.7716411  16.5930449  50.9375727  70.0816175  16.8019337  52.4045980
  74.8240177  22.4475972  50.5612137  74.7916497  21.5091973  50.7471821
  75.4340800  22.5260009  49.8277962  66.6623508  21.3172025  36.6039341
  67.6082612  21.1878233  36.6727759  66.2837753  20.5786687  37.0808770
  74.9734665  19.2387016  50.6070421  74.4573714  18.4545472  50.4200349
  75.8574614  18.9105732  50.7716940  72.6345392  12.9828031  46.5666233
  72.4370213  12.6743119  47.4509565  73.2445098  13.7089670  46.6964163
  78.7232024  21.6499842  50.2992625  77.9965187  21.5155807  49.6909117
  78.3079311  21.9576670  51.1049343  66.5462200  25.3689771  58.0639998
  67.4665210  25.5468370  58.2580045  66.5111783  24.4245817  57.9119698
  64.8466425  19.2422002  36.5394227  63.9397880  18.9455114  36.6156940
  65.1242406  18.9451820  35.6728513  55.7644365  20.5628365  46.9893273
  55.4447150  19.7093673  46.6967647  55.2177793  20.7776943  47.7451240
  59.5424273  23.2790806  50.7062780  59.7610282  24.2107914  50.7250813
  59.9550047  22.9198780  51.4917583  66.4628491  13.7858891  42.6938468
  65.6529219  13.4405976  43.0693714  67.1512907  13.4766435  43.2826079
  68.3919039  12.8636938  44.3162765  68.9450077  13.2832392  44.9752788
  68.6289125  11.9372686  44.3585721  64.4152138  18.8524012  60.0965528
  64.3148865  19.8018369  60.0277620  64.1973680  18.5242251  59.2241599
  63.6165209  16.1008937  36.6806206  64.4784373  16.4263835  36.9402023
  63.8015554  15.3140433  36.1679272  55.6332625  24.1831277  48.9586395
  54.9396097  23.7685229  48.4456349  56.3805616  24.2251813  48.3619814
  71.7697846  14.9737463  43.8241429  71.1896515  15.6322267  43.4419481
  71.5033779  14.1514808  43.4128846  70.2201412  14.3742521  46.0262749
  70.7201191  14.4859056  45.2177068  70.8637020  14.0703574  46.6663558
  64.2783408  22.2821151  58.9130590  63.7950490  23.0821511  59.1194479
  64.3644347  22.2929096  57.9598034  57.5469368  24.1149530  46.8352409
  57.5240056  24.2137218  45.8834293  57.8570004  24.9614681  47.1569576
  60.2056746  26.1725685  50.9499024  61.1599999  26.1409628  50.8828955
  60.0069269  25.7116309  51.7649250  60.7956128  24.7426801  53.5169822
  61.6149017  25.2370880  53.5404659  61.0692935  23.8258770  53.4887389
  70.5522724  17.1337554  42.8797777  69.6648579  17.4187204  42.6617972
  70.9676713  16.9731317  42.0325054  73.9037260  17.1584075  46.5952116
  74.6797650  17.6480527  46.8676733  73.1785394  17.5842129  47.0523986
  76.3409819  17.8711694  47.6526057  76.9354309  17.6307430  46.9419365
  76.4136402  17.1518824  48.2799593  58.5606974  31.7145305  47.9669222
  58.4261442  30.9545706  47.4007220  58.1439037  32.4386205  47.4998011
  69.6965937  26.8982228  36.9745797  70.4001787  27.1032231  37.5903453
  68.9728586  27.4658990  37.2394881  70.5263748  22.6492090  43.0948067
  70.4698949  23.1060641  42.2555700  71.0792090  21.8882774  42.9170910
  74.3368554  18.4381821  43.9198187  74.0805488  18.0378457  44.7506394
  73.7121422  19.1525615  43.7948326  78.6480891  21.1777895  46.4269478
  78.0880449  21.2471084  47.2001040  78.0424395  21.0018879  45.7068974
  61.7176100  32.6114622  48.1787664  61.6008484  33.5560054  48.0766355
  60.8968547  32.3088183  48.5673464  71.2598527  23.8396871  40.3900596
  71.2047331  23.6741142  39.4489041  70.6344582  24.5472904  40.5462786
  56.0491042  19.0764935  54.2162019  56.6949906  18.5663889  54.7049244
  55.8408193  19.8133617  54.7905444  68.5744434  26.1445783  59.7154159
  69.4435594  26.3186435  59.3540794  68.0951186  26.9640200  59.5929889
  64.5694652  13.3404980  39.9685915  64.5573322  14.2846820  40.1254186
  65.4618074  13.1575125  39.6745376  62.7430614  33.2642884  51.3943593
  63.6457861  33.2966494  51.7110088  62.5167984  32.3343335  51.4089929
  64.4984216  32.0173870  48.0553671  63.5479847  32.0175732  47.9418044
  64.8016703  31.2706605  47.5389706  68.3846772   9.9347757  44.2231852
  67.6179168   9.3806243  44.3688534  68.7957477  10.0069625  45.0846003
  60.3888533  16.2232552  58.3137033  61.2519994  15.8669357  58.5240357
  59.8153944  15.8846447  59.0012437  73.6689291  35.3292503  56.9441753
  73.0387952  36.0108784  57.1777150  73.5625379  35.2175585  55.9994892
  68.9634263  34.9964299  47.8707678  68.1733317  35.2521828  47.3947788
  69.4545511  35.8112637  47.9759718  67.2471966  35.2494790  50.3022668
  67.4980005  36.1341800  50.5680244  67.7831515  35.0699391  49.5297760
  72.9470034  29.6313269  59.3067004  72.5536979  29.0779468  59.9814649
  73.7636174  29.9423847  59.6973522  75.8637995  31.0471148  56.8987261
  76.6047708  31.6478301  56.8191723  76.0955918  30.3048786  56.3405304
  71.0079333  36.2327515  55.1765491  70.8932848  35.3312773  55.4772590
  70.1523850  36.4791212  54.8250307  78.0871170  44.1745256  56.7752991
  77.6435025  43.3881634  56.4573896  78.7488384  44.3624406  56.1096882
  76.6425463  41.9692185  55.6457901  77.1753799  41.2080473  55.4157209
  76.1139544  41.6765837  56.3882055  71.7863879  34.2033101  52.1068897
  72.4586933  33.9950463  51.4581545  70.9593666  34.0055187  51.6674129
  72.1891377  37.4775704  52.8671334  72.0511175  36.7455942  53.4682873
  73.0996300  37.3884604  52.5855521  73.5302611  34.1760881  54.1750653
  72.9939968  33.7251619  54.8272249  72.9419320  34.3106790  53.4321117
  69.2641733  33.3116889  51.2603647  69.1799921  32.7042558  50.5254057
  68.4424439  33.8025907  51.2613144  64.0374987  36.5027285  49.1036091
  64.0759086  35.9690876  49.8973209  63.5315279  35.9762491  48.4847068
  71.4165749  31.3491826  52.5998633  71.4807075  32.2106657  52.1876031
  71.3532869  30.7365828  51.8670992  70.8918021  33.4214958  56.2471667
  71.5190060  33.0392036  56.8609192  70.0345940  33.2029160  56.6127360
  71.1977811  33.3047384  48.1617571  70.4764397  33.9183352  48.0225044
  71.9871067  33.8405149  48.0834217  74.0004125  30.6401811  54.4358223
  74.5238527  30.8864107  55.1984532  73.7816458  31.4721845  54.0161360
  75.2056670  31.5815506  52.1207893  74.8653490  30.7823319  52.5228573
  74.4995676  31.8817217  51.5484726  75.8573142  28.6664818  50.5735216
  76.6799211  28.1925296  50.4514106  76.1011205  29.4455302  51.0733902
  67.8557382  37.8989283  51.3214856  67.3110851  38.6749091  51.4535130
  68.7336732  38.2460088  51.1633977  68.6423404  37.0259179  54.2145013
  67.9005140  37.1741815  54.8009643  68.3216149  37.2867445  53.3511762
  74.1286079  32.7432864  57.9085587  74.1774234  33.6194987  57.5263357
  74.6708593  32.2010257  57.3357230  75.2545893  34.1815929  60.0965528
  75.1542619  35.1310286  60.0277620  75.0367435  33.8534168  59.2241599
  75.1177163  37.6113068  58.9130590  74.6344244  38.4113428  59.1194479
  75.2038102  37.6221013  57.9598034  71.6349882  40.0718719  53.5169822
  72.4542771  40.5662798  53.5404659  71.9086690  39.1550687  53.4887389
  66.8884796  34.4056853  54.2162019  67.5343660  33.8955807  54.7049244
  66.6801948  35.1425535  54.7905444  79.4138189  41.4737700  59.7154159
  80.2829348  41.6478353  59.3540794  78.9344940  42.2932117  59.5929889
  71.2282287  31.5524470  58.3137033  72.0913749  31.1961275  58.5240357
  70.6547698  31.2138365  59.0012437  91.0730664  53.1826326  49.1199434
  91.7109074  53.0633074  48.4162774  90.9551507  54.1307170  49.1787386
  87.8820371  53.1353754  49.0560959  87.5438882  53.0194819  48.1681493
  88.7510139  52.7344920  49.0361965  83.7407186  54.9889231  45.0457850
  83.1772051  54.8979168  44.2774137  83.6259581  54.1689135  45.5260342
  88.3640154  54.2888606  55.0147164  88.3528794  53.8941404  54.1427668
  88.5260793  53.5554679  55.6080936  81.2871618  56.4840422  47.8842070
  82.0792910  56.1431247  47.4688369  81.5268268  56.5935398  48.8044223
  89.3206745  58.6560199  40.3572314  88.6694725  59.2414279  39.9706328
  90.1151108  59.1866393  40.4167352  85.0847415  57.0725718  53.9626348
  84.7937281  57.9771349  53.8473014  85.7204399  57.1142246  54.6770418
  86.0103622  54.4502567  50.5527708  86.6067194  54.2258589  49.8384671
  86.0678593  53.7087312  51.1553156  90.6271933  50.9077780  46.1952642
  91.4135022  50.4897203  45.8443059  90.8910637  51.8123872  46.3634290
  90.7982010  56.3450631  40.8941299  90.1627843  56.4185257  41.6062203
  90.4679417  56.9344229  40.2160378  96.0280360  50.8453013  47.0985620
  96.7605532  50.2752230  47.3323450  95.2719716  50.4574614  47.5392126
  87.6456480  53.2680255  44.2948963  87.2814687  52.7410876  45.0061884
  88.5023596  52.8778724  44.1215448  93.5505780  44.5574588  51.5580229
  93.2189105  45.4269998  51.3341444  92.9551394  44.2410872  52.2374259
  90.0437300  56.7587134  50.9576142  89.7438023  57.6612172  50.8491949
  89.6988359  56.4919317  51.8097295  83.4949781  53.2100930  46.9912846
  82.5700278  53.0777144  47.1990538  83.7434195  53.9895150  47.4882789
  93.4434444  49.2769674  48.6373579  92.5351321  49.2085082  48.3432340
  93.3922039  49.7541619  49.4655405  80.8558592  52.8534204  47.8256635
  80.9850974  53.1068683  48.7396047  80.1756044  53.4461912  47.5061290
  85.0258080  63.5231454  43.9247109  84.9482109  64.4739279  44.0035590
  84.4219723  63.1777326  44.5822036  87.5175309  50.6959319  56.5808476
  86.7408643  51.2553239  56.5711341  88.1565872  51.1816102  57.1023346
  95.3096090  47.4786112  50.4151453  94.6670470  47.7718645  49.7691248
  94.8051019  47.3639032  51.2204650  92.9636254  51.2249285  41.1037312
  93.8754110  51.4576672  40.9285010  92.4545901  51.8086329  40.5412391
  85.7721682  53.5044773  56.1426443  86.5136366  54.0429817  55.8661267
  85.0658667  54.1311061  56.2997995  91.2477021  55.6473913  54.7398605
  91.6560377  55.2056324  53.9953237  90.5254283  55.0726541  54.9932798
  87.6008091  50.5846520  52.1132162  88.4469287  51.0085933  52.2566811
  87.5406729  49.9280144  52.8070725  91.5705836  56.2075104  48.4950894
  90.9414698  56.3720818  47.7926962  91.1831498  56.6216713  49.2661858
  95.4495068  57.1429542  45.8495257  94.7646106  57.5228443  45.2992291
  95.5338917  57.7524868  46.5827205  90.7507537  48.2450888  53.7713335
  90.5068469  48.9992949  53.2347611  91.0267467  48.6236236  54.6060582
  92.7046000  54.7889501  52.4490601  92.9162895  55.4321260  51.7724982
  92.6575748  53.9551817  51.9812531  90.3072228  47.4007321  49.3527173
  89.4456708  47.6988575  49.6443911  90.3334663  47.6177720  48.4208206
  87.1233798  55.9449512  45.7600979  87.5872143  56.2237215  44.9705601
  86.8590596  55.0432956  45.5774070  84.0157879  55.4920993  48.6980742
  84.5859236  55.9208262  48.0598227  84.6065991  55.2103578  49.3964928
  86.0602684  52.0672664  42.5690544  86.7626727  52.5193708  43.0364470
  85.7283312  51.4256483  43.1970437  84.5083045  50.6584421  56.9441753
  83.8781706  51.3400702  57.1777150  84.4019133  50.5467502  55.9994892
  79.8028018  50.3256217  47.8707678  79.0127072  50.5813745  47.3947788
  80.2939265  51.1404555  47.9759718  93.8191827  57.6661456  50.6212958
  94.6409271  57.2641643  50.3395640  93.8154230  57.5629690  51.5729074
  87.5848431  57.2145499  52.7773669  87.6492863  57.6765907  53.6131841
  86.8759355  56.5842864  52.9055979  78.0865721  50.5786707  50.3022668
  78.3373759  51.4633717  50.5680244  78.6225269  50.3991309  49.5297760
 101.9097821  54.0100205  46.9697930 101.1561529  53.4407603  46.8141934
 102.0445362  53.9762869  47.9168565  87.2996449  58.8813607  42.6452649
  87.1642123  59.7265143  43.0737497  87.8406261  59.0832884  41.8818583
  83.7863788  44.9605187  59.3067004  83.3930734  44.4071385  59.9814649
  84.6029929  45.2715765  59.6973522  86.7031749  46.3763066  56.8987261
  87.4441463  46.9770219  56.8191723  86.9349672  45.6340704  56.3405304
  81.8473087  51.5619433  55.1765491  81.7326602  50.6604690  55.4772590
  80.9917605  51.8083130  54.8250307  88.9264925  59.5037173  56.7752991
  88.4828779  58.7173552  56.4573896  89.5882139  59.6916324  56.1096882
  83.6852046  61.0332975  51.3013670  84.2359471  60.9050038  50.5290664
  82.8463522  61.3327864  50.9508563  91.0246163  59.7839973  54.8034393
  91.0064638  60.6048854  54.3114662  91.9466083  59.6594048  55.0284534
  87.4819217  57.2984103  55.6457901  88.0147554  56.5372391  55.4157209
  86.9533298  57.0057755  56.3882055  90.6139195  52.3952780  39.6823978
  90.0985818  53.1657384  39.9212365  90.3416503  51.7217916  40.3057039
  95.5873469  55.1485134  41.6177151  94.8102912  54.8096294  41.1732313
  96.2664950  55.1537758  40.9432116  90.4025498  50.2679872  41.5083759
  90.0975634  50.5826021  42.3593902  91.3555940  50.3461292  41.5511092
  88.8471930  56.4270095  43.1576713  88.3193291  55.6922855  42.8449950
  88.3459433  57.2044772  42.9116681  93.8264776  54.6219116  48.2743759
  93.1688450  55.3118377  48.3623888  94.6305175  55.0115548  48.6177746
  92.6370235  52.9763488  46.3247701  93.1502116  53.6093480  46.8269411
  93.2871459  52.3764684  45.9591061  89.8992609  62.9547813  39.0808372
  89.2254308  63.2579509  39.6893330  90.2858431  63.7576893  38.7313829
  89.1151066  50.4512944  48.5706041  88.1973627  50.6727891  48.4127730
  89.5311209  50.5259254  47.7117749  89.8986113  51.8504360  43.7008722
  90.6457932  52.3625757  43.3915844  90.1677703  51.5288412  44.5613115
  88.1712763  54.3462900  40.6835676  87.2623983  54.0621933  40.7808146
  88.2007847  54.7661979  39.8238983  93.4032031  57.9569490  44.4526844
  92.9494358  57.1160400  44.5092034  92.7725998  58.5930888  44.7901624
  92.3464950  48.8861476  45.6827511  91.6087707  48.3738862  46.0137754
  92.5991724  48.4461857  44.8710788  91.8464970  59.7945987  45.3876662
  92.1387945  60.3551044  44.6689027  92.3563591  60.0874548  46.1429821
  78.7400934  52.0668414  44.6650878  78.5425334  51.4737775  43.9401945
  78.1847598  51.7620625  45.3826817  86.7197658  51.9591521  46.7845471
  86.7746267  51.0065357  46.7087948  85.9088860  52.1150960  47.2686770
  87.8688851  55.8871644  38.0223755  87.4308281  55.1707503  37.5629392
  88.6099292  56.1147759  37.4608846  84.6590017  50.5768581  44.5435850
  83.8457883  50.8762751  44.9501042  85.1549012  50.1824269  45.2610333
  86.8098595  60.5726338  46.4770115  86.7674774  60.7987184  45.5478647
  87.7261294  60.3389712  46.6255916  90.2564229  51.0410405  53.3750744
  90.6113617  51.2681878  54.2345210  90.9036360  51.3728782  52.7527999
  95.9861966  54.1628841  44.0800073  95.8479865  54.3530437  43.1521262
  95.6298185  54.9248224  44.5368124  96.0131346  56.2305368  49.0911345
  96.4467852  56.1380657  49.9394399  96.7262926  56.2062869  48.4531361
  84.9264396  57.4489367  46.2732078  85.7204995  56.9539687  46.0714653
  84.2156089  56.9207230  45.9099783  89.7459241  59.8307462  50.6244445
  89.7996263  60.3998398  51.3922161  88.8774022  60.0009347  50.2598482
  82.6257634  49.5325018  52.1068897  83.2980687  49.3242380  51.4581545
  81.7987420  49.3347104  51.6674129  96.8746895  56.2729069  51.6244230
  97.0682785  57.1774879  51.8703505  96.7747513  55.8136488  52.4582815
  91.9362004  56.4235811  57.1985111  91.7847510  56.1946363  56.2815194
  91.9266683  57.3806413  57.2116456  88.7047340  53.9967724  52.1831377
  89.6339400  54.1478884  52.0100344  88.2838370  54.0851745  51.3280024
  87.5035672  58.0218389  49.9529915  87.3646758  57.6537173  50.8255853
  86.7150268  58.5366028  49.7813873  88.0983824  63.1227485  41.2955451
  88.2735580  62.6515528  42.1101074  87.4116612  63.7493251  41.5236712
  89.0540887  57.3999991  47.3418753  88.7190720  57.3600761  48.2376402
  88.5544833  56.7344707  46.8689163  83.0285131  52.8067621  52.8671334
  82.8904929  52.0747860  53.4682873  83.9390055  52.7176521  52.5855521
  91.9900079  54.7456026  37.6155812  91.3729250  54.0202854  37.5188865
  91.5216567  55.5065386  37.2722886  85.6567432  52.5187581  52.3555013
  86.3667050  51.8780773  52.3141632  85.6136740  52.7700476  53.2781194
  93.6454211  59.4554934  55.2761593  93.5866757  58.7714154  54.6092176
  94.0473729  60.1973924  54.8242219  82.6644909  66.2716848  48.0695311
  82.9041508  66.9035372  48.7474330  81.8214106  65.9204888  48.3560671
  93.6471618  57.4194518  53.5075572  92.7598397  57.0820440  53.6301971
  94.2170169  56.6877549  53.7444338  80.1035487  48.6408806  51.2603647
  80.0193676  48.0334476  50.5254057  79.2818194  49.1317825  51.2613144
  87.1772771  62.0795970  50.4736815  87.1042943  62.8850942  50.9856120
  86.7350164  62.2787936  49.6484837  86.9662551  61.3167740  43.9839637
  86.1830073  61.8589421  44.0777862  87.6655296  61.8341720  44.3833878
  98.1288958  52.8302735  48.2692134  98.1178835  53.7127451  47.8986067
  97.2606338  52.4774286  48.0746671  89.6371455  61.9782804  52.6294974
  90.3499427  62.6130269  52.5570876  89.1461483  62.0746670  51.8134976
  91.3588982  55.8834057  44.2012266  90.4245260  56.0035519  44.0316970
  91.5365650  54.9806524  43.9372276  86.8594170  49.2679753  46.3545527
  86.4891957  48.7150793  47.0426433  87.3553262  48.6637886  45.8020527
  94.7461533  51.7251376  44.7362300  95.2121985  52.5579368  44.6622603
  95.1969034  51.2596358  45.4407558  84.6883368  59.7277248  53.4500545
  85.3892828  60.3613731  53.6029939  84.2178483  60.0691979  52.6896184
  92.8137764  58.0695198  41.7348452  93.0897608  57.9551792  42.6442326
  91.9442263  57.6712682  41.6960625  92.4884654  52.2821855  51.2753095
  91.8356104  52.5297763  50.6205548  92.8665034  51.4685993  50.9415573
  89.4491828  62.3181548  45.3781266  89.6314223  61.5003204  45.8409018
  90.2724814  62.5349241  44.9406156  89.7833994  61.2449734  42.6396314
  90.3121760  60.7342188  42.0266476  90.0462213  60.9292264  43.5041847
  88.5372227  53.0241666  57.7619132  87.8612864  52.9235796  58.4321508
  89.3599861  52.8680880  58.2255130  83.1389742  62.2964850  45.3994090
  82.4700117  62.7810978  44.9158130  83.0002611  62.5434071  46.3137469
  87.2795010  64.3308594  51.9976748  87.8313318  64.4940215  52.7625834
  87.6201204  64.9213032  51.3256773  81.7311776  48.7506876  56.2471667
  82.3583815  48.3683953  56.8609192  80.8739695  48.5321078  56.6127360
  92.1305884  59.1569851  57.8525403  92.6745788  59.7699810  57.3580358
  91.5492729  59.7149430  58.3692416  90.4163397  62.2790569  48.9840431
  90.2914537  61.4780309  48.4751376  91.0742489  62.7736763  48.4954400
  82.0371566  48.6339302  48.1617571  81.3158151  49.2475269  48.0225044
  82.8264821  49.1697067  48.0834217  92.4798306  60.0799589  50.6119981
  91.5328641  59.9604941  50.5398307  92.8281079  59.1922087  50.6946242
  89.4844739  59.8752306  46.8124333  89.3369702  58.9469013  46.9931903
  90.3098233  59.8972396  46.3281408  93.0878861  60.6980864  47.8989206
  94.0125408  60.4923726  47.7613657  92.9194164  60.4497265  48.8078547
  84.2205475  50.6875856  48.3827195  84.0750056  51.0016160  49.2751476
  83.7430678  51.3060757  47.8298093  86.0801858  47.6778404  48.4308084
  86.0663426  46.7819498  48.0940382  86.7974286  47.6849068  49.0646370
  87.9327988  48.1115745  50.4761212  87.6745766  49.0332815  50.4745542
  87.4013029  47.7146179  51.1661676  92.8774177  61.2166532  43.2551297
  93.0511055  60.6512954  42.5025149  93.3703068  62.0167427  43.0730787
  98.7313568  53.9802955  44.8741597  99.1744714  53.2310280  44.4760720
  97.8540079  53.9713091  44.4915329  93.8649350  60.5333296  40.3548195
  94.5600254  61.1539989  40.5735510  94.2072500  59.6828647  40.6300573
  95.7640773  57.9833002  41.8835526  96.2892097  58.3220274  41.1584846
  95.6763125  57.0480017  41.6998661  87.4260821  61.8967075  54.0125403
  87.7347948  61.6516222  54.8848102  88.2236303  62.1013714  53.5244273
  87.4481434  64.0504985  46.2430779  87.0086424  63.5581364  46.9363636
  88.1989550  63.5077953  46.0022855  84.8955306  59.5942994  48.3153081
  84.2735315  58.9313699  48.0155309  85.5660173  59.6204126  47.6326729
  84.9679833  48.0724782  57.9085587  85.0167989  48.9486905  57.5263357
  85.5102347  47.5302175  57.3357230  95.4534679  58.6165905  57.1886724
  94.6630223  58.5990044  56.6491223  95.2168033  59.1554199  57.9435761
  95.5732554  55.4658372  54.5019453  95.6230559  55.3008379  55.4434975
  95.4646477  54.5985631  54.1117333  92.8636316  51.4489300  55.8178759
  93.7646179  51.3095765  55.5262757  92.9384291  51.6143755  56.7576937
  97.0750751  57.8855313  54.7461474  96.7835559  58.2485294  55.5824935
  96.4622882  57.1722322  54.5674806  98.2746433  55.4508193  47.2664044
  99.1093324  55.8897997  47.4301605  98.4105562  54.9746846  46.4472290
  95.3237939  53.0087928  53.2141532  95.7992061  53.2015574  52.4060383
  94.4003504  53.0647114  52.9684916  87.9564218  60.6395048  39.2623289
  87.3838185  61.2585235  38.8093761  88.5297012  61.1894410  39.7963211
  94.0239608  49.8853688  51.4469838  94.9757031  49.9851786  51.4682062
  93.8543058  49.0931956  51.9567922  92.0453987  46.9709271  51.6329239
  91.4503920  47.2514284  50.9375727  91.7603684  47.4603172  52.4045980
  91.1761478  60.9232198  40.3931871  92.1092151  60.8577760  40.5964747
  91.0884691  61.7588465  39.9346404  93.8049495  60.2398068  37.3535819
  93.7263126  59.9057932  38.2471577  94.6259161  60.7319836  37.3527291
  96.5027686  53.1059808  50.5612137  96.4704006  52.1675808  50.7471821
  97.1128309  53.1843844  49.8277962  88.3411017  51.9755861  36.6039341
  89.2870121  51.8462069  36.6727759  87.9625262  51.2370523  37.0808770
  96.6522174  49.8970851  50.6070421  96.1361223  49.1129308  50.4200349
  97.5362123  49.5689568  50.7716940 102.3204236  54.1675814  49.7018174
 103.0507624  53.9061103  50.2625877 101.7111181  53.4304536  49.7420242
 100.4019533  52.3083677  50.2992625  99.6752696  52.1739642  49.6909117
  99.9866820  52.6160506  51.1049343  88.2249709  56.0273607  58.0639998
  89.1452719  56.2052206  58.2580045  88.1899292  55.0829652  57.9119698
  81.2211782  53.9374641  50.7062780  81.4397791  54.8691749  50.7250813
  81.6337556  53.5782616  51.4917583  86.0939647  49.5107847  60.0965528
  85.9936374  50.4602204  60.0277620  85.8761189  49.1826086  59.2241599
  85.9570917  52.9404986  58.9130590  85.4737999  53.7405346  59.1194479
  86.0431856  52.9512931  57.9598034  95.5824769  47.8167910  46.5952116
  96.3585159  48.3064362  46.8676733  94.8572903  48.2425964  47.0523986
  98.0197328  48.5295529  47.6526057  98.6141818  48.2891265  46.9419365
  98.0923911  47.8102660  48.2799593  80.2394483  62.3729140  47.9669222
  80.1048951  61.6129541  47.4007220  79.8226546  63.0970040  47.4998011
  91.3753446  57.5566064  36.9745797  92.0789296  57.7616066  37.5903453
  90.6516095  58.1242826  37.2394881  92.2051257  53.3075925  43.0948067
  92.1486458  53.7644476  42.2555700  92.7579599  52.5466610  42.9170910
  96.0156063  49.0965657  43.9198187  95.7592997  48.6962293  44.7506394
  95.3908931  49.8109451  43.7948326 100.3268400  51.8361730  46.4269478
  99.7667958  51.9054919  47.2001040  99.7211904  51.6602715  45.7068974
  83.3963609  63.2698457  48.1787664  83.2795993  64.2143890  48.0766355
  82.5756055  62.9672019  48.5673464  93.2840144  57.9948593  39.0244257
  94.1185748  57.5629791  38.8421732  93.1224487  57.8230607  39.9521152
  92.9386036  54.4980706  40.3900596  92.8834840  54.3324978  39.4489041
  92.3132091  55.2056739  40.5462786  90.2531943  56.8029618  59.7154159
  91.1223103  56.9770270  59.3540794  89.7738695  57.6224035  59.5929889
  84.4218123  63.9226719  51.3943593  85.3245370  63.9550329  51.7110088
  84.1955493  62.9927170  51.4089929  86.1771725  62.6757706  48.0553671
  85.2267356  62.6759567  47.9418044  86.4804212  61.9290440  47.5389706
  82.0676042  46.8816388  58.3137033  82.9307503  46.5253193  58.5240357
  81.4941453  46.5430283  59.0012437 101.9124419  68.5118244  49.1199434
 102.5502829  68.3924991  48.4162774 101.7945262  69.4599088  49.1787386
  98.7214125  68.4645672  49.0560959  98.3832637  68.3486737  48.1681493
  99.5903893  68.0636837  49.0361965  94.5800941  70.3181149  45.0457850
  94.0165806  70.2271085  44.2774137  94.4653336  69.4981053  45.5260342
  99.2033908  69.6180524  55.0147164  99.1922549  69.2233322  54.1427668
  99.3654548  68.8846596  55.6080936  92.1265373  71.8132340  47.8842070
  92.9186665  71.4723165  47.4688369  92.3662023  71.9227315  48.8044223
 100.1600500  73.9852116  40.3572314  99.5088479  74.5706197  39.9706328
 100.9544862  74.5158311  40.4167352  94.0856127  71.0741253  40.7559449
  94.8587003  70.5270240  40.6172325  94.4381526  71.9385503  40.9673910
  95.9241169  72.4017636  53.9626348  95.6331035  73.3063267  53.8473014
  96.5598154  72.4434163  54.6770418  96.8497376  69.7794484  50.5527708
  97.4460948  69.5550507  49.8384671  96.9072348  69.0379230  51.1553156
  96.4222405  67.2333920  38.3877899  96.6747925  66.7115441  37.6261362
  95.4846964  67.0700065  38.4904582 101.4665687  66.2369698  46.1952642
 102.2528777  65.8189121  45.8443059 101.7304392  67.1415790  46.3634290
 101.6375765  71.6742548  40.8941299 101.0021598  71.7477175  41.6062203
 101.3073171  72.2636147  40.2160378 106.8674114  66.1744931  47.0985620
 107.5999286  65.6044148  47.3323450 106.1113470  65.7866532  47.5392126
  96.1418693  69.1362025  40.5902274  96.0254951  68.4606929  41.2583358
  96.2520953  68.6494399  39.7734427  98.4850234  68.5972173  44.2948963
  98.1208441  68.0702794  45.0061884  99.3417350  68.2070642  44.1215448
 104.3899535  59.8866505  51.5580229 104.0582860  60.7561916  51.3341444
 103.7945148  59.5702789  52.2374259  98.1255721  63.6262072  39.2910311
  98.2930124  64.4942309  39.6580782  97.9352890  63.7889354  38.3671601
 100.8831054  72.0879051  50.9576142 100.5831777  72.9904090  50.8491949
 100.5382114  71.8211234  51.8097295  94.3343536  68.5392848  46.9912846
  93.4094032  68.4069062  47.1990538  94.5827949  69.3187067  47.4882789
 104.2828198  64.6061591  48.6373579 103.3745075  64.5377000  48.3432340
 104.2315794  65.0833536  49.4655405  98.1044942  66.0819730  40.2756978
  97.9844567  66.5276781  41.1142458  97.4097530  66.4305047  39.7170516
  91.6952347  68.1826122  47.8256635  91.8244728  68.4360601  48.7396047
  91.0149798  68.7753830  47.5061290  95.8651834  78.8523372  43.9247109
  95.7875864  79.8031197  44.0035590  95.2613478  78.5069244  44.5822036
  98.3569064  66.0251237  56.5808476  97.5802398  66.5845157  56.5711341
  98.9959627  66.5108020  57.1023346 106.1489845  62.8078030  50.4151453
 105.5064225  63.1010563  49.7691248 105.6444773  62.6930950  51.2204650
 103.8030008  66.5541203  41.1037312 104.7147864  66.7868590  40.9285010
 103.2939655  67.1378247  40.5412391  96.6115436  68.8336690  56.1426443
  97.3530121  69.3721734  55.8661267  95.9052422  69.4602979  56.2997995
 102.0870776  70.9765831  54.7398605 102.4954132  70.5348241  53.9953237
 101.3648037  70.4018458  54.9932798  98.4401846  65.9138438  52.1132162
  99.2863041  66.3377851  52.2566811  98.3800484  65.2572062  52.8070725
 102.4099591  71.5367021  48.4950894 101.7808453  71.7012736  47.7926962
 102.0225253  71.9508631  49.2661858 106.2888822  72.4721459  45.8495257
 105.6039861  72.8520361  45.2992291 106.3732672  73.0816786  46.5827205
 101.5901291  63.5742806  53.7713335 101.3462223  64.3284866  53.2347611
 101.8661222  63.9528154  54.6060582 103.5439754  70.1181418  52.4490601
 103.7556649  70.7613178  51.7724982 103.4969502  69.2843735  51.9812531
 101.1465983  62.7299239  49.3527173 100.2850462  63.0280492  49.6443911
 101.1728418  62.9469638  48.4208206  97.9627552  71.2741429  45.7600979
  98.4265898  71.5529132  44.9705601  97.6984350  70.3724874  45.5774070
  94.8551633  70.8212911  48.6980742  95.4252991  71.2500179  48.0598227
  95.4459745  70.5395496  49.3964928  96.8996438  67.3964582  42.5690544
  97.6020482  67.8485626  43.0364470  96.5677067  66.7548401  43.1970437
  95.3476800  65.9876338  56.9441753  94.7175461  66.6692619  57.1777150
  95.2412888  65.8759420  55.9994892  90.6421772  65.6548135  47.8707678
  89.8520826  65.9105663  47.3947788  91.1333020  66.4696472  47.9759718
 104.6585582  72.9953374  50.6212958 105.4803026  72.5933561  50.3395640
 104.6547985  72.8921608  51.5729074  92.5936518  66.0192714  44.8291154
  91.7967681  66.1311408  45.3474650  92.3662110  66.3579366  43.9632045
  98.4242185  72.5437417  52.7773669  98.4886618  73.0057824  53.6131841
  97.7153109  71.9134782  52.9055979  88.9259475  65.9078625  50.3022668
  89.1767514  66.7925635  50.5680244  89.4619024  65.7283227  49.5297760
 112.7491575  69.3392122  46.9697930 111.9955283  68.7699520  46.8141934
 112.8839116  69.3054787  47.9168565  98.1390203  74.2105524  42.6452649
  98.0035878  75.0557060  43.0737497  98.6800016  74.4124802  41.8818583
  94.6257543  60.2897104  59.3067004  94.2324488  59.7363303  59.9814649
  95.4423683  60.6007683  59.6973522  91.5919600  71.7280963  43.2180574
  92.1044121  72.5224213  43.3686139  92.2442313  71.0307253  43.1514176
  93.4014485  74.8446719  45.3003327  93.5781113  75.7664683  45.1124311
  94.1971319  74.5305138  45.7297707  97.5425504  61.7054983  56.8987261
  98.2835217  62.3062137  56.8191723  97.7743427  60.9632621  56.3405304
  92.6866842  66.8911351  55.1765491  92.5720357  65.9896608  55.4772590
  91.8311359  67.1375047  54.8250307  99.7658679  74.8329091  56.7752991
  99.3222534  74.0465470  56.4573896 100.4275893  75.0208241  56.1096882
  94.5245801  76.3624893  51.3013670  95.0753226  76.2341956  50.5290664
  93.6857277  76.6619782  50.9508563 101.8639918  75.1131891  54.8034393
 101.8458393  75.9340772  54.3114662 102.7859838  74.9885966  55.0284534
  98.3212972  72.6276020  55.6457901  98.8541308  71.8664309  55.4157209
  97.7927053  72.3349672  56.3882055 101.4882667  57.7336086  51.1751543
 101.1446936  58.6237728  51.0990653 101.8561629  57.5437744  50.3121128
  89.5568517  70.0569617  43.9940145  90.3943739  70.4666625  43.7773853
  89.7346785  69.1169059  43.9640339 101.4532949  67.7244697  39.6823978
 100.9379573  68.4949302  39.9212365 101.1810258  67.0509834  40.3057039
  99.0380060  62.5694398  44.7409216  98.1821657  62.1801249  44.5614855
  99.4507012  62.6486359  43.8809002 100.5679207  60.1040742  49.1400776
 100.0644003  60.0670877  48.3268581 100.8609814  61.0133484  49.1997433
  96.8122093  60.1879471  48.1466958  97.6775090  59.9922280  47.7872847
  96.8799602  59.9589823  49.0736314 106.4267223  70.4777052  41.6177151
 105.6496666  70.1388212  41.1732313 107.1058704  70.4829675  40.9432116
 101.2419253  65.5971790  41.5083759 100.9369388  65.9117939  42.3593902
 102.1949695  65.6753209  41.5511092  99.6865684  71.7562013  43.1576713
  99.1587046  71.0214772  42.8449950  99.1853187  72.5336689  42.9116681
 104.6658530  69.9511033  48.2743759 104.0082205  70.6410295  48.3623888
 105.4698930  70.3407465  48.6177746  94.4184412  62.4181679  45.5183324
  94.9928164  62.1956861  44.7856517  95.0055394  62.4870374  46.2711926
 103.4763989  68.3055406  46.3247701 103.9895871  68.9385398  46.8269411
 104.1265213  67.7056602  45.9591061  94.7453999  64.4486140  39.5379210
  93.9091311  64.7860827  39.8588484  94.6058769  64.3135120  38.6006347
  96.7207080  59.2922928  44.2458394  96.0671492  58.9771945  43.6215009
  96.6787554  58.6698669  44.9718217  97.8318285  69.5742223  36.1611686
  96.9245346  69.3431477  36.3602835  98.3289317  68.7779842  36.3485667
 100.7386363  78.2839730  39.0808372 100.0648062  78.5871427  39.6893330
 101.1252185  79.0868811  38.7313829  99.9544820  65.7804862  48.5706041
  99.0367381  66.0019809  48.4127730 100.3704964  65.8551172  47.7117749
 100.7379868  67.1796277  43.7008722 101.4851687  67.6917675  43.3915844
 101.0071457  66.8580330  44.5613115  99.0106518  69.6754818  40.6835676
  98.1017737  69.3913851  40.7808146  99.0401602  70.0953897  39.8238983
 104.2425785  73.2861408  44.4526844 103.7888112  72.4452317  44.5092034
 103.6119752  73.9222806  44.7901624 103.1858705  64.2153394  45.6827511
 102.4481462  63.7030780  46.0137754 103.4385478  63.7753775  44.8710788
 102.6858725  75.1237904  45.3876662 102.9781699  75.6842961  44.6689027
 103.1957345  75.4166465  46.1429821 103.2870332  56.9929646  46.2769280
 103.5929209  56.1327009  45.9895195 104.0122937  57.5847266  46.0768274
  89.5794688  67.3960332  44.6650878  89.3819088  66.8029693  43.9401945
  89.0241352  67.0912542  45.3826817  97.5591412  67.2883439  46.7845471
  97.6140022  66.3357275  46.7087948  96.7482614  67.4442878  47.2686770
  98.7082606  71.2163562  38.0223755  98.2702036  70.4999421  37.5629392
  99.4493047  71.4439677  37.4608846  95.4983772  65.9060498  44.5435850
  94.6851637  66.2054669  44.9501042  95.9942766  65.5116187  45.2610333
  97.6492350  75.9018255  46.4770115  97.6068529  76.1279102  45.5478647
  98.5655049  75.6681630  46.6255916 101.0957984  66.3702323  53.3750744
 101.4507371  66.5973796  54.2345210 101.7430115  66.7020700  52.7527999
 106.8255721  69.4920759  44.0800073 106.6873619  69.6822355  43.1521262
 106.4691939  70.2540142  44.5368124  94.9897847  63.4778854  50.1597085
  95.6297226  63.3367613  49.4620049  94.1575377  63.1913367  49.7835687
 106.8525100  71.5597286  49.0911345 107.2861607  71.4672575  49.9394399
 107.5656681  71.5354786  48.4531361  95.7658151  72.7781284  46.2732078
  96.5598749  72.2831604  46.0714653  95.0549843  72.2499147  45.9099783
 100.5852995  75.1599380  50.6244445 100.6390017  75.7290316  51.3922161
  99.7167776  75.3301265  50.2598482  92.0740914  66.9224366  42.3491830
  91.1438502  66.8608822  42.5661792  92.1698386  66.4000319  41.5528472
  91.9926463  63.4479179  44.9370072  92.2533280  64.3624512  44.8279232
  92.8143635  62.9803621  45.0866685  93.4651388  64.8616936  52.1068897
  94.1374442  64.6534298  51.4581545  92.6381175  64.6639022  51.6674129
 107.7140650  71.6020986  51.6244230 107.9076540  72.5066797  51.8703505
 107.6141268  71.1428405  52.4582815  99.3676960  61.4878877  54.1234557
  98.7204876  62.1868827  54.0299034 100.1377976  61.9215021  54.4910806
 102.7755758  71.7527729  57.1985111 102.6241265  71.5238281  56.2815194
 102.7660438  72.7098331  57.2116456  99.5441095  69.3259642  52.1831377
 100.4733155  69.4770801  52.0100344  99.1232125  69.4143663  51.3280024
  98.3429427  73.3510306  49.9529915  98.2040512  72.9829091  50.8255853
  97.5544023  73.8657946  49.7813873  98.9377579  78.4519403  41.2955451
  99.1129334  77.9807446  42.1101074  98.2510367  79.0785169  41.5236712
  99.8934642  72.7291909  47.3418753  99.5584474  72.6892679  48.2376402
  99.3938587  72.0636625  46.8689163  93.8678886  68.1359539  52.8671334
  93.7298684  67.4039778  53.4682873  94.7783809  68.0468439  52.5855521
 102.8293833  70.0747943  37.6155812 102.2123004  69.3494771  37.5188865
 102.3610322  70.8357304  37.2722886  96.4961186  67.8479498  52.3555013
  97.2060805  67.2072691  52.3141632  96.4530495  68.0992393  53.2781194
 104.4847965  74.7846852  55.2761593 104.4260511  74.1006072  54.6092176
 104.8867483  75.5265842  54.8242219  95.2090120  64.8344716  54.1750653
  94.6727477  64.3835455  54.8272249  94.6206829  64.9690625  53.4321117
  93.5038664  81.6008766  48.0695311  93.7435262  82.2327290  48.7474330
  92.6607860  81.2496806  48.3560671  94.6192379  64.2933368  36.7377116
  93.7421846  64.1722168  36.3739363  95.0950132  63.5019446  36.4856005
 104.4865372  72.7486436  53.5075572 103.5992151  72.4112357  53.6301971
 105.0563923  72.0169467  53.7444338  86.1394519  69.0810527  46.8318624
  86.8265559  68.7672257  46.2439639  85.9842648  69.9851892  46.5585875
  90.9429242  63.9700724  51.2603647  90.8587430  63.3626393  50.5254057
  90.1211948  64.4609742  51.2613144  98.0166526  77.4087888  50.4736815
  97.9436697  78.2142859  50.9856120  97.5743919  77.6079854  49.6484837
  97.8056305  76.6459658  43.9839637  97.0223827  77.1881338  44.0777862
  98.5049051  77.1633638  44.3833878 101.1152955  62.4554287  46.6273842
 101.6121655  61.7024250  46.3074913 100.3439937  62.4918604  46.0617052
 108.9682713  68.1594653  48.2692134 108.9572589  69.0419368  47.8986067
 108.1000092  67.8066204  48.0746671 100.4765209  77.3074722  52.6294974
 101.1893181  77.9422187  52.5570876  99.9855238  77.4038588  51.8134976
 102.1982736  71.2125975  44.2012266 101.2639015  71.3327437  44.0316970
 102.3759405  70.3098441  43.9372276  97.6987924  64.5971670  46.3545527
  97.3285712  64.0442711  47.0426433  98.1947017  63.9929804  45.8020527
 105.5855287  67.0543294  44.7362300 106.0515740  67.8871286  44.6622603
 106.0362788  66.5888276  45.4407558  95.5277123  75.0569165  53.4500545
  96.2286582  75.6905648  53.6029939  95.0572238  75.3983897  52.6896184
 103.6531519  73.3987115  41.7348452 103.9291363  73.2843710  42.6442326
 102.7836017  73.0004600  41.6960625 103.5571950  59.4223881  48.7753201
 102.6435030  59.6528108  48.9435408 103.9865052  59.5062325  49.6267234
 103.3278409  67.6113773  51.2753095 102.6749859  67.8589680  50.6205548
 103.7058789  66.7977911  50.9415573 100.2885583  77.6473466  45.3781266
 100.4707977  76.8295122  45.8409018 101.1118569  77.8641158  44.9406156
 100.6227748  76.5741651  42.6396314 101.1515515  76.0634106  42.0266476
 100.8855968  76.2584181  43.5041847  99.3765982  68.3533584  57.7619132
  98.7006619  68.2527713  58.4321508 100.1993616  68.1972798  58.2255130
  91.1244841  74.5905521  50.3831648  91.7098278  73.8449208  50.5159552
  90.9269679  74.9009477  51.2668312  93.9783496  77.6256768  45.3994090
  93.3093871  78.1102896  44.9158130  93.8396366  77.8725988  46.3137469
  85.7162496  67.1611121  49.1036091  85.7546595  66.6274711  49.8973209
  85.2102788  66.6346326  48.4847068  98.1188765  79.6600511  51.9976748
  98.6707073  79.8232133  52.7625834  98.4594958  80.2504949  51.3256773
  93.0953258  62.0075661  52.5998633  93.1594584  62.8690492  52.1876031
  93.0320378  61.3949663  51.8670992  92.5705530  64.0798794  56.2471667
  93.1977569  63.6975871  56.8609192  91.7133449  63.8612996  56.6127360
 102.9699639  74.4861769  57.8525403 103.5139543  75.0991727  57.3580358
 102.3886484  75.0441347  58.3692416  89.3471073  65.8875223  42.1790022
  89.6424514  64.9785901  42.1257076  88.4459109  65.8662962  41.8571024
 101.2557152  77.6082487  48.9840431 101.1308291  76.8072227  48.4751376
 101.9136243  78.1028680  48.4954400  92.8765320  63.9631219  48.1617571
  92.1551906  64.5767187  48.0225044  93.6658576  64.4988984  48.0834217
 103.3192060  75.4091507  50.6119981 102.3722396  75.2896858  50.5398307
 103.6674833  74.5214005  50.6946242  95.6791634  61.2985646  54.4358223
  96.2026035  61.5447942  55.1984532  95.4603967  62.1305681  54.0161360
  91.0758915  63.5689321  42.3029347  90.7471621  62.6886699  42.1204453
  91.4298285  63.5136989  43.1905737 100.3238494  75.2044223  46.8124333
 100.1763456  74.2760931  46.9931903 101.1491987  75.2264314  46.3281408
  94.1900738  63.8562290  42.6704825  94.5296810  64.3848212  41.9483433
  94.6372858  64.1942696  43.4463392 103.9272615  76.0272782  47.8989206
 104.8519163  75.8215643  47.7613657 103.7587919  75.7789183  48.8078547
  96.8844179  62.2399341  52.1207893  96.5440999  61.4407154  52.5228573
  96.1783185  62.5401052  51.5484726  97.5360651  59.3248653  50.5735216
  98.3586720  58.8509132  50.4514106  97.7798714  60.1039137  51.0733902
  96.1768885  62.3536912  40.8698118  96.8977248  62.7318165  40.3661835
  95.5534189  63.0725789  40.9733096 100.3200008  63.0582061  41.8056450
 100.5363622  63.9406699  41.5045278  99.8394075  62.6668274  41.0762092
  95.0599229  66.0167774  48.3827195  94.9143810  66.3308077  49.2751476
  94.5824433  66.6352674  47.8298093  96.9195612  63.0070322  48.4308084
  96.9057181  62.1111415  48.0940382  97.6368040  63.0140986  49.0646370
  98.7721743  63.4407662  50.4761212  98.5139521  64.3624733  50.4745542
  98.2406783  63.0438097  51.1661676 103.7167932  76.5458449  43.2551297
 103.8904809  75.9804872  42.5025149 104.2096823  77.3459344  43.0730787
  89.5344891  68.5573119  51.3214856  88.9898360  69.3332926  51.4535130
  90.4124241  68.9043923  51.1633977  96.3232508  61.8884702  43.6995654
  96.4448419  60.9601349  43.8986542  96.0334550  61.9023388  42.7873970
  99.1923699  59.5739613  46.8362374  99.2145395  59.6378946  45.8814354
  99.6091758  58.7344121  47.0302880 109.5707323  69.3094872  44.8741597
 110.0138469  68.5602198  44.4760720 108.6933833  69.3005009  44.4915329
 104.7043104  75.8625214  40.3548195 105.3994009  76.4831907  40.5735510
 105.0466254  75.0120565  40.6300573  90.3210913  67.6843015  54.2145013
  89.5792649  67.8325650  54.8009643  90.0003658  67.9451280  53.3511762
 106.6034527  73.3124919  41.8835526 107.1285851  73.6512192  41.1584846
 106.5156880  72.3771935  41.6998661  98.2654576  77.2258993  54.0125403
  98.5741702  76.9808140  54.8848102  99.0630058  77.4305631  53.5244273
  98.2875188  79.3796903  46.2430779  97.8480178  78.8873281  46.9363636
  99.0383305  78.8369870  46.0022855  90.7667527  75.5708443  46.2455407
  91.5925547  75.2712215  45.8654051  90.4161579  74.8016066  46.6945196
  95.7349060  74.9234912  48.3153081  95.1129069  74.2605617  48.0155309
  96.4053927  74.9496044  47.6326729  88.9676132  73.4894770  47.2044341
  88.1308040  73.0616944  47.0228342  88.9399777  73.6827213  48.1415132
  95.8073588  63.4016700  57.9085587  95.8561743  64.2778823  57.5263357
  96.3496102  62.8594093  57.3357230 106.2928433  73.9457823  57.1886724
 105.5023977  73.9281962  56.6491223 106.0561788  74.4846117  57.9435761
 106.4126308  70.7950289  54.5019453 106.4624313  70.6300297  55.4434975
 106.3040232  69.9277548  54.1117333  95.2962567  73.4738835  41.7911541
  95.4450687  74.1574299  41.1378214  96.1029011  73.4543925  42.3060997
 103.7030071  66.7781217  55.8178759 104.6039934  66.6387682  55.5262757
 103.7778045  66.9435672  56.7576937  98.0372876  64.1548072  54.6631946
  97.1676186  64.4481638  54.3914534  98.2732356  64.7388517  55.3839209
 107.9144505  73.2147231  54.7461474 107.6229314  73.5777211  55.5824935
 107.3016636  72.5014239  54.5674806 109.1140188  70.7800111  47.2664044
 109.9487079  71.2189915  47.4301605 109.2499316  70.3038764  46.4472290
 106.1631693  68.3379846  53.2141532 106.6385815  68.5307492  52.4060383
 105.2397259  68.3939031  52.9684916  93.0515200  69.5004013  42.7972610
  92.8061242  68.5966343  42.9952821  93.2211115  69.5021163  41.8552088
 100.7411910  60.3727689  52.1797366 101.2593854  61.1088716  51.8543855
 100.3867043  60.6791682  53.0144125  92.3210848  65.2332370  40.2958772
  91.6280093  65.3076725  39.6398808  92.0762599  64.4692714  40.8180289
 100.9924504  56.7927972  47.6998263 101.2726258  56.1251161  48.3258689
 101.7775111  56.9857067  47.1872926  98.7957973  75.9686966  39.2623289
  98.2231940  76.5877153  38.8093761  99.3690766  76.5186327  39.7963211
 104.8633362  65.2145606  51.4469838 105.8150785  65.3143703  51.4682062
 104.6936813  64.4223874  51.9567922 102.8847742  62.3001189  51.6329239
 102.2897674  62.5806202  50.9375727 102.5997439  62.7895090  52.4045980
 102.0155232  76.2524116  40.3931871 102.9485906  76.1869677  40.5964747
 101.9278445  77.0880383  39.9346404 104.6443249  75.5689986  37.3535819
 104.5656881  75.2349850  38.2471577 105.4652916  76.0611754  37.3527291
 107.3421440  68.4351725  50.5612137 107.3097760  67.4967726  50.7471821
 107.9522064  68.5135762  49.8277962  99.1804771  67.3047778  36.6039341
 100.1263876  67.1753986  36.6727759  98.8019016  66.5662440  37.0808770
 107.4915929  65.2262769  50.6070421 106.9754977  64.4421225  50.4200349
 108.3755877  64.8981485  50.7716940 105.1526656  58.9703784  46.5666233
 104.9551477  58.6618872  47.4509565 105.7626361  59.6965423  46.6964163
 113.1597990  69.4967732  49.7018174 113.8901379  69.2353020  50.2625877
 112.5504936  68.7596454  49.7420242 111.2413287  67.6375595  50.2992625
 110.5146451  67.5031560  49.6909117 110.8260574  67.9452423  51.1049343
  99.0643464  71.3565524  58.0639998  99.9846473  71.5344123  58.2580045
  99.0293047  70.4121570  57.9119698  97.3647688  65.2297755  36.5394227
  96.4579144  64.9330867  36.6156940  97.6423669  64.9327573  35.6728513
  88.2825629  66.5504118  46.9893273  87.9628413  65.6969426  46.6967647
  87.7359057  66.7652696  47.7451240  92.0605536  69.2666559  50.7062780
  92.2791546  70.1983667  50.7250813  92.4731310  68.9074533  51.4917583
  98.9809754  59.7734644  42.6938468  98.1710482  59.4281729  43.0693714
  99.6694171  59.4642188  43.2826079 100.9100302  58.8512691  44.3162765
 101.4631341  59.2708145  44.9752788 101.1470389  57.9248439  44.3585721
  96.9333401  64.8399765  60.0965528  96.8330128  65.7894122  60.0277620
  96.7154944  64.5118004  59.2241599  96.1346473  62.0884690  36.6806206
  96.9965637  62.4139588  36.9402023  96.3196817  61.3016186  36.1679272
  88.1513889  70.1707030  48.9586395  87.4577360  69.7560982  48.4456349
  88.8986880  70.2127566  48.3619814 104.2879109  60.9613216  43.8241429
 103.7077778  61.6198020  43.4419481 104.0215042  60.1390561  43.4128846
 102.7382676  60.3618274  46.0262749 103.2382454  60.4734809  45.2177068
 103.3818284  60.0579327  46.6663558  96.7964672  68.2696904  58.9130590
  96.3131753  69.0697264  59.1194479  96.8825611  68.2804849  57.9598034
  90.0650631  70.1025283  46.8352409  90.0421319  70.2012971  45.8834293
  90.3751268  70.9490434  47.1569576  92.7238009  72.1601438  50.9499024
  93.6781263  72.1285381  50.8828955  92.5250533  71.6992062  51.7649250
  93.3137391  70.7302554  53.5169822  94.1330280  71.2246633  53.5404659
  93.5874199  69.8134523  53.4887389 103.0703987  63.1213307  42.8797777
 102.1829842  63.4062957  42.6617972 103.4857976  62.9607070  42.0325054
 106.4218524  63.1459828  46.5952116 107.1978914  63.6356280  46.8676733
 105.6966658  63.5717882  47.0523986 108.8591082  63.8587447  47.6526057
 109.4535573  63.6183183  46.9419365 108.9317666  63.1394577  48.2799593
  91.0788238  77.7021058  47.9669222  90.9442706  76.9421459  47.4007220
  90.6620300  78.4261958  47.4998011 102.2147201  72.8857981  36.9745797
 102.9183051  73.0907984  37.5903453 101.4909850  73.4534743  37.2394881
 103.0445011  68.6367843  43.0948067 102.9880213  69.0936394  42.2555700
 103.5973354  67.8758527  42.9170910 106.8549817  64.4257575  43.9198187
 106.5986751  64.0254210  44.7506394 106.2302685  65.1401368  43.7948326
 111.1662155  67.1653648  46.4269478 110.6061713  67.2346837  47.2001040
 110.5605658  66.9894632  45.7068974  94.2357364  78.5990375  48.1787664
  94.1189748  79.5435807  48.0766355  93.4149810  78.2963936  48.5673464
 104.1233898  73.3240511  39.0244257 104.9579502  72.8921709  38.8421732
 103.9618241  73.1522524  39.9521152 103.7779790  69.8272624  40.3900596
 103.7228594  69.6616895  39.4489041 103.1525846  70.5348657  40.5462786
  88.5672305  65.0640688  54.2162019  89.2131169  64.5539642  54.7049244
  88.3589457  65.8009370  54.7905444 101.0925698  72.1321536  59.7154159
 101.9616857  72.3062188  59.3540794 100.6132449  72.9515953  59.5929889
  97.0875916  59.3280733  39.9685915  97.0754586  60.2722573  40.1254186
  97.9799338  59.1450878  39.6745376  95.2611878  79.2518637  51.3943593
  96.1639125  79.2842247  51.7110088  95.0349248  78.3219088  51.4089929
  97.0165480  78.0049623  48.0553671  96.0661111  78.0051485  47.9418044
  97.3197966  77.2582358  47.5389706 100.9028035  55.9223510  44.2231852
 100.1360431  55.3681996  44.3688534 101.3138740  55.9945378  45.0846003
  92.9069796  62.2108305  58.3137033  93.7701258  61.8545110  58.5240357
  92.3335207  61.8722200  59.0012437 112.7518173  83.8410162  49.1199434
 113.3896583  83.7216909  48.4162774 112.6339016  84.7891006  49.1787386
 109.5607880  83.7937590  49.0560959 109.2226391  83.6778655  48.1681493
 110.4297648  83.3928755  49.0361965 105.4194695  85.6473066  45.0457850
 104.8559560  85.5563003  44.2774137 105.3047090  84.8272971  45.5260342
 110.0427663  84.9472442  55.0147164 110.0316303  84.5525240  54.1427668
 110.2048302  84.2138514  55.6080936 102.9659127  87.1424258  47.8842070
 103.7580419  86.8015082  47.4688369 103.2055777  87.2519233  48.8044223
 110.9994254  89.3144034  40.3572314 110.3482234  89.8998114  39.9706328
 111.7938617  89.8450229  40.4167352 104.9249881  86.4033171  40.7559449
 105.6980757  85.8562158  40.6172325 105.2775280  87.2677420  40.9673910
 106.7634924  87.7309553  53.9626348 106.4724790  88.6355184  53.8473014
 107.3991908  87.7726081  54.6770418 107.6891131  85.1086402  50.5527708
 108.2854703  84.8842424  49.8384671 107.7466102  84.3671147  51.1553156
 107.2616159  82.5625837  38.3877899 107.5141680  82.0407358  37.6261362
 106.3240718  82.3991983  38.4904582 112.3059442  81.5661616  46.1952642
 113.0922531  81.1481039  45.8443059 112.5698146  82.4707708  46.3634290
 112.4769519  87.0034466  40.8941299 111.8415352  87.0769092  41.6062203
 112.1466926  87.5928065  40.2160378 117.7067869  81.5036849  47.0985620
 118.4393041  80.9336066  47.3323450 116.9507225  81.1158449  47.5392126
 106.9812448  84.4653943  40.5902274 106.8648706  83.7898847  41.2583358
 107.0914708  83.9786317  39.7734427 109.3243989  83.9264090  44.2948963
 108.9602196  83.3994711  45.0061884 110.1811105  83.5362559  44.1215448
 115.2293289  75.2158423  51.5580229 114.8976614  76.0853834  51.3341444
 114.6338903  74.8994707  52.2374259 108.9649476  78.9553990  39.2910311
 109.1323878  79.8234226  39.6580782 108.7746645  79.1181272  38.3671601
 111.7224809  87.4170969  50.9576142 111.4225532  88.3196008  50.8491949
 111.3775868  87.1503152  51.8097295 105.1737290  83.8684766  46.9912846
 104.2487787  83.7360980  47.1990538 105.4221704  84.6478985  47.4882789
 115.1221953  79.9353509  48.6373579 114.2138830  79.8668917  48.3432340
 115.0709548  80.4125454  49.4655405 108.9438697  81.4111647  40.2756978
 108.8238322  81.8568698  41.1142458 108.2491285  81.7596965  39.7170516
 102.5346101  83.5118039  47.8256635 102.6638483  83.7652518  48.7396047
 101.8543553  84.1045747  47.5061290 106.7045589  94.1815289  43.9247109
 106.6269618  95.1323114  44.0035590 106.1007232  93.8361162  44.5822036
 109.1962818  81.3543155  56.5808476 108.4196152  81.9137075  56.5711341
 109.8353381  81.8399938  57.1023346 116.9883599  78.1369947  50.4151453
 116.3457979  78.4302481  49.7691248 116.4838528  78.0222868  51.2204650
 114.6423763  81.8833121  41.1037312 115.5541619  82.1160507  40.9285010
 114.1333410  82.4670165  40.5412391 107.4509191  84.1628608  56.1426443
 108.1923875  84.7013652  55.8661267 106.7446176  84.7894897  56.2997995
 112.9264530  86.3057748  54.7398605 113.3347886  85.8640159  53.9953237
 112.2041792  85.7310376  54.9932798 109.2795600  81.2430355  52.1132162
 110.1256796  81.6669769  52.2566811 109.2194238  80.5863980  52.8070725
 113.2493345  86.8658939  48.4950894 112.6202207  87.0304653  47.7926962
 112.8619007  87.2800549  49.2661858 117.1282577  87.8013377  45.8495257
 116.4433615  88.1812278  45.2992291 117.2126426  88.4108704  46.5827205
 112.4295046  78.9034724  53.7713335 112.1855978  79.6576784  53.2347611
 112.7054976  79.2820071  54.6060582 114.3833508  85.4473336  52.4490601
 114.5950404  86.0905096  51.7724982 114.3363257  84.6135653  51.9812531
 111.9859737  78.0591157  49.3527173 111.1244216  78.3572410  49.6443911
 112.0122172  78.2761555  48.4208206 108.8021307  86.6033347  45.7600979
 109.2659652  86.8821050  44.9705601 108.5378105  85.7016792  45.5774070
 105.6945388  86.1504829  48.6980742 106.2646745  86.5792097  48.0598227
 106.2853500  85.8687413  49.3964928 107.7390193  82.7256500  42.5690544
 108.4414236  83.1777543  43.0364470 107.4070821  82.0840318  43.1970437
 106.1870554  81.3168256  56.9441753 105.5569215  81.9984537  57.1777150
 106.0806642  81.2051338  55.9994892 101.4815527  80.9840052  47.8707678
 100.6914581  81.2397581  47.3947788 101.9726774  81.7988390  47.9759718
 115.4979336  88.3245291  50.6212958 116.3196780  87.9225479  50.3395640
 115.4941739  88.2213526  51.5729074 103.4330272  81.3484631  44.8291154
 102.6361436  81.4603326  45.3474650 103.2055864  81.6871284  43.9632045
 109.2635940  87.8729335  52.7773669 109.3280372  88.3349742  53.6131841
 108.5546864  87.2426700  52.9055979  99.7653230  81.2370543  50.3022668
 100.0161268  82.1217553  50.5680244 100.3012778  81.0575144  49.5297760
 108.9783958  89.5397442  42.6452649 108.8429632  90.3848978  43.0737497
 109.5193770  89.7416720  41.8818583 105.4651297  75.6189022  59.3067004
 105.0718243  75.0655221  59.9814649 106.2817438  75.9299600  59.6973522
 102.4313355  87.0572880  43.2180574 102.9437876  87.8516130  43.3686139
 103.0836068  86.3599171  43.1514176 104.2408240  90.1738636  45.3003327
 104.4174868  91.0956601  45.1124311 105.0365073  89.8597056  45.7297707
 108.3819258  77.0346901  56.8987261 109.1228972  77.6354054  56.8191723
 108.6137181  76.2924539  56.3405304 103.5260596  82.2203268  55.1765491
 103.4114111  81.3188526  55.4772590 102.6705114  82.4666965  54.8250307
 110.6052434  90.1621009  56.7752991 110.1616288  89.3757387  56.4573896
 111.2669648  90.3500159  56.1096882 105.3639555  91.6916810  51.3013670
 105.9146980  91.5633874  50.5290664 104.5251031  91.9911699  50.9508563
 112.7033672  90.4423809  54.8034393 112.6852147  91.2632690  54.3114662
 113.6253592  90.3177884  55.0284534 109.1606726  87.9567938  55.6457901
 109.6935063  87.1956226  55.4157209 108.6320807  87.6641590  56.3882055
 112.3276421  73.0628004  51.1751543 111.9840691  73.9529646  51.0990653
 112.6955384  72.8729662  50.3121128 100.3962272  85.3861535  43.9940145
 101.2337494  85.7958543  43.7773853 100.5740539  84.4460977  43.9640339
 112.2926704  83.0536615  39.6823978 111.7773327  83.8241220  39.9212365
 112.0204012  82.3801751  40.3057039 109.8773815  77.8986316  44.7409216
 109.0215411  77.5093166  44.5614855 110.2900767  77.9778277  43.8809002
 111.4072962  75.4332659  49.1400776 110.9037757  75.3962794  48.3268581
 111.7003568  76.3425402  49.1997433 107.6515847  75.5171389  48.1466958
 108.5168844  75.3214198  47.7872847 107.7193356  75.2881741  49.0736314
 117.2660978  85.8068970  41.6177151 116.4890421  85.4680129  41.1732313
 117.9452459  85.8121593  40.9432116 112.0813007  80.9263707  41.5083759
 111.7763143  81.2409856  42.3593902 113.0343449  81.0045127  41.5511092
 110.5259439  87.0853931  43.1576713 109.9980800  86.3506690  42.8449950
 110.0246942  87.8628607  42.9116681 115.5052285  85.2802951  48.2743759
 114.8475959  85.9702212  48.3623888 116.3092684  85.6699383  48.6177746
 105.2578166  77.7473597  45.5183324 105.8321918  77.5248778  44.7856517
 105.8449149  77.8162291  46.2711926 114.3157744  83.6347324  46.3247701
 114.8289625  84.2677316  46.8269411 114.9658968  83.0348519  45.9591061
 105.5847754  79.7778058  39.5379210 104.7485066  80.1152744  39.8588484
 105.4452523  79.6427038  38.6006347 107.5600834  74.6214846  44.2458394
 106.9065247  74.3063863  43.6215009 107.5181308  73.9990586  44.9718217
 108.6712039  84.9034141  36.1611686 107.7639101  84.6723394  36.3602835
 109.1683071  84.1071760  36.3485667 111.5780118  93.6131648  39.0808372
 110.9041817  93.9163345  39.6893330 111.9645940  94.4160728  38.7313829
 110.7938575  81.1096779  48.5706041 109.8761136  81.3311726  48.4127730
 111.2098718  81.1843090  47.7117749 111.5773622  82.5088195  43.7008722
 112.3245441  83.0209592  43.3915844 111.8465212  82.1872248  44.5613115
 109.8500272  85.0046736  40.6835676 108.9411492  84.7205769  40.7808146
 109.8795356  85.4245814  39.8238983 115.0819540  88.6153325  44.4526844
 114.6281867  87.7744235  44.5092034 114.4513507  89.2514724  44.7901624
 114.0252459  79.5445311  45.6827511 113.2875216  79.0322697  46.0137754
 114.2779233  79.1045693  44.8710788 113.5252479  90.4529822  45.3876662
 113.8175454  91.0134879  44.6689027 114.0351100  90.7458383  46.1429821
 114.1264087  72.3221563  46.2769280 114.4322964  71.4618927  45.9895195
 114.8516692  72.9139183  46.0768274 100.4188443  82.7252250  44.6650878
 100.2212843  82.1321611  43.9401945  99.8635107  82.4204460  45.3826817
 108.3985167  82.6175356  46.7845471 108.4533776  81.6649193  46.7087948
 107.5876369  82.7734795  47.2686770 109.5476360  86.5455479  38.0223755
 109.1095790  85.8291338  37.5629392 110.2886801  86.7731594  37.4608846
 106.3377526  81.2352416  44.5435850 105.5245392  81.5346587  44.9501042
 106.8336521  80.8408105  45.2610333 108.4886104  91.2310173  46.4770115
 108.4462283  91.4571019  45.5478647 109.4048803  90.9973548  46.6255916
 111.9351738  81.6994241  53.3750744 112.2901126  81.9265714  54.2345210
 112.5823869  82.0312617  52.7527999 117.6649475  84.8212676  44.0800073
 117.5267374  85.0114272  43.1521262 117.3085694  85.5832059  44.5368124
 105.8291601  78.8070772  50.1597085 106.4690981  78.6659531  49.4620049
 104.9969132  78.5205285  49.7835687 117.6918855  86.8889203  49.0911345
 118.1255361  86.7964493  49.9394399 118.4050435  86.8646704  48.4531361
 106.6051905  88.1073202  46.2732078 107.3992504  87.6123522  46.0714653
 105.8943597  87.5791065  45.9099783 111.4246750  90.4891298  50.6244445
 111.4783772  91.0582234  51.3922161 110.5561531  90.6593183  50.2598482
 102.9134669  82.2516284  42.3491830 101.9832257  82.1900739  42.5661792
 103.0092141  81.7292236  41.5528472 102.8320218  78.7771097  44.9370072
 103.0927035  79.6916430  44.8279232 103.6537390  78.3095539  45.0866685
 104.3045143  80.1908854  52.1068897 104.9768196  79.9826216  51.4581545
 103.4774929  79.9930940  51.6674129 118.5534404  86.9312904  51.6244230
 118.7470294  87.8358715  51.8703505 118.4535022  86.4720323  52.4582815
 110.2070715  76.8170795  54.1234557 109.5598630  77.5160744  54.0299034
 110.9771730  77.2506939  54.4910806 113.6149513  87.0819647  57.1985111
 113.4635019  86.8530199  56.2815194 113.6054192  88.0390248  57.2116456
 110.3834849  84.6551560  52.1831377 111.3126909  84.8062719  52.0100344
 109.9625879  84.7435580  51.3280024 109.1823181  88.6802224  49.9529915
 109.0434267  88.3121008  50.8255853 108.3937777  89.1949863  49.7813873
 109.7771333  93.7811320  41.2955451 109.9523089  93.3099364  42.1101074
 109.0904121  94.4077087  41.5236712 110.7328396  88.0583827  47.3418753
 110.3978229  88.0184597  48.2376402 110.2332342  87.3928543  46.8689163
 104.7072640  83.4651457  52.8671334 104.5692438  82.7331696  53.4682873
 105.6177564  83.3760357  52.5855521 113.6687588  85.4039861  37.6155812
 113.0516759  84.6786689  37.5188865 113.2004076  86.1649221  37.2722886
 107.3354941  83.1771416  52.3555013 108.0454559  82.5364608  52.3141632
 107.2924249  83.4284311  53.2781194 115.3241720  90.1138769  55.2761593
 115.2654266  89.4297989  54.6092176 115.7261238  90.8557759  54.8242219
 106.0483875  80.1636634  54.1750653 105.5121232  79.7127372  54.8272249
 105.4600583  80.2982543  53.4321117 104.3432418  96.9300683  48.0695311
 104.5829017  97.5619207  48.7474330 103.5001615  96.5788723  48.3560671
 105.4586134  79.6225285  36.7377116 104.5815600  79.5014086  36.3739363
 105.9343887  78.8311364  36.4856005 115.3259127  88.0778353  53.5075572
 114.4385906  87.7404275  53.6301971 115.8957678  87.3461385  53.7444338
  96.9788274  84.4102445  46.8318624  97.6659314  84.0964175  46.2439639
  96.8236403  85.3143810  46.5585875 101.7822996  79.2992642  51.2603647
 101.6981185  78.6918311  50.5254057 100.9605702  79.7901660  51.2613144
 108.8560280  92.7379806  50.4736815 108.7830452  93.5434777  50.9856120
 108.4137673  92.9371771  49.6484837 108.6450060  91.9751576  43.9839637
 107.8617582  92.5173256  44.0777862 109.3442805  92.4925555  44.3833878
 111.9546710  77.7846205  46.6273842 112.4515409  77.0316167  46.3074913
 111.1833691  77.8210522  46.0617052 119.8076467  83.4886571  48.2692134
 119.7966344  84.3711286  47.8986067 118.9393847  83.1358121  48.0746671
 111.3158964  92.6366640  52.6294974 112.0286936  93.2714104  52.5570876
 110.8248992  92.7330506  51.8134976 113.0376491  86.5417892  44.2012266
 112.1032769  86.6619355  44.0316970 113.2153159  85.6390359  43.9372276
 108.5381679  79.9263588  46.3545527 108.1679466  79.3734629  47.0426433
 109.0340771  79.3221722  45.8020527 116.4249042  82.3835212  44.7362300
 116.8909494  83.2163203  44.6622603 116.8756542  81.9180193  45.4407558
 106.3670877  90.3861083  53.4500545 107.0680337  91.0197566  53.6029939
 105.8965992  90.7275815  52.6896184 114.4925273  88.7279033  41.7348452
 114.7685117  88.6135628  42.6442326 113.6229772  88.3296518  41.6960625
 114.3965705  74.7515799  48.7753201 113.4828785  74.9820025  48.9435408
 114.8258806  74.8354243  49.6267234 114.1672163  82.9405691  51.2753095
 113.5143613  83.1881598  50.6205548 114.5452543  82.1269829  50.9415573
 111.1279337  92.9765384  45.3781266 111.3101732  92.1587040  45.8409018
 111.9512323  93.1933076  44.9406156 111.4621503  91.9033569  42.6396314
 111.9909269  91.3926023  42.0266476 111.7249722  91.5876099  43.5041847
 110.2159736  83.6825502  57.7619132 109.5400373  83.5819631  58.4321508
 111.0387370  83.5264715  58.2255130 101.9638595  89.9197438  50.3831648
 102.5492032  89.1741126  50.5159552 101.7663434  90.2301395  51.2668312
 104.8177251  92.9548686  45.3994090 104.1487626  93.4394813  44.9158130
 104.6790120  93.2017906  46.3137469  96.5556250  82.4903038  49.1036091
  96.5940350  81.9566629  49.8973209  96.0496543  81.9638244  48.4847068
 108.9582519  94.9892429  51.9976748 109.5100827  95.1524051  52.7625834
 109.2988713  95.5796867  51.3256773 103.9347012  77.3367579  52.5998633
 103.9988339  78.1982410  52.1876031 103.8714133  76.7241581  51.8670992
 103.4099285  79.4090711  56.2471667 104.0371324  79.0267789  56.8609192
 102.5527204  79.1904913  56.6127360 113.8093393  89.8153687  57.8525403
 114.3533297  90.4283645  57.3580358 113.2280238  90.3733265  58.3692416
 100.1864828  81.2167141  42.1790022 100.4818269  80.3077819  42.1257076
  99.2852863  81.1954880  41.8571024 112.0950906  92.9374405  48.9840431
 111.9702046  92.1364144  48.4751376 112.7529998  93.4320598  48.4954400
 103.7159075  79.2923137  48.1617571 102.9945660  79.9059105  48.0225044
 104.5052330  79.8280902  48.0834217 114.1585815  90.7383425  50.6119981
 113.2116150  90.6188776  50.5398307 114.5068588  89.8505923  50.6946242
 106.5185388  76.6277564  54.4358223 107.0419790  76.8739860  55.1984532
 106.2997721  77.4597598  54.0161360 101.9152669  78.8981238  42.3029347
 101.5865375  78.0178617  42.1204453 102.2692040  78.8428907  43.1905737
 111.1632248  90.5336141  46.8124333 111.0157211  89.6052848  46.9931903
 111.9885742  90.5556232  46.3281408 105.0294492  79.1854208  42.6704825
 105.3690565  79.7140129  41.9483433 105.4766613  79.5234614  43.4463392
 114.7666370  91.3564700  47.8989206 115.6912917  91.1507561  47.7613657
 114.5981673  91.1081101  48.8078547 107.7237933  77.5691259  52.1207893
 107.3834754  76.7699072  52.5228573 107.0176939  77.8692970  51.5484726
 108.3754405  74.6540571  50.5735216 109.1980474  74.1801049  50.4514106
 108.6192469  75.4331055  51.0733902 107.0162640  77.6828830  40.8698118
 107.7371002  78.0610082  40.3661835 106.3927944  78.4017706  40.9733096
 111.1593762  78.3873979  41.8056450 111.3757377  79.2698616  41.5045278
 110.6787830  77.9960192  41.0762092 105.8992984  81.3459692  48.3827195
 105.7537565  81.6599995  49.2751476 105.4218187  81.9644592  47.8298093
 107.7589367  78.3362240  48.4308084 107.7450935  77.4403333  48.0940382
 108.4761795  78.3432904  49.0646370 109.6115497  78.7699580  50.4761212
 109.3533275  79.6916651  50.4745542 109.0800538  78.3730015  51.1661676
 114.5561686  91.8750367  43.2551297 114.7298564  91.3096790  42.5025149
 115.0490577  92.6751262  43.0730787 100.3738646  83.8865036  51.3214856
  99.8292114  84.6624844  51.4535130 101.2517996  84.2335841  51.1633977
 107.1626263  77.2176620  43.6995654 107.2842174  76.2893266  43.8986542
 106.8728305  77.2315306  42.7873970 110.0317453  74.9031531  46.8362374
 110.0539150  74.9670864  45.8814354 110.4485512  74.0636039  47.0302880
 120.4101077  84.6386790  44.8741597 120.8532223  83.8894115  44.4760720
 119.5327588  84.6296926  44.4915329 115.5436859  91.1917132  40.3548195
 116.2387763  91.8123824  40.5735510 115.8860009  90.3412483  40.6300573
 101.1604668  83.0134932  54.2145013 100.4186404  83.1617568  54.8009643
 100.8397412  83.2743198  53.3511762 117.4428282  88.6416837  41.8835526
 117.9679606  88.9804110  41.1584846 117.3550634  87.7063852  41.6998661
 109.1048330  92.5550911  54.0125403 109.4135457  92.3100057  54.8848102
 109.9023812  92.7597549  53.5244273 109.1268943  94.7088820  46.2430779
 108.6873933  94.2165199  46.9363636 109.8777059  94.1661788  46.0022855
 101.6061281  90.9000361  46.2455407 102.4319301  90.6004133  45.8654051
 101.2555333  90.1307984  46.6945196 106.5742815  90.2526829  48.3153081
 105.9522824  89.5897534  48.0155309 107.2447682  90.2787961  47.6326729
  99.8069887  88.8186688  47.2044341  98.9701795  88.3908862  47.0228342
  99.7793532  89.0119131  48.1415132 106.6467342  78.7308617  57.9085587
 106.6955498  79.6070740  57.5263357 107.1889856  78.1886010  57.3357230
 117.1322188  89.2749741  57.1886724 116.3417732  89.2573880  56.6491223
 116.8955542  89.8138034  57.9435761 117.2520063  86.1242207  54.5019453
 117.3018068  85.9592214  55.4434975 117.1433986  85.2569466  54.1117333
 106.1356322  88.8030753  41.7911541 106.2844442  89.4866217  41.1378214
 106.9422765  88.7835843  42.3060997 114.5423825  82.1073135  55.8178759
 115.4433688  81.9679600  55.5262757 114.6171800  82.2727590  56.7576937
 108.8766631  79.4839990  54.6631946 108.0069940  79.7773556  54.3914534
 109.1126111  80.0680435  55.3839209 118.7538260  88.5439149  54.7461474
 118.4623068  88.9069129  55.5824935 118.1410391  87.8306157  54.5674806
 119.9533942  86.1092028  47.2664044 120.7880833  86.5481832  47.4301605
 120.0893071  85.6330682  46.4472290 117.0025448  83.6671763  53.2141532
 117.4779570  83.8599410  52.4060383 116.0791013  83.7230949  52.9684916
 103.8908955  84.8295930  42.7972610 103.6454996  83.9258260  42.9952821
 104.0604869  84.8313081  41.8552088 111.5805664  75.7019607  52.1797366
 112.0987608  76.4380634  51.8543855 111.2260797  76.0083600  53.0144125
 103.1604602  80.5624288  40.2958772 102.4673847  80.6368643  39.6398808
 102.9156354  79.7984632  40.8180289 111.8318259  72.1219889  47.6998263
 112.1120012  71.4543078  48.3258689 112.6168866  72.3148985  47.1872926
 109.6351727  91.2978883  39.2623289 109.0625694  91.9169070  38.8093761
 110.2084521  91.8478245  39.7963211 115.7027117  80.5437523  51.4469838
 116.6544540  80.6435621  51.4682062 115.5330567  79.7515792  51.9567922
 113.7241496  77.6293107  51.6329239 113.1291429  77.9098119  50.9375727
 113.4391193  78.1187007  52.4045980 112.8548987  91.5816033  40.3931871
 113.7879660  91.5161595  40.5964747 112.7672200  92.4172300  39.9346404
 115.4837004  90.8981904  37.3535819 115.4050635  90.5641767  38.2471577
 116.3046670  91.3903672  37.3527291 118.1815195  83.7643643  50.5612137
 118.1491515  82.8259644  50.7471821 118.7915818  83.8427680  49.8277962
 110.0198526  82.6339696  36.6039341 110.9657630  82.5045904  36.6727759
 109.6412771  81.8954358  37.0808770 118.3309683  80.5554686  50.6070421
 117.8148732  79.7713143  50.4200349 119.2149632  80.2273403  50.7716940
 115.9920410  74.2995702  46.5666233 115.7945231  73.9910790  47.4509565
 116.6020116  75.0257341  46.6964163 109.9037218  86.6857442  58.0639998
 110.8240228  86.8636041  58.2580045 109.8686801  85.7413487  57.9119698
 108.2041443  80.5589672  36.5394227 107.2972898  80.2622785  36.6156940
 108.4817424  80.2619490  35.6728513  99.1219383  81.8796036  46.9893273
  98.8022167  81.0261344  46.6967647  98.5752811  82.0944614  47.7451240
 102.8999291  84.5958477  50.7062780 103.1185300  85.5275585  50.7250813
 103.3125064  84.2366451  51.4917583 109.8203508  75.1026562  42.6938468
 109.0104237  74.7573647  43.0693714 110.5087925  74.7934106  43.2826079
 111.7494057  74.1804609  44.3162765 112.3025095  74.6000062  44.9752788
 111.9864143  73.2540357  44.3585721 107.7727156  80.1691682  60.0965528
 107.6723883  81.1186039  60.0277620 107.5548698  79.8409921  59.2241599
 106.9740227  77.4176608  36.6806206 107.8359391  77.7431506  36.9402023
 107.1590572  76.6308103  36.1679272  98.9907643  85.4998947  48.9586395
  98.2971115  85.0852900  48.4456349  99.7380634  85.5419484  48.3619814
 115.1272864  76.2905134  43.8241429 114.5471533  76.9489938  43.4419481
 114.8608797  75.4682479  43.4128846 113.5776430  75.6910192  46.0262749
 114.0776209  75.8026726  45.2177068 114.2212038  75.3871245  46.6663558
 107.6358426  83.5988821  58.9130590 107.1525508  84.3989181  59.1194479
 107.7219365  83.6096766  57.9598034 100.9044386  85.4317201  46.8352409
 100.8815074  85.5304888  45.8834293 101.2145022  86.2782352  47.1569576
 103.5631764  87.4893356  50.9499024 104.5175017  87.4577298  50.8828955
 103.3644287  87.0283980  51.7649250 104.1531146  86.0594472  53.5169822
 104.9724035  86.5538551  53.5404659 104.4267953  85.1426440  53.4887389
 113.9097742  78.4505224  42.8797777 113.0223597  78.7354875  42.6617972
 114.3251731  78.2898988  42.0325054 117.2612278  78.4751745  46.5952116
 118.0372668  78.9648198  46.8676733 116.5360412  78.9009800  47.0523986
 119.6984837  79.1879365  47.6526057 120.2929327  78.9475101  46.9419365
 119.7711420  78.4686495  48.2799593 101.9181992  93.0312976  47.9669222
 101.7836460  92.2713376  47.4007220 101.5014055  93.7553875  47.4998011
 113.0540955  88.2149899  36.9745797 113.7576805  88.4199902  37.5903453
 112.3303604  88.7826661  37.2394881 113.8838766  83.9659760  43.0948067
 113.8273967  84.4228312  42.2555700 114.4367108  83.2050445  42.9170910
 117.6943572  79.7549492  43.9198187 117.4380506  79.3546128  44.7506394
 117.0696440  80.4693286  43.7948326 105.0751118  93.9282293  48.1787664
 104.9583502  94.8727725  48.0766355 104.2543564  93.6255854  48.5673464
 114.9627653  88.6532428  39.0244257 115.7973257  88.2213627  38.8421732
 114.8011996  88.4814442  39.9521152 114.6173545  85.1564542  40.3900596
 114.5622349  84.9908813  39.4489041 113.9919600  85.8640574  40.5462786
  99.4066060  80.3932606  54.2162019 100.0524924  79.8831560  54.7049244
  99.1983211  81.1301288  54.7905444 111.9319452  87.4613453  59.7154159
 112.8010612  87.6354106  59.3540794 111.4526204  88.2807870  59.5929889
 107.9269670  74.6572651  39.9685915 107.9148340  75.6014491  40.1254186
 108.8193092  74.4742796  39.6745376 106.1005632  94.5810554  51.3943593
 107.0032879  94.6134165  51.7110088 105.8743002  93.6511005  51.4089929
 107.8559234  93.3341541  48.0553671 106.9054865  93.3343403  47.9418044
 108.1591720  92.5874276  47.5389706 111.7421790  71.2515427  44.2231852
 110.9754186  70.6973914  44.3688534 112.1532495  71.3237296  45.0846003
 103.7463551  77.5400223  58.3137033 104.6095012  77.1837028  58.5240357
 103.1728962  77.2014118  59.0012437 120.4001634  99.1229507  49.0560959
 120.0620146  99.0070572  48.1681493 121.2691402  98.7220673  49.0361965
 116.2588450 100.9764984  45.0457850 115.6953315 100.8854921  44.2774137
 116.1440845 100.1564888  45.5260342 120.8821417 100.2764359  55.0147164
 120.8710058  99.8817157  54.1427668 121.0442057  99.5430432  55.6080936
 113.8052882 102.4716176  47.8842070 114.5974174 102.1307000  47.4688369
 114.0449532 102.5811151  48.8044223 115.7643636 101.7325089  40.7559449
 116.5374512 101.1854076  40.6172325 116.1169035 102.5969338  40.9673910
 117.6028678 103.0601471  53.9626348 117.3118544 103.9647102  53.8473014
 118.2385663 103.1017999  54.6770418 118.5284885 100.4378320  50.5527708
 119.1248457 100.2134342  49.8384671 118.5859857  99.6963065  51.1553156
 118.1009914  97.8917755  38.3877899 118.3535434  97.3699276  37.6261362
 117.1634473  97.7283900  38.4904582 117.8206202  99.7945861  40.5902274
 117.7042460  99.1190764  41.2583358 117.9308462  99.3078235  39.7734427
 120.1637743  99.2556008  44.2948963 119.7995950  98.7286629  45.0061884
 121.0204859  98.8654477  44.1215448 119.8043230  94.2845908  39.2910311
 119.9717632  95.1526144  39.6580782 119.6140399  94.4473189  38.3671601
 116.0131045  99.1976683  46.9912846 115.0881541  99.0652897  47.1990538
 116.2615458  99.9770903  47.4882789 119.7832451  96.7403565  40.2756978
 119.6632076  97.1860616  41.1142458 119.0885039  97.0888883  39.7170516
 113.3739856  98.8409957  47.8256635 113.5032237  99.0944436  48.7396047
 112.6937307  99.4337665  47.5061290 120.0356573  96.6835072  56.5808476
 119.2589907  97.2428992  56.5711341 120.6747136  97.1691855  57.1023346
 118.2902945  99.4920526  56.1426443 119.0317630 100.0305570  55.8661267
 117.5839931 100.1186814  56.2997995 120.1189355  96.5722273  52.1132162
 120.9650550  96.9961686  52.2566811 120.0587993  95.9155897  52.8070725
 119.6415061 101.9325265  45.7600979 120.1053407 102.2112968  44.9705601
 119.3771859 101.0308709  45.5774070 116.5339142 101.4796746  48.6980742
 117.1040499 101.9084015  48.0598227 117.1247254 101.1979331  49.3964928
 118.5783947  98.0548417  42.5690544 119.2807991  98.5069461  43.0364470
 118.2464576  97.4132236  43.1970437 117.0264309  96.6460174  56.9441753
 116.3962970  97.3276455  57.1777150 116.9200397  96.5343255  55.9994892
 112.3209281  96.3131970  47.8707678 111.5308335  96.5689498  47.3947788
 112.8120529  97.1280308  47.9759718 114.2724027  96.6776549  44.8291154
 113.4755190  96.7895243  45.3474650 114.0449619  97.0163201  43.9632045
 120.1029694 103.2021252  52.7773669 120.1674127 103.6641660  53.6131841
 119.3940618 102.5718617  52.9055979 110.6046984  96.5662460  50.3022668
 110.8555023  97.4509470  50.5680244 111.1406533  96.3867062  49.5297760
 116.3045052  90.9480940  59.3067004 115.9111997  90.3947138  59.9814649
 117.1211192  91.2591518  59.6973522 113.2707109 102.3864798  43.2180574
 113.7831630 103.1808048  43.3686139 113.9229822 101.6891088  43.1514176
 115.0801994 105.5030554  45.3003327 115.2568622 106.4248519  45.1124311
 115.8758828 105.1888973  45.7297707 119.2213013  92.3638819  56.8987261
 119.9622726  92.9645972  56.8191723 119.4530935  91.6216457  56.3405304
 114.3654351  97.5495186  55.1765491 114.2507866  96.6480443  55.4772590
 113.5098868  97.7958883  54.8250307 116.2033310 107.0208728  51.3013670
 116.7540735 106.8925791  50.5290664 115.3644785 107.3203617  50.9508563
 120.0000481 103.2859856  55.6457901 120.5328817 102.5248144  55.4157209
 119.4714562 102.9933508  56.3882055 111.2356026 100.7153452  43.9940145
 112.0731248 101.1250461  43.7773853 111.4134294  99.7752894  43.9640339
 120.7167569  93.2278234  44.7409216 119.8609166  92.8385084  44.5614855
 121.1294521  93.3070194  43.8809002 118.4909602  90.8463307  48.1466958
 119.3562599  90.6506115  47.7872847 118.5587111  90.6173658  49.0736314
 121.3653193 102.4145848  43.1576713 120.8374555 101.6798608  42.8449950
 120.8640696 103.1920525  42.9116681 116.0971921  93.0765515  45.5183324
 116.6715673  92.8540696  44.7856517 116.6842903  93.1454209  46.2711926
 116.4241508  95.1069976  39.5379210 115.5878820  95.4444662  39.8588484
 116.2846278  94.9718955  38.6006347 118.3994589  89.9506763  44.2458394
 117.7459001  89.6355781  43.6215009 118.3575063  89.3282504  44.9718217
 119.5105794 100.2326059  36.1611686 118.6032855 100.0015312  36.3602835
 120.0076826  99.4363678  36.3485667 120.6894027 100.3338653  40.6835676
 119.7805246 100.0497686  40.7808146 120.7189111 100.7537732  39.8238983
 111.2582197  98.0544167  44.6650878 111.0606597  97.4613528  43.9401945
 110.7028861  97.7496378  45.3826817 119.2378921  97.9467274  46.7845471
 119.2927531  96.9941110  46.7087948 118.4270123  98.1026713  47.2686770
 120.3870115 101.8747397  38.0223755 119.9489545 101.1583256  37.5629392
 121.1280556 102.1023512  37.4608846 117.1771281  96.5644334  44.5435850
 116.3639146  96.8638504  44.9501042 117.6730275  96.1700022  45.2610333
 116.6685356  94.1362689  50.1597085 117.3084735  93.9951448  49.4620049
 115.8362886  93.8497203  49.7835687 117.4445660 103.4365120  46.2732078
 118.2386258 102.9415440  46.0714653 116.7337352 102.9082983  45.9099783
 113.7528423  97.5808201  42.3491830 112.8226011  97.5192657  42.5661792
 113.8485895  97.0584154  41.5528472 113.6713972  94.1063014  44.9370072
 113.9320789  95.0208347  44.8279232 114.4931144  93.6387457  45.0866685
 115.1438897  95.5200771  52.1068897 115.8161951  95.3118134  51.4581545
 114.3168684  95.3222857  51.6674129 120.0216936 104.0094142  49.9529915
 119.8828021 103.6412926  50.8255853 119.2331532 104.5241781  49.7813873
 121.5722151 103.3875744  47.3418753 121.2371983 103.3476514  48.2376402
 121.0726096 102.7220460  46.8689163 115.5466395  98.7943374  52.8671334
 115.4086193  98.0623613  53.4682873 116.4571318  98.7052274  52.5855521
 118.1748695  98.5063334  52.3555013 118.8848314  97.8656526  52.3141632
 118.1318004  98.7576229  53.2781194 116.8877629  95.4928552  54.1750653
 116.3514986  95.0419290  54.8272249 116.2994338  95.6274460  53.4321117
 116.2979888  94.9517203  36.7377116 115.4209355  94.8306004  36.3739363
 116.7737641  94.1603281  36.4856005 107.8182028  99.7394363  46.8318624
 108.5053068  99.4256093  46.2439639 107.6630157 100.6435727  46.5585875
 112.6216751  94.6284559  51.2603647 112.5374939  94.0210229  50.5254057
 111.7999457  95.1193578  51.2613144 119.3775433  95.2555506  46.3545527
 119.0073221  94.7026546  47.0426433 119.8734526  94.6513639  45.8020527
 117.2064632 105.7153001  53.4500545 117.9074091 106.3489484  53.6029939
 116.7359747 106.0567732  52.6896184 112.8032350 105.2489356  50.3831648
 113.3885787 104.5033044  50.5159552 112.6057188 105.5593313  51.2668312
 107.3950005  97.8194956  49.1036091 107.4334104  97.2858547  49.8973209
 106.8890297  97.2930162  48.4847068 114.7740767  92.6659497  52.5998633
 114.8382093  93.5274327  52.1876031 114.7107887  92.0533498  51.8670992
 114.2493039  94.7382629  56.2471667 114.8765078  94.3559706  56.8609192
 113.3920958  94.5196831  56.6127360 111.0258582  96.5459058  42.1790022
 111.3212023  95.6369737  42.1257076 110.1246618  96.5246798  41.8571024
 114.5552829  94.6215055  48.1617571 113.8339415  95.2351023  48.0225044
 115.3446085  95.1572820  48.0834217 117.3579143  91.9569481  54.4358223
 117.8813544  92.2031778  55.1984532 117.1391476  92.7889516  54.0161360
 112.7546424  94.2273156  42.3029347 112.4259130  93.3470535  42.1204453
 113.1085794  94.1720825  43.1905737 115.8688247  94.5146126  42.6704825
 116.2084319  95.0432047  41.9483433 116.3160367  94.8526532  43.4463392
 118.5631688  92.8983176  52.1207893 118.2228508  92.0990989  52.5228573
 117.8570694  93.1984887  51.5484726 119.2148160  89.9832489  50.5735216
 120.0374229  89.5092967  50.4514106 119.4586223  90.7622973  51.0733902
 117.8556394  93.0120747  40.8698118 118.5764757  93.3902000  40.3661835
 117.2321698  93.7309624  40.9733096 116.7386738  96.6751609  48.3827195
 116.5931319  96.9891913  49.2751476 116.2611942  97.2936510  47.8298093
 118.5983121  93.6654157  48.4308084 118.5844690  92.7695251  48.0940382
 119.3155549  93.6724821  49.0646370 120.4509252  94.0991498  50.4761212
 120.1927030  95.0208568  50.4745542 119.9194292  93.7021932  51.1661676
 111.2132400  99.2156954  51.3214856 110.6685869  99.9916762  51.4535130
 112.0911750  99.5627758  51.1633977 118.0020017  92.5468538  43.6995654
 118.1235928  91.6185184  43.8986542 117.7122059  92.5607224  42.7873970
 120.8711207  90.2323448  46.8362374 120.8932904  90.2962781  45.8814354
 121.2879266  89.3927957  47.0302880 111.9998422  98.3426850  54.2145013
 111.2580158  98.4909485  54.8009643 111.6791167  98.6035116  53.3511762
 112.4455036 106.2292279  46.2455407 113.2713056 105.9296051  45.8654051
 112.0949088 105.4599901  46.6945196 117.4136569 105.5818747  48.3153081
 116.7916578 104.9189452  48.0155309 118.0841436 105.6079879  47.6326729
 110.6463641 104.1478605  47.2044341 109.8095549 103.7200780  47.0228342
 110.6187286 104.3411049  48.1415132 117.4861097  94.0600535  57.9085587
 117.5349252  94.9362658  57.5263357 118.0283611  93.5177928  57.3357230
 116.9750076 104.1322670  41.7911541 117.1238196 104.8158135  41.1378214
 117.7816520 104.1127760  42.3060997 119.7160385  94.8131908  54.6631946
 118.8463694  95.1065474  54.3914534 119.9519865  95.3972353  55.3839209
 114.7302709 100.1587848  42.7972610 114.4848751  99.2550178  42.9952821
 114.8998624 100.1604999  41.8552088 113.9998357  95.8916206  40.2958772
 113.3067602  95.9660561  39.6398808 113.7550108  95.1276549  40.8180289
 119.0435197  95.8881590  36.5394227 118.1366653  95.5914703  36.6156940
 119.3211178  95.5911408  35.6728513 109.9613138  97.2087953  46.9893273
 109.6415922  96.3553262  46.6967647 109.4146566  97.4236532  47.7451240
 113.7393045  99.9250394  50.7062780 113.9579055 100.8567502  50.7250813
 114.1518819  99.5658369  51.4917583 120.6597263  90.4318480  42.6938468
 119.8497991  90.0865565  43.0693714 121.3481680  90.1226023  43.2826079
 118.6120910  95.4983600  60.0965528 118.5117637  96.4477957  60.0277620
 118.3942453  95.1701839  59.2241599 117.8133982  92.7468525  36.6806206
 118.6753146  93.0723424  36.9402023 117.9984326  91.9600021  36.1679272
 109.8301398 100.8290865  48.9586395 109.1364869 100.4144818  48.4456349
 110.5774389 100.8711401  48.3619814 118.4752181  98.9280739  58.9130590
 117.9919262  99.7281099  59.1194479 118.5613120  98.9388684  57.9598034
 111.7438140 100.7609119  46.8352409 111.7208828 100.8596806  45.8834293
 112.0538777 101.6074269  47.1569576 114.4025518 102.8185274  50.9499024
 115.3568772 102.7869216  50.8828955 114.2038042 102.3575897  51.7649250
 114.9924900 101.3886390  53.5169822 115.8117789 101.8830468  53.5404659
 115.2661708 100.4718358  53.4887389 112.7575747 108.3604893  47.9669222
 112.6230215 107.6005294  47.4007220 112.3407809 109.0845793  47.4998011
 110.2459814  95.7224524  54.2162019 110.8918678  95.2123478  54.7049244
 110.0376966  96.4593205  54.7905444 118.7663425  89.9864568  39.9685915
 118.7542095  90.9306408  40.1254186 119.6586847  89.8034714  39.6745376
 114.5857305  92.8692141  58.3137033 115.4488767  92.5128946  58.5240357
 114.0122716  92.5306036  59.0012437  52.5076817  -5.4582177  30.6492416
  52.4300847  -4.5074351  30.7280897  51.9038461  -5.8036304  31.3067342
  50.1463647  -2.7096783  34.7940618  50.3860245  -2.0778258  35.4719637
  49.3032844  -3.0608743  35.0805977  50.6208479  -6.6848780  32.1239397
  49.9518855  -6.2002653  31.6403437  50.4821349  -6.4379560  33.0382775
  54.7613748  -4.6505037  38.7222055  55.3132056  -4.4873415  39.4871140
  55.1019941  -4.0600599  38.0502080  47.7213221  -6.6084490  34.6914528
  47.5867689  -7.3684089  34.1252526  47.3045283  -5.8843590  34.2243317
  50.8782347  -5.7115173  34.9032971  50.7614731  -4.7669741  34.8011661
  50.0574793  -6.0141612  35.2918770  51.9036861  -5.0586911  38.1188899
  52.8064108  -5.0263301  38.4355394  51.6774231  -5.9886460  38.1335235
  66.2032863  -0.5167958  35.7806265  65.8651374  -0.6326894  34.8926800
  67.0722631  -0.9176793  35.7607271  62.0619679   1.3367518  31.7703156
  61.4984544   1.2457455  31.0019444  61.9472074   0.5167423  32.2505649
  66.6852646   0.6366893  41.7392471  66.6741287   0.2419692  40.8672974
  66.8473285  -0.0967034  42.3326242  59.6084111   2.8318710  34.6087377
  60.4005402   2.4909534  34.1933676  59.8480761   2.9413685  35.5289530
  67.6419237   5.0038486  27.0817621  66.9907217   5.5892566  26.6951635
  68.4363600   5.5344681  27.1412659  61.5674864   2.0927623  27.4804755
  62.3405740   1.5456610  27.3417631  61.9200263   2.9571872  27.6919217
  63.4059907   3.4204005  40.6871655  63.1149773   4.3249636  40.5718321
  64.0416891   3.4620533  41.4015724  64.3316114   0.7980854  37.2773014
  64.9279686   0.5736876  36.5629977  64.3891085   0.0565599  37.8798462
  69.1194502   2.6928918  27.6186605  68.4840335   2.7663544  28.3307510
  68.7891909   3.2822517  26.9405685  63.6237431   0.1548395  27.3147580
  63.5073689  -0.5206702  27.9828665  63.7339691  -0.3319231  26.4979733
  65.9668972  -0.3841458  31.0194270  65.6027179  -0.9110837  31.7307191
  66.8236088  -0.7742989  30.8460755  68.3649792   3.1065421  37.6821448
  68.0650515   4.0090460  37.5737256  68.0200852   2.8397604  38.5342601
  61.8162274  -0.4420782  33.7158153  60.8912770  -0.5744568  33.9235845
  62.0646687   0.3373437  34.2128095  59.1771085  -0.7987509  34.5501942
  59.3063466  -0.5453030  35.4641354  58.4968536  -0.2059801  34.2306597
  63.3470572   9.8709741  30.6492416  63.2694602  10.8217566  30.7280897
  62.7432216   9.5255614  31.3067342  64.0934174  -0.1476940  42.8671750
  64.8348858   0.3908104  42.5906574  63.3871159   0.4789349  43.0243302
  69.5689514   1.9952200  41.4643911  69.9772870   1.5534611  40.7198544
  68.8466775   1.4204828  41.7178104  69.8918328   2.5553391  35.2196200
  69.2627191   2.7199105  34.5172268  69.5043990   2.9695001  35.9907164
  73.7707560   3.4907829  32.5740564  73.0858598   3.8706730  32.0237597
  73.8551410   4.1003155  33.3072512  71.0258492   1.1367788  39.1735908
  71.2375387   1.7799548  38.4970289  70.9788240   0.3030104  38.7057838
  65.4446290   2.2927799  32.4846285  65.9084636   2.5715502  31.6950908
  65.1803088   1.3911244  32.3019376  62.3370371   1.8399281  35.4226049
  62.9071728   2.2686549  34.7843533  62.9278483   1.5581865  36.1210234
  58.1240510  -3.3265496  34.5952984  57.3339564  -3.0707967  34.1193095
  58.6151758  -2.5117158  34.7005025  72.1404320   4.0139743  37.3458265
  72.9621763   3.6119931  37.0640947  72.1366723   3.9107977  38.2974381
  60.0755256  -2.9620917  31.5536461  59.2786419  -2.8502222  32.0719957
  59.8480848  -2.6234264  30.6877351  65.9060923   3.5623787  39.5018975
  65.9705356   4.0244194  40.3377147  65.1971847   2.9321151  39.6301285
  56.4078213  -3.0735005  37.0267975  56.6586252  -2.1887996  37.2925551
  56.9437762  -3.2530404  36.2543067  65.6208941   5.2291894  29.3697956
  65.4854616   6.0743430  29.7982804  66.1618753   5.4311172  28.6063890
  59.0738338   2.7467332  29.9425881  59.5862859   3.5410582  30.0931446
  59.7261051   2.0493623  29.8759482  60.8833223   5.8633088  32.0248634
  61.0599851   6.7851053  31.8369618  61.6790056   5.5491508  32.4543014
  60.1685579  -2.0902280  41.9010797  60.0539095  -2.9917023  42.2017896
  59.3130097  -1.8438583  41.5495614  67.2477417   5.8515461  43.4998298
  66.8041271   5.0651839  43.1819202  67.9094631   6.0394611  42.8342189
  62.0064538   7.3811262  38.0258976  62.5571964   7.2528326  37.2535970
  61.1676014   7.6806151  37.6753869  69.3458655   6.1318260  41.5279699
  69.3277131   6.9527142  41.0359968  70.2678575   6.0072336  41.7529840
  65.8031709   3.6462390  42.3703208  66.3360046   2.8850678  42.1402516
  65.2745791   3.3536042  43.1127362  57.0387255   1.0755986  30.7185451
  57.8762477   1.4852995  30.5019159  57.2165523   0.1355429  30.6885645
  67.1684422   2.7748382  29.8822020  66.6405784   2.0401142  29.5695257
  66.6671925   3.5523059  29.6361988  72.1477268   0.9697403  34.9989066
  71.4900943   1.6596664  35.0869194  72.9517667   1.3593835  35.3423052
  65.3137022   0.5928593  22.8856993  64.4064084   0.3617846  23.0848142
  65.8108054  -0.2033788  23.0730974  68.2205101   9.3026100  25.8053679
  67.5466800   9.6057797  26.4138637  68.6070923  10.1055180  25.4559136
  66.4925256   0.6941188  27.4080983  65.5836475   0.4100220  27.5053452
  66.5220340   1.1140266  26.5484290  71.7244523   4.3047777  31.1772150
  71.2706850   3.4638687  31.2337341  71.0938490   4.9409175  31.5146930
  70.1677462   6.1424274  32.1121968  70.4600437   6.7029331  31.3934334
  70.6776083   6.4352835  32.8675127  57.0613426  -1.5853298  31.3896185
  56.8637826  -2.1783938  30.6647251  56.5060090  -1.8901088  32.1072124
  66.1901344   2.2349931  24.7469061  65.7520774   1.5185790  24.2874699
  66.9311784   2.4626046  24.1854153  65.1311088   6.9204625  33.2015422
  65.0887266   7.1465471  32.2723954  66.0473786   6.6867999  33.3501223
  74.3343838   2.5783655  35.8156651  74.7680345   2.4858944  36.6639705
  75.0475419   2.5541156  35.1776667  63.2476888   3.7967654  32.9977384
  64.0417487   3.3017974  32.7959959  62.5368581   3.2685517  32.6345090
  68.0671733   6.1785749  37.3489752  68.1208755   6.7476686  38.1167468
  67.1986514   6.3487634  36.9843789  59.5559652  -2.0589264  29.0737137
  58.6257240  -2.1204809  29.2907099  59.6517124  -2.5813312  28.2773778
  75.1959388   2.6207356  38.3489537  75.3895278   3.5253166  38.5948812
  75.0960006   2.1614775  39.1828122  70.2574496   2.7714099  43.9230417
  70.1060003   2.5424650  43.0060501  70.2479176   3.7284700  43.9361762
  67.0259833   0.3446011  38.9076684  67.9551893   0.4957171  38.7345651
  66.6050863   0.4330032  38.0525330  65.8248164   4.3696676  36.6775221
  65.6859250   4.0015460  37.5501160  65.0362761   4.8844315  36.5059179
  66.4196316   9.4705772  28.0200758  66.5948072   8.9993816  28.8346381
  65.7329104  10.0971539  28.2482019  67.3753380   3.7478279  34.0664059
  67.0403212   3.7079049  34.9621709  66.8757325   3.0822994  33.5934469
  61.3497624  -0.8454091  39.5916640  61.2117421  -1.5773853  40.1928179
  62.2602547  -0.9345191  39.3100828  70.3112571   1.0934313  24.3401119
  69.6941742   0.3681141  24.2434172  69.8429060   1.8543673  23.9968193
  63.9779924  -1.1334132  39.0800320  64.6879543  -1.7740940  39.0386938
  63.9349232  -0.8821237  40.0026501  71.9666703   5.8033221  42.0006899
  71.9079249   5.1192441  41.3337482  72.3686221   6.5452211  41.5487525
  60.9857402  12.6195135  34.7940618  61.2254000  13.2513659  35.4719637
  60.1426598  12.2683175  35.0805977  71.9684110   3.7672805  40.2320879
  71.0810889   3.4298727  40.3547278  72.5382661   3.0355836  40.4689644
  53.6213257   0.0996897  33.5563930  54.3084297  -0.2141373  32.9684946
  53.4661386   1.0038262  33.2831182  65.4985264   8.4274258  37.1982122
  65.4255435   9.2329229  37.7101427  65.0562657   8.6266223  36.3730143
  65.2875043   7.6646028  30.7084944  64.5042565   8.2067708  30.8023168
  65.9867788   8.1820007  31.1079185  67.9583947   8.3261092  39.3540281
  68.6711919   8.9608556  39.2816182  67.4673976   8.4224958  38.5380283
  69.6801474   2.2312344  30.9257572  68.7457753   2.3513807  30.7562277
  69.8578142   1.3284811  30.6617582  63.0095861   6.0755535  40.1745852
  63.7105320   6.7092018  40.3275246  62.5390976   6.4170267  39.4141491
  71.1350256   4.4173485  28.4593759  71.4110100   4.3030079  29.3687633
  70.2654755   4.0190970  28.4205932  67.7704320   8.6659836  32.1026572
  67.9526715   7.8481492  32.5654325  68.5937306   8.8827528  31.6651462
  68.1046486   7.5928021  29.3641621  68.6334252   7.0820475  28.7511783
  68.3674705   7.2770551  30.2287154  66.8584720  -0.6280046  44.4864439
  66.1825357  -0.7285917  45.1566814  67.6812353  -0.7840833  44.9500436
  58.6063579   5.6091890  37.1076954  59.1917015   4.8635578  37.2404858
  58.4088417   5.9195847  37.9913618  61.4602234   8.6443137  32.1239397
  60.7912609   9.1289265  31.6403437  61.3215104   8.8912358  33.0382775
  53.1981233  -1.8202510  35.8281397  53.2365333  -2.3538919  36.6218515
  52.6921526  -2.3467304  35.2092375  65.6007502  10.6786881  38.7222055
  66.1525810  10.8418502  39.4871140  65.9413696  11.2691319  38.0502080
  70.4518377   5.5048138  44.5770709  70.9958281   6.1178097  44.0825664
  69.8705222   6.0627717  45.0937722  56.8289811  -3.0938408  28.9035329
  57.1243252  -4.0027729  28.8502382  55.9277847  -3.1150668  28.5816331
  68.7375890   8.6268857  35.7085737  68.6127029   7.8258596  35.1996683
  69.3954981   9.1215050  35.2199707  70.8010798   6.4277877  37.3365287
  69.8541134   6.3083228  37.2643614  71.1493571   5.5400375  37.4191549
  67.8057231   6.2230593  33.5369639  67.6582194   5.2947300  33.7177210
  68.6310725   6.2450684  33.0526715  71.4091353   7.0459152  34.6234512
  72.3337901   6.8402013  34.4858963  71.2406657   6.7975553  35.5323854
  71.1986669   7.5644819  29.9796604  71.3723547   6.9991241  29.2270456
  71.6915561   8.3645714  29.7976094  57.0163629  -0.4240512  38.0460162
  56.4717097   0.3519296  38.1780437  57.8942979  -0.0769707  37.8879284
  72.1861842   6.8811583  27.0793502  72.8812747   7.5018276  27.2980817
  72.5284992   6.0306935  27.3545880  57.8029651  -1.2970616  40.9390319
  57.0611387  -1.1487980  41.5254950  57.4822395  -1.0362350  40.0757069
  74.0853265   4.3311289  28.6080833  74.6104589   4.6698562  27.8830153
  73.9975618   3.3958304  28.4243967  65.7473314   8.2445363  40.7370709
  66.0560440   7.9994509  41.6093409  66.5448796   8.4492001  40.2489580
  65.7693926  10.3983272  32.9676086  65.3298916   9.9059651  33.6608943
  66.5202043   9.8556240  32.7268161  58.2486265   6.5894813  32.9700714
  59.0744285   6.2898585  32.5899358  57.8980317   5.8202436  33.4190503
  63.2167798   5.9421281  35.0398388  62.5947807   5.2791986  34.7400615
  63.8872665   5.9682413  34.3572035  56.4494870   4.5081140  33.9289648
  55.6126778   4.0803314  33.7473649  56.4218515   4.7013583  34.8660439
  73.7747171   4.9644193  43.9132031  72.9842715   4.9468331  43.3736530
  73.5380526   5.5032486  44.6681067  62.7781305   4.4925205  28.5156848
  62.9269425   5.1760669  27.8623521  63.5847748   4.4730295  29.0306304
  75.3963243   4.2333600  41.4706781  75.1048051   4.5963581  42.3070242
  74.7835374   3.5200609  41.2920113  60.5333938   0.5190382  29.5217917
  60.2879980  -0.3847288  29.7198127  60.7029852   0.5207533  28.5797395
  66.2776710   6.9873335  25.9868596  65.7050677   7.6063522  25.5339067
  66.8509504   7.5372697  26.5208517  69.4973970   7.2710485  27.1177178
  70.4304643   7.2056047  27.3210053  69.4097183   8.1066752  26.6591710
  72.1261987   6.5876356  24.0781125  72.0475618   6.2536219  24.9716883
  72.9471654   7.0798123  24.0772598  66.5462201   2.3751894  44.7885305
  67.4665211   2.5530493  44.9825352  66.5111784   1.4307939  44.6365004
  55.7644366  -2.4309512  33.7138580  55.4447151  -3.2844204  33.4212954
  55.2177795  -2.2160934  34.4696547  59.5424274   0.2852929  37.4308086
  59.7610284   1.2170036  37.4496120  59.9550048  -0.0739097  38.2162890
  55.6332626   1.1893399  35.6831701  54.9396098   0.7747352  35.1701656
  56.3805617   1.2313936  35.0865120  64.2783409  -0.7116727  45.6375897
  63.7950491   0.0883633  45.8439786  64.3644348  -0.7008782  44.6843341
  57.5469369   1.1211653  33.5597716  57.5240057   1.2199340  32.6079599
  57.8570005   1.9676804  33.8814882  60.2056747   3.1787808  37.6744331
  61.1600000   3.1471750  37.6074262  60.0069270   2.7178432  38.4894556
  60.7956129   1.7488924  40.2415128  61.6149018   2.2433003  40.2649965
  61.0692937   0.8320892  40.2132696  58.5606976   8.7207427  34.6914528
  58.4261444   7.9607828  34.1252526  58.1439038   9.4448327  34.2243317
  69.6965939   3.9044351  23.6991104  70.4001789   4.1094353  24.3148759
  68.9728587   4.4721113  23.9640187  61.7176101   9.6176744  34.9032971
  61.6008486  10.5622177  34.8011661  60.8968548   9.3150306  35.2918770
  71.6052636   4.3426880  25.7489564  72.4398240   3.9108079  25.5667039
  71.4436979   4.1708894  26.6766458  71.2598528   0.8458993  27.1145903
  71.2047332   0.6803265  26.1734347  70.6344583   1.5535026  27.2708093
  56.0491043  -3.9172942  40.9407325  56.6949907  -4.4273988  41.4294550
  55.8408194  -3.1804261  41.5150751  68.5744435   3.1507905  46.4399466
  69.4435595   3.3248558  46.0786101  68.0951187   3.9702322  46.3175195
  62.7430616  10.2705006  38.1188899  63.6457862  10.3028617  38.4355394
  62.5167986   9.3405457  38.1335235  64.4984218   9.0235993  34.7798978
  63.5479849   9.0237854  34.6663350  64.8016704   8.2768727  34.2635013
  80.2336911  14.8596531  35.8444741  80.8715321  14.7403279  35.1408081
  80.1157754  15.8077375  35.9032693  77.0426617  14.8123959  35.7806265
  76.7045129  14.6965024  34.8926800  77.9116386  14.4115124  35.7607271
  72.9013433  16.6659436  31.7703156  72.3378298  16.5749373  31.0019444
  72.7865828  15.8459340  32.2505649  77.5246400  15.9658811  41.7392471
  77.5135041  15.5711609  40.8672974  77.6867040  15.2324884  42.3326242
  70.4477865  18.1610627  34.6087377  71.2399157  17.8201452  34.1933676
  70.6874515  18.2705602  35.5289530  78.4812992  20.3330403  27.0817621
  77.8300972  20.9184484  26.6951635  79.2757355  20.8636598  27.1412659
  72.4068619  17.4219541  27.4804755  73.1799495  16.8748528  27.3417631
  72.7594018  18.2863790  27.6919217  74.2453662  18.7495923  40.6871655
  73.9543528  19.6541554  40.5718321  74.8810646  18.7912451  41.4015724
  75.1709868  16.1272771  37.2773014  75.7673441  15.9028794  36.5629977
  75.2284840  15.3857517  37.8798462  74.7434897  13.5812207  25.1123205
  74.9960417  13.0593728  24.3506668  73.8059456  13.4178352  25.2149889
  79.7878180  12.5847985  32.9197949  80.5741269  12.1667408  32.5688366
  80.0516884  13.4894077  33.0879597  79.9588257  18.0220835  27.6186605
  79.3234090  18.0955462  28.3307510  79.6285663  18.6114434  26.9405685
  85.1886607  12.5223218  33.8230927  85.9211779  11.9522435  34.0568757
  84.4325962  12.1344819  34.2637433  74.4631186  15.4840313  27.3147580
  74.3467444  14.8085216  27.9828665  74.5733445  14.9972687  26.4979733
  76.8062726  14.9450460  31.0194270  76.4420934  14.4181081  31.7307191
  77.6629842  14.5548929  30.8460755  82.7112027   6.2344792  38.2825536
  82.3795352   7.1040203  38.0586751  82.1157640   5.9181076  38.9619566
  76.4468213   9.9740360  26.0155618  76.6142616  10.8420596  26.3826089
  76.2565383  10.1367641  25.0916907  79.2043547  18.4357338  37.6821448
  78.9044270  19.3382377  37.5737256  78.8594606  18.1689522  38.5342601
  72.6556028  14.8871135  33.7158153  71.7306525  14.7547349  33.9235845
  72.9040441  15.6665355  34.2128095  82.6040690  10.9539879  35.3618886
  81.6957568  10.8855287  35.0677647  82.5528286  11.4311824  36.1900711
  76.4257434  12.4298017  27.0002285  76.3057060  12.8755068  27.8387765
  75.7310023  12.7783335  26.4415823  70.0164839  14.5304409  34.5501942
  70.1457220  14.7838888  35.4641354  69.3362290  15.1232117  34.2306597
  74.1864326  25.2001659  30.6492416  74.1088356  26.1509484  30.7280897
  73.5825970  24.8547531  31.3067342  76.6781556  12.3729524  43.3053783
  75.9014890  12.9323444  43.2956648  77.3172119  12.8586307  43.8268653
  84.4702337   9.1556317  37.1396760  83.8276717   9.4488850  36.4936554
  83.9657265   9.0409237  37.9449956  82.1242500  12.9019490  27.8282619
  83.0360357  13.1346877  27.6530316  81.6152148  13.4856534  27.2657698
  74.9327928  15.1814978  42.8671750  75.6742613  15.7200022  42.5906574
  74.2264914  15.8081266  43.0243302  80.4083268  17.3244118  41.4643911
  80.8166624  16.8826529  40.7198544  79.6860530  16.7496746  41.7178104
  76.7614338  12.2616725  38.8377468  77.6075533  12.6856138  38.9812117
  76.7012976  11.6050349  39.5316032  80.7312083  17.8845309  35.2196200
  80.1020945  18.0491023  34.5172268  80.3437745  18.2986918  35.9907164
  84.6101315  18.8199746  32.5740564  83.9252353  19.1998648  32.0237597
  84.6945164  19.4295073  33.3072512  79.9113784   9.9221093  40.4958642
  79.6674715  10.6763154  39.9592918  80.1873714  10.3006441  41.3305889
  81.8652246  16.4659706  39.1735908  82.0769142  17.1091465  38.4970289
  81.8181995  15.6322022  38.7057838  79.4678475   9.0777526  36.0772480
  78.6062954   9.3758780  36.3689217  79.4940910   9.2947925  35.1453512
  76.2840045  17.6219717  32.4846285  76.7478390  17.9007420  31.6950908
  76.0196843  16.7203161  32.3019376  73.1764126  17.1691198  35.4226049
  73.7465483  17.5978467  34.7843533  73.7672238  16.8873783  36.1210234
  75.2208931  13.7442869  29.2935851  75.9232974  14.1963913  29.7609777
  74.8889559  13.1026688  29.9215744  73.6689292  12.3354626  43.6687060
  73.0387953  13.0170907  43.9022457  73.5625380  12.2237707  42.7240198
  68.9634265  12.0026422  34.5952984  68.1733319  12.2583950  34.1193095
  69.4545512  12.8174760  34.7005025  82.9798074  19.3431661  37.3458265
  83.8015518  18.9411848  37.0640947  82.9760477  19.2399895  38.2974381
  70.9149010  12.3671001  31.5536461  70.1180173  12.4789695  32.0719957
  70.6874602  12.7057653  30.6877351  76.7454678  18.8915704  39.5018975
  76.8099110  19.3536111  40.3377147  76.0365602  18.2613069  39.6301285
  67.2471968  12.2556912  37.0267975  67.4980006  13.1403922  37.2925551
  67.7831516  12.0761514  36.2543067  91.0704067  15.6870409  33.6943236
  90.3167776  15.1177807  33.5387241  91.2051608  15.6533074  34.6413871
  76.4602695  20.5583812  29.3697956  76.3248370  21.4035347  29.7982804
  77.0012508  20.7603089  28.6063890  72.9470035   6.6375392  46.0312311
  72.5536981   6.0841590  46.7059955  73.7636175   6.9485970  46.4218829
  69.9132093  18.0759250  29.9425881  70.4256613  18.8702500  30.0931446
  70.5654806  17.3785540  29.8759482  71.7226977  21.1925006  32.0248634
  71.8993606  22.1142971  31.8369618  72.5183811  20.8783425  32.4543014
  75.8637996   8.0533271  43.6232568  76.6047709   8.6540424  43.5437030
  76.0955919   7.3110908  43.0650610  71.0079334  13.2389638  41.9010797
  70.8932849  12.3374895  42.2017896  70.1523852  13.4853335  41.5495614
  78.0871172  21.1807378  43.4998298  77.6435026  20.3943757  43.1819202
  78.7488385  21.3686529  42.8342189  72.8458293  22.7103180  38.0258976
  73.3965718  22.5820243  37.2535970  72.0069769  23.0098069  37.6753869
  80.1852410  21.4610178  41.5279699  80.1670885  22.2819059  41.0359968
  81.1072330  21.3364253  41.7529840  76.6425464  18.9754308  42.3703208
  77.1753801  18.2142596  42.1402516  76.1139545  18.6827959  43.1127362
  79.8095159   4.0814374  37.8996849  79.4659428   4.9716015  37.8235960
  80.1774122   3.8916031  37.0366434  67.8781010  16.4047904  30.7185451
  68.7156232  16.8144912  30.5019159  68.0559277  15.4647346  30.6885645
  79.7745442  14.0722985  26.4069284  79.2592065  14.8427589  26.6457672
  79.5022750  13.3988121  27.0302346  77.3592553   8.9172685  31.4654523
  76.5034149   8.5279536  31.2860161  77.7719504   8.9964646  30.6054308
  78.8891699   6.4519029  35.8646083  78.3856495   6.4149164  35.0513888
  79.1822306   7.3611771  35.9242739  75.1334585   6.5357758  34.8712264
  75.9987582   6.3400567  34.5118154  75.2012094   6.3068110  35.7981621
  84.7479716  16.8255339  28.3422458  83.9709159  16.4866499  27.8977620
  85.4271197  16.8307963  27.6677423  79.5631745  11.9450077  28.2329066
  79.2581880  12.2596226  29.0839209  80.5162187  12.0231497  28.2756399
  78.0078177  18.1040300  29.8822020  77.4799538  17.3693060  29.5695257
  77.5065679  18.8814976  29.6361988  82.9871023  16.2989321  34.9989066
  82.3294697  16.9888582  35.0869194  83.7911422  16.6885753  35.3423052
  72.7396904   8.7659966  32.2428631  73.3140656   8.5435148  31.5101824
  73.3267887   8.8348661  32.9957232  81.7976481  14.6533693  33.0493008
  82.3108363  15.2863685  33.5514717  82.4477705  14.0534889  32.6836368
  73.0666491  10.7964427  26.2624516  72.2303804  11.1339114  26.5833791
  72.9271261  10.6613407  25.3251653  75.0419572   5.6401215  30.9703701
  74.3883984   5.3250232  30.3460315  75.0000046   5.0176956  31.6963523
  76.1530777  15.9220510  22.8856993  75.2457839  15.6909764  23.0848142
  76.6501809  15.1258130  23.0730974  79.0598856  24.6318018  25.8053679
  78.3860554  24.9349714  26.4138637  79.4464678  25.4347098  25.4559136
  78.2757312  12.1283149  35.2951348  77.3579874  12.3498096  35.1373036
  78.6917456  12.2029459  34.4363055  79.0592360  13.5274565  30.4254028
  79.8064179  14.0395962  30.1161150  79.3283950  13.2058617  31.2858422
  77.3319010  16.0233105  27.4080983  76.4230230  15.7392138  27.5053452
  77.3614094  16.4432184  26.5484290  82.5638278  19.6339695  31.1772150
  82.1100605  18.7930605  31.2337341  81.9332244  20.2701093  31.5146930
  81.5071197  10.5631681  32.4072818  80.7693954  10.0509067  32.7383060
  81.7597971  10.1232062  31.5956095  81.0071217  21.4716191  32.1121968
  81.2994191  22.0321249  31.3934334  81.5169837  21.7644752  32.8675127
  67.9007181  13.7438619  31.3896185  67.7031580  13.1507980  30.6647251
  67.3453845  13.4390830  32.1072124  75.8803904  13.6361726  33.5090778
  75.9352514  12.6835562  33.4333255  75.0695106  13.7921165  33.9932076
  77.0295098  17.5641849  24.7469061  76.5914528  16.8477708  24.2874699
  77.7705539  17.7917964  24.1854153  73.8196264  12.2538786  31.2681157
  73.0064130  12.5532956  31.6746349  74.3155258  11.8594474  31.9855639
  75.9704842  22.2496543  33.2015422  75.9281021  22.4757389  32.2723954
  76.8867541  22.0159917  33.3501223  79.4170476  12.7180610  40.0996051
  79.7719864  12.9452083  40.9590517  80.0642607  13.0498987  39.4773306
  85.1468213  15.8399046  30.8045380  85.0086111  16.0300642  29.8766569
  84.7904432  16.6018429  31.2613431  73.3110339   9.8257141  36.8842392
  73.9509718   9.6845900  36.1865355  72.4787870   9.5391655  36.5080994
  85.1737592  17.9075573  35.8156651  85.6074099  17.8150862  36.6639705
  85.8869173  17.8833073  35.1776667  74.0870643  19.1259572  32.9977384
  74.8811241  18.6309892  32.7959959  73.3762335  18.5977435  32.6345090
  78.9065487  21.5077667  37.3489752  78.9602510  22.0768603  38.1167468
  78.0380269  21.6779552  36.9843789  70.3953406  13.2702653  29.0737137
  69.4650994  13.2087109  29.2907099  70.4910878  12.7478606  28.2773778
  70.3138955   9.7957466  31.6615379  70.5745773  10.7102799  31.5524539
  71.1356128   9.3281909  31.8111991  71.7863881  11.2095223  38.8314203
  72.4586934  11.0012585  38.1826852  70.9593667  11.0117309  38.3919435
  86.0353142  17.9499274  38.3489537  86.2289032  18.8545084  38.5948812
  85.9353760  17.4906693  39.1828122  77.6889453   7.8357164  40.8479864
  77.0417368   8.5347114  40.7544340  78.4590468   8.2693308  41.2156112
  81.0968251  18.1006016  43.9230417  80.9453757  17.8716568  43.0060501
  81.0872930  19.0576618  43.9361762  77.8653587  15.6737929  38.9076684
  78.7945647  15.8249089  38.7345651  77.4444617  15.7621950  38.0525330
  76.6641919  19.6988594  36.6775221  76.5253005  19.3307378  37.5501160
  75.8756515  20.2136233  36.5059179  77.2590071  24.7997690  28.0200758
  77.4341827  24.3285733  28.8346381  76.5722859  25.4263456  28.2482019
  78.2147134  19.0770196  34.0664059  77.8796967  19.0370966  34.9621709
  77.7151080  18.4114912  33.5934469  72.1891378  14.4837826  39.5916640
  72.0511176  13.7518065  40.1928179  73.0996301  14.3946726  39.3100828
  81.1506326  16.4226231  24.3401119  80.5335496  15.6973059  24.2434172
  80.6822814  17.1835591  23.9968193  74.8173679  14.1957786  39.0800320
  75.5273297  13.5550978  39.0386938  74.7742987  14.4470680  40.0026501
  73.5302613  11.1823003  40.8995959  72.9939970  10.7313742  41.5517556
  72.9419321  11.3168912  40.1566424  71.8251156  27.9487053  34.7940618
  72.0647754  28.5805577  35.4719637  70.9820353  27.5975093  35.0805977
  72.9404872  10.6411655  23.4622423  72.0634338  10.5200456  23.0984670
  73.4162625   9.8497733  23.2101312  82.8077865  19.0964723  40.2320879
  81.9204643  18.7590645  40.3547278  83.3776416  18.3647754  40.4689644
  64.4607012  15.4288815  33.5563930  65.1478052  15.1150545  32.9684946
  64.3055140  16.3330179  33.2831182  69.2641734  10.3179011  37.9848954
  69.1799923   9.7104681  37.2499364  68.4424440  10.8088029  37.9858450
  76.3379018  23.7566175  37.1982122  76.2649189  24.5621147  37.7101427
  75.8956411  23.9558141  36.3730143  76.1268798  22.9937945  30.7084944
  75.3436320  23.5359625  30.8023168  76.8261543  23.5111925  31.1079185
  79.4365448   8.8032575  33.3519149  79.9334147   8.0502537  33.0320219
  78.6652429   8.8396891  32.7862358  87.2895205  14.5072940  34.9937441
  87.2785081  15.3897656  34.6231374  86.4212585  14.1544491  34.7991978
  78.7977702  23.6553009  39.3540281  79.5105674  24.2900474  39.2816182
  78.3067730  23.7516875  38.5380283  80.5195228  17.5604262  30.9257572
  79.5851507  17.6805724  30.7562277  80.6971897  16.6576729  30.6617582
  76.0200416  10.9449958  33.0790834  75.6498204  10.3920998  33.7671739
  76.5159509  10.3408091  32.5265834  83.9067780  13.4021581  31.4607607
  84.3728232  14.2349573  31.3867909  84.3575280  12.9366563  32.1652865
  73.8489615  21.4047453  40.1745852  74.5499075  22.0383936  40.3275246
  73.3784730  21.7462184  39.4141491  81.9744011  19.7465402  28.4593759
  82.2503855  19.6321997  29.3687633  81.1048510  19.3482887  28.4205932
  81.8784443   5.7702168  35.4998508  80.9647522   6.0006395  35.6680715
  82.3077544   5.8540612  36.3512540  81.6490901  13.9592060  37.9998402
  80.9962351  14.2067968  37.3450855  82.0271281  13.1456198  37.6660879
  78.6098075  23.9951753  32.1026572  78.7920469  23.1773409  32.5654325
  79.4331061  24.2119446  31.6651462  78.9440240  22.9219938  29.3641621
  79.4728007  22.4112393  28.7511783  79.2068460  22.6062469  30.2287154
  77.6978474  14.7011871  44.4864439  77.0219111  14.6006001  45.1566814
  78.5206108  14.5451085  44.9500436  69.4457333  20.9383808  37.1076954
  70.0310770  20.1927496  37.2404858  69.2482172  21.2487764  37.9913618
  72.2995988  23.9735055  32.1239397  71.6306364  24.4581183  31.6403437
  72.1608858  24.2204276  33.0382775  64.0374988  13.5089408  35.8281397
  64.0759087  12.9752999  36.6218515  63.5315281  12.9824613  35.2092375
  71.4165750   8.3553948  39.3243940  71.4807077   9.2168779  38.9121337
  71.3532870   7.7427950  38.5916298  70.8918023  10.4277081  42.9716974
  71.5190061  10.0454158  43.5854498  70.0345942  10.2091283  43.3372666
  67.6683565  12.2353510  28.9035329  67.9637007  11.3264189  28.8502382
  66.7671601  12.2141250  28.5816331  71.1977812  10.3109507  34.8862877
  70.4764398  10.9245474  34.7470351  71.9871068  10.8467272  34.8079523
  74.0004126   7.6463933  41.1603529  74.5238528   7.8926230  41.9229838
  73.7816459   8.4783968  40.7406666  69.3971407   9.9167608  29.0274654
  69.0684113   9.0364987  28.8449760  69.7510778   9.8615276  29.9151043
  78.6450986  21.5522510  33.5369639  78.4975948  20.6239218  33.7177210
  79.4704479  21.5742601  33.0526715  72.5113230  10.2040578  29.3950132
  72.8509303  10.7326499  28.6728740  72.9585351  10.5420984  30.1708698
  75.2056671   8.5877628  38.8453200  74.8653491   7.7885441  39.2473880
  74.4995677   8.8879339  38.2730033  75.8573143   5.6726941  37.2980523
  76.6799212   5.1987419  37.1759413  76.1011206   6.4517424  37.7979209
  74.4981377   8.7015199  27.5943424  75.2189740   9.0796452  27.0907141
  73.8746681   9.4204076  27.6978402  78.6412500   9.4060348  28.5301757
  78.8576115  10.2884986  28.2290585  78.1606567   9.0146562  27.8007399
  73.3811722  12.3646061  35.1072501  73.2356302  12.6786364  35.9996783
  72.9036925  12.9830962  34.5543400  75.2408104   9.3548609  35.1553391
  75.2269673   8.4589703  34.8185689  75.9580533   9.3619273  35.7891677
  77.0934235   9.7885950  37.2006518  76.8352013  10.7103020  37.1990849
  76.5619276   9.3916384  37.8906982  82.0380424  22.8936737  29.9796604
  82.2117301  22.3283159  29.2270456  82.5309315  23.6937632  29.7976094
  67.8557384  14.9051406  38.0460162  67.3110852  15.6811214  38.1780437
  68.7336734  15.2522210  37.8879284  74.6445000   8.2362990  30.4240961
  74.7660912   7.3079636  30.6231848  74.3547043   8.2501676  29.5119276
  77.5136191   5.9217900  33.5607681  77.5357888   5.9857233  32.6059660
  77.9304250   5.0822409  33.7548187  87.8919815  15.6573160  31.5986903
  88.3350961  14.9080485  31.2006027  87.0146325  15.6483296  31.2160635
  83.0255596  22.2103501  27.0793502  83.7206501  22.8310194  27.2980817
  83.3678747  21.3598852  27.3545880  68.6423406  14.0321302  40.9390319
  67.9005142  14.1803937  41.5254950  68.3216150  14.2929568  40.0757069
  84.9247020  19.6603207  28.6080833  85.4498344  19.9990479  27.8830153
  84.8369372  18.7250222  28.4243967  76.6087680  25.7275190  32.9676086
  76.1692671  25.2351569  33.6608943  77.3595797  25.1848158  32.7268161
  69.0880019  21.9186731  32.9700714  69.9138039  21.6190503  32.5899358
  68.7374071  21.1494353  33.4190503  74.0561552  21.2713199  35.0398388
  73.4341562  20.6083904  34.7400615  74.7266419  21.2974331  34.3572035
  67.2888624  19.8373057  33.9289648  66.4520533  19.4095232  33.7473649
  67.2612270  20.0305501  34.8660439  74.1286080   9.7494987  44.6330894
  74.1774235  10.6257110  44.2508663  74.6708594   9.2072380  44.0602537
  84.7338801  17.1428577  41.2264759  84.7836806  16.9778584  42.1680282
  84.6252724  16.2755836  40.8362640  73.6175059  19.8217122  28.5156848
  73.7663180  20.5052587  27.8623521  74.4241503  19.8022212  29.0306304
  82.0242563  13.1259505  42.5424066  82.9252426  12.9865970  42.2508064
  82.0990538  13.2913959  43.4822243  76.3585368  10.5026359  41.3877252
  75.4888678  10.7959925  41.1159841  76.5944849  11.0866804  42.1084516
  86.2356997  19.5625518  41.4706781  85.9441806  19.9255499  42.3070242
  85.6229129  18.8492526  41.2920113  87.4352680  17.1278398  33.9909351
  88.2699571  17.5668202  34.1546911  87.5711809  16.6517051  33.1717597
  84.4844186  14.6858133  39.9386839  84.9598307  14.8785779  39.1305690
  83.5609751  14.7417319  39.6930222  71.3727692  15.8482300  29.5217917
  71.1273734  14.9444630  29.7198127  71.5423607  15.8499450  28.5797395
  79.0624402   6.7205976  38.9042673  79.5806346   7.4567003  38.5789161
  78.7079535   7.0269970  39.7389432  70.6423340  11.5810658  27.0204078
  69.9492585  11.6555013  26.3644114  70.3975092  10.8171001  27.5425595
  77.1170465  22.3165253  25.9868596  76.5444432  22.9355440  25.5339067
  77.6903259  22.8664614  26.5208517  83.1845855  11.5623893  38.1715144
  84.1363278  11.6621991  38.1927368  83.0149305  10.7702161  38.6813229
  81.2060234   8.6479476  38.3574545  80.6110166   8.9284489  37.6621034
  80.9209931   9.1373377  39.1291286  80.3367725  22.6002403  27.1177178
  81.2698398  22.5347965  27.3210053  80.2490937  23.4358670  26.6591710
  82.9655741  21.9168273  24.0781125  82.8869373  21.5828137  24.9716883
  83.7865408  22.4090041  24.0772598  85.6633933  14.7830013  37.2857444
  85.6310253  13.8446013  37.4717128  86.2734556  14.8614049  36.5523269
  77.5017263  13.6526066  23.3284648  78.4476368  13.5232274  23.3973066
  77.1231508  12.9140727  23.8054076  85.8128421  11.5741056  37.3315727
  85.2967470  10.7899513  37.1445656  86.6968370  11.2459773  37.4962247
  83.4739148   5.3182072  33.2911540  83.2763969   5.0097160  34.1754872
  84.0838853   6.0443710  33.4209470  91.4810482  15.8446019  36.4263481
  92.2113871  15.5831308  36.9871184  90.8717428  15.1074741  36.4665549
  89.5625779  13.9853882  37.0237932  88.8358943  13.8509847  36.4154424
  89.1473066  14.2930711  37.8294650  77.3855956  17.7043812  44.7885305
  78.3058965  17.8822411  44.9825352  77.3505539  16.7599857  44.6365004
  75.6860181  11.5776042  23.2639533  74.7791636  11.2809155  23.3402247
  75.9636162  11.2805860  22.3973820  66.6038121  12.8982405  33.7138580
  66.2840905  12.0447714  33.4212954  66.0571549  13.1130983  34.4696547
  70.3818028  15.6144846  37.4308086  70.6004038  16.5461954  37.4496120
  70.7943802  15.2552821  38.2162890  77.3022246   6.1212932  29.4183775
  76.4922975   5.7760017  29.7939021  77.9906663   5.8120475  30.0071386
  79.2312795   5.1990978  31.0408071  79.7843833   5.6186432  31.6998094
  79.4682881   4.2726727  31.0831027  75.2545894  11.1878052  46.8210835
  75.1542621  12.1372409  46.7522926  75.0367436  10.8596291  45.9486905
  74.4558965   8.4362977  23.4051512  75.3178129   8.7617875  23.6647330
  74.6409309   7.6494473  22.8924578  66.4726381  16.5185317  35.6831701
  65.7789852  16.1039270  35.1701656  67.2199372  16.5605853  35.0865120
  82.6091602   7.3091504  30.5486735  82.0290271   7.9676308  30.1664788
  82.3427534   6.4868848  30.1374153  81.0595168   6.7096561  32.7508056
  81.5594946   6.8213096  31.9422375  81.7030776   6.4057614  33.3908864
  75.1177164  14.6175191  45.6375897  74.6344246  15.4175551  45.8439786
  75.2038103  14.6283136  44.6843341  68.3863123  16.4503571  33.5597716
  68.3633812  16.5491258  32.6079599  68.6963760  17.2968721  33.8814882
  71.0450501  18.5079726  37.6744331  71.9993755  18.4763668  37.6074262
  70.8463025  18.0470349  38.4894556  71.6349883  17.0780842  40.2415128
  72.4542772  17.5724920  40.2649965  71.9086691  16.1612810  40.2132696
  81.3916480   9.4691594  29.6043084  80.5042335   9.7541245  29.3863278
  81.8070469   9.3085357  28.7570361  84.7431016   9.4938115  33.3197423
  85.5191406   9.9834567  33.5922040  84.0179150   9.9196169  33.7769292
  87.1803574  10.2065734  34.3771364  87.7748065   9.9661470  33.6664672
  87.2530158   9.4872865  35.0044900  69.4000730  24.0499345  34.6914528
  69.2655198  23.2899746  34.1252526  68.9832792  24.7740245  34.2243317
  80.5359693  19.2336269  23.6991104  81.2395543  19.4386271  24.3148759
  79.8122342  19.8013031  23.9640187  81.3657503  14.9846130  29.8193374
  81.3092705  15.4414681  28.9801006  81.9185846  14.2236814  29.6416217
  85.1762309  10.7735862  30.6443493  84.9199244  10.3732497  31.4751701
  84.5515177  11.4879656  30.5193633  89.4874647  13.5131935  33.1514785
  88.9274205  13.5825124  33.9246347  88.8818151  13.3372920  32.4314281
  72.5569856  24.9468662  34.9032971  72.4402240  25.8914095  34.8011661
  71.7362302  24.6442224  35.2918770  82.4446391  19.6718798  25.7489564
  83.2791994  19.2399996  25.5667039  82.2830733  19.5000812  26.6766458
  82.0992283  16.1750911  27.1145903  82.0441086  16.0095183  26.1734347
  81.4738338  16.8826944  27.2708093  66.8884798  11.4118976  40.9407325
  67.5343661  10.9017930  41.4294550  66.6801949  12.1487657  41.5150751
  79.4138190  18.4799823  46.4399466  80.2829350  18.6540475  46.0786101
  78.9344941  19.2994240  46.3175195  75.4088408   5.6759020  26.6931221
  75.3967078   6.6200860  26.8499492  76.3011830   5.4929166  26.3990683
  75.3377972  24.3527911  34.7798978  74.3873603  24.3529772  34.6663350
  75.6410458  23.6060645  34.2635013  71.2282289   8.5586593  45.0382340
  72.0913750   8.2023397  45.2485664  70.6547699   8.2200487  45.7257744
  83.2462373  32.7511458  27.4804755  84.0193249  32.2040445  27.3417631
  83.5987772  33.6155708  27.6919217  85.5828651  28.9104124  25.1123205
  85.8354172  28.3885646  24.3506668  84.6453210  28.7470270  25.2149889
  96.0280361  27.8515136  33.8230927  96.7605533  27.2814353  34.0568757
  95.2719717  27.4636736  34.2637433  85.3024940  30.8132230  27.3147580
  85.1861198  30.1377134  27.9828665  85.4127200  30.3264604  26.4979733
  87.2861968  25.3032277  26.0155618  87.4536370  26.1712514  26.3826089
  87.0959137  25.4659559  25.0916907  92.9636255  28.2311408  27.8282619
  93.8754111  28.4638795  27.6530316  92.4545902  28.8148452  27.2657698
 101.9097822  31.0162327  33.6943236 101.1561530  30.4469725  33.5387241
 102.0445363  30.9824992  34.6413871  90.6488913  19.4106291  37.8996849
  90.3053183  20.3007933  37.8235960  91.0167876  19.2207949  37.0366434
  90.6139196  29.4014902  26.4069284  90.0985820  30.1719507  26.6457672
  90.3416505  28.7280039  27.0302346  89.7285454  21.7810946  35.8646083
  89.2250249  21.7441082  35.0513888  90.0216061  22.6903689  35.9242739
  85.9728340  21.8649676  34.8712264  86.8381336  21.6692485  34.5118154
  86.0405849  21.6360028  35.7981621  95.5873470  32.1547257  28.3422458
  94.8102913  31.8158417  27.8977620  96.2664951  32.1599880  27.6677423
  83.5790659  24.0951884  32.2428631  84.1534411  23.8727066  31.5101824
  84.1661641  24.1640579  32.9957232  83.9060246  26.1256345  26.2624516
  83.0697558  26.4631032  26.5833791  83.7665015  25.9905325  25.3251653
  85.8813326  20.9693133  30.9703701  85.2277739  20.6542150  30.3460315
  85.8393801  20.3468873  31.6963523  86.9924531  31.2512428  22.8856993
  86.0851593  31.0201682  23.0848142  87.4895563  30.4550047  23.0730974
  88.1712765  31.3525023  27.4080983  87.2623984  31.0684056  27.5053452
  88.2007849  31.7724101  26.5484290  92.4476579  18.6699850  33.0014587
  92.7535456  17.8097214  32.7140502  93.1729184  19.2617471  32.8013581
  87.8688853  32.8933767  24.7469061  87.4308282  32.1769626  24.2874699
  88.6099293  33.1209881  24.1854153  95.9861967  31.1690964  30.8045380
  95.8479866  31.3592560  29.8766569  95.6298186  31.9310346  31.2613431
  81.2347161  28.5994571  29.0737137  80.3044749  28.5379026  29.2907099
  81.3304633  28.0770524  28.2773778  81.1532710  25.1249384  31.6615379
  81.4139527  26.0394717  31.5524539  81.9749882  24.6573826  31.8111991
  91.9900080  31.7518148  24.3401119  91.3729251  31.0264976  24.2434172
  91.5216569  32.5127509  23.9968193  83.7798626  25.9703573  23.4622423
  82.9028092  25.8492373  23.0984670  84.2556379  25.1789651  23.2101312
  98.1288960  29.8364858  34.9937441  98.1178836  30.7189573  34.6231374
  97.2606339  29.4836409  34.7991978  94.7461534  28.7313499  31.4607607
  95.2121986  29.5641490  31.3867909  95.1969035  28.2658480  32.1652865
  92.7178197  21.0994086  35.4998508  91.8041277  21.3298313  35.6680715
  93.1471298  21.1832530  36.3512540  78.5077320  27.5645428  28.9035329
  78.8030761  26.6556106  28.8502382  77.6065356  27.5433167  28.5816331
  80.2365162  25.2459525  29.0274654  79.9077868  24.3656904  28.8449760
  80.5904532  25.1907194  29.9151043  83.3506985  25.5332495  29.3950132
  83.6903057  26.0618417  28.6728740  83.7979105  25.8712901  30.1708698
  86.6966897  21.0018858  37.2980523  87.5192967  20.5279337  37.1759413
  86.9404961  21.7809342  37.7979209  85.3375132  24.0307117  27.5943424
  86.0583494  24.4088370  27.0907141  84.7140436  24.7495994  27.6978402
  85.4838755  23.5654907  30.4240961  85.6054666  22.6371553  30.6231848
  85.1940797  23.5793593  29.5119276  88.3529945  21.2509818  33.5607681
  88.3751642  21.3149151  32.6059660  88.7698004  20.4114326  33.7548187
  98.7313570  30.9865077  31.5986903  99.1744716  30.2372402  31.2006027
  97.8540080  30.9775214  31.2160635  93.8649351  37.5395419  27.0793502
  94.5600256  38.1602111  27.2980817  94.2072501  36.6890770  27.3545880
  81.4817094  26.9102575  27.0204078  80.7886339  26.9846930  26.3644114
  81.2368846  26.1462919  27.5425595  90.1530751  18.4698177  34.4243569
  90.4332505  17.8021366  35.0503996  90.9381358  18.6627272  33.9118233
  93.8049496  37.2460191  24.0781125  93.7263127  36.9120055  24.9716883
  94.6259163  37.7381959  24.0772598  88.3411018  28.9817983  23.3284648
  89.2870123  28.8524191  23.3973066  87.9625263  28.2432645  23.8054076
  96.6522175  26.9032974  37.3315727  96.1361224  26.1191430  37.1445656
  97.5362124  26.5751690  37.4962247  94.3132902  20.6473989  33.2911540
  94.1157724  20.3389077  34.1754872  94.9232608  21.3735628  33.4209470
 102.3204237  31.1737937  36.4263481 103.0507625  30.9123225  36.9871184
 101.7111182  30.4366659  36.4665549  86.5253935  26.9067960  23.2639533
  85.6185390  26.6101072  23.3402247  86.8029916  26.6097778  22.3973820
  88.1416001  21.4504849  29.4183775  87.3316729  21.1051934  29.7939021
  88.8300418  21.1412393  30.0071386  90.0706549  20.5282896  31.0408071
  90.6237588  20.9478350  31.6998094  90.3076635  19.6018644  31.0831027
  85.2952720  23.7654895  23.4051512  86.1571884  24.0909793  23.6647330
  85.4803064  22.9786391  22.8924578  93.4485356  22.6383421  30.5486735
  92.8684025  23.2968225  30.1664788  93.1821289  21.8160766  30.1374153
  91.8988922  22.0388479  32.7508056  92.3988701  22.1505013  31.9422375
  92.5424530  21.7349532  33.3908864  95.5824770  24.8230033  33.3197423
  96.3585160  25.3126485  33.5922040  94.8572904  25.2488087  33.7769292
  98.0197329  25.5357652  34.3771364  98.6141820  25.2953388  33.6664672
  98.0923913  24.8164782  35.0044900  91.3753448  34.5628186  23.6991104
  92.0789298  34.7678189  24.3148759  90.6516096  35.1304948  23.9640187
  96.0156064  26.1027779  30.6443493  95.7592998  25.7024415  31.4751701
  95.3908932  26.8171573  30.5193633 100.3268402  28.8423853  33.1514785
  99.7667960  28.9117042  33.9246347  99.7211905  28.6664837  32.4314281
  93.2840145  35.0010716  25.7489564  94.1185749  34.5691914  25.5667039
  93.1224488  34.8292729  26.6766458  92.9386037  31.5042829  27.1145903
  92.8834841  31.3387100  26.1734347  92.3132092  32.2118862  27.2708093
  86.2482163  21.0050938  26.6931221  86.2360832  21.9492778  26.8499492
  87.1405585  20.8221083  26.3990683  90.0634282  17.5993714  30.9477158
  89.2966678  17.0452201  31.0933841  90.4744987  17.6715583  31.8091310
 101.9124420  45.5180367  35.8444741 102.5502830  45.3987114  35.1408081
 101.7945263  46.4661211  35.9032693  98.7214126  45.4707795  35.7806265
  98.3832638  45.3548859  34.8926800  99.5903895  45.0698960  35.7607271
  94.5800942  47.3243271  31.7703156  94.0165807  47.2333208  31.0019444
  94.4653337  46.5043176  32.2505649  99.2033909  46.6242646  41.7392471
  99.1922550  46.2295445  40.8672974  99.3654549  45.8908719  42.3326242
  92.1265374  48.8194463  34.6087377  92.9186666  48.4785287  34.1933676
  92.3662024  48.9289438  35.5289530 100.1600501  50.9914239  27.0817621
  99.5088481  51.5768319  26.6951635 100.9544864  51.5220434  27.1412659
  94.0856128  48.0803376  27.4804755  94.8587004  47.5332363  27.3417631
  94.4381527  48.9447625  27.6919217  95.9241171  49.4079758  40.6871655
  95.6331036  50.3125389  40.5718321  96.5598155  49.4496286  41.4015724
  96.8497377  46.7856607  37.2773014  97.4460950  46.5612629  36.5629977
  96.9072349  46.0441352  37.8798462  96.4222406  44.2396042  25.1123205
  96.6747926  43.7177563  24.3506668  95.4846965  44.0762188  25.2149889
 101.4665689  43.2431820  32.9197949 102.2528778  42.8251244  32.5688366
 101.7304393  44.1477913  33.0879597 101.6375766  48.6804671  27.6186605
 101.0021599  48.7539297  28.3307510 101.3073172  49.2698270  26.9405685
 106.8674116  43.1807054  33.8230927 107.5999288  42.6106270  34.0568757
 106.1113471  42.7928654  34.2637433  96.1418695  46.1424148  27.3147580
  96.0254953  45.4669051  27.9828665  96.2520954  45.6556522  26.4979733
  98.4850235  45.6034295  31.0194270  98.1208443  45.0764916  31.7307191
  99.3417351  45.2132764  30.8460755 104.3899536  36.8928628  38.2825536
 104.0582861  37.7624039  38.0586751 103.7945149  36.5764912  38.9619566
  98.1255722  40.6324195  26.0155618  98.2930125  41.5004431  26.3826089
  97.9352891  40.7951477  25.0916907 100.8831056  49.0941174  37.6821448
 100.5831779  49.9966213  37.5737256 100.5382115  48.8273357  38.5342601
  94.3343537  45.5454971  33.7158153  93.4094034  45.4131185  33.9235845
  94.5827950  46.3249190  34.2128095 104.2828199  41.6123714  35.3618886
 103.3745077  41.5439122  35.0677647 104.2315795  42.0895659  36.1900711
  98.1044943  43.0881852  27.0002285  97.9844568  43.5338903  27.8387765
  97.4097532  43.4367170  26.4415823  95.8651835  55.8585494  30.6492416
  95.7875865  56.8093319  30.7280897  95.2613479  55.5131367  31.3067342
 106.1489846  39.8140152  37.1396760 105.5064226  40.1072686  36.4936554
 105.6444774  39.6993073  37.9449956 103.8030009  43.5603326  27.8282619
 104.7147866  43.7930712  27.6530316 103.2939657  44.1440370  27.2657698
  96.6115437  45.8398813  42.8671750  97.3530122  46.3783857  42.5906574
  95.9052423  46.4665102  43.0243302 102.0870777  47.9827953  41.4643911
 102.4954133  47.5410364  40.7198544 101.3648039  47.4080581  41.7178104
 102.4099592  48.5429144  35.2196200 101.7808454  48.7074858  34.5172268
 102.0225254  48.9570754  35.9907164 106.2888824  49.4783582  32.5740564
 105.6039862  49.8582483  32.0237597 106.3732673  50.0878909  33.3072512
 103.5439755  47.1243541  39.1735908 103.7556651  47.7675301  38.4970289
 103.4969504  46.2905857  38.7057838  97.9627554  48.2803552  32.4846285
  98.4265899  48.5591255  31.6950908  97.6984352  47.3786997  32.3019376
  94.8551635  47.8275034  35.4226049  95.4252992  48.2562302  34.7843533
  95.4459747  47.5457618  36.1210234  96.8996440  44.4026704  29.2935851
  97.6020483  44.8547748  29.7609777  96.5677068  43.7610523  29.9215744
 104.6585583  50.0015496  37.3458265 105.4803027  49.5995684  37.0640947
 104.6547986  49.8983730  38.2974381  98.4242187  49.5499540  39.5018975
  98.4886619  50.0119947  40.3377147  97.7153111  48.9196905  39.6301285
 112.7491576  46.3454245  33.6943236 111.9955285  45.7761643  33.5387241
 112.8839117  46.3116909  34.6413871  98.1390204  51.2167647  29.3697956
  98.0035879  52.0619183  29.7982804  98.6800017  51.4186925  28.6063890
  91.5919602  48.7343085  29.9425881  92.1044122  49.5286335  30.0931446
  92.2442315  48.0369376  29.8759482  93.4014486  51.8508841  32.0248634
  93.5781115  52.7726806  31.8369618  94.1971320  51.5367261  32.4543014
  99.7658681  51.8391214  43.4998298  99.3222535  51.0527592  43.1819202
 100.4275894  52.0270364  42.8342189  94.5245802  53.3687015  38.0258976
  95.0753227  53.2404079  37.2535970  93.6857278  53.6681904  37.6753869
 101.8639919  52.1194014  41.5279699 101.8458394  52.9402895  41.0359968
 102.7859839  51.9948089  41.7529840  98.3212973  49.6338143  42.3703208
  98.8541310  48.8726431  42.1402516  97.7927054  49.3411795  43.1127362
  89.5568518  47.0631739  30.7185451  90.3943740  47.4728748  30.5019159
  89.7346786  46.1231182  30.6885645 101.4532951  44.7306820  26.4069284
 100.9379574  45.5011425  26.6457672 101.1810259  44.0571956  27.0302346
  99.0380062  39.5756521  31.4654523  98.1821658  39.1863371  31.2860161
  99.4507013  39.6548482  30.6054308 106.4267225  47.4839175  28.3422458
 105.6496668  47.1450334  27.8977620 107.1058706  47.4891798  27.6677423
 101.2419254  42.6033912  28.2329066 100.9369389  42.9180061  29.0839209
 102.1949696  42.6815332  28.2756399  99.6865686  48.7624135  29.8822020
  99.1587047  48.0276895  29.5695257  99.1853188  49.5398812  29.6361988
 104.6658532  46.9573156  34.9989066 104.0082206  47.6472417  35.0869194
 105.4698931  47.3469588  35.3423052 103.4763990  45.3117529  33.0493008
 103.9895872  45.9447520  33.5514717 104.1265214  44.7118724  32.6836368
  94.7454000  41.4548263  26.2624516  93.9091313  41.7922949  26.5833791
  94.6058770  41.3197243  25.3251653  97.8318286  46.5804346  22.8856993
  96.9245348  46.3493599  23.0848142  98.3289318  45.7841965  23.0730974
 100.7386365  55.2901853  25.8053679 100.0648063  55.5933550  26.4138637
 101.1252187  56.0930933  25.4559136  99.9544821  42.7866984  35.2951348
  99.0367383  43.0081931  35.1373036 100.3704965  42.8613295  34.4363055
 100.7379869  44.1858400  30.4254028 101.4851688  44.6979797  30.1161150
 101.0071459  43.8642453  31.2858422  99.0106519  46.6816941  27.4080983
  98.1017739  46.3975973  27.5053452  99.0401603  47.1016019  26.5484290
 104.2425787  50.2923530  31.1772150 103.7888114  49.4514440  31.2337341
 103.6119753  50.9284928  31.5146930 103.1858706  41.2215516  32.4072818
 102.4481463  40.7092902  32.7383060 103.4385480  40.7815898  31.5956095
 102.6858726  52.1300027  32.1121968 102.9781700  52.6905084  31.3934334
 103.1957346  52.4228588  32.8675127 103.2870334  33.9991768  33.0014587
 103.5929210  33.1389132  32.7140502 104.0122938  34.5909388  32.8013581
  97.5591413  44.2945561  33.5090778  97.6140023  43.3419398  33.4333255
  96.7482615  44.4505000  33.9932076  98.7082607  48.2225684  24.7469061
  98.2702037  47.5061543  24.2874699  99.4493048  48.4501799  24.1854153
  95.4983773  42.9122621  31.2681157  94.6851639  43.2116792  31.6746349
  95.9942767  42.5178310  31.9855639  97.6492351  52.9080378  33.2015422
  97.6068530  53.1341224  32.2723954  98.5655050  52.6743752  33.3501223
 101.0957985  43.3764445  40.0996051 101.4507373  43.6035919  40.9590517
 101.7430116  43.7082822  39.4773306 106.8255722  46.4982881  30.8045380
 106.6873620  46.6884477  29.8766569 106.4691941  47.2602264  31.2613431
 106.8525101  48.5659408  35.8156651 107.2861608  48.4734697  36.6639705
 107.5656682  48.5416909  35.1776667  95.7658152  49.7843407  32.9977384
  96.5598750  49.2893727  32.7959959  95.0549844  49.2561270  32.6345090
 100.5852996  52.1661502  37.3489752 100.6390019  52.7352439  38.1167468
  99.7167778  52.3363387  36.9843789  92.0740915  43.9286489  29.0737137
  91.1438503  43.8670944  29.2907099  92.1698387  43.4062441  28.2773778
 107.7140651  48.6083109  38.3489537 107.9076541  49.5128919  38.5948812
 107.6141269  48.1490528  39.1828122 102.7755760  48.7589852  43.9230417
 102.6241266  48.5300403  43.0060501 102.7660439  49.7160453  43.9361762
  99.5441096  46.3321764  38.9076684 100.4733156  46.4832924  38.7345651
  99.1232126  46.4205785  38.0525330  98.3429428  50.3572429  36.6775221
  98.2040514  49.9891213  37.5501160  97.5544024  50.8720068  36.5059179
  98.9377580  55.4581525  28.0200758  99.1129336  54.9869569  28.8346381
  98.2510368  56.0847292  28.2482019  99.8934643  49.7354032  34.0664059
  99.5584476  49.6954802  34.9621709  99.3938589  49.0698748  33.5934469
 102.8293835  47.0810066  24.3401119 102.2123005  46.3556894  24.2434172
 102.3610323  47.8419426  23.9968193 104.4847966  51.7908974  42.0006899
 104.4260512  51.1068194  41.3337482 104.8867485  52.5327964  41.5487525
  93.5038665  58.6070888  34.7940618  93.7435263  59.2389412  35.4719637
  92.6607862  58.2558928  35.0805977  94.6192381  41.2995490  23.4622423
  93.7421847  41.1784291  23.0984670  95.0950134  40.5081569  23.2101312
 104.4865374  49.7548558  40.2320879 103.5992152  49.4174480  40.3547278
 105.0563925  49.0231589  40.4689644  98.0166527  54.4150011  37.1982122
  97.9436698  55.2204982  37.7101427  97.5743920  54.6141976  36.3730143
  97.8056307  53.6521781  30.7084944  97.0223828  54.1943461  30.8023168
  98.5049052  54.1695760  31.1079185 101.1152957  39.4616410  33.3519149
 101.6121656  38.7086372  33.0320219 100.3439938  39.4980727  32.7862358
 108.9682714  45.1656776  34.9937441 108.9572590  46.0481491  34.6231374
 108.1000094  44.8128326  34.7991978 100.4765211  54.3136845  39.3540281
 101.1893183  54.9484309  39.2816182  99.9855239  54.4100711  38.5380283
 102.1982737  48.2188097  30.9257572 101.2639016  48.3389560  30.7562277
 102.3759406  47.3160564  30.6617582  97.6987925  41.6033793  33.0790834
  97.3285713  41.0504833  33.7671739  98.1947018  40.9991927  32.5265834
 105.5855289  44.0605417  31.4607607 106.0515741  44.8933408  31.3867909
 106.0362789  43.5950398  32.1652865  95.5277124  52.0631288  40.1745852
  96.2286584  52.6967771  40.3275246  95.0572239  52.4046020  39.4141491
 103.6531520  50.4049238  28.4593759 103.9291364  50.2905832  29.3687633
 102.7836019  50.0066723  28.4205932 103.5571952  36.4286004  35.4998508
 102.6435031  36.6590230  35.6680715 103.9865053  36.5124448  36.3512540
 103.3278410  44.6175896  37.9998402 102.6749860  44.8651803  37.3450855
 103.7058790  43.8040034  37.6660879 100.2885584  54.6535589  32.1026572
 100.4707978  53.8357245  32.5654325 101.1118570  54.8703281  31.6651462
 100.6227749  53.5803774  29.3641621 101.1515516  53.0696228  28.7511783
 100.8855969  53.2646304  30.2287154  99.3765983  45.3595707  44.4864439
  98.7006620  45.2589836  45.1566814 100.1993617  45.2034920  44.9500436
  91.1244842  51.5967643  37.1076954  91.7098279  50.8511331  37.2404858
  90.9269681  51.9071600  37.9913618  93.9783497  54.6318890  32.1239397
  93.3093873  55.1165018  31.6403437  93.8396367  54.8788111  33.0382775
  98.1188766  56.6662634  38.7222055  98.6707074  56.8294256  39.4871140
  98.4594959  57.2567072  38.0502080 102.9699640  51.4923892  44.5770709
 103.5139544  52.1053850  44.0825664 102.3886485  52.0503470  45.0937722
 101.2557153  54.6144610  35.7085737 101.1308293  53.8134349  35.1996683
 101.9136244  55.1090803  35.2199707 103.3192062  52.4153630  37.3365287
 102.3722397  52.2958981  37.2643614 103.6674835  51.5276128  37.4191549
 100.3238495  52.2106346  33.5369639 100.1763457  51.2823053  33.7177210
 101.1491988  52.2326437  33.0526715  94.1900739  40.8624413  29.3950132
  94.5296812  41.3910334  28.6728740  94.6372860  41.2004819  30.1708698
 103.9272617  53.0334905  34.6234512 104.8519164  52.8277766  34.4858963
 103.7587920  52.7851306  35.5323854  96.1768886  39.3599035  27.5943424
  96.8977249  39.7380287  27.0907141  95.5534190  40.0787911  27.6978402
 100.3200009  40.0644183  28.5301757 100.5363624  40.9468821  28.2290585
  99.8394076  39.6730397  27.8007399 103.7167933  53.5520572  29.9796604
 103.8904810  52.9866995  29.2270456 104.2096824  54.3521467  29.7976094
 109.5707324  46.3156995  31.5986903 110.0138470  45.5664320  31.2006027
 108.6933834  46.3067131  31.2160635 104.7043105  52.8687336  27.0793502
 105.3994010  53.4894029  27.2980817 105.0466256  52.0182688  27.3545880
 106.6034529  50.3187042  28.6080833 107.1285853  50.6574315  27.8830153
 106.5156881  49.3834057  28.4243967  98.2654577  54.2321116  40.7370709
  98.5741704  53.9870262  41.6093409  99.0630059  54.4367754  40.2489580
  98.2875189  56.3859025  32.9676086  97.8480180  55.8935404  33.6608943
  99.0383306  55.8431993  32.7268161  90.7667528  52.5770566  32.9700714
  91.5925548  52.2774338  32.5899358  90.4161580  51.8078189  33.4190503
  95.7349061  51.9297034  35.0398388  95.1129071  51.2667739  34.7400615
  96.4053928  51.9558166  34.3572035  88.9676133  50.4956893  33.9289648
  88.1308042  50.0679067  33.7473649  88.9399779  50.6889336  34.8660439
 106.2928435  50.9519946  43.9132031 105.5023978  50.9344084  43.3736530
 106.0561789  51.4908239  44.6681067 106.4126310  47.8012412  41.2264759
 106.4624315  47.6362419  42.1680282 106.3040233  46.9339671  40.8362640
  95.2962568  50.4800958  28.5156848  95.4450689  51.1636422  27.8623521
  96.1029012  50.4606048  29.0306304 103.7030072  43.7843340  42.5424066
 104.6039935  43.6449805  42.2508064 103.7778047  43.9497795  43.4822243
 107.9144506  50.2209353  41.4706781 107.6229315  50.5839334  42.3070242
 107.3016638  49.5076362  41.2920113 109.1140189  47.7862233  33.9909351
 109.9487080  48.2252037  34.1546911 109.2499318  47.3100886  33.1717597
 106.1631695  45.3441968  39.9386839 106.6385816  45.5369614  39.1305690
 105.2397260  45.4001154  39.6930222  93.0515201  46.5066135  29.5217917
  92.8061243  45.6028465  29.7198127  93.2211116  46.5083286  28.5797395
  92.3210849  42.2394493  27.0204078  91.6280094  42.3138848  26.3644114
  92.0762601  41.4754837  27.5425595  98.7957974  52.9749088  25.9868596
  98.2231941  53.5939275  25.5339067  99.3690768  53.5248450  26.5208517
 104.8633364  42.2207728  38.1715144 105.8150787  42.3205826  38.1927368
 104.6936814  41.4285997  38.6813229 102.0155234  53.2586238  27.1177178
 102.9485907  53.1931800  27.3210053 101.9278446  54.0942505  26.6591710
 104.6443250  52.5752109  24.0781125 104.5656882  52.2411972  24.9716883
 105.4652917  53.0673876  24.0772598 107.3421441  45.4413848  37.2857444
 107.3097762  44.5029849  37.4717128 107.9522065  45.5197885  36.5523269
  99.1804772  44.3109901  23.3284648 100.1263877  44.1816109  23.3973066
  98.8019017  43.5724563  23.8054076 107.4915930  42.2324891  37.3315727
 106.9754979  41.4483348  37.1445656 108.3755879  41.9043608  37.4962247
 105.1526657  35.9765907  33.2911540 104.9551478  35.6680995  34.1754872
 105.7626362  36.7027546  33.4209470 113.1597991  46.5029855  36.4263481
 113.8901380  46.2415143  36.9871184 112.5504937  45.7658577  36.4665549
 111.2413288  44.6437717  37.0237932 110.5146452  44.5093682  36.4154424
 110.8260575  44.9514546  37.8294650  99.0643465  48.3627647  44.7885305
  99.9846474  48.5406246  44.9825352  99.0293048  47.4183692  44.6365004
  97.3647690  42.2359877  23.2639533  96.4579145  41.9392990  23.3402247
  97.6423671  41.9389695  22.3973820 100.9100304  35.8574814  31.0408071
 101.4631342  36.2770267  31.6998094 101.1470390  34.9310562  31.0831027
  96.1346474  39.0946812  23.4051512  96.9965638  39.4201711  23.6647330
  96.3196818  38.3078308  22.8924578 104.2879111  37.9675339  30.5486735
 103.7077780  38.6260143  30.1664788 104.0215043  37.1452684  30.1374153
 102.7382677  37.3680397  32.7508056 103.2382455  37.4796931  31.9422375
 103.3818285  37.0641449  33.3908864  96.7964673  45.2759026  45.6375897
  96.3131755  46.0759386  45.8439786  96.8825612  45.2866971  44.6843341
  90.0650632  47.1087406  33.5597716  90.0421321  47.2075093  32.6079599
  90.3751269  47.9552557  33.8814882  92.7238010  49.1663561  37.6744331
  93.6781264  49.1347503  37.6074262  92.5250534  48.7054185  38.4894556
 103.0703989  40.1275429  29.6043084 102.1829844  40.4125080  29.3863278
 103.4857978  39.9669193  28.7570361 106.4218525  40.1521950  33.3197423
 107.1978915  40.6418403  33.5922040 105.6966659  40.5780004  33.7769292
 108.8591083  40.8649570  34.3771364 109.4535574  40.6245305  33.6664672
 108.9317667  40.1456700  35.0044900  91.0788239  54.7083180  34.6914528
  90.9442707  53.9483581  34.1252526  90.6620301  55.4324080  34.2243317
 102.2147202  49.8920104  23.6991104 102.9183052  50.0970106  24.3148759
 101.4909851  50.4596866  23.9640187 103.0445012  45.6429965  29.8193374
 102.9880214  46.0998517  28.9801006 103.5973355  44.8820650  29.6416217
 106.8549818  41.4319697  30.6443493 106.5986753  41.0316333  31.4751701
 106.2302686  42.1463491  30.5193633 111.1662156  44.1715770  33.1514785
 110.6061714  44.2408960  33.9246347 110.5605660  43.9956755  32.4314281
  94.2357365  55.6052497  34.9032971  94.1189749  56.5497930  34.8011661
  93.4149811  55.3026059  35.2918770 104.1233900  50.3302633  25.7489564
 104.9579503  49.8983832  25.5667039 103.9618242  50.1584647  26.6766458
 103.7779792  46.8334747  27.1145903 103.7228595  46.6679018  26.1734347
 103.1525847  47.5410779  27.2708093 101.0925699  49.1383658  46.4399466
 101.9616858  49.3124311  46.0786101 100.6132450  49.9578075  46.3175195
  97.0875917  36.3342856  26.6931221  97.0754587  37.2784695  26.8499492
  97.9799339  36.1513001  26.3990683  95.2611879  56.2580759  38.1188899
  96.1639126  56.2904370  38.4355394  95.0349249  55.3281210  38.1335235
  97.0165481  55.0111746  34.7798978  96.0661112  55.0113608  34.6663350
  97.3197967  54.2644480  34.2635013 100.9028037  32.9285632  30.9477158
 100.1360432  32.3744119  31.0933841 101.3138742  33.0007501  31.8091310
 112.7518175  60.8472284  35.8444741 113.3896585  60.7279032  35.1408081
 112.6339017  61.7953128  35.9032693 109.5607881  60.7999712  35.7806265
 109.2226392  60.6840777  34.8926800 110.4297649  60.3990877  35.7607271
 105.4194697  62.6535189  31.7703156 104.8559562  62.5625126  31.0019444
 105.3047092  61.8335093  32.2505649 110.0427664  61.9534564  41.7392471
 110.0316305  61.5587362  40.8672974 110.2048303  61.2200637  42.3326242
 102.9659129  64.1486380  34.6087377 103.7580420  63.8077205  34.1933676
 103.2055779  64.2581355  35.5289530 110.9994255  66.3206157  27.0817621
 110.3482235  66.9060237  26.6951635 111.7938618  66.8512351  27.1412659
 104.9249882  63.4095294  27.4804755 105.6980758  62.8624281  27.3417631
 105.2775281  64.2739543  27.6919217 106.7634925  64.7371676  40.6871655
 106.4724791  65.6417307  40.5718321 107.3991909  64.7788204  41.4015724
 107.6891132  62.1148524  37.2773014 108.2854704  61.8904547  36.5629977
 107.7466103  61.3733270  37.8798462 107.2616160  59.5687960  25.1123205
 107.5141681  59.0469481  24.3506668 106.3240719  59.4054105  25.2149889
 112.3059443  58.5723738  32.9197949 113.0922532  58.1543161  32.5688366
 112.5698147  59.4769830  33.0879597 112.4769520  64.0096588  27.6186605
 111.8415353  64.0831215  28.3307510 112.1466927  64.5990187  26.9405685
 117.7067870  58.5098971  33.8230927 118.4393042  57.9398188  34.0568757
 116.9507226  58.1220572  34.2637433 106.9812449  61.4716066  27.3147580
 106.8648707  60.7960969  27.9828665 107.0914709  60.9848440  26.4979733
 109.3243990  60.9326213  31.0194270 108.9602197  60.4056834  31.7307191
 110.1811106  60.5424682  30.8460755 115.2293291  52.2220545  38.2825536
 114.8976615  53.0915956  38.0586751 114.6338904  51.9056829  38.9619566
 108.9649477  55.9616113  26.0155618 109.1323879  56.8296349  26.3826089
 108.7746646  56.1243394  25.0916907 111.7224810  64.4233091  37.6821448
 111.4225533  65.3258130  37.5737256 111.3775870  64.1565275  38.5342601
 105.1737292  60.8746888  33.7158153 104.2487788  60.7423102  33.9235845
 105.4221705  61.6541108  34.2128095 115.1221954  56.9415632  35.3618886
 114.2138831  56.8731040  35.0677647 115.0709550  57.4187577  36.1900711
 108.9438698  58.4173770  27.0002285 108.8238323  58.8630821  27.8387765
 108.2491286  58.7659088  26.4415823 102.5346103  60.5180162  34.5501942
 102.6638484  60.7714641  35.4641354 101.8543554  61.1107870  34.2306597
 106.7045590  71.1877412  30.6492416 106.6269620  72.1385237  30.7280897
 106.1007233  70.8423284  31.3067342 109.1962820  58.3605277  43.3053783
 108.4196154  58.9199197  43.2956648 109.8353383  58.8462060  43.8268653
 116.9883600  55.1432070  37.1396760 116.3457981  55.4364603  36.4936554
 116.4838529  55.0284990  37.9449956 114.6423764  58.8895243  27.8282619
 115.5541620  59.1222630  27.6530316 114.1333411  59.4732287  27.2657698
 107.4509192  61.1690731  42.8671750 108.1923876  61.7075775  42.5906574
 106.7446177  61.7957019  43.0243302 112.9264532  63.3119871  41.4643911
 113.3347888  62.8702282  40.7198544 112.2041793  62.7372499  41.7178104
 109.2795602  58.2492478  38.8377468 110.1256797  58.6731891  38.9812117
 109.2194239  57.5926102  39.5316032 113.2493346  63.8721062  35.2196200
 112.6202209  64.0366776  34.5172268 112.8619008  64.2862671  35.9907164
 117.1282578  64.8075500  32.5740564 116.4433616  65.1874401  32.0237597
 117.2126427  65.4170826  33.3072512 112.4295047  55.9096846  40.4958642
 112.1855979  56.6638907  39.9592918 112.7054977  56.2882194  41.3305889
 114.3833510  62.4535459  39.1735908 114.5950405  63.0967218  38.4970289
 114.3363258  61.6197775  38.7057838 111.9859739  55.0653279  36.0772480
 111.1244218  55.3634533  36.3689217 112.0122173  55.2823678  35.1453512
 108.8021308  63.6095470  32.4846285 109.2659654  63.8883173  31.6950908
 108.5378106  62.7078914  32.3019376 105.6945389  63.1566951  35.4226049
 106.2646746  63.5854220  34.7843533 106.2853501  62.8749536  36.1210234
 107.7390194  59.7318622  29.2935851 108.4414238  60.1839666  29.7609777
 107.4070823  59.0902441  29.9215744 106.1870556  58.3230379  43.6687060
 105.5569216  59.0046660  43.9022457 106.0806644  58.2113460  42.7240198
 101.4815528  57.9902175  34.5952984 100.6914582  58.2459703  34.1193095
 101.9726776  58.8050513  34.7005025 115.4979338  65.3307414  37.3458265
 116.3196781  64.9287601  37.0640947 115.4941741  65.2275648  38.2974381
 103.4330274  58.3546754  31.5536461 102.6361437  58.4665448  32.0719957
 103.2055866  58.6933406  30.6877351 109.2635941  64.8791457  39.5018975
 109.3280374  65.3411865  40.3377147 108.5546865  64.2488822  39.6301285
  99.7653231  58.2432665  37.0267975 100.0161270  59.1279675  37.2925551
 100.3012780  58.0637267  36.2543067 108.9783959  66.5459565  29.3697956
 108.8429634  67.3911100  29.7982804 109.5193771  66.7478842  28.6063890
 105.4651298  52.6251145  46.0312311 105.0718244  52.0717343  46.7059955
 106.2817439  52.9361723  46.4218829 102.4313356  64.0635003  29.9425881
 102.9437877  64.8578253  30.0931446 103.0836069  63.3661293  29.8759482
 104.2408241  67.1800759  32.0248634 104.4174869  68.1018724  31.8369618
 105.0365074  66.8659178  32.4543014 108.3819259  54.0409024  43.6232568
 109.1228973  54.6416177  43.5437030 108.6137182  53.2986661  43.0650610
 103.5260597  59.2265391  41.9010797 103.4114113  58.3250648  42.2017896
 102.6705115  59.4729088  41.5495614 110.6052435  67.1683131  43.4998298
 110.1616289  66.3819510  43.1819202 111.2669649  67.3562282  42.8342189
 105.3639556  68.6978933  38.0258976 105.9146981  68.5695996  37.2535970
 104.5251032  68.9973822  37.6753869 112.7033673  67.4485931  41.5279699
 112.6852149  68.2694812  41.0359968 113.6253593  67.3240006  41.7529840
 109.1606727  64.9630061  42.3703208 109.6935064  64.2018349  42.1402516
 108.6320809  64.6703712  43.1127362 112.3276422  50.0690127  37.8996849
 111.9840692  50.9591768  37.8235960 112.6955385  49.8791784  37.0366434
 100.3962273  62.3923657  30.7185451 101.2337495  62.8020665  30.5019159
 100.5740541  61.4523099  30.6885645 112.2926705  60.0598738  26.4069284
 111.7773329  60.8303342  26.6457672 112.0204014  59.3863874  27.0302346
 109.8773816  54.9048439  31.4654523 109.0215412  54.5155289  31.2860161
 110.2900768  54.9840399  30.6054308 111.4072963  52.4394782  35.8646083
 110.9037758  52.4024917  35.0513888 111.7003570  53.3487525  35.9242739
 107.6515849  52.5233512  34.8712264 108.5168845  52.3276320  34.5118154
 107.7193358  52.2943863  35.7981621 117.2660979  62.8131092  28.3422458
 116.4890422  62.4742252  27.8977620 117.9452460  62.8183716  27.6677423
 112.0813008  57.9325830  28.2329066 111.7763144  58.2471979  29.0839209
 113.0343450  58.0107250  28.2756399 110.5259440  64.0916053  29.8822020
 109.9980802  63.3568813  29.5695257 110.0246943  64.8690730  29.6361988
 115.5052286  62.2865074  34.9989066 114.8475961  62.9764335  35.0869194
 116.3092685  62.6761506  35.3423052 105.2578168  54.7535719  32.2428631
 105.8321920  54.5310901  31.5101824 105.8449150  54.8224414  32.9957232
 114.3157745  60.6409446  33.0493008 114.8289627  61.2739438  33.5514717
 114.9658969  60.0410642  32.6836368 105.5847755  56.7840180  26.2624516
 104.7485067  57.1214867  26.5833791 105.4452524  56.6489160  25.3251653
 107.5600835  51.6276968  30.9703701 106.9065248  51.3125986  30.3460315
 107.5181310  51.0052709  31.6963523 108.6712040  61.9096263  22.8856993
 107.7639102  61.6785517  23.0848142 109.1683072  61.1133883  23.0730974
 111.5780119  70.6193771  25.8053679 110.9041818  70.9225467  26.4138637
 111.9645941  71.4222851  25.4559136 110.7938576  58.1158902  35.2951348
 109.8761137  58.3373849  35.1373036 111.2098719  58.1905212  34.4363055
 111.5773624  59.5150318  30.4254028 112.3245443  60.0271715  30.1161150
 111.8465213  59.1934370  31.2858422 109.8500274  62.0108858  27.4080983
 108.9411493  61.7267891  27.5053452 109.8795358  62.4307937  26.5484290
 115.0819541  65.6215448  31.1772150 114.6281868  64.7806358  31.2337341
 114.4513508  66.2576846  31.5146930 114.0252461  56.5507434  32.4072818
 113.2875218  56.0384820  32.7383060 114.2779234  56.1107815  31.5956095
 113.5252480  67.4591944  32.1121968 113.8175455  68.0197002  31.3934334
 114.0351101  67.7520505  32.8675127 114.1264088  49.3283686  33.0014587
 114.4322965  48.4681049  32.7140502 114.8516693  49.9201306  32.8013581
 100.4188444  59.7314372  31.3896185 100.2212844  59.1383733  30.6647251
  99.8635108  59.4266583  32.1072124 108.3985168  59.6237479  33.5090778
 108.4533778  58.6711315  33.4333255 107.5876370  59.7796918  33.9932076
 109.5476362  63.5517602  24.7469061 109.1095791  62.8353461  24.2874699
 110.2886802  63.7793717  24.1854153 106.3377528  58.2414539  31.2681157
 105.5245393  58.5408709  31.6746349 106.8336522  57.8470227  31.9855639
 108.4886106  68.2372296  33.2015422 108.4462284  68.4633142  32.2723954
 109.4048804  68.0035670  33.3501223 111.9351739  58.7056363  40.0996051
 112.2901127  58.9327836  40.9590517 112.5823871  59.0374740  39.4773306
 117.6649476  61.8274799  30.8045380 117.5267375  62.0176395  29.8766569
 117.3085695  62.5894182  31.2613431 105.8291602  55.8132894  36.8842392
 106.4690982  55.6721653  36.1865355 104.9969133  55.5267408  36.5080994
 117.6918856  63.8951326  35.8156651 118.1255363  63.8026615  36.6639705
 118.4050437  63.8708826  35.1776667 106.6051906  65.1135325  32.9977384
 107.3992505  64.6185645  32.7959959 105.8943599  64.5853188  32.6345090
 111.4246751  67.4953420  37.3489752 111.4783773  68.0644356  38.1167468
 110.5561532  67.6655305  36.9843789 102.9134670  59.2578406  29.0737137
 101.9832258  59.1962862  29.2907099 103.0092142  58.7354359  28.2773778
 102.8320219  55.7833219  31.6615379 103.0927036  56.6978552  31.5524539
 103.6537391  55.3157662  31.8111991 104.3045144  57.1970976  38.8314203
 104.9768198  56.9888338  38.1826852 103.4774931  56.9993062  38.3919435
 118.5534405  63.9375027  38.3489537 118.7470296  64.8420837  38.5948812
 118.4535024  63.4782446  39.1828122 110.2070716  53.8232917  40.8479864
 109.5598631  54.5222867  40.7544340 110.9771732  54.2569061  41.2156112
 113.6149514  64.0881769  43.9230417 113.4635021  63.8592321  43.0060501
 113.6054194  65.0452371  43.9361762 110.3834851  61.6613682  38.9076684
 111.3126911  61.8124842  38.7345651 109.9625881  61.7497703  38.0525330
 109.1823182  65.6864347  36.6775221 109.0434268  65.3183131  37.5501160
 108.3937779  66.2011986  36.5059179 109.7771334  70.7873443  28.0200758
 109.9523090  70.3161486  28.8346381 109.0904122  71.4139209  28.2482019
 110.7328398  65.0645949  34.0664059 110.3978230  65.0246719  34.9621709
 110.2332343  64.3990665  33.5934469 104.7072641  60.4713579  39.5916640
 104.5692439  59.7393818  40.1928179 105.6177565  60.3822479  39.3100828
 113.6687589  62.4101984  24.3401119 113.0516760  61.6848812  24.2434172
 113.2004078  63.1711344  23.9968193 107.3354942  60.1833539  39.0800320
 108.0454561  59.5426731  39.0386938 107.2924250  60.4346433  40.0026501
 115.3241721  67.1200892  42.0006899 115.2654267  66.4360112  41.3337482
 115.7261239  67.8619882  41.5487525 106.0483876  57.1698756  40.8995959
 105.5121233  56.7189495  41.5517556 105.4600585  57.3044665  40.1566424
 104.3432420  73.9362806  34.7940618 104.5829018  74.5681330  35.4719637
 103.5001616  73.5850846  35.0805977 105.4586135  56.6287408  23.4622423
 104.5815601  56.5076209  23.0984670 105.9343888  55.8373486  23.2101312
 115.3259128  65.0840476  40.2320879 114.4385907  64.7466398  40.3547278
 115.8957679  64.3523507  40.4689644  96.9788275  61.4164568  33.5563930
  97.6659315  61.1026298  32.9684946  96.8236404  62.3205932  33.2831182
 101.7822997  56.3054764  37.9848954 101.6981186  55.6980434  37.2499364
 100.9605704  56.7963783  37.9858450 108.8560281  69.7441928  37.1982122
 108.7830453  70.5496900  37.7101427 108.4137675  69.9433894  36.3730143
 108.6450061  68.9813698  30.7084944 107.8617583  69.5235378  30.8023168
 109.3442806  69.4987678  31.1079185 111.9546711  54.7908328  33.3519149
 112.4515411  54.0378290  33.0320219 111.1833693  54.8272644  32.7862358
 119.8076469  60.4948693  34.9937441 119.7966345  61.3773409  34.6231374
 118.9393848  60.1420244  34.7991978 111.3158965  69.6428762  39.3540281
 112.0286937  70.2776227  39.2816182 110.8248994  69.7392628  38.5380283
 113.0376492  63.5480015  30.9257572 112.1032771  63.6681477  30.7562277
 113.2153160  62.6452482  30.6617582 108.5381680  56.9325711  33.0790834
 108.1679467  56.3796751  33.7671739 109.0340772  56.3283844  32.5265834
 116.4249043  59.3897334  31.4607607 116.8909495  60.2225326  31.3867909
 116.8756544  58.9242316  32.1652865 106.3670879  67.3923206  40.1745852
 107.0680338  68.0259689  40.3275246 105.8965994  67.7337937  39.4141491
 114.4925274  65.7341156  28.4593759 114.7685118  65.6197750  29.3687633
 113.6229773  65.3358640  28.4205932 114.3965706  51.7577921  35.4998508
 113.4828786  51.9882148  35.6680715 114.8258807  51.8416365  36.3512540
 114.1672164  59.9467813  37.9998402 113.5143615  60.1943721  37.3450855
 114.5452544  59.1331951  37.6660879 111.1279338  69.9827506  32.1026572
 111.3101733  69.1649162  32.5654325 111.9512324  70.1995199  31.6651462
 111.4621504  68.9095691  29.3641621 111.9909270  68.3988146  28.7511783
 111.7249723  68.5938222  30.2287154 110.2159738  60.6887624  44.4864439
 109.5400375  60.5881754  45.1566814 111.0387371  60.5326838  44.9500436
 101.9638597  66.9259561  37.1076954 102.5492033  66.1803249  37.2404858
 101.7663435  67.2363517  37.9913618 104.8177252  69.9610808  32.1239397
 104.1487627  70.4456936  31.6403437 104.6790122  70.2080029  33.0382775
  96.5556251  59.4965161  35.8281397  96.5940351  58.9628752  36.6218515
  96.0496544  58.9700367  35.2092375 108.9582520  71.9954552  38.7222055
 109.5100828  72.1586173  39.4871140 109.2988714  72.5858990  38.0502080
 103.9347014  54.3429702  39.3243940 103.9988340  55.2044532  38.9121337
 103.8714134  53.7303703  38.5916298 103.4099286  56.4152834  42.9716974
 104.0371325  56.0329911  43.5854498 102.5527205  56.1967036  43.3372666
 113.8093395  66.8215809  44.5770709 114.3533299  67.4345767  44.0825664
 113.2280240  67.3795388  45.0937722 100.1864829  58.2229263  28.9035329
 100.4818270  57.3139942  28.8502382  99.2852865  58.2017003  28.5816331
 112.0950908  69.9436527  35.7085737 111.9702047  69.1426267  35.1996683
 112.7529999  70.4382721  35.2199707 103.7159076  56.2985260  34.8862877
 102.9945662  56.9121227  34.7470351 104.5052332  56.8343025  34.8079523
 114.1585816  67.7445547  37.3365287 113.2116152  67.6250898  37.2643614
 114.5068589  66.8568045  37.4191549 106.5185389  53.6339686  41.1603529
 107.0419791  53.8801983  41.9229838 106.2997723  54.4659721  40.7406666
 101.9152670  55.9043361  29.0274654 101.5865377  55.0240740  28.8449760
 102.2692041  55.8491030  29.9151043 111.1632249  67.5398264  33.5369639
 111.0157212  66.6114971  33.7177210 111.9885743  67.5618354  33.0526715
 105.0294494  56.1916331  29.3950132 105.3690566  56.7202252  28.6728740
 105.4766614  56.5296737  30.1708698 114.7666371  68.3626822  34.6234512
 115.6912919  68.1569684  34.4858963 114.5981675  68.1143223  35.5323854
 107.7237934  54.5753381  38.8453200 107.3834755  53.7761194  39.2473880
 107.0176941  54.8755092  38.2730033 108.3754406  51.6602694  37.2980523
 109.1980476  51.1863172  37.1759413 108.6192470  52.4393178  37.7979209
 107.0162641  54.6890952  27.5943424 107.7371003  55.0672205  27.0907141
 106.3927945  55.4079829  27.6978402 111.1593764  55.3936101  28.5301757
 111.3757378  56.2760739  28.2290585 110.6787831  55.0022315  27.8007399
 105.8992985  58.3521814  35.1072501 105.7537566  58.6662117  35.9996783
 105.4218189  58.9706715  34.5543400 107.7589368  55.3424362  35.1553391
 107.7450937  54.4465456  34.8185689 108.4761796  55.3495026  35.7891677
 109.6115499  55.7761703  37.2006518 109.3533276  56.6978773  37.1990849
 109.0800539  55.3792137  37.8906982 114.5561687  68.8812490  29.9796604
 114.7298565  68.3158912  29.2270456 115.0490579  69.6813385  29.7976094
 100.3738647  60.8927159  38.0460162  99.8292115  61.6686967  38.1780437
 101.2517997  61.2397963  37.8879284 107.1626264  54.2238743  30.4240961
 107.2842175  53.2955389  30.6231848 106.8728306  54.2377429  29.5119276
 110.0317454  51.9093653  33.5607681 110.0539151  51.9732986  32.6059660
 110.4485513  51.0698162  33.7548187 120.4101079  61.6448913  31.5986903
 120.8532225  60.8956238  31.2006027 119.5327589  61.6359049  31.2160635
 115.5436860  68.1979254  27.0793502 116.2387765  68.8185947  27.2980817
 115.8860010  67.3474605  27.3545880 101.1604669  60.0197055  40.9390319
 100.4186405  60.1679690  41.5254950 100.8397413  60.2805321  40.0757069
 117.4428283  65.6478960  28.6080833 117.9679607  65.9866232  27.8830153
 117.3550636  64.7125975  28.4243967 109.1048332  69.5613033  40.7370709
 109.4135458  69.3162180  41.6093409 109.9023814  69.7659672  40.2489580
 109.1268944  71.7150943  32.9676086 108.6873934  71.2227322  33.6608943
 109.8777061  71.1723911  32.7268161 101.6061283  67.9062484  32.9700714
 102.4319303  67.6066256  32.5899358 101.2555335  67.1370106  33.4190503
 106.5742816  67.2588952  35.0398388 105.9522825  66.5959657  34.7400615
 107.2447683  67.2850084  34.3572035  99.8069888  65.8248810  33.9289648
  98.9701796  65.3970985  33.7473649  99.7793533  66.0181254  34.8660439
 106.6467343  55.7370740  44.6330894 106.6955499  56.6132863  44.2508663
 107.1889858  55.1948133  44.0602537 117.1322189  66.2811863  43.9132031
 116.3417733  66.2636002  43.3736530 116.8955544  66.8200157  44.6681067
 117.2520064  63.1304330  41.2264759 117.3018069  62.9654337  42.1680282
 117.1433987  62.2631589  40.8362640 106.1356323  65.8092875  28.5156848
 106.2844443  66.4928340  27.8623521 106.9422766  65.7897965  29.0306304
 114.5423827  59.1135258  42.5424066 115.4433689  58.9741723  42.2508064
 114.6171801  59.2789713  43.4822243 108.8766632  56.4902112  41.3877252
 108.0069941  56.7835678  41.1159841 109.1126112  57.0742557  42.1084516
 118.7538261  65.5501271  41.4706781 118.4623069  65.9131252  42.3070242
 118.1410392  64.8368279  41.2920113 119.9533943  63.1154151  33.9909351
 120.7880835  63.5543955  34.1546911 120.0893072  62.6392804  33.1717597
 117.0025449  60.6733886  39.9386839 117.4779571  60.8661532  39.1305690
 116.0791015  60.7293072  39.6930222 103.8908956  61.8358053  29.5217917
 103.6454998  60.9320383  29.7198127 104.0604870  61.8375203  28.5797395
 111.5805666  52.7081729  38.9042673 112.0987610  53.4442756  38.5789161
 111.2260798  53.0145723  39.7389432 103.1604603  57.5686411  27.0204078
 102.4673848  57.6430766  26.3644114 102.9156355  56.8046754  27.5425595
 111.8318260  49.1282012  34.4243569 112.1120014  48.4605201  35.0503996
 112.6168867  49.3211108  33.9118233 109.6351728  68.3041006  25.9868596
 109.0625695  68.9231193  25.5339067 110.2084522  68.8540367  26.5208517
 115.7027118  57.5499646  38.1715144 116.6544541  57.6497744  38.1927368
 115.5330569  56.7577914  38.6813229 113.7241498  54.6355229  38.3574545
 113.1291430  54.9160242  37.6621034 113.4391194  55.1249130  39.1291286
 112.8548988  68.5878156  27.1177178 113.7879661  68.5223718  27.3210053
 112.7672201  69.4234423  26.6591710 115.4837005  67.9044026  24.0781125
 115.4050636  67.5703890  24.9716883 116.3046672  68.3965794  24.0772598
 118.1815196  60.7705766  37.2857444 118.1491516  59.8321766  37.4717128
 118.7915820  60.8489802  36.5523269 110.0198527  59.6401819  23.3284648
 110.9657632  59.5108027  23.3973066 109.6412772  58.9016480  23.8054076
 118.3309684  57.5616809  37.3315727 117.8148733  56.7775266  37.1445656
 119.2149633  57.2335526  37.4962247 115.9920411  51.3057825  33.2911540
 115.7945233  50.9972913  34.1754872 116.6020117  52.0319463  33.4209470
 109.9037219  63.6919565  44.7885305 110.8240229  63.8698164  44.9825352
 109.8686802  62.7475610  44.6365004 108.2041444  57.5651795  23.2639533
 107.2972899  57.2684908  23.3402247 108.4817425  57.2681613  22.3973820
  99.1219384  58.8858158  33.7138580  98.8022169  58.0323467  33.4212954
  98.5752813  59.1006736  34.4696547 102.8999292  61.6020599  37.4308086
 103.1185302  62.5337707  37.4496120 103.3125066  61.2428574  38.2162890
 109.8203510  52.1088685  29.4183775 109.0104238  51.7635770  29.7939021
 110.5087927  51.7996228  30.0071386 111.7494058  51.1866731  31.0408071
 112.3025097  51.6062185  31.6998094 111.9864144  50.2602480  31.0831027
 107.7727157  57.1753805  46.8210835 107.6723884  58.1248162  46.7522926
 107.5548699  56.8472044  45.9486905 106.9740229  54.4238730  23.4051512
 107.8359393  54.7493628  23.6647330 107.1590573  53.6370226  22.8924578
  98.9907644  62.5061070  35.6831701  98.2971116  62.0915023  35.1701656
  99.7380635  62.5481606  35.0865120 115.1272865  53.2967257  30.5486735
 114.5471534  53.9552061  30.1664788 114.8608798  52.4744601  30.1374153
 113.5776431  52.6972314  32.7508056 114.0776210  52.8088849  31.9422375
 114.2212039  52.3933367  33.3908864 107.6358427  60.6050944  45.6375897
 107.1525509  61.4051304  45.8439786 107.7219366  60.6158889  44.6843341
 100.9044387  62.4379324  33.5597716 100.8815075  62.5367011  32.6079599
 101.2145023  63.2844474  33.8814882 103.5631765  64.4955479  37.6744331
 104.5175018  64.4639421  37.6074262 103.3644288  64.0346102  38.4894556
 104.1531147  63.0656595  40.2415128 104.9724036  63.5600673  40.2649965
 104.4267955  62.1488563  40.2132696 113.9097743  55.4567347  29.6043084
 113.0223598  55.7416998  29.3863278 114.3251732  55.2961110  28.7570361
 117.2612279  55.4813868  33.3197423 118.0372669  55.9710320  33.5922040
 116.5360413  55.9071922  33.7769292 119.6984838  56.1941487  34.3771364
 120.2929329  55.9537223  33.6664672 119.7711422  55.4748618  35.0044900
 101.9181994  70.0375098  34.6914528 101.7836462  69.2775499  34.1252526
 101.5014056  70.7615998  34.2243317 113.0540957  65.2212022  23.6991104
 113.7576807  65.4262024  24.3148759 112.3303605  65.7888784  23.9640187
 113.8838767  60.9721883  29.8193374 113.8273968  61.4290434  28.9801006
 114.4367109  60.2112568  29.6416217 117.6943573  56.7611615  30.6443493
 117.4380507  56.3608250  31.4751701 117.0696441  57.4755409  30.5193633
 105.0751119  70.9344415  34.9032971 104.9583504  71.8789848  34.8011661
 104.2543566  70.6317977  35.2918770 114.9627654  65.6594551  25.7489564
 115.7973258  65.2275749  25.5667039 114.8011997  65.4876565  26.6766458
 114.6173546  62.1626664  27.1145903 114.5622350  61.9970936  26.1734347
 113.9919601  62.8702697  27.2708093  99.4066061  57.3994729  40.9407325
 100.0524925  56.8893683  41.4294550  99.1983212  58.1363410  41.5150751
 111.9319453  64.4675576  46.4399466 112.8010613  64.6416228  46.0786101
 111.4526205  65.2869993  46.3175195 107.9269672  51.6634773  26.6931221
 107.9148341  52.6076613  26.8499492 108.8193094  51.4804919  26.3990683
 106.1005634  71.5872677  38.1188899 107.0032880  71.6196287  38.4355394
 105.8743004  70.6573128  38.1335235 107.8559236  70.3403664  34.7798978
 106.9054867  70.3405525  34.6663350 108.1591722  69.5936398  34.2635013
 111.7421791  48.2577550  30.9477158 110.9754187  47.7036037  31.0933841
 112.1532496  48.3299419  31.8091310 103.7463552  54.5462346  45.0382340
 104.6095014  54.1899150  45.2485664 103.1728963  54.2076240  45.7257744
 120.4001635  76.1291630  35.7806265 120.0620147  76.0132695  34.8926800
 121.2691404  75.7282795  35.7607271 116.2588451  77.9827106  31.7703156
 115.6953316  77.8917043  31.0019444 116.1440846  77.1627011  32.2505649
 120.8821418  77.2826482  41.7392471 120.8710059  76.8879280  40.8672974
 121.0442058  76.5492554  42.3326242 113.8052883  79.4778298  34.6087377
 114.5974175  79.1369123  34.1933676 114.0449533  79.5873273  35.5289530
 115.7643637  78.7387211  27.4804755 116.5374513  78.1916198  27.3417631
 116.1169036  79.6031461  27.6919217 117.6028679  80.0663594  40.6871655
 117.3118545  80.9709224  40.5718321 118.2385664  80.1080121  41.4015724
 118.5284886  77.4440442  37.2773014 119.1248459  77.2196465  36.5629977
 118.5859858  76.7025188  37.8798462 118.1009915  74.8979877  25.1123205
 118.3535435  74.3761399  24.3506668 117.1634474  74.7346023  25.2149889
 117.8206203  76.8007983  27.3147580 117.7042462  76.1252887  27.9828665
 117.9308463  76.3140357  26.4979733 120.1637744  76.2618131  31.0194270
 119.7995952  75.7348751  31.7307191 121.0204860  75.8716600  30.8460755
 119.8043231  71.2908030  26.0155618 119.9717634  72.1588267  26.3826089
 119.6140400  71.4535312  25.0916907 116.0131046  76.2038806  33.7158153
 115.0881543  76.0715020  33.9235845 116.2615459  76.9833025  34.2128095
 119.7832452  73.7465688  27.0002285 119.6632077  74.1922738  27.8387765
 119.0885041  74.0951005  26.4415823 113.3739857  75.8472080  34.5501942
 113.5032238  76.1006558  35.4641354 112.6937308  76.4399788  34.2306597
 117.5439344  86.5169329  30.6492416 117.4663374  87.4677155  30.7280897
 116.9400988  86.1715202  31.3067342 120.0356574  73.6897195  43.3053783
 119.2589908  74.2491115  43.2956648 120.6747137  74.1753978  43.8268653
 118.2902946  76.4982648  42.8671750 119.0317631  77.0367692  42.5906574
 117.5839932  77.1248937  43.0243302 120.1189356  73.5784395  38.8377468
 120.9650551  74.0023809  38.9812117 120.0587994  72.9218020  39.5316032
 119.6415063  78.9387387  32.4846285 120.1053408  79.2175090  31.6950908
 119.3771861  78.0370832  32.3019376 116.5339144  78.4858869  35.4226049
 117.1040501  78.9146137  34.7843533 117.1247256  78.2041454  36.1210234
 118.5783949  75.0610540  29.2935851 119.2807992  75.5131583  29.7609777
 118.2464577  74.4194359  29.9215744 117.0264310  73.6522296  43.6687060
 116.3962971  74.3338577  43.9022457 116.9200398  73.5405378  42.7240198
 112.3209283  73.3194092  34.5952984 111.5308337  73.5751621  34.1193095
 112.8120530  74.1342430  34.7005025 114.2724028  73.6838672  31.5536461
 113.4755191  73.7957366  32.0719957 114.0449620  74.0225324  30.6877351
 120.1029696  80.2083375  39.5018975 120.1674128  80.6703782  40.3377147
 119.3940620  79.5780740  39.6301285 110.6046986  73.5724583  37.0267975
 110.8555024  74.4571593  37.2925551 111.1406534  73.3929184  36.2543067
 119.8177713  81.8751482  29.3697956 119.6823388  82.7203018  29.7982804
 120.3587526  82.0770760  28.6063890 116.3045053  67.9543062  46.0312311
 115.9111998  67.4009261  46.7059955 117.1211193  68.2653641  46.4218829
 113.2707111  79.3926920  29.9425881 113.7831631  80.1870171  30.0931446
 113.9229824  78.6953211  29.8759482 115.0801995  82.5092677  32.0248634
 115.2568624  83.4310641  31.8369618 115.8758829  82.1951096  32.4543014
 119.2213014  69.3700941  43.6232568 119.9622727  69.9708095  43.5437030
 119.4530937  68.6278579  43.0650610 114.3654352  74.5557309  41.9010797
 114.2507867  73.6542566  42.2017896 113.5098870  74.8021005  41.5495614
 116.2033311  84.0270851  38.0258976 116.7540736  83.8987914  37.2535970
 115.3644787  84.3265740  37.6753869 120.0000482  80.2921978  42.3703208
 120.5328819  79.5310267  42.1402516 119.4714563  79.9995630  43.1127362
 111.2356027  77.7215575  30.7185451 112.0731249  78.1312583  30.5019159
 111.4134295  76.7815017  30.6885645 120.7167571  70.2340356  31.4654523
 119.8609167  69.8447207  31.2860161 121.1294522  70.3132317  30.6054308
 118.4909603  67.8525429  34.8712264 119.3562600  67.6568238  34.5118154
 118.5587112  67.6235781  35.7981621 121.3653195  79.4207971  29.8822020
 120.8374556  78.6860730  29.5695257 120.8640697  80.1982647  29.6361988
 116.0971922  70.0827637  32.2428631 116.6715674  69.8602819  31.5101824
 116.6842905  70.1516332  32.9957232 116.4241509  72.1132098  26.2624516
 115.5878822  72.4506785  26.5833791 116.2846279  71.9781078  25.3251653
 118.3994590  66.9568886  30.9703701 117.7459002  66.6417903  30.3460315
 118.3575064  66.3344626  31.6963523 119.5105795  77.2388181  22.8856993
 118.6032857  77.0077435  23.0848142 120.0076827  76.4425800  23.0730974
 120.6894028  77.3400776  27.4080983 119.7805247  77.0559809  27.5053452
 120.7189112  77.7599855  26.5484290 111.2582199  75.0606290  31.3896185
 111.0606598  74.4675651  30.6647251 110.7028863  74.7558500  32.1072124
 119.2378922  74.9529397  33.5090778 119.2927532  74.0003233  33.4333255
 118.4270124  75.1088836  33.9932076 120.3870116  78.8809520  24.7469061
 119.9489546  78.1645379  24.2874699 121.1280557  79.1085634  24.1854153
 117.1771282  73.5706456  31.2681157 116.3639148  73.8700627  31.6746349
 117.6730276  73.1762145  31.9855639 119.3279860  83.5664213  33.2015422
 119.2856039  83.7925060  32.2723954 120.2442559  83.3327588  33.3501223
 116.6685357  71.1424812  36.8842392 117.3084736  71.0013571  36.1865355
 115.8362887  70.8559325  36.5080994 117.4445661  80.4427242  32.9977384
 118.2386259  79.9477562  32.7959959 116.7337353  79.9145105  32.6345090
 113.7528424  74.5870324  29.0737137 112.8226012  74.5254779  29.2907099
 113.8485896  74.0646277  28.2773778 113.6713973  71.1125137  31.6615379
 113.9320791  72.0270470  31.5524539 114.4931146  70.6449579  31.8111991
 115.1438899  72.5262894  38.8314203 115.8161952  72.3180256  38.1826852
 114.3168685  72.3284980  38.3919435 120.0216937  81.0156264  36.6775221
 119.8828023  80.6475049  37.5501160 119.2331533  81.5303904  36.5059179
 120.6165089  86.1165361  28.0200758 120.7916845  85.6453404  28.8346381
 119.9297877  86.7431127  28.2482019 121.5722152  80.3937867  34.0664059
 121.2371985  80.3538637  34.9621709 121.0726098  79.7282583  33.5934469
 115.5466396  75.8005497  39.5916640 115.4086194  75.0685736  40.1928179
 116.4571319  75.7114397  39.3100828 118.1748697  75.5125456  39.0800320
 118.8848315  74.8718648  39.0386938 118.1318005  75.7638351  40.0026501
 116.8877631  72.4990674  40.8995959 116.3514988  72.0481413  41.5517556
 116.2994339  72.6336583  40.1566424 115.1826174  89.2654723  34.7940618
 115.4222772  89.8973248  35.4719637 114.3395371  88.9142763  35.0805977
 116.2979890  71.9579326  23.4622423 115.4209356  71.8368126  23.0984670
 116.7737643  71.1665404  23.2101312 107.8182030  76.7456485  33.5563930
 108.5053070  76.4318215  32.9684946 107.6630158  77.6497850  33.2831182
 112.6216752  71.6346682  37.9848954 112.5374941  71.0272351  37.2499364
 111.7999458  72.1255700  37.9858450 119.6954036  85.0733846  37.1982122
 119.6224207  85.8788817  37.7101427 119.2531429  85.2725812  36.3730143
 119.4843816  84.3105616  30.7084944 118.7011337  84.8527296  30.8023168
 120.1836561  84.8279596  31.1079185 119.3775434  72.2617628  33.0790834
 119.0073222  71.7088669  33.7671739 119.8734527  71.6575762  32.5265834
 117.2064633  82.7215123  40.1745852 117.9074093  83.3551606  40.3275246
 116.7359748  83.0629855  39.4141491 112.8032351  82.2551478  37.1076954
 113.3885788  81.5095166  37.2404858 112.6057190  82.5655435  37.9913618
 115.6571006  85.2902726  32.1239397 114.9881382  85.7748853  31.6403437
 115.5183876  85.5371946  33.0382775 107.3950006  74.8257079  35.8281397
 107.4334105  74.2920669  36.6218515 106.8890299  74.2992284  35.2092375
 119.7976275  87.3246469  38.7222055 120.3494583  87.4878091  39.4871140
 120.1382468  87.9150907  38.0502080 114.7740768  69.6721619  39.3243940
 114.8382095  70.5336450  38.9121337 114.7107888  69.0595621  38.5916298
 114.2493041  71.7444752  42.9716974 114.8765079  71.3621829  43.5854498
 113.3920959  71.5258954  43.3372666 111.0258583  73.5521181  28.9035329
 111.3212024  72.6431859  28.8502382 110.1246619  73.5308920  28.5816331
 114.5552830  71.6277177  34.8862877 113.8339416  72.2413145  34.7470351
 115.3446086  72.1634942  34.8079523 117.3579144  68.9631604  41.1603529
 117.8813546  69.2093900  41.9229838 117.1391477  69.7951639  40.7406666
 112.7546425  71.2335278  29.0274654 112.4259131  70.3532657  28.8449760
 113.1085796  71.1782947  29.9151043 115.8688248  71.5208248  29.3950132
 116.2084321  72.0494170  28.6728740 116.3160369  71.8588654  30.1708698
 118.5631689  69.9045299  38.8453200 118.2228509  69.1053112  39.2473880
 117.8570695  70.2047010  38.2730033 119.2148161  66.9894611  37.2980523
 120.0374230  66.5155090  37.1759413 119.4586224  67.7685095  37.7979209
 117.8556395  70.0182870  27.5943424 118.5764758  70.3964123  27.0907141
 117.2321699  70.7371747  27.6978402 116.7386740  73.6813732  35.1072501
 116.5931320  73.9954035  35.9996783 116.2611943  74.2998632  34.5543400
 118.5983122  70.6716280  35.1553391 118.5844691  69.7757373  34.8185689
 119.3155551  70.6786944  35.7891677 120.4509253  71.1053620  37.2006518
 120.1927031  72.0270691  37.1990849 119.9194294  70.7084055  37.8906982
 111.2132402  76.2219076  38.0460162 110.6685870  76.9978884  38.1780437
 112.0911752  76.5689881  37.8879284 118.0020018  69.5530660  30.4240961
 118.1235930  68.6247307  30.6231848 117.7122061  69.5669346  29.5119276
 120.8711209  67.2385571  33.5607681 120.8932906  67.3024904  32.6059660
 121.2879268  66.3990079  33.7548187 111.9998424  75.3488973  40.9390319
 111.2580160  75.4971608  41.5254950 111.6791168  75.6097238  40.0757069
 119.9442086  84.8904951  40.7370709 120.2529213  84.6454098  41.6093409
 120.7417568  85.0951589  40.2489580 119.9662698  87.0442861  32.9676086
 119.5267689  86.5519239  33.6608943 120.7170815  86.5015828  32.7268161
 112.4455037  83.2354401  32.9700714 113.2713057  82.9358173  32.5899358
 112.0949089  82.4662024  33.4190503 117.4136570  82.5880870  35.0398388
 116.7916580  81.9251575  34.7400615 118.0841437  82.6142002  34.3572035
 110.6463642  81.1540728  33.9289648 109.8095551  80.7262902  33.7473649
 110.6187288  81.3473171  34.8660439 117.4861098  71.0662658  44.6330894
 117.5349253  71.9424781  44.2508663 118.0283612  70.5240051  44.0602537
 116.9750077  81.1384793  28.5156848 117.1238198  81.8220257  27.8623521
 117.7816521  81.1189883  29.0306304 119.7160386  71.8194030  41.3877252
 118.8463696  72.1127596  41.1159841 119.9519867  72.4034475  42.1084516
 114.7302710  77.1649971  29.5217917 114.4848752  76.2612301  29.7198127
 114.8998625  77.1667121  28.5797395 113.9998358  72.8978328  27.0204078
 113.3067603  72.9722683  26.3644114 113.7550110  72.1338672  27.5425595
 120.4745483  83.6332923  25.9868596 119.9019450  84.2523111  25.5339067
 121.0478277  84.1832285  26.5208517 119.0435198  72.8943713  23.2639533
 118.1366654  72.5976825  23.3402247 119.3211179  72.5973531  22.3973820
 109.9613139  74.2150076  33.7138580 109.6415923  73.3615384  33.4212954
 109.4146567  74.4298654  34.4696547 113.7393046  76.9312517  37.4308086
 113.9579056  77.8629625  37.4496120 114.1518820  76.5720491  38.2162890
 120.6597264  67.4380602  29.4183775 119.8497993  67.0927687  29.7939021
 121.3481681  67.1288146  30.0071386 118.6120912  72.5045723  46.8210835
 118.5117639  73.4540080  46.7522926 118.3942454  72.1763962  45.9486905
 117.8133983  69.7530648  23.4051512 118.6753147  70.0785546  23.6647330
 117.9984327  68.9662144  22.8924578 109.8301399  77.8352988  35.6831701
 109.1364870  77.4206940  35.1701656 110.5774390  77.8773524  35.0865120
 118.4752182  75.9342862  45.6375897 117.9919263  76.7343222  45.8439786
 118.5613121  75.9450806  44.6843341 111.7438141  77.7671241  33.5597716
 111.7208830  77.8658929  32.6079599 112.0538778  78.6136392  33.8814882
 114.4025519  79.8247396  37.6744331 115.3568773  79.7931339  37.6074262
 114.2038043  79.3638020  38.4894556 114.9924901  78.3948512  40.2415128
 115.8117790  78.8892591  40.2649965 115.2661709  77.4780481  40.2132696
 112.7575748  85.3667016  34.6914528 112.6230216  84.6067417  34.1252526
 112.3407810  86.0907916  34.2243317 115.9144874  86.2636333  34.9032971
 115.7977258  87.2081765  34.8011661 115.0937320  85.9609894  35.2918770
 110.2459816  72.7286646  40.9407325 110.8918679  72.2185600  41.4294550
 110.0376967  73.4655328  41.5150751 118.7663426  66.9926691  26.6931221
 118.7542096  67.9368531  26.8499492 119.6586848  66.8096836  26.3990683
 116.9399388  86.9164595  38.1188899 117.8426635  86.9488205  38.4355394
 116.7136758  85.9865046  38.1335235 118.6952990  85.6695581  34.7798978
 117.7448621  85.6697443  34.6663350 118.9985476  84.9228316  34.2635013
 114.5857307  69.8754263  45.0382340 115.4488768  69.5191068  45.2485664
 114.0122717  69.5368158  45.7257744 118.6575784  92.0748403  33.5563930
 119.3446824  91.7610133  32.9684946 118.5023913  92.9789768  33.2831182
 118.2343760  90.1548996  35.8281397 118.2727860  89.6212587  36.6218515
 117.7284053  89.6284202  35.2092375 121.4857397  96.4832646  33.9289648
 120.6489305  96.0554820  33.7473649 121.4581042  96.6765089  34.8660439
 120.8006893  89.5441994  33.7138580 120.4809678  88.6907302  33.4212954
 120.2540322  89.7590572  34.4696547 120.6695153  93.1644905  35.6831701
 119.9758625  92.7498858  35.1701656 121.4168144  93.2065442  35.0865120
  74.1864328   2.2063781  17.3737723  74.1088357   3.1571606  17.4526203
  73.5825971   1.8609654  18.0312649  71.8251157   4.9549175  21.5185925
  72.0647756   5.5867700  22.1964943  70.9820354   4.6037215  21.8051284
  72.2995990   0.9797178  18.8484703  71.6306365   1.4643305  18.3648743
  72.1608859   1.2266398  19.7628082  76.4401258   3.0140921  25.4467362
  76.9919566   3.1772543  26.2116447  76.7807452   3.6045359  24.7747386
  69.4000731   1.0561468  21.4159835  69.2655199   0.2961869  20.8497833
  68.9832794   1.7802368  20.9488624  72.5569857   1.9530785  21.6278278
  72.4402241   2.8976217  21.5256968  71.7362304   1.6504346  22.0164077
  73.5824371   2.6059047  24.8434206  74.4851618   2.6382657  25.1600701
  73.3561741   1.6759498  24.8580542  87.8820373   7.1478000  22.5051572
  87.5438885   7.0319064  21.6172107  88.7510141   6.7469165  22.4852578
  83.7407189   9.0013476  18.4948463  83.1772054   8.9103413  17.7264751
  83.6259584   8.1813381  18.9750955  88.3640156   8.3012851  28.4637777
  88.3528797   7.9065650  27.5918281  88.5260796   7.5678924  29.0571549
  81.2871621  10.4964668  21.3332683  82.0792913  10.1555492  20.9178983
  81.5268271  10.6059643  22.2534837  89.3206748  12.6684444  13.8062928
  88.6694727  13.2538524  13.4196941  90.1151110  13.1990639  13.8657965
  83.2462375   9.7573581  14.2050062  84.0193251   9.2102568  14.0662938
  83.5987774  10.6217830  14.4164523  85.0847417  11.0849963  27.4116961
  84.7937283  11.9895594  27.2963628  85.7204402  11.1266491  28.1261031
  86.0103624   8.4626812  24.0018321  86.6067196   8.2382834  23.2875284
  86.0678596   7.7211557  24.6043769  85.3024941   7.8194353  14.0392887
  85.1861199   7.1439256  14.7073971  85.4127201   7.3326727  13.2225040
  87.6456482   7.2804500  17.7439576  87.2814689   6.7535121  18.4552498
  88.5023598   6.8902969  17.5706062  90.0437302  10.7711379  24.4066755
  89.7438025  11.6736418  24.2982562  89.6988362  10.5043562  25.2587908
  83.4949784   7.2225176  20.4403459  82.5700280   7.0901390  20.6481151
  83.7434197   8.0019395  20.9373402  80.8558595   6.8658449  21.2747249
  80.9850976   7.1192928  22.1886660  80.1756046   7.4586157  20.9551904
  85.0258082  17.5355699  17.3737723  84.9482112  18.4863524  17.4526203
  84.4219726  17.1901572  18.0312649  85.7721684   7.5169018  29.5917057
  86.5136369   8.0554062  29.3151880  85.0658670   8.1435307  29.7488608
  91.2477024   9.6598158  28.1889218  91.6560380   9.2180569  27.4443850
  90.5254285   9.0850786  28.4423411  91.5705839  10.2199349  21.9441507
  90.9414701  10.3845063  21.2417575  91.1831501  10.6340958  22.7152471
  95.4495070  11.1553787  19.2985871  94.7646109  11.5352688  18.7482904
  95.5338920  11.7649113  20.0317819  92.7046002   8.8013746  25.8981214
  92.9162897   9.4445506  25.2215595  92.6575750   7.9676062  25.4303144
  87.1233800   9.9573757  19.2091592  87.5872146  10.2361460  18.4196215
  86.8590599   9.0557202  19.0264683  84.0157881   9.5045239  22.1471355
  84.5859239   9.9332507  21.5088840  84.6065993   9.2227823  22.8455541
  79.8028020   4.3380462  21.3198291  79.0127074   4.5937991  20.8438401
  80.2939268   5.1528800  21.4250331  93.8191830  11.6785701  24.0703572
  94.6409274  11.2765888  23.7886253  93.8154233  11.5753935  25.0219687
  81.7542766   4.7025041  18.2781768  80.9573929   4.8143736  18.7965263
  81.5268358   5.0411694  17.4122658  87.5848433  11.2269745  26.2264282
  87.6492866  11.6890152  27.0622454  86.8759357  10.5967109  26.3546592
  78.0865723   4.5910952  23.7513282  78.3373762   5.4757962  24.0170858
  78.6225272   4.4115554  22.9788373  87.2996451  12.8937852  16.0943262
  87.1642126  13.7389388  16.5228110  87.8406264  13.0957130  15.3309196
  80.7525848  10.4113290  16.6671188  81.2650369  11.2056540  16.8176752
  81.4048561   9.7139580  16.6004789  82.5620733  13.5279046  18.7493941
  82.7387362  14.4497011  18.5614925  83.3577567  13.2137466  19.1788321
  81.8473090   5.5743678  28.6256104  81.7326605   4.6728935  28.9263203
  80.9917607   5.8207375  28.2740920  88.9264927  13.5161419  30.2243605
  88.4828782  12.7297797  29.9064509  89.5882141  13.7040569  29.5587495
  83.6852049  15.0457220  24.7504283  84.2359474  14.9174283  23.9781277
  82.8463525  15.3452109  24.3999176  91.0246166  13.7964218  28.2525006
  91.0064641  14.6173099  27.7605275  91.9466086  13.6718294  28.4775147
  87.4819220  11.3108348  29.0948514  88.0147556  10.5496636  28.8647822
  86.9533301  11.0182000  29.8372669  78.7174765   8.7401944  17.4430758
  79.5549987   9.1498953  17.2264466  78.8953033   7.8001386  17.4130952
  88.8471932  10.4394340  16.6067326  88.3193294   9.7047100  16.2940564
  88.3459435  11.2169017  16.3607295  93.8264778   8.6343361  21.7234372
  93.1688453   9.3242622  21.8114501  94.6305178   9.0239793  22.0668359
  89.8992611  16.9672058  12.5298985  89.2254310  17.2703755  13.1383943
  90.2858433  17.7701138  12.1804442  93.4032033  11.9693735  17.9017457
  92.9494361  11.1284645  17.9582647  92.7726000  12.6055133  18.2392237
  91.8464973  13.8070232  18.8367275  92.1387947  14.3675289  18.1179641
  92.3563593  14.0998793  19.5920434  78.7400936   6.0792660  18.1141492
  78.5425336   5.4862020  17.3892558  78.1847600   5.7744870  18.8317430
  86.8098598  14.5850583  19.9260728  86.7674777  14.8111429  18.9969260
  87.7261297  14.3513957  20.0746529  96.0131348  10.2429613  22.5401958
  96.4467855  10.1504902  23.3885012  96.7262929  10.2187114  21.9021974
  84.9264399  11.4613612  19.7222691  85.7204997  10.9663932  19.5205266
  84.2156091  10.9331475  19.3590397  89.7459243  13.8431707  24.0735059
  89.7996265  14.4122644  24.8412774  88.8774024  14.0133592  23.7089096
  81.2347162   5.6056694  15.7982444  80.3044750   5.5441149  16.0152406
  81.3304634   5.0832646  15.0019085  96.8746898  10.2853314  25.0734843
  97.0682788  11.1899124  25.3194118  96.7747516   9.8260733  25.9073428
  91.9362006  10.4360057  30.6475724  91.7847513  10.2070608  29.7305808
  91.9266686  11.3930658  30.6607069  88.7047343   8.0091969  25.6321990
  89.6339403   8.1603129  25.4590958  88.2838373   8.0975990  24.7770637
  87.5035675  12.0342634  23.4020528  87.3646760  11.6661418  24.2746466
  86.7150271  12.5490273  23.2304486  88.0983827  17.1351730  14.7446065
  88.2735582  16.6639773  15.5591687  87.4116615  17.7617496  14.9727325
  89.0540890  11.4124236  20.7909366  88.7190722  11.3725006  21.6867016
  88.5544835  10.7468952  20.3179776  83.0285134   6.8191867  26.3161947
  82.8904932   6.0872105  26.9173486  83.9390057   6.7300767  26.0346135
  85.6567434   6.5311826  25.8045627  86.3667053   5.8905018  25.7632245
  85.6136743   6.7824721  26.7271807  93.6454213  13.4679179  28.7252206
  93.5866759  12.7838399  28.0582789  94.0473731  14.2098169  28.2732832
  82.6644912  20.2841093  21.5185925  82.9041510  20.9159617  22.1964943
  81.8214108  19.9329133  21.8051284  93.6471620  11.4318763  26.9566186
  92.7598399  11.0944685  27.0792584  94.2170171  10.7001794  27.1934951
  75.3000767   7.7642855  20.2809237  75.9871807   7.4504585  19.6930252
  75.1448896   8.6684220  20.0076488  87.1772774  16.0920215  23.9227429
  87.1042945  16.8975187  24.4346733  86.7350167  16.2912181  23.0975450
  86.9662553  15.3291986  17.4330250  86.1830075  15.8713666  17.5268475
  87.6655299  15.8465965  17.8324491  89.6371457  15.9907050  26.0785587
  90.3499429  16.6254514  26.0061489  89.1461486  16.0870916  25.2625589
  91.3588984   9.8958302  17.6502879  90.4245263  10.0159765  17.4807583
  91.5365653   8.9930769  17.3862889  84.6883371  13.7401493  26.8991158
  85.3892830  14.3737976  27.0520552  84.2178486  14.0816225  26.1386797
  89.4491831  16.3305794  18.8271879  89.6314225  15.5127450  19.2899631
  90.2724817  16.5473486  18.3896769  89.7833996  15.2573979  16.0886927
  90.3121763  14.7466433  15.4757089  90.0462216  14.9416509  16.9532460
  88.5372230   7.0365911  31.2109746  87.8612867   6.9360041  31.8812121
  89.3599864   6.8805125  31.6745743  80.2851089  13.2737848  23.8322261
  80.8704526  12.5281536  23.9650165  80.0875927  13.5841805  24.7158925
  83.1389744  16.3089095  18.8484703  82.4700119  16.7935223  18.3648743
  83.0002614  16.5558316  19.7628082  74.8768744   5.8443448  22.5526704
  74.9152843   5.3107039  23.3463822  74.3709036   5.3178654  21.9337681
  87.2795013  18.3432839  25.4467362  87.8313321  18.5064460  26.2116447
  87.6201206  18.9337277  24.7747386  92.1305887  13.1694096  31.3016016
  92.6745791  13.7824055  30.8070971  91.5492732  13.7273675  31.8183029
  78.5077321   4.5707550  15.6280635  78.8030762   3.6618229  15.5747689
  77.6065357   4.5495290  15.3061638  90.4163400  16.2914814  22.4331044
  90.2914539  15.4904554  21.9241989  91.0742491  16.7861008  21.9445014
  92.4798308  14.0923835  24.0610594  91.5328644  13.9729186  23.9888921
  92.8281081  13.2046333  24.1436855  89.4844742  13.8876551  20.2614946
  89.3369704  12.9593258  20.4422516  90.3098235  13.9096641  19.7772021
  93.0878863  14.7105109  21.3479819  94.0125411  14.5047971  21.2104270
  92.9194167  14.4621511  22.2569160  92.8774180  15.2290777  16.7041910
  93.0511057  14.6637199  15.9515763  93.3703071  16.0291672  16.5221400
  78.6951139   7.2405446  24.7705469  78.1504608   8.0165254  24.9025743
  79.5730489   7.5876251  24.6124591  79.4817161   6.3675342  27.6635626
  78.7398897   6.5157978  28.2500256  79.1609906   6.6283608  26.8002375
  87.4260824  15.9091321  27.4616016  87.7347950  15.6640467  28.3338716
  88.2236306  16.1137959  26.9734886  87.4481436  18.0629230  19.6921393
  87.0086426  17.5705609  20.3854249  88.1989553  17.5202198  19.4513468
  79.9273775  14.2540771  19.6946021  80.7531795  13.9544543  19.3144664
  79.5767827  13.4848393  20.1435809  84.8955308  13.6067239  21.7643694
  84.2735317  12.9437944  21.4645922  85.5660175  13.6328371  21.0817342
  78.1282380  12.1727097  20.6534954  77.2914288  11.7449272  20.4718955
  78.1006025  12.3659541  21.5905745  95.4534681  12.6290151  30.6377337
  94.6630225  12.6114289  30.0981837  95.2168036  13.1678444  31.3926374
  84.4568815  12.1571163  15.2402155  84.6056935  12.8406627  14.5868827
  85.2635259  12.1376253  15.7551610  97.0750753  11.8979558  28.1952087
  96.7835562  12.2609539  29.0315548  96.4622885  11.1846567  28.0165419
  82.2121448   8.1836340  16.2463224  81.9667490   7.2798670  16.4443434
  82.3817363   8.1853491  15.3042702  87.9564221  14.6519293  12.7113902
  87.3838188  15.2709480  12.2584374  88.5297014  15.2018655  13.2453824
  88.2249712  10.0397852  31.5130612  89.1452721  10.2176451  31.7070658
  88.1899295   9.0953897  31.3610311  77.4431877   5.2336446  20.4383886
  77.1234661   4.3801754  20.1458260  76.8965305   5.4485024  21.1941854
  81.2211784   7.9498887  24.1553393  81.4397794   8.8815994  24.1741427
  81.6337558   7.5906861  24.9408197  77.3120137   8.8539357  22.4077008
  76.6183608   8.4393310  21.8946962  78.0593128   8.8959894  21.8110427
  85.9570920   6.9529231  32.3621203  85.4738001   7.7529591  32.5685092
  86.0431859   6.9637176  31.4088647  79.2256879   8.7857611  20.2843023
  79.2027567   8.8845298  19.3324906  79.5357516   9.6322762  20.6060189
  81.8844257  10.8433766  24.3989637  82.8387511  10.8117708  24.3319569
  81.6856781  10.3824390  25.2139863  82.4743639   9.4134882  26.9660435
  83.2936528   9.9078961  26.9895272  82.7480447   8.4966850  26.9378002
  80.2394486  16.3853385  21.4159835  80.1048954  15.6253786  20.8497833
  79.8226548  17.1094285  20.9488624  83.3963612  17.2822702  21.6278278
  83.2795996  18.2268135  21.5256968  82.5756058  16.9796264  22.0164077
  77.7278553   3.7473016  27.6652632  78.3737417   3.2371970  28.1539857
  77.5195705   4.4841697  28.2396057  90.2531946  10.8153863  33.1644772
  91.1223105  10.9894516  32.8031407  89.7738697  11.6348280  33.0420502
  84.4218126  17.9350964  24.8434206  85.3245373  17.9674575  25.1600701
  84.1955496  17.0051415  24.8580542  86.1771728  16.6881951  21.5044285
  85.2267359  16.6883812  21.3908657  86.4804214  15.9414685  20.9880319
 101.9124421  22.5242489  22.5690047 102.5502831  22.4049237  21.8653387
 101.7945264  23.4723333  22.6277999  98.7214128  22.4769917  22.5051572
  98.3832639  22.3610982  21.6172107  99.5903896  22.0761082  22.4852578
  94.5800943  24.3305394  18.4948463  94.0165808  24.2395331  17.7264751
  94.4653338  23.5105298  18.9750955  99.2033911  23.6304769  28.4637777
  99.1922551  23.2357567  27.5918281  99.3654550  22.8970842  29.0571549
  92.1265375  25.8256585  21.3332683  92.9186667  25.4847410  20.9178983
  92.3662025  25.9351560  22.2534837 100.1600502  27.9976361  13.8062928
  99.5088482  28.5830442  13.4196941 100.9544865  28.5282556  13.8657965
  94.0856129  25.0865499  14.2050062  94.8587005  24.5394486  14.0662938
  94.4381528  25.9509748  14.4164523  95.9241172  26.4141881  27.4116961
  95.6331038  27.3187512  27.2963628  96.5598156  26.4558408  28.1261031
  96.8497379  23.7918729  24.0018321  97.4460951  23.5674752  23.2875284
  96.9072350  23.0503475  24.6043769  96.1418696  23.1486271  14.0392887
  96.0254954  22.4731174  14.7073971  96.2520956  22.6618645  13.2225040
  98.4850237  22.6096418  17.7439576  98.1208444  22.0827039  18.4552498
  99.3417353  22.2194887  17.5706062 104.3899537  13.8990750  25.0070842
 104.0582862  14.7686161  24.7832057 103.7945151  13.5827034  25.6864873
 100.8831057  26.1003296  24.4066755 100.5831780  27.0028335  24.2982562
 100.5382116  25.8335480  25.2587908  94.3343538  22.5517093  20.4403459
  93.4094035  22.4193307  20.6481151  94.5827952  23.3311312  20.9373402
 104.2828201  18.6185837  22.0864192 103.3745078  18.5501245  21.7922953
 104.2315796  19.0957781  22.9146018  91.6952349  22.1950367  21.2747249
  91.8244731  22.4484846  22.1886660  91.0149801  22.7878075  20.9551904
  95.8651837  32.8647617  17.3737723  95.7875866  33.8155442  17.4526203
  95.2613480  32.5193489  18.0312649  98.3569066  20.0375482  30.0299090
  97.5802400  20.5969402  30.0201954  98.9959629  20.5232265  30.5513960
  96.6115439  22.8460936  29.5917057  97.3530123  23.3845979  29.3151880
  95.9052424  23.4727224  29.7488608 102.0870778  24.9890076  28.1889218
 102.4954134  24.5472486  27.4443850 101.3648040  24.4142703  28.4423411
  98.4401848  19.9262683  25.5622775  99.2863044  20.3502096  25.7057424
  98.3800486  19.2696307  26.2561338 102.4099593  25.5491267  21.9441507
 101.7808455  25.7136981  21.2417575 102.0225255  25.9632876  22.7152471
 106.2888825  26.4845704  19.2985871 105.6039863  26.8644606  18.7482904
 106.3732674  27.0941031  20.0317819 101.5901294  17.5867051  27.2203949
 101.3462226  18.3409112  26.6838224 101.8661224  17.9652399  28.0551196
 103.5439757  24.1305663  25.8981214 103.7556652  24.7737423  25.2215595
 103.4969505  23.2967980  25.4303144 101.1465985  16.7423484  22.8017786
 100.2850465  17.0404738  23.0934524 101.1728420  16.9593883  21.8698819
  97.9627555  25.2865675  19.2091592  98.4265900  25.5653378  18.4196215
  97.6984353  24.3849119  19.0264683  94.8551636  24.8337156  22.1471355
  95.4252993  25.2624425  21.5088840  95.4459748  24.5519741  22.8455541
  96.8996441  21.4088827  16.0181157  97.6020484  21.8609871  16.4855084
  96.5677069  20.7672646  16.6461050  95.3476802  20.0000584  30.3932367
  94.7175463  20.6816865  30.6267763  95.2412890  19.8883665  29.4485505
  90.6421775  19.6672380  21.3198291  89.8520829  19.9229908  20.8438401
  91.1333022  20.4820718  21.4250331 104.6585584  27.0077619  24.0703572
 105.4803028  26.6057806  23.7886253 104.6547987  26.9045853  25.0219687
  92.5936520  20.0316959  18.2781768  91.7967684  20.1435653  18.7965263
  92.3662112  20.3703611  17.4122658  98.4242188  26.5561662  26.2264282
  98.4886620  27.0182069  27.0622454  97.7153112  25.9259027  26.3546592
  88.9259478  19.9202870  23.7513282  89.1767516  20.8049880  24.0170858
  89.4619026  19.7407472  22.9788373  98.1390206  28.2229770  16.0943262
  98.0035880  29.0681305  16.5228110  98.6800018  28.4249047  15.3309196
  94.6257545  14.3021350  32.7557618  94.2324491  13.7487548  33.4305262
  95.4423686  14.6131928  33.1464135  91.5919603  25.7405208  16.6671188
  92.1044124  26.5348458  16.8176752  92.2442316  25.0431498  16.6004789
  93.4014488  28.8570964  18.7493941  93.5781116  29.7788929  18.5614925
  94.1971321  28.5429383  19.1788321  97.5425506  15.7179229  30.3477874
  98.2835220  16.3186382  30.2682337  97.7743429  14.9756866  29.7895917
  92.6866844  20.9035596  28.6256104  92.5720359  20.0020853  28.9263203
  91.8311362  21.1499293  28.2740920  99.7658682  28.8453336  30.2243605
  99.3222536  28.0589715  29.9064509 100.4275896  29.0332487  29.5587495
  94.5245803  30.3749138  24.7504283  95.0753228  30.2466201  23.9781277
  93.6857279  30.6744027  24.3999176 101.8639920  29.1256136  28.2525006
 101.8458395  29.9465017  27.7605275 102.7859840  29.0010211  28.4775147
  98.3212974  26.6400266  29.0948514  98.8541311  25.8788554  28.8647822
  97.7927055  26.3473917  29.8372669  89.5568520  24.0693862  17.4430758
  90.3943742  24.4790870  17.2264466  89.7346787  23.1293304  17.4130952
 100.5679210  14.1164987  22.5891389 100.0644005  14.0795122  21.7759194
 100.8609816  15.0257729  22.6488046  96.8122095  14.2003716  21.5957571
  97.6775092  14.0046525  21.2363460  96.8799604  13.9714068  22.5226928
  99.6865687  25.7686258  16.6067326  99.1587048  25.0339018  16.2940564
  99.1853190  26.5460934  16.3607295 104.6658533  23.9635279  21.7234372
 104.0082207  24.6534540  21.8114501 105.4698932  24.3531711  22.0668359
  94.4184414  16.4305924  18.9673938  94.9928166  16.2081106  18.2347131
  95.0055397  16.4994619  19.7202539 100.7386366  32.2963976  12.5298985
 100.0648065  32.5995672  13.1383943 101.1252188  33.0993056  12.1804442
  99.9544823  19.7929107  22.0196655  99.0367384  20.0144054  21.8618343
 100.3704966  19.8675417  21.1608362 104.2425788  27.2985653  17.9017457
 103.7888115  26.4576563  17.9582647 103.6119755  27.9347051  18.2392237
 102.6858727  29.1362149  18.8367275 102.9781702  29.6967207  18.1179641
 103.1957348  29.4290710  19.5920434  89.5794691  21.4084577  18.1141492
  89.3819091  20.8153938  17.3892558  89.0241355  21.1036788  18.8317430
  97.5591415  21.3007684  20.2336085  97.6140024  20.3481520  20.1578561
  96.7482617  21.4567123  20.7177383  95.4983774  19.9184744  17.9926464
  94.6851640  20.2178914  18.3991656  95.9942769  19.5240432  18.7100946
  97.6492352  29.9142500  19.9260728  97.6068531  30.1403347  18.9969260
  98.5655051  29.6805875  20.0746529 101.0957986  20.3826568  26.8241357
 101.4507374  20.6098041  27.6835823 101.7430117  20.7144945  26.2018613
  94.9897849  17.4903099  23.6087698  95.6297229  17.3491858  22.9110662
  94.1575380  17.2037612  23.2326300 106.8525103  25.5721531  22.5401958
 107.2861609  25.4796820  23.3885012 107.5656683  25.5479031  21.9021974
  95.7658153  26.7905529  19.7222691  96.5598752  26.2955850  19.5205266
  95.0549846  26.2623393  19.3590397 100.5852998  29.1723625  24.0735059
 100.6390020  29.7414561  24.8412774  99.7167779  29.3425510  23.7089096
  92.0740917  20.9348611  15.7982444  91.1438505  20.8733067  16.0152406
  92.1698389  20.4124564  15.0019085  91.9926466  17.4603424  18.3860685
  92.2533283  18.3748757  18.2769846  92.8143638  16.9927867  18.5357298
  93.4651391  18.8741181  25.5559510  94.1374444  18.6658543  24.9072159
  92.6381177  18.6763267  25.1164742 107.7140652  25.6145232  25.0734843
 107.9076542  26.5191042  25.3194118 107.6141270  25.1552651  25.9073428
  99.3676963  15.5003122  27.5725171  98.7204878  16.1993072  27.4789647
 100.1377978  15.9339266  27.9401419 102.7755761  25.7651974  30.6475724
 102.6241267  25.5362526  29.7305808 102.7660440  26.7222576  30.6607069
  99.5441097  23.3383887  25.6321990 100.4733157  23.4895047  25.4590958
  99.1232127  23.4267908  24.7770637  98.3429429  27.3634551  23.4020528
  98.2040515  26.9953336  24.2746466  97.5544025  27.8782191  23.2304486
  98.9377581  32.4643648  14.7446065  99.1129337  31.9931691  15.5591687
  98.2510369  33.0909414  14.9727325  99.8934644  26.7416154  20.7909366
  99.5584477  26.7016924  21.6867016  99.3938590  26.0760870  20.3179776
  93.8678888  22.1483784  26.3161947  93.7298686  21.4164023  26.9173486
  94.7783812  22.0592684  26.0346135  96.4961189  21.8603744  25.8045627
  97.2060807  21.2196936  25.7632245  96.4530497  22.1116638  26.7271807
 104.4847968  28.7971097  28.7252206 104.4260514  28.1130317  28.0582789
 104.8867486  29.5390087  28.2732832  95.2090123  18.8468961  27.6241266
  94.6727480  18.3959700  28.2762862  94.6206831  18.9814870  26.8811730
  93.5038666  35.6133011  21.5185925  93.7435265  36.2451535  22.1964943
  92.6607863  35.2621051  21.8051284 104.4865375  26.7610681  26.9566186
 103.5992154  26.4236603  27.0792584 105.0563926  26.0293712  27.1934951
  86.1394522  23.0934773  20.2809237  86.8265562  22.7796503  19.6930252
  85.9842651  23.9976137  20.0076488  90.9429244  17.9824969  24.7094261
  90.8587433  17.3750639  23.9744671  90.1211951  18.4733987  24.7103757
  98.0166528  31.4212133  23.9227429  97.9436700  32.2267105  24.4346733
  97.5743921  31.6204099  23.0975450  97.8056308  30.6583903  17.4330250
  97.0223830  31.2005583  17.5268475  98.5049053  31.1757883  17.8324491
 100.4765212  31.3198967  26.0785587 101.1893184  31.9546432  26.0061489
  99.9855240  31.4162833  25.2625589 102.1982739  25.2250220  17.6502879
 101.2639017  25.3451682  17.4807583 102.3759407  24.3222687  17.3862889
  97.6987927  18.6095916  19.8036140  97.3285714  18.0566956  20.4917046
  98.1947019  18.0054049  19.2511140  95.5277125  29.0693411  26.8991158
  96.2286585  29.7029894  27.0520552  95.0572240  29.4108142  26.1386797
 103.3278411  21.6238018  24.7243709 102.6749861  21.8713926  24.0696161
 103.7058791  20.8102156  24.3906186 100.2885585  31.6597711  18.8271879
 100.4707980  30.8419367  19.2899631 101.1118571  31.8765404  18.3896769
 100.6227751  30.5865896  16.0886927 101.1515517  30.0758351  15.4757089
 100.8855970  30.2708427  16.9532460  99.3765984  22.3657829  31.2109746
  98.7006621  22.2651958  31.8812121 100.1993618  22.2097043  31.6745743
  91.1244843  28.6029766  23.8322261  91.7098280  27.8573454  23.9650165
  90.9269682  28.9133722  24.7158925  93.9783499  31.6381013  18.8484703
  93.3093874  32.1227141  18.3648743  93.8396368  31.8850234  19.7628082
  85.7162498  21.1735366  22.5526704  85.7546598  20.6398957  23.3463822
  85.2102791  20.6470571  21.9337681  98.1188767  33.6724757  25.4467362
  98.6707075  33.8356378  26.2116447  98.4594961  34.2629194  24.7747386
  93.0953260  16.0199906  26.0489246  93.1594587  16.8814737  25.6366644
  93.0320381  15.4073908  25.3161605  92.5705533  18.0923039  29.6962281
  93.1977572  17.7100116  30.3099805  91.7133452  17.8737241  30.0617973
 102.9699641  28.4986014  31.3016016 103.5139545  29.1115972  30.8070971
 102.3886486  29.0565593  31.8183029  89.3471076  19.8999468  15.6280635
  89.6424517  18.9910146  15.5747689  88.4459111  19.8787208  15.3061638
 101.2557154  31.6206732  22.4331044 101.1308294  30.8196472  21.9241989
 101.9136246  32.1152926  21.9445014  92.8765323  17.9755465  21.6108184
  92.1551908  18.5891432  21.4715657  93.6658578  18.5113229  21.5324830
 103.3192063  29.4215752  24.0610594 102.3722398  29.3021103  23.9888921
 103.6674836  28.5338250  24.1436855  95.6791636  15.3109891  27.8848836
  96.2026038  15.5572188  28.6475145  95.4603969  16.1429926  27.4651973
  91.0758917  17.5813566  15.7519961  90.7471623  16.7010945  15.5695066
  91.4298288  17.5261234  16.6396350 100.3238496  29.2168468  20.2614946
 100.1763459  28.2885176  20.4422516 101.1491990  29.2388559  19.7772021
  94.1900740  17.8686536  16.1195438  94.5296813  18.3972457  15.3974047
  94.6372861  18.2066942  16.8954005 103.9272618  30.0397027  21.3479819
 104.8519165  29.8339889  21.2104270 103.7587921  29.7913428  22.2569160
  96.8844181  16.2523586  25.5698506  96.5441002  15.4531399  25.9719186
  96.1783188  16.5525297  24.9975339  97.5360653  13.3372899  24.0225829
  98.3586722  12.8633377  23.9004720  97.7798717  14.1163382  24.5224516
  95.0599232  20.0292019  21.8317808  94.9143813  20.3432322  22.7242089
  94.5824435  20.6476920  21.2788707  96.9195615  17.0194567  21.8798697
  96.9057183  16.1235661  21.5430995  97.6368043  17.0265231  22.5136984
  98.7721745  17.4531908  23.9251825  98.5139523  18.3748978  23.9236155
  98.2406786  17.0562342  24.6152289 103.7167934  30.5582695  16.7041910
 103.8904812  29.9929117  15.9515763 104.2096825  31.3583590  16.5221400
  89.5344894  22.5697364  24.7705469  88.9898362  23.3457172  24.9025743
  90.4124244  22.9168168  24.6124591  90.3210916  21.6967260  27.6635626
  89.5792652  21.8449895  28.2500256  90.0003660  21.9575526  26.8002375
  98.2654578  31.2383238  27.4616016  98.5741705  30.9932385  28.3338716
  99.0630061  31.4429877  26.9734886  98.2875191  33.3921148  19.6921393
  97.8480181  32.8997527  20.3854249  99.0383307  32.8494116  19.4513468
  90.7667530  29.5832689  19.6946021  91.5925549  29.2836461  19.3144664
  90.4161582  28.8140311  20.1435809  95.7349063  28.9359157  21.7643694
  95.1129072  28.2729862  21.4645922  96.4053930  28.9620289  21.0817342
  88.9676135  27.5019015  20.6534954  88.1308043  27.0741190  20.4718955
  88.9399780  27.6951458  21.5905745  95.8073590  17.4140945  31.3576200
  95.8561746  18.2903068  30.9753970  96.3496104  16.8718338  30.7847843
 106.2928436  27.9582068  30.6377337 105.5023980  27.9406207  30.0981837
 106.0561790  28.4970362  31.3926374 106.4126311  24.8074535  27.9510066
 106.4624316  24.6424542  28.8925589 106.3040234  23.9401794  27.5607947
  95.2962570  27.4863080  15.2402155  95.4450690  28.1698545  14.5868827
  96.1029013  27.4668170  15.7551610 103.7030073  20.7905463  29.2669373
 104.6039936  20.6511927  28.9753370 103.7778048  20.9559917  30.2067550
  98.0372879  18.1672317  28.1122559  97.1676188  18.4605883  27.8405147
  98.2732359  18.7512762  28.8329823 107.9144508  27.2271476  28.1952087
 107.6229316  27.5901457  29.0315548 107.3016639  26.5138484  28.0165419
 106.1631696  22.3504091  26.6632145 106.6385818  22.5431737  25.8550997
 105.2397261  22.4063277  26.4175529  93.0515203  23.5128258  16.2463224
  92.8061245  22.6090588  16.4443434  93.2211117  23.5145408  15.3042702
 100.7411912  14.3851934  25.6287979 101.2593856  15.1212961  25.3034468
 100.3867045  14.6915928  26.4634738  92.3210850  19.2456615  13.7449385
  91.6280095  19.3200970  13.0889421  92.0762602  18.4816959  14.2670902
  98.7957975  29.9811211  12.7113902  98.2231942  30.6001398  12.2584374
  99.3690769  30.5310572  13.2453824 104.8633365  19.2269851  24.8960451
 105.8150788  19.3267948  24.9172675 104.6936815  18.4348119  25.4058535
 102.8847744  16.3125434  25.0819852 102.2897677  16.5930447  24.3866341
 102.5997441  16.8019335  25.8536593 107.3421443  22.4475970  24.0102751
 107.3097763  21.5091971  24.1962434 107.9522066  22.5260007  23.2768576
  99.0643466  25.3689770  31.5130612  99.9846476  25.5468369  31.7070658
  99.0293049  24.4245815  31.3610311  88.2825631  20.5628363  20.4383886
  87.9628415  19.7093671  20.1458260  87.7359059  20.7776941  21.1941854
  92.0605539  23.2790804  24.1553393  92.2791548  24.2107912  24.1741427
  92.4731313  22.9198779  24.9408197  96.9333404  18.8524010  33.5456142
  96.8330131  19.8018367  33.4768233  96.7154946  18.5242249  32.6732212
  88.1513891  24.1831275  22.4077008  87.4577363  23.7685228  21.8946962
  88.8986882  24.2251811  21.8110427  96.7964674  22.2821149  32.3621203
  96.3131756  23.0821509  32.5685092  96.8825613  22.2929094  31.4088647
  90.0650634  24.1149529  20.2843023  90.0421322  24.2137216  19.3324906
  90.3751270  24.9614679  20.6060189  92.7238012  26.1725684  24.3989637
  93.6781265  26.1409626  24.3319569  92.5250535  25.7116307  25.2139863
  93.3137394  24.7426800  26.9660435  94.1330283  25.2370878  26.9895272
  93.5874201  23.8258768  26.9378002  91.0788240  31.7145303  21.4159835
  90.9442708  30.9545704  20.8497833  90.6620303  32.4386203  20.9488624
  94.2357366  32.6114620  21.6278278  94.1189750  33.5560053  21.5256968
  93.4149812  32.3088182  22.0164077  88.5672308  19.0764933  27.6652632
  89.2131172  18.5663887  28.1539857  88.3589459  19.8133615  28.2396057
 101.0925700  26.1445781  33.1644772 101.9616860  26.3186433  32.8031407
 100.6132452  26.9640198  33.0420502  95.2611880  33.2642882  24.8434206
  96.1639127  33.2966492  25.1600701  95.0349250  32.3343333  24.8580542
  97.0165482  32.0173869  21.5044285  96.0661113  32.0175730  21.3908657
  97.3197969  31.2706603  20.9880319  92.9069799  16.2232551  31.7627646
  93.7701260  15.8669355  31.9730971  92.3335210  15.8846445  32.4503050
 112.7518176  37.8534407  22.5690047 113.3896586  37.7341154  21.8653387
 112.6339019  38.8015251  22.6277999 109.5607882  37.8061835  22.5051572
 109.2226394  37.6902900  21.6172107 110.4297650  37.4053000  22.4852578
 105.4194698  39.6597311  18.4948463 104.8559563  39.5687248  17.7264751
 105.3047093  38.8397216  18.9750955 110.0427665  38.9596687  28.4637777
 110.0316306  38.5649485  27.5918281 110.2048305  38.2262759  29.0571549
 102.9659130  41.1548503  21.3332683 103.7580422  40.8139328  20.9178983
 103.2055780  41.2643478  22.2534837 110.9994257  43.3268279  13.8062928
 110.3482236  43.9122360  13.4196941 111.7938619  43.8574474  13.8657965
 104.9249884  40.4157416  14.2050062 105.6980760  39.8686403  14.0662938
 105.2775283  41.2801666  14.4164523 106.7634926  41.7433799  27.4116961
 106.4724792  42.6479429  27.2963628 107.3991911  41.7850326  28.1261031
 107.6891133  39.1210647  24.0018321 108.2854705  38.8966669  23.2875284
 107.7466105  38.3795393  24.6043769 106.9812450  38.4778188  14.0392887
 106.8648708  37.8023092  14.7073971 107.0914710  37.9910562  13.2225040
 109.3243991  37.9388335  17.7439576 108.9602198  37.4118956  18.4552498
 110.1811107  37.5486805  17.5706062 115.2293292  29.2282668  25.0070842
 114.8976617  30.0978079  24.7832057 114.6338905  28.9118952  25.6864873
 111.7224811  41.4295214  24.4066755 111.4225534  42.3320253  24.2982562
 111.3775871  41.1627397  25.2587908 105.1737293  37.8809011  20.4403459
 104.2487789  37.7485225  20.6481151 105.4221706  38.6603230  20.9373402
 115.1221955  33.9477754  22.0864192 114.2138832  33.8793163  21.7922953
 115.0709551  34.4249699  22.9146018 102.5346104  37.5242284  21.2747249
 102.6638485  37.7776763  22.1886660 101.8543555  38.1169992  20.9551904
 106.7045591  48.1939534  17.3737723 106.6269621  49.1447359  17.4526203
 106.1007235  47.8485407  18.0312649 109.1962821  35.3667400  30.0299090
 108.4196155  35.9261320  30.0201954 109.8353384  35.8524183  30.5513960
 107.4509193  38.1752853  29.5917057 108.1923878  38.7137897  29.3151880
 106.7446179  38.8019142  29.7488608 112.9264533  40.3181994  28.1889218
 113.3347889  39.8764404  27.4443850 112.2041794  39.7434621  28.4423411
 109.2795603  35.2554600  25.5622775 110.1256798  35.6794014  25.7057424
 109.2194241  34.5988225  26.2561338 113.2493348  40.8783184  21.9441507
 112.6202210  41.0428898  21.2417575 112.8619010  41.2924794  22.7152471
 117.1282579  41.8137622  19.2985871 116.4433618  42.1936523  18.7482904
 117.2126429  42.4232949  20.0317819 112.4295048  32.9158969  27.2203949
 112.1855980  33.6701029  26.6838224 112.7054979  33.2944316  28.0551196
 114.3833511  39.4597581  25.8981214 114.5950406  40.1029341  25.2215595
 114.3363259  38.6259898  25.4303144 111.9859740  32.0715402  22.8017786
 111.1244219  32.3696655  23.0934524 112.0122175  32.2885801  21.8698819
 108.8021309  40.6157592  19.2091592 109.2659655  40.8945295  18.4196215
 108.5378107  39.7141037  19.0264683 105.6945390  40.1629074  22.1471355
 106.2646748  40.5916342  21.5088840 106.2853502  39.8811659  22.8455541
 107.7390195  36.7380745  16.0181157 108.4414239  37.1901788  16.4855084
 107.4070824  36.0964564  16.6461050 106.1870557  35.3292501  30.3932367
 105.5569218  36.0108782  30.6267763 106.0806645  35.2175583  29.4485505
 101.4815529  34.9964297  21.3198291 100.6914583  35.2521826  20.8438401
 101.9726777  35.8112635  21.4250331 115.4979339  42.3369537  24.0703572
 116.3196783  41.9349724  23.7886253 115.4941742  42.2337771  25.0219687
 103.4330275  35.3608877  18.2781768 102.6361438  35.4727571  18.7965263
 103.2055867  35.6995529  17.4122658 109.2635942  41.8853580  26.2264282
 109.3280375  42.3473987  27.0622454 108.5546866  41.2550945  26.3546592
  99.7653232  35.2494788  23.7513282 100.0161271  36.1341798  24.0170858
 100.3012781  35.0699389  22.9788373 108.9783960  43.5521687  16.0943262
 108.8429635  44.3973223  16.5228110 109.5193773  43.7540965  15.3309196
 105.4651300  29.6313267  32.7557618 105.0718245  29.0779466  33.4305262
 106.2817440  29.9423846  33.1464135 102.4313357  41.0697125  16.6671188
 102.9437878  41.8640376  16.8176752 103.0836070  40.3723416  16.6004789
 104.2408242  44.1862882  18.7493941 104.4174870  45.1080846  18.5614925
 105.0365076  43.8721301  19.1788321 108.3819261  31.0471146  30.3477874
 109.1228974  31.6478299  30.2682337 108.6137184  30.3048784  29.7895917
 103.5260599  36.2327514  28.6256104 103.4114114  35.3312771  28.9263203
 102.6705116  36.4791210  28.2740920 110.6052436  44.1745254  30.2243605
 110.1616291  43.3881632  29.9064509 111.2669650  44.3624404  29.5587495
 105.3639558  45.7041055  24.7504283 105.9146983  45.5758119  23.9781277
 104.5251034  46.0035944  24.3999176 112.7033675  44.4548054  28.2525006
 112.6852150  45.2756935  27.7605275 113.6253595  44.3302129  28.4775147
 109.1606729  41.9692183  29.0948514 109.6935065  41.2080471  28.8647822
 108.6320810  41.6765835  29.8372669 100.3962274  39.3985780  17.4430758
 101.2337496  39.8082788  17.2264466 100.5740542  38.4585222  17.4130952
 111.4072964  29.4456904  22.5891389 110.9037760  29.4087040  21.7759194
 111.7003571  30.3549647  22.6488046 107.6515850  29.5295634  21.5957571
 108.5168847  29.3338443  21.2363460 107.7193359  29.3005986  22.5226928
 110.5259441  41.0978176  16.6067326 109.9980803  40.3630935  16.2940564
 110.0246944  41.8752852  16.3607295 115.5052287  39.2927196  21.7234372
 114.8475962  39.9826458  21.8114501 116.3092687  39.6823628  22.0668359
 105.2578169  31.7597842  18.9673938 105.8321921  31.5373024  18.2347131
 105.8449151  31.8286537  19.7202539 111.5780120  47.6255893  12.5298985
 110.9041819  47.9287590  13.1383943 111.9645942  48.4284974  12.1804442
 110.7938577  35.1221024  22.0196655 109.8761138  35.3435971  21.8618343
 111.2098721  35.1967335  21.1608362 115.0819542  42.6277570  17.9017457
 114.6281870  41.7868480  17.9582647 114.4513509  43.2638969  18.2392237
 113.5252482  44.4654067  18.8367275 113.8175456  45.0259124  18.1179641
 114.0351102  44.7582628  19.5920434 100.4188445  36.7376495  18.1141492
 100.2212845  36.1445856  17.3892558  99.8635109  36.4328705  18.8317430
 108.3985169  36.6299601  20.2336085 108.4533779  35.6773438  20.1578561
 107.5876371  36.7859041  20.7177383 106.3377529  35.2476661  17.9926464
 105.5245394  35.5470832  18.3991656 106.8336523  34.8532350  18.7100946
 108.4886107  45.2434418  19.9260728 108.4462286  45.4695264  18.9969260
 109.4048806  45.0097793  20.0746529 111.9351741  35.7118486  26.8241357
 112.2901128  35.9389959  27.6835823 112.5823872  36.0436862  26.2018613
 105.8291604  32.8195017  23.6087698 106.4690983  32.6783776  22.9110662
 104.9969134  32.5329530  23.2326300 117.6918857  40.9013449  22.5401958
 118.1255364  40.8088738  23.3885012 118.4050438  40.8770949  21.9021974
 106.6051908  42.1197447  19.7222691 107.3992506  41.6247767  19.5205266
 105.8943600  41.5915310  19.3590397 111.4246752  44.5015543  24.0735059
 111.4783774  45.0706479  24.8412774 110.5561533  44.6717428  23.7089096
 102.9134671  36.2640529  15.7982444 101.9832259  36.2024984  16.0152406
 103.0092143  35.7416482  15.0019085 102.8320220  32.7895342  18.3860685
 103.0927037  33.7040675  18.2769846 103.6537392  32.3219784  18.5357298
 104.3045145  34.2033099  25.5559510 104.9768199  33.9950461  24.9072159
 103.4774932  34.0055185  25.1164742 118.5534407  40.9437149  25.0734843
 118.7470297  41.8482960  25.3194118 118.4535025  40.4844568  25.9073428
 110.2070717  30.8295040  27.5725171 109.5598633  31.5284989  27.4789647
 110.9771733  31.2631184  27.9401419 113.6149515  41.0943892  30.6475724
 113.4635022  40.8654444  29.7305808 113.6054195  42.0514493  30.6607069
 110.3834852  38.6675805  25.6321990 111.3126912  38.8186964  25.4590958
 109.9625882  38.7559826  24.7770637 109.1823184  42.6926469  23.4020528
 109.0434269  42.3245254  24.2746466 108.3937780  43.2074109  23.2304486
 109.7771336  47.7935566  14.7446065 109.9523091  47.3223609  15.5591687
 109.0904124  48.4201332  14.9727325 110.7328399  42.0708072  20.7909366
 110.3978231  42.0308842  21.6867016 110.2332344  41.4052788  20.3179776
 104.7072643  37.4775702  26.3161947 104.5692441  36.7455941  26.9173486
 105.6177566  37.3884602  26.0346135 107.3354943  37.1895661  25.8045627
 108.0454562  36.5488853  25.7632245 107.2924252  37.4408556  26.7271807
 115.3241722  44.1263015  28.7252206 115.2654268  43.4422235  28.0582789
 115.7261240  44.8682005  28.2732832 106.0483877  34.1760879  27.6241266
 105.5121234  33.7251618  28.2762862 105.4600586  34.3106788  26.8811730
 104.3432421  50.9424928  21.5185925 104.5829019  51.5743453  22.1964943
 103.5001617  50.5912968  21.8051284 115.3259129  42.0902598  26.9566186
 114.4385908  41.7528520  27.0792584 115.8957680  41.3585630  27.1934951
  96.9788276  38.4226690  20.2809237  97.6659316  38.1088420  19.6930252
  96.8236405  39.3268055  20.0076488 101.7822999  33.3116887  24.7094261
 101.6981187  32.7042556  23.9744671 100.9605705  33.8025905  24.7103757
 108.8560283  46.7504051  23.9227429 108.7830454  47.5559022  24.4346733
 108.4137676  46.9496017  23.0975450 108.6450062  45.9875821  17.4330250
 107.8617584  46.5297501  17.5268475 109.3442808  46.5049801  17.8324491
 111.3158966  46.6490885  26.0785587 112.0286938  47.2838350  26.0061489
 110.8248995  46.7454751  25.2625589 113.0376493  40.5542138  17.6502879
 112.1032772  40.6743600  17.4807583 113.2153162  39.6514604  17.3862889
 108.5381681  33.9387833  19.8036140 108.1679469  33.3858874  20.4917046
 109.0340774  33.3345967  19.2511140 106.3670880  44.3985328  26.8991158
 107.0680339  45.0321811  27.0520552 105.8965995  44.7400060  26.1386797
 114.1672166  36.9529936  24.7243709 113.5143616  37.2005843  24.0696161
 114.5452546  36.1394074  24.3906186 111.1279340  46.9889629  18.8271879
 111.3101734  46.1711285  19.2899631 111.9512326  47.2057321  18.3896769
 111.4621505  45.9157814  16.0886927 111.9909272  45.4050269  15.4757089
 111.7249725  45.6000344  16.9532460 110.2159739  37.6949747  31.2109746
 109.5400376  37.5943876  31.8812121 111.0387373  37.5388961  31.6745743
 101.9638598  43.9321683  23.8322261 102.5492035  43.1865371  23.9650165
 101.7663436  44.2425640  24.7158925 104.8177253  46.9672931  18.8484703
 104.1487628  47.4519058  18.3648743 104.6790123  47.2142151  19.7628082
  96.5556253  36.5027284  22.5526704  96.5940352  35.9690874  23.3463822
  96.0496545  35.9762489  21.9337681 108.9582522  49.0016674  25.4467362
 109.5100830  49.1648296  26.2116447 109.2988715  49.5921112  24.7747386
 103.9347015  31.3491824  26.0489246 103.9988341  32.2106655  25.6366644
 103.8714135  30.7365826  25.3161605 103.4099287  33.4214957  29.6962281
 104.0371326  33.0392034  30.3099805 102.5527206  33.2029159  30.0617973
 113.8093396  43.8277932  31.3016016 114.3533300  44.4407890  30.8070971
 113.2280241  44.3857510  31.8183029 100.1864830  35.2291386  15.6280635
 100.4818271  34.3202064  15.5747689  99.2852866  35.2079125  15.3061638
 112.0950909  46.9498650  22.4331044 111.9702048  46.1488390  21.9241989
 112.7530000  47.4444843  21.9445014 103.7159077  33.3047382  21.6108184
 102.9945663  33.9183350  21.4715657 104.5052333  33.8405147  21.5324830
 114.1585817  44.7507670  24.0610594 113.2116153  44.6313021  23.9888921
 114.5068590  43.8630168  24.1436855 106.5185391  30.6401809  27.8848836
 107.0419792  30.8864105  28.6475145 106.2997724  31.4721844  27.4651973
 101.9152672  32.9105483  15.7519961 101.5865378  32.0302862  15.5695066
 102.2692042  32.8553152  16.6396350 111.1632251  44.5460386  20.2614946
 111.0157213  43.6177094  20.4422516 111.9885744  44.5680477  19.7772021
 105.0294495  33.1978453  16.1195438 105.3690567  33.7264374  15.3974047
 105.4766615  33.5358859  16.8954005 114.7666372  45.3688945  21.3479819
 115.6912920  45.1631806  21.2104270 114.5981676  45.1205346  22.2569160
 107.7237936  31.5815504  25.5698506 107.3834756  30.7823317  25.9719186
 107.0176942  31.8817215  24.9975339 108.3754408  28.6664816  24.0225829
 109.1980477  28.1925295  23.9004720 108.6192471  29.4455300  24.5224516
 105.8992986  35.3583937  21.8317808 105.7537567  35.6724240  22.7242089
 105.4218190  35.9768837  21.2788707 107.7589369  32.3486485  21.8798697
 107.7450938  31.4527578  21.5430995 108.4761797  32.3557149  22.5136984
 109.6115500  32.7823825  23.9251825 109.3533278  33.7040896  23.9236155
 109.0800540  32.3854260  24.6152289 114.5561689  45.8874612  16.7041910
 114.7298566  45.3221035  15.9515763 115.0490580  46.6875507  16.5221400
 100.3738648  37.8989281  24.7705469  99.8292117  38.6749089  24.9025743
 101.2517998  38.2460086  24.6124591 101.1604670  37.0259178  27.6635626
 100.4186406  37.1741813  28.2500256 100.8397415  37.2867443  26.8002375
 109.1048333  46.5675156  27.4616016 109.4135459  46.3224303  28.3338716
 109.9023815  46.7721794  26.9734886 109.1268945  48.7213066  19.6921393
 108.6873935  48.2289444  20.3854249 109.8777062  48.1786033  19.4513468
 101.6061284  44.9124606  19.6946021 102.4319304  44.6128378  19.3144664
 101.2555336  44.1432229  20.1435809 106.5742817  44.2651075  21.7643694
 105.9522826  43.6021780  21.4645922 107.2447684  44.2912206  21.0817342
  99.8069889  42.8310933  20.6534954  98.9701797  42.4033107  20.4718955
  99.7793534  43.0243376  21.5905745 106.6467345  32.7432863  31.3576200
 106.6955500  33.6194985  30.9753970 107.1889859  32.2010256  30.7847843
 117.1322190  43.2873986  30.6377337 116.3417734  43.2698125  30.0981837
 116.8955545  43.8262280  31.3926374 117.2520065  40.1366452  27.9510066
 117.3018070  39.9716460  28.8925589 117.1433989  39.2693711  27.5607947
 106.1356324  42.8154998  15.2402155 106.2844444  43.4990462  14.5868827
 106.9422768  42.7960088  15.7551610 114.5423828  36.1197380  29.2669373
 115.4433691  35.9803845  28.9753370 114.6171802  36.2851835  30.2067550
 108.8766633  33.4964235  28.1122559 108.0069943  33.7897801  27.8405147
 109.1126113  34.0804680  28.8329823 118.7538262  42.5563394  28.1952087
 118.4623071  42.9193374  29.0315548 118.1410393  41.8430402  28.0165419
 117.0025450  37.6796008  26.6632145 117.4779572  37.8723655  25.8550997
 116.0791016  37.7355194  26.4175529 103.8908957  38.8420176  16.2463224
 103.6454999  37.9382506  16.4443434 104.0604872  38.8437326  15.3042702
 111.5805667  29.7143852  25.6287979 112.0987611  30.4504879  25.3034468
 111.2260800  30.0207845  26.4634738 103.1604605  34.5748533  13.7449385
 102.4673850  34.6492888  13.0889421 102.9156356  33.8108877  14.2670902
 109.6351730  45.3103128  12.7113902 109.0625697  45.9293316  12.2584374
 110.2084523  45.8602490  13.2453824 115.7027119  34.5561768  24.8960451
 116.6544542  34.6559866  24.9172675 115.5330570  33.7640037  25.4058535
 113.7241499  31.6417352  25.0819852 113.1291431  31.9222364  24.3866341
 113.4391196  32.1311253  25.8536593 118.1815197  37.7767888  24.0102751
 118.1491517  36.8383889  24.1962434 118.7915821  37.8551925  23.2768576
 109.9037221  40.6981687  31.5130612 110.8240230  40.8760286  31.7070658
 109.8686804  39.7537733  31.3610311  99.1219386  35.8920281  20.4383886
  98.8022170  35.0385589  20.1458260  98.5752814  36.1068859  21.1941854
 102.8999293  38.6082722  24.1553393 103.1185303  39.5399830  24.1741427
 103.3125067  38.2490696  24.9408197 107.7727159  34.1815928  33.5456142
 107.6723885  35.1310285  33.4768233 107.5548701  33.8534167  32.6732212
  98.9907646  39.5123192  22.4077008  98.2971117  39.0977145  21.8946962
  99.7380637  39.5543729  21.8110427 107.6358429  37.6113067  32.3621203
 107.1525510  38.4113427  32.5685092 107.7219368  37.6221011  31.4088647
 100.9044388  39.4441446  20.2843023 100.8815076  39.5429133  19.3324906
 101.2145025  40.2906597  20.6060189 103.5631766  41.5017601  24.3989637
 104.5175020  41.4701544  24.3319569 103.3644290  41.0408225  25.2139863
 104.1531148  40.0718717  26.9660435 104.9724037  40.5662796  26.9895272
 104.4267956  39.1550685  26.9378002 101.9181995  47.0437221  21.4159835
 101.7836463  46.2837622  20.8497833 101.5014057  47.7678121  20.9488624
 105.0751121  47.9406538  21.6278278 104.9583505  48.8851970  21.5256968
 104.2543567  47.6380099  22.0164077  99.4066062  34.4056851  27.6652632
 100.0524926  33.8955805  28.1539857  99.1983214  35.1425533  28.2396057
 111.9319455  41.4737699  33.1644772 112.8010614  41.6478351  32.8031407
 111.4526206  42.2932115  33.0420502 106.1005635  48.5934800  24.8434206
 107.0032882  48.6258410  25.1600701 105.8743005  47.6635251  24.8580542
 107.8559237  47.3465786  21.5044285 106.9054868  47.3467648  21.3908657
 108.1591723  46.5998521  20.9880319 103.7463553  31.5524468  31.7627646
 104.6095015  31.1961273  31.9730971 103.1728964  31.2138363  32.4503050
 120.4001637  53.1353753  22.5051572 120.0620148  53.0194817  21.6172107
 121.2691405  52.7344918  22.4852578 116.2588452  54.9889229  18.4948463
 115.6953317  54.8979166  17.7264751 116.1440847  54.1689134  18.9750955
 120.8821420  54.2888604  28.4637777 120.8710060  53.8941403  27.5918281
 121.0442059  53.5554677  29.0571549 113.8052884  56.4840421  21.3332683
 114.5974176  56.1431245  20.9178983 114.0449534  56.5935396  22.2534837
 115.7643638  55.7449334  14.2050062 116.5374514  55.1978321  14.0662938
 116.1169037  56.6093583  14.4164523 117.6028681  57.0725716  27.4116961
 117.3118547  57.9771347  27.2963628 118.2385665  57.1142244  28.1261031
 118.5284888  54.4502565  24.0018321 119.1248460  54.2258587  23.2875284
 118.5859859  53.7087310  24.6043769 117.8206205  53.8070106  14.0392887
 117.7042463  53.1315009  14.7073971 117.9308465  53.3202480  13.2225040
 120.1637746  53.2680253  17.7439576 119.7995953  52.7410874  18.4552498
 121.0204862  52.8778722  17.5706062 116.0131047  53.2100929  20.4403459
 115.0881544  53.0777143  20.6481151 116.2615461  53.9895148  20.9373402
 113.3739858  52.8534202  21.2747249 113.5032240  53.1068681  22.1886660
 112.6937310  53.4461910  20.9551904 117.5439346  63.5231452  17.3737723
 117.4663375  64.4739277  17.4526203 116.9400989  63.1777325  18.0312649
 120.0356575  50.6959317  30.0299090 119.2589909  51.2553238  30.0201954
 120.6747138  51.1816100  30.5513960 118.2902948  53.5044771  29.5917057
 119.0317632  54.0429815  29.3151880 117.5839933  54.1311060  29.7488608
 120.1189357  50.5846518  25.5622775 120.9650553  51.0085932  25.7057424
 120.0587995  49.9280142  26.2561338 119.6415064  55.9449510  19.2091592
 120.1053409  56.2237213  18.4196215 119.3771862  55.0432955  19.0264683
 116.5339145  55.4920992  22.1471355 117.1040502  55.9208260  21.5088840
 117.1247257  55.2103576  22.8455541 118.5783950  52.0672662  16.0181157
 119.2807993  52.5193706  16.4855084 118.2464578  51.4256481  16.6461050
 117.0264311  50.6584419  30.3932367 116.3962972  51.3400700  30.6267763
 116.9200399  50.5467501  29.4485505 112.3209284  50.3256215  21.3198291
 111.5308338  50.5813744  20.8438401 112.8120531  51.1404553  21.4250331
 114.2724029  50.6900794  18.2781768 113.4755193  50.8019489  18.7965263
 114.0449621  51.0287447  17.4122658 120.1029697  57.2145498  26.2264282
 120.1674129  57.6765905  27.0622454 119.3940621  56.5842862  26.3546592
 110.6046987  50.5786706  23.7513282 110.8555025  51.4633715  24.0170858
 111.1406535  50.3991307  22.9788373 119.8177715  58.8813605  16.0943262
 119.6823389  59.7265141  16.5228110 120.3587527  59.0832883  15.3309196
 116.3045054  44.9605185  32.7557618 115.9112000  44.4071383  33.4305262
 117.1211195  45.2715763  33.1464135 113.2707112  56.3989043  16.6671188
 113.7831633  57.1932293  16.8176752 113.9229825  55.7015334  16.6004789
 115.0801997  59.5154799  18.7493941 115.2568625  60.4372764  18.5614925
 115.8758830  59.2013219  19.1788321 119.2213015  46.3763064  30.3477874
 119.9622729  46.9770217  30.2682337 119.4530938  45.6340702  29.7895917
 114.3654353  51.5619431  28.6256104 114.2507868  50.6604688  28.9263203
 113.5098871  51.8083128  28.2740920 116.2033312  61.0332973  24.7504283
 116.7540737  60.9050036  23.9781277 115.3644788  61.3327862  24.3999176
 120.0000483  57.2984101  29.0948514 120.5328820  56.5372389  28.8647822
 119.4714564  57.0057753  29.8372669 111.2356029  54.7277697  17.4430758
 112.0731251  55.1374706  17.2264466 111.4134296  53.7877140  17.4130952
 118.4909604  44.8587552  21.5957571 119.3562601  44.6630360  21.2363460
 118.5587113  44.6297904  22.5226928 121.3653196  56.4270093  16.6067326
 120.8374557  55.6922853  16.2940564 120.8640699  57.2044770  16.3607295
 116.0971923  47.0889760  18.9673938 116.6715675  46.8664941  18.2347131
 116.6842906  47.1578454  19.7202539 111.2582200  52.0668413  18.1141492
 111.0606600  51.4737773  17.3892558 110.7028864  51.7620623  18.8317430
 119.2378924  51.9591519  20.2336085 119.2927533  51.0065356  20.1578561
 118.4270126  52.1150958  20.7177383 117.1771283  50.5768579  17.9926464
 116.3639149  50.8762749  18.3991656 117.6730278  50.1824268  18.7100946
 119.3279861  60.5726336  19.9260728 119.2856040  60.7987182  18.9969260
 120.2442560  60.3389710  20.0746529 116.6685358  48.1486934  23.6087698
 117.3084738  48.0075694  22.9110662 115.8362889  47.8621448  23.2326300
 117.4445662  57.4489365  19.7222691 118.2386261  56.9539685  19.5205266
 116.7337354  56.9207228  19.3590397 113.7528426  51.5932447  15.7982444
 112.8226014  51.5316902  16.0152406 113.8485898  51.0708399  15.0019085
 113.6713975  48.1187259  18.3860685 113.9320792  49.0332593  18.2769846
 114.4931147  47.6511702  18.5357298 115.1438900  49.5325017  25.5559510
 115.8161953  49.3242379  24.9072159 114.3168686  49.3347103  25.1164742
 120.0216938  58.0218387  23.4020528 119.8828024  57.6537171  24.2746466
 119.2331534  58.5366026  23.2304486 120.6165090  63.1227483  14.7446065
 120.7916846  62.6515526  15.5591687 119.9297878  63.7493250  14.9727325
 121.5722153  57.3999990  20.7909366 121.2371986  57.3600760  21.6867016
 121.0726099  56.7344705  20.3179776 115.5466397  52.8067620  26.3161947
 115.4086195  52.0747858  26.9173486 116.4571321  52.7176520  26.0346135
 118.1748698  52.5187579  25.8045627 118.8848316  51.8780771  25.7632245
 118.1318006  52.7700474  26.7271807 116.8877632  49.5052797  27.6241266
 116.3514989  49.0543535  28.2762862 116.2994340  49.6398706  26.8811730
 115.1826175  66.2716846  21.5185925 115.4222774  66.9035370  22.1964943
 114.3395372  65.9204886  21.8051284 107.8182031  53.7518608  20.2809237
 108.5053071  53.4380338  19.6930252 107.6630160  54.6559973  20.0076488
 112.6216753  48.6408804  24.7094261 112.5374942  48.0334474  23.9744671
 111.7999459  49.1317823  24.7103757 119.6954037  62.0795969  23.9227429
 119.6224209  62.8850940  24.4346733 119.2531430  62.2787934  23.0975450
 119.4843817  61.3167739  17.4330250 118.7011339  61.8589419  17.5268475
 120.1836562  61.8341718  17.8324491 119.3775436  49.2679751  19.8036140
 119.0073223  48.7150791  20.4917046 119.8734528  48.6637884  19.2511140
 117.2064634  59.7277246  26.8991158 117.9074094  60.3613729  27.0520552
 116.7359749  60.0691978  26.1386797 112.8032352  59.2613601  23.8322261
 113.3885789  58.5157289  23.9650165 112.6057191  59.5717558  24.7158925
 115.6571008  62.2964848  18.8484703 114.9881383  62.7810976  18.3648743
 115.5183877  62.5434069  19.7628082 107.3950007  51.8319201  22.5526704
 107.4334107  51.2982792  23.3463822 106.8890300  51.3054407  21.9337681
 119.7976276  64.3308592  25.4467362 120.3494584  64.4940213  26.2116447
 120.1382470  64.9213030  24.7747386 114.7740769  46.6783742  26.0489246
 114.8382096  47.5398573  25.6366644 114.7107890  46.0657743  25.3161605
 114.2493042  48.7506874  29.6962281 114.8765081  48.3683952  30.3099805
 113.3920961  48.5321076  30.0617973 111.0258585  50.5583303  15.6280635
 111.3212026  49.6493982  15.5747689 110.1246620  50.5371043  15.3061638
 114.5552832  48.6339300  21.6108184 113.8339417  49.2475268  21.4715657
 115.3446087  49.1697065  21.5324830 117.3579145  45.9693726  27.8848836
 117.8813547  46.2156023  28.6475145 117.1391478  46.8013761  27.4651973
 112.7546426  48.2397401  15.7519961 112.4259132  47.3594780  15.5695066
 113.1085797  48.1845070  16.6396350 115.8688249  48.5270371  16.1195438
 116.2084322  49.0556292  15.3974047 116.3160370  48.8650777  16.8954005
 118.5631690  46.9107422  25.5698506 118.2228511  46.1115235  25.9719186
 117.8570696  47.2109132  24.9975339 119.2148162  43.9956734  24.0225829
 120.0374231  43.5217212  23.9004720 119.4586226  44.7747218  24.5224516
 116.7386741  50.6875855  21.8317808 116.5931322  51.0016158  22.7242089
 116.2611944  51.3060755  21.2788707 118.5983124  47.6778403  21.8798697
 118.5844692  46.7819496  21.5430995 119.3155552  47.6849066  22.5136984
 120.4509254  48.1115743  23.9251825 120.1927032  49.0332814  23.9236155
 119.9194295  47.7146177  24.6152289 111.2132403  53.2281199  24.7705469
 110.6685871  54.0041007  24.9025743 112.0911753  53.5752004  24.6124591
 111.9998425  52.3551095  27.6635626 111.2580161  52.5033731  28.2500256
 111.6791169  52.6159361  26.8002375 119.9442087  61.8967074  27.4616016
 120.2529214  61.6516220  28.3338716 120.7417569  62.1013712  26.9734886
 119.9662700  64.0504983  19.6921393 119.5267690  63.5581362  20.3854249
 120.7170816  63.5077951  19.4513468 112.4455038  60.2416524  19.6946021
 113.2713058  59.9420296  19.3144664 112.0949090  59.4724146  20.1435809
 117.4136572  59.5942992  21.7643694 116.7916581  58.9313697  21.4645922
 118.0841439  59.6204124  21.0817342 110.6463644  58.1602851  20.6534954
 109.8095552  57.7325025  20.4718955 110.6187289  58.3535294  21.5905745
 117.4861099  48.0724780  31.3576200 117.5349255  48.9486903  30.9753970
 118.0283613  47.5302173  30.7847843 116.9750079  58.1446916  15.2402155
 117.1238199  58.8282380  14.5868827 117.7816522  58.1252006  15.7551610
 119.7160388  48.8256153  28.1122559 118.8463697  49.1189719  27.8405147
 119.9519868  49.4096598  28.8329823 114.7302712  54.1712093  16.2463224
 114.4848753  53.2674423  16.4443434 114.8998626  54.1729244  15.3042702
 113.9998359  49.9040451  13.7449385 113.3067604  49.9784806  13.0889421
 113.7550111  49.1400794  14.2670902 120.4745484  60.6395046  12.7113902
 119.9019451  61.2585233  12.2584374 121.0478278  61.1894408  13.2453824
 109.9613140  51.2212199  20.4383886 109.6415924  50.3677507  20.1458260
 109.4146568  51.4360777  21.1941854 113.7393048  53.9374640  24.1553393
 113.9579057  54.8691747  24.1741427 114.1518821  53.5782614  24.9408197
 118.6120913  49.5107845  33.5456142 118.5117640  50.4602202  33.4768233
 118.3942455  49.1826084  32.6732212 109.8301400  54.8415110  22.4077008
 109.1364872  54.4269063  21.8946962 110.5774391  54.8835647  21.8110427
 118.4752183  52.9404984  32.3621203 117.9919265  53.7405344  32.5685092
 118.5613122  52.9512929  31.4088647 111.7438143  54.7733364  20.2843023
 111.7208831  54.8721051  19.3324906 112.0538779  55.6198515  20.6060189
 114.4025521  56.8309519  24.3989637 115.3568774  56.7993461  24.3319569
 114.2038044  56.3700143  25.2139863 114.9924903  55.4010635  26.9660435
 115.8117792  55.8954714  26.9895272 115.2661710  54.4842603  26.9378002
 112.7575749  62.3729138  21.4159835 112.6230217  61.6129539  20.8497833
 112.3407812  63.0970038  20.9488624 115.9144875  63.2698455  21.6278278
 115.7977259  64.2143888  21.5256968 115.0937321  62.9672017  22.0164077
 110.2459817  49.7348769  27.6652632 110.8918681  49.2247723  28.1539857
 110.0376968  50.4717450  28.2396057 116.9399389  63.9226717  24.8434206
 117.8426636  63.9550328  25.1600701 116.7136759  62.9927168  24.8580542
 118.6952991  62.6757704  21.5044285 117.7448622  62.6759565  21.3908657
 118.9985477  61.9290438  20.9880319 114.5857308  46.8816386  31.7627646
 115.4488769  46.5253191  31.9730971 114.0122719  46.5430281  32.4503050
 118.6575785  69.0810526  20.2809237 119.3446825  68.7672256  19.6930252
 118.5023914  69.9851890  20.0076488 118.2343762  67.1611119  22.5526704
 118.2727861  66.6274710  23.3463822 117.7284054  66.6346324  21.9337681
 121.4857398  73.4894768  20.6534954 120.6489306  73.0616943  20.4718955
 121.4581043  73.6827212  21.5905745 120.8006895  66.5504116  20.4383886
 120.4809679  65.6969424  20.1458260 120.2540323  66.7652694  21.1941854
 120.6695155  70.1707028  22.4077008 119.9758626  69.7560981  21.8946962
 121.4168146  70.2127564  21.8110427   4.3554025  54.0100208 100.0716700
   3.6017733  53.4407606  99.9160705   4.4901566  53.9762873 101.0187335
   0.7202638  55.4508197 100.3682815   1.5549529  55.8898001 100.5320375
   0.8561766  54.9746850  99.5491060   4.7660440  54.1675818 102.8036945
   5.4963829  53.9061106 103.3644648   4.1567386  53.4304540 102.8439012
   2.8475737  52.3083681 103.4011396   2.1208901  52.1739646 102.7927887
   2.4323024  52.6160509 104.2068114   0.4653532  48.5295533 100.7544827
   1.0598023  48.2891269 100.0438136   0.5380116  47.8102663 101.3818364
   2.7724605  51.8361734  99.5288249   2.2124163  51.9054923 100.3019811
   2.1668108  51.6602718  98.8087745   4.3580623  68.5118248 102.2218204
   4.9959033  68.3924995 101.5181544   4.2401466  69.4599092 102.2806156
   1.1670330  68.4645676 102.1579729   0.8288841  68.3486740 101.2700264
   2.0360098  68.0636841 102.1380735   2.6056704  73.9852120  93.4591085
   1.9544684  74.5706200  93.0725099   3.4001067  74.5158315  93.5186122
   3.9121892  66.2369701  99.2971412   4.6984981  65.8189125  98.9461829
   4.1760596  67.1415794  99.4653061   4.0831969  71.6742552  93.9960069
   3.4477802  71.7477178  94.7080974   3.7529376  72.2636151  93.3179148
   9.3130319  66.1744935 100.2004391  10.0455491  65.6044151 100.4342220
   8.5569675  65.7866535 100.6410896   0.9306439  68.5972176  97.3967733
   0.5664646  68.0702797  98.1080655   1.7873555  68.2070645  97.2234219
   6.8355739  59.8866509 104.6598999   6.5039064  60.7561920 104.4360214
   6.2401353  59.5702793 105.3393030   3.3287259  72.0879055 104.0594912
   3.0287982  72.9904094 103.9510719   2.9838318  71.8211238 104.9116065
   6.7284403  64.6061595 101.7392349   5.8201280  64.5377003 101.4451110
   6.6771998  65.0833540 102.5674175   8.5946049  62.8078033 103.5170223
   7.9520429  63.1010566 102.8710018   8.0900978  62.6930954 104.3223420
   6.2486213  66.5541207  94.2056083   7.1604069  66.7868593  94.0303780
   5.7395860  67.1378251  93.6431161   0.8858050  65.9138441 105.2150932
   1.7319246  66.3377855 105.3585581   0.8256688  65.2572065 105.9089495
   4.8555795  71.5367025 101.5969664   4.2264658  71.7012739 100.8945732
   4.4681457  71.9508635 102.3680628   8.7345027  72.4721463  98.9514028
   8.0496065  72.8520364  98.4011061   8.8188876  73.0816789  99.6845976
   4.0357496  63.5742809 106.8732106   3.7918428  64.3284870 106.3366381
   4.3117426  63.9528157 107.7079353   5.9895959  70.1181422 105.5509371
   6.2012854  70.7613182 104.8743752   5.9425707  69.2843738 105.0831301
   3.5922188  62.7299242 102.4545944   2.7306667  63.0280496 102.7462681
   3.6184622  62.9469641 101.5226976   7.1041787  72.9953377 103.7231729
   7.9259230  72.5933565 103.4414410   7.1004189  72.8921611 104.6747845
  15.1947780  69.3392126 100.0716700  14.4411488  68.7699524  99.9160705
  15.3295321  69.3054790 101.0187335   0.5846408  74.2105528  95.7471420
   0.4492082  75.0557064  96.1756267   1.1256220  74.4124806  94.9837353
   3.9338871  57.7336090 104.2770313   3.5903141  58.6237732 104.2009424
   4.3017834  57.5437748 103.4139898   3.8989154  67.7244701  92.7842748
   3.3835777  68.4949306  93.0231136   3.6266462  67.0509837  93.4075810
   1.4836265  62.5694402  97.8427987   0.6277861  62.1801252  97.6633625
   1.8963217  62.6486363  96.9827772   3.0135412  60.1040745 102.2419546
   2.5100207  60.0670880 101.4287352   3.3066018  61.0133488 102.3016203
   8.8723428  70.4777056  94.7195922   8.0952871  70.1388215  94.2751084
   9.5514909  70.4829679  94.0450887   3.6875457  65.5971793  94.6102529
   3.3825593  65.9117942  95.4612672   4.6405899  65.6753213  94.6529862
   2.1321889  71.7562016  96.2595483   1.6043250  71.0214776  95.9468721
   1.6309392  72.5336693  96.0135452   7.1114735  69.9511037 101.3762530
   6.4538409  70.6410298 101.4642658   7.9155134  70.3407469 101.7196516
   5.9220194  68.3055410  99.4266471   6.4352075  68.9385401  99.9288181
   6.5721418  67.7056605  99.0609831   3.1842568  78.2839734  92.1827142
   2.5104267  78.5871431  92.7912100   3.5708390  79.0868814  91.8332600
   2.4001025  65.7804865 101.6724812   1.4823586  66.0019812 101.5146500
   2.8161168  65.8551176 100.8136519   3.1836072  67.1796281  96.8027492
   3.9307891  67.6917678  96.4934614   3.4527662  66.8580334  97.6631886
   1.4562723  69.6754822  93.7854446   0.5473942  69.3913854  93.8826916
   1.4857806  70.0953900  92.9257753   6.6881990  73.2861411  97.5545614
   6.2344317  72.4452321  97.6110804   6.0575957  73.9222809  97.8920394
   5.6314910  64.2153397  98.7846281   4.8937666  63.7030783  99.1156524
   5.8841683  63.7753779  97.9729558   5.1314929  75.1237908  98.4895432
   5.4237904  75.6842965  97.7707798   5.6413550  75.4166469  99.2448591
   5.7326537  56.9929649  99.3788051   6.0385414  56.1327013  99.0913966
   6.4579142  57.5847269  99.1787045   1.1538810  71.2163565  91.1242525
   0.7158240  70.4999424  90.6648162   1.8949251  71.4439680  90.5627616
   3.5414188  66.3702326 106.4769515   3.8963576  66.5973800 107.3363980
   4.1886319  66.7020703 105.8546770   9.2711925  69.4920762  97.1818844
   9.1329824  69.6822358  96.2540033   8.9148144  70.2540145  97.6386895
   9.2981305  71.5597289 102.1930115   9.7317811  71.4672578 103.0413169
  10.0112885  71.5354790 101.5550131  10.1596854  71.6020990 104.7263000
  10.3532744  72.5066800 104.9722275  10.0597472  71.1428409 105.5601585
   1.8133165  61.4878881 107.2253328   1.1661080  62.1868830 107.1317804
   2.5834180  61.9215024 107.5929576   1.9897299  69.3259645 105.2850148
   2.9189359  69.4770805 105.1119115   1.5688329  69.4143666 104.4298794
   1.3833783  78.4519406  94.3974222   1.5585539  77.9807450  95.2119844
   0.6966571  79.0785173  94.6255482   2.3390846  72.7291913 100.4437523
   2.0040679  72.6892683 101.3395173   1.8394792  72.0636628  99.9707933
   5.2750038  70.0747947  90.7174583   4.6579209  69.3494775  90.6207635
   4.8066526  70.8357307  90.3741657   6.9321577  72.7486439 106.6094343
   6.0448356  72.4112361 106.7320741   7.5020128  72.0169470 106.8463108
   3.5609160  62.4554291  99.7292613   4.0577860  61.7024253  99.4093683
   2.7896142  62.4918608  99.1635822  11.4138917  68.1594657 101.3710904
  11.4028794  69.0419372 101.0004837  10.5456297  67.8066207 101.1765441
   4.6438941  71.2125978  97.3031036   3.7095219  71.3327441  97.1335740
   4.8215609  70.3098445  97.0391046   8.0311492  67.0543298  97.8381070
   8.4971944  67.8871289  97.7641373   8.4818993  66.5888279  98.5426329
   6.0987723  73.3987119  94.8367222   6.3747567  73.2843713  95.7461096
   5.2292222  73.0004604  94.7979395   6.0028155  59.4223885 101.8771972
   5.0891235  59.6528111 102.0454179   6.4321256  59.5062329 102.7286004
   5.7734613  67.6113776 104.3771866   5.1206064  67.8589684 103.7224318
   6.1514993  66.7977915 104.0434343   2.7341787  77.6473470  98.4800036
   2.9164182  76.8295126  98.9427788   3.5574773  77.8641162  98.0424926
   3.0683953  76.5741655  95.7415084   3.5971719  76.0634109  95.1285247
   3.3312172  76.2584185  96.6060617   3.7013356  77.6082491 102.0859201
   3.5764496  76.8072230 101.5770146   4.3592448  78.1028684 101.5973171
   5.7648265  75.4091511 103.7138751   4.8178600  75.2896862 103.6417078
   6.1131038  74.5214009 103.7965012   2.7694698  75.2044227  99.9143103
   2.6219661  74.2760934 100.0950673   3.5948192  75.2264318  99.4300178
   6.3728820  76.0272786 101.0007976   7.2975367  75.8215647 100.8632427
   6.2044123  75.7789187 101.9097317   2.7656212  63.0582064  94.9075220
   2.9819827  63.9406702  94.6064049   2.2850280  62.6668278  94.1780862
   1.2177947  63.4407666 103.5779982   0.9595725  64.3624737 103.5764312
   0.6862988  63.0438100 104.2680446   6.1624136  76.5458453  96.3570067
   6.3361014  75.9804875  95.6043920   6.6553027  77.3459348  96.1749557
   1.6379903  59.5739616  99.9381145   1.6601600  59.6378949  98.9833124
   2.0547962  58.7344125 100.1321651  12.0163527  69.3094876  97.9760367
  12.4594673  68.5602201  97.5779490  11.1390038  69.3005012  97.5934099
   7.1499309  75.8625217  93.4566966   7.8450213  76.4831910  93.6754280
   7.4922459  75.0120569  93.7319344   9.0490732  73.3124923  94.9854296
   9.5742056  73.6512196  94.2603616   8.9613084  72.3771938  94.8017431
   8.8582513  70.7950293 107.6038223   8.9080518  70.6300300 108.5453746
   8.7496436  69.9277552 107.2136104   6.1486275  66.7781221 108.9197530
   7.0496138  66.6387686 108.6281527   6.2234250  66.9435676 109.8595707
  10.3600710  73.2147234 107.8480244  10.0685518  73.5777215 108.6843705
   9.7472841  72.5014243 107.6693577  11.5596392  70.7800114 100.3682815
  12.3943283  71.2189918 100.5320375  11.6955521  70.3038767  99.5491060
   8.6087898  68.3379849 106.3160302   9.0842020  68.5307495 105.5079154
   7.6853463  68.3939035 106.0703686   3.1868114  60.3727693 105.2816136
   3.7050058  61.1088720 104.9562625   2.8323247  60.6791686 106.1162895
   3.4380709  56.7927975 100.8017033   3.7182462  56.1251164 101.4277459
   4.2231316  56.9857071 100.2891697   1.2414177  75.9686969  92.3642059
   0.6688144  76.5877156  91.9112531   1.8146971  76.5186331  92.8981981
   7.3089567  65.2145609 104.5488608   8.2606990  65.3143707 104.5700832
   7.1393017  64.4223878 105.0586692   5.3303946  62.3001192 104.7348009
   4.7353879  62.5806205 104.0394498   5.0453643  62.7895093 105.5064750
   4.4611437  76.2524119  93.4950642   5.3942110  76.1869681  93.6983517
   4.3734650  77.0880386  93.0365174   7.0899454  75.5689990  90.4554589
   7.0113085  75.2349853  91.3490347   7.9109120  76.0611757  90.4546061
   9.7877645  68.4351729 103.6630908   9.7553965  67.4967730 103.8490592
  10.3978268  68.5135766 102.9296733   1.6260976  67.3047782  89.7058112
   2.5720080  67.1753990  89.7746530   1.2475221  66.5662444  90.1827540
   9.9372133  65.2262772 103.7089191   9.4211182  64.4421229 103.5219120
  10.8212082  64.8981489 103.8735710   7.5982860  58.9703788  99.6685004
   7.4007681  58.6618876 100.5528336   8.2082566  59.6965427  99.7982933
  15.6054195  69.4967736 102.8036945  16.3357583  69.2353024 103.3644648
  14.9961140  68.7596458 102.8439012  13.6869492  67.6375598 103.4011396
  12.9602655  67.5031563 102.7927887  13.2716779  67.9452427 104.2068114
   1.4265959  59.7734648  95.7957238   0.6166687  59.4281733  96.1712484
   2.1150375  59.4642192  96.3844850   3.3556507  58.8512695  97.4181535
   3.9087545  59.2708148  98.0771558   3.5926593  57.9248443  97.4604491
   6.7335314  60.9613220  96.9260199   6.1533983  61.6198024  96.5438252
   6.4671247  60.1390564  96.5147617   5.1838880  60.3618278  99.1281520
   5.6838659  60.4734812  98.3195838   5.8274488  60.0579330  99.7682328
   5.5160192  63.1213310  95.9816547   4.6286047  63.4062961  95.7636742
   5.9314181  62.9607074  95.1343824   8.8674728  63.1459831  99.6970887
   9.6435118  63.6356284  99.9695504   8.1422862  63.5717885 100.1542756
  11.3047287  63.8587450 100.7544827  11.8991777  63.6183186 100.0438136
  11.3773870  63.1394581 101.3818364   4.6603405  72.8857985  90.0764567
   5.3639256  73.0907987  90.6922223   3.9366054  73.4534747  90.3413651
   5.4901216  68.6367846  96.1966838   5.4336417  69.0936398  95.3574470
   6.0429558  67.8758531  96.0189680   9.3006022  64.4257578  97.0216957
   9.0442956  64.0254214  97.8525165   8.6758890  65.1401372  96.8967096
  13.6118359  67.1653651  99.5288249  13.0517917  67.2346841 100.3019811
  13.0061863  66.9894636  98.8087745   6.5690103  73.3240514  92.1263027
   7.4035707  72.8921713  91.9440502   6.4074446  73.1522528  93.0539922
   6.2235995  69.8272627  93.4919367   6.1684799  69.6616899  92.5507811
   5.5982050  70.5348660  93.6481557   3.3484240  55.9223513  97.3250622
   2.5816636  55.3682000  97.4707304   3.7594945  55.9945382  98.1864774
  15.1974378  83.8410165 102.2218204  15.8352788  83.7216913 101.5181544
  15.0795221  84.7891009 102.2806156  12.0064084  83.7937593 102.1579729
  11.6682596  83.6778658 101.2700264  12.8753852  83.3928758 102.1380735
   7.8650900  85.6473070  98.1476620   7.3015765  85.5563007  97.3792908
   7.7503295  84.8272974  98.6279112  13.4450459  89.3144037  93.4591085
  12.7938438  89.8998118  93.0725099  14.2394821  89.8450232  93.5186122
   7.3706086  86.4033175  93.8578219   8.1436962  85.8562162  93.7191095
   7.7231485  87.2677424  94.0692681  10.1347335  85.1086405 103.6546478
  10.7310907  84.8842428 102.9403441  10.1922307  84.3671151 104.2571926
   9.7072364  82.5625841  91.4896669   9.9597884  82.0407362  90.7280132
   8.7696923  82.3991986  91.5923353  14.7515646  81.5661619  99.2971412
  15.5378736  81.1481042  98.9461829  15.0154351  82.4707711  99.4653061
  14.9225724  87.0034469  93.9960069  14.2871557  87.0769096  94.7080974
  14.5923130  87.5928068  93.3179148  20.1524074  81.5036852 100.2004391
  20.8849245  80.9336069 100.4342220  19.3963429  81.1158453 100.6410896
   9.4268652  84.4653947  93.6921044   9.3104910  83.7898850  94.3602128
   9.5370912  83.9786321  92.8753197  11.7700193  83.9264094  97.3967733
  11.4058400  83.3994715  98.1080655  12.6267309  83.5362563  97.2234219
  17.6749494  75.2158426 104.6598999  17.3432819  76.0853837 104.4360214
  17.0795107  74.8994710 105.3393030  11.4105680  78.9553994  92.3929082
  11.5780083  79.8234230  92.7599553  11.2202849  79.1181275  91.4690371
  14.1681013  87.4170972 104.0594912  13.8681736  88.3196011 103.9510719
  13.8232073  87.1503156 104.9116065   7.6193495  83.8684769 100.0931617
   6.6943991  83.7360983 100.3009308   7.8677908  84.6478988 100.5901559
  17.5678157  79.9353513 101.7392349  16.6595035  79.8668921 101.4451110
  17.5165753  80.4125458 102.5674175  11.3894901  81.4111651  93.3775749
  11.2694526  81.8568702  94.2161229  10.6947489  81.7596969  92.8189287
   9.1501793  94.1815293  97.0265880   9.0725823  95.1323118  97.1054360
   8.5463437  93.8361165  97.6840806  19.4339804  78.1369951 103.5170223
  18.7914184  78.4302484 102.8710018  18.9294732  78.0222871 104.3223420
  17.0879967  81.8833124  94.2056083  17.9997823  82.1160511  94.0303780
  16.5789614  82.4670168  93.6431161  11.7251805  81.2430359 105.2150932
  12.5713000  81.6669772 105.3585581  11.6650443  80.5863983 105.9089495
  15.6949550  86.8658943 101.5969664  15.0658412  87.0304657 100.8945732
  15.3075212  87.2800552 102.3680628  19.5738781  87.8013380  98.9514028
  18.8889820  88.1812282  98.4011061  19.6582631  88.4108707  99.6845976
  14.8751250  78.9034727 106.8732106  14.6312182  79.6576788 106.3366381
  15.1511181  79.2820075 107.7079353  16.8289713  85.4473340 105.5509371
  17.0406608  86.0905099 104.8743752  16.7819461  84.6135656 105.0831301
  14.4315942  78.0591160 102.4545944  13.5700421  78.3572414 102.7462681
  14.4578377  78.2761559 101.5226976  11.2477511  86.6033351  98.8619749
  11.7115857  86.8821054  98.0724372  10.9834310  85.7016795  98.6792840
   8.1401592  86.1504832 101.7999512   8.7102950  86.5792101 101.1616997
   8.7309704  85.8687417 102.4983698  10.1846397  82.7256503  95.6709314
  10.8870441  83.1777547  96.1383241   9.8527026  82.0840322  96.2989207
   3.9271731  80.9840056 100.9726448   3.1370785  81.2397584 100.4966559
   4.4182979  81.7988394 101.0778488  17.9435541  88.3245295 103.7231729
  18.7652985  87.9225482 103.4414410  17.9397944  88.2213529 104.6747845
   5.8786477  81.3484635  97.9309925   5.0817640  81.4603329  98.4493420
   5.6512069  81.6871287  97.0650815  26.0341534  84.6684043 100.0716700
  25.2805242  84.0991441  99.9160705  26.1689075  84.6346708 101.0187335
  11.4240162  89.5397446  95.7471420  11.2885837  90.3848981  96.1756267
  11.9649975  89.7416723  94.9837353   4.8769560  87.0572884  96.3199345
   5.3894080  87.8516134  96.4704909   5.5292272  86.3599174  96.2532946
   6.6864444  90.1738640  98.4022098   6.8631073  91.0956605  98.2143082
   7.4821278  89.8597059  98.8316478  14.7732626  73.0628008 104.2770313
  14.4296895  73.9529649 104.2009424  15.1411588  72.8729665 103.4139898
   2.8418476  85.3861538  97.0958915   3.6793698  85.7958546  96.8792623
   3.0196744  84.4460980  97.0659109  14.7382908  83.0536619  92.7842748
  14.2229532  83.8241223  93.0231136  14.4660217  82.3801755  93.4075810
  12.3230019  77.8986319  97.8427987  11.4671616  77.5093170  97.6633625
  12.7356971  77.9778280  96.9827772  13.8529166  75.4332663 102.2419546
  13.3493962  75.3962798 101.4287352  14.1459773  76.3425405 102.3016203
  10.0972052  75.5171392 101.2485728  10.9625049  75.3214201 100.8891617
  10.1649561  75.2881744 102.1755085  19.7117183  85.8068973  94.7195922
  18.9346625  85.4680133  94.2751084  20.3908664  85.8121597  94.0450887
  14.5269212  80.9263711  94.6102529  14.2219347  81.2409860  95.4612672
  15.4799654  81.0045131  94.6529862  12.9715643  87.0853934  96.2595483
  12.4437005  86.3506694  95.9468721  12.4703146  87.8628610  96.0135452
  17.9508489  85.2802955 101.3762530  17.2932164  85.9702216 101.4642658
  18.7548889  85.6699387 101.7196516   7.7034371  77.7473600  98.6202095
   8.2778123  77.5248782  97.8875288   8.2905353  77.8162295  99.3730696
  16.7613948  83.6347327  99.4266471  17.2745830  84.2677319  99.9288181
  17.4115172  83.0348523  99.0609831   8.0303958  79.7778061  92.6397980
   7.1941270  80.1152748  92.9607255   7.8908728  79.6427041  91.7025117
  10.0057039  74.6214849  97.3477164   9.3521451  74.3063866  96.7233779
   9.9637513  73.9990590  98.0736987  11.1168244  84.9034144  89.2630456
  10.2095305  84.6723398  89.4621605  11.6139276  84.1071764  89.4504438
  14.0236322  93.6131652  92.1827142  13.3498021  93.9163348  92.7912100
  14.4102144  94.4160732  91.8332600  13.2394779  81.1096783 101.6724812
  12.3217340  81.3311730 101.5146500  13.6554923  81.1843093 100.8136519
  14.0229827  82.5088199  96.8027492  14.7701646  83.0209596  96.4934614
  14.2921416  82.1872251  97.6631886  12.2956477  85.0046739  93.7854446
  11.3867696  84.7205772  93.8826916  12.3251561  85.4245818  92.9257753
  17.5275744  88.6153329  97.5545614  17.0738072  87.7744239  97.6110804
  16.8969711  89.2514727  97.8920394  16.4708664  79.5445315  98.7846281
  15.7331421  79.0322701  99.1156524  16.7235438  79.1045696  97.9729558
  15.9708684  90.4529825  98.4895432  16.2631658  91.0134883  97.7707798
  16.4807304  90.7458386  99.2448591  16.5720291  72.3221567  99.3788051
  16.8779168  71.4618930  99.0913966  17.2972896  72.9139187  99.1787045
   2.8644647  82.7252253  97.7669649   2.6669047  82.1321614  97.0420715
   2.3091311  82.4204464  98.4845587  10.8441371  82.6175360  99.8864242
  10.8989981  81.6649196  99.8106718  10.0332573  82.7734799 100.3705540
  11.9932565  86.5455483  91.1242525  11.5551995  85.8291342  90.6648162
  12.7343006  86.7731598  90.5627616   8.7833731  81.2352420  97.6454621
   7.9701597  81.5346590  98.0519813   9.2792725  80.8408108  98.3629103
  10.9342309  91.2310177  99.5788885  10.8918488  91.4571023  98.6497417
  11.8505008  90.9973551  99.7274686  14.3807943  81.6994244 106.4769515
  14.7357330  81.9265717 107.3363980  15.0280074  82.0312621 105.8546770
  20.1105680  84.8212680  97.1818844  19.9723578  85.0114276  96.2540033
  19.7541898  85.5832063  97.6386895   8.2747806  78.8070775 103.2615856
   8.9147185  78.6659534 102.5638819   7.4425336  78.5205289 102.8854458
  20.1375059  86.8889207 102.1930115  20.5711566  86.7964496 103.0413169
  20.8506640  86.8646707 101.5550131   9.0508110  88.1073206  99.3750848
   9.8448708  87.6123526  99.1733423   8.3399802  87.5791069  99.0118554
   5.3590873  82.2516287  95.4510601   4.4288461  82.1900743  95.6680563
   5.4548345  81.7292240  94.6547242   5.2776422  78.7771100  98.0388842
   5.5383239  79.6916433  97.9298003   6.0993595  78.3095543  98.1885455
  20.9990609  86.9312908 104.7263000  21.1926499  87.8358718 104.9722275
  20.8991227  86.4720327 105.5601585  12.6526920  76.8170798 107.2253328
  12.0054835  77.5160748 107.1317804  13.4227935  77.2506942 107.5929576
  12.8291054  84.6551563 105.2850148  13.7583114  84.8062723 105.1119115
  12.4082084  84.7435584 104.4298794  12.2227538  93.7811324  94.3974222
  12.3979293  93.3099367  95.2119844  11.5360326  94.4077090  94.6255482
  13.1784601  88.0583830 100.4437523  12.8434433  88.0184600 101.3395173
  12.6788546  87.3928546  99.9707933  16.1143792  85.4039865  90.7174583
  15.4972963  84.6786693  90.6207635  15.6460281  86.1649225  90.3741657
   7.9042338  79.6225289  89.8395887   7.0271805  79.5014090  89.4758134
   8.3800091  78.8311367  89.5874776  17.7715331  88.0778357 106.6094343
  16.8842110  87.7404279 106.7320741  18.3413882  87.3461388 106.8463108
  11.0906264  91.9751579  97.0858407  10.3073786  92.5173259  97.1796632
  11.7899010  92.4925559  97.4852649  14.4002915  77.7846209  99.7292613
  14.8971614  77.0316171  99.4093683  13.6289896  77.8210525  99.1635822
  22.2532672  83.4886574 101.3710904  22.2422548  84.3711290 101.0004837
  21.3850051  83.1358125 101.1765441  15.4832695  86.5417896  97.3031036
  14.5488974  86.6619358  97.1335740  15.6609364  85.6390363  97.0391046
  10.9837883  79.9263592  99.4564297  10.6135671  79.3734632 100.1445203
  11.4796976  79.3221725  98.9039297  18.8705247  82.3835215  97.8381070
  19.3365699  83.2163207  97.7641373  19.3212747  81.9180197  98.5426329
  16.9381478  88.7279036  94.8367222  17.2141322  88.6135631  95.7461096
  16.0685976  88.3296521  94.7979395  16.8421909  74.7515802 101.8771972
  15.9284989  74.9820029 102.0454179  17.2715011  74.8354246 102.7286004
  16.6128368  82.9405694 104.3771866  15.9599818  83.1881602 103.7224318
  16.9908748  82.1269832 104.0434343  13.5735542  92.9765387  98.4800036
  13.7557936  92.1587043  98.9427788  14.3968528  93.1933080  98.0424926
  13.9077707  91.9033572  95.7415084  14.4365474  91.3926027  95.1285247
  14.1705927  91.5876103  96.6060617   6.3803217  77.3367582 105.7017403
   6.4444543  78.1982413 105.2894801   6.3170337  76.7241584 104.9689762
   2.6321032  81.2167144  95.2808793   2.9274473  80.3077823  95.2275846
   1.7309068  81.1954884  94.9589795  14.5407111  92.9374408 102.0859201
  14.4158250  92.1364148 101.5770146  15.1986202  93.4320602 101.5973171
   6.1615279  79.2923141 101.2636341   5.4401865  79.9059108 101.1243814
   6.9508535  79.8280906 101.1852987  16.6042019  90.7383428 103.7138751
  15.6572355  90.6188779 103.6417078  16.9524792  89.8505926 103.7965012
   8.9641593  76.6277567 107.5376993   9.4875995  76.8739864 108.3003302
   8.7453926  77.4597602 107.1180130   4.3608874  78.8981242  95.4048118
   4.0321580  78.0178621  95.2223224   4.7148244  78.8428910  96.2924507
  13.6088453  90.5336144  99.9143103  13.4613415  89.6052852 100.0950673
  14.4341946  90.5556235  99.4300178   7.4750697  79.1854212  95.7723595
   7.8146769  79.7140133  95.0502204   7.9222817  79.5234618  96.5482162
  17.2122574  91.3564703 101.0007976  18.1369122  91.1507565 100.8632427
  17.0437878  91.1081104 101.9097317  10.1694138  77.5691262 105.2226663
   9.8290958  76.7699075 105.6247343   9.4633144  77.8692973 104.6503497
  10.8210610  74.6540575 103.6753986  11.6436679  74.1801053 103.5532877
  11.0648673  75.4331058 104.1752673   9.4618844  77.6828833  93.9716888
  10.1827207  78.0610086  93.4680605   8.8384148  78.4017710  94.0751866
  13.6049967  78.3873982  94.9075220  13.8213581  79.2698620  94.6064049
  13.1244034  77.9960196  94.1780862   8.3449188  81.3459695 101.4845965
   8.1993769  81.6599998 102.3770247   7.8674392  81.9644596 100.9316864
  10.2045571  78.3362243 101.5326855  10.1907140  77.4403337 101.1959153
  10.9217999  78.3432907 102.1665141  12.0571702  78.7699584 103.5779982
  11.7989480  79.6916654 103.5764312  11.5256742  78.3730018 104.2680446
  17.0017891  91.8750371  96.3570067  17.1754768  91.3096793  95.6043920
  17.4946782  92.6751266  96.1749557   9.6082467  77.2176624  96.8014425
   9.7298378  76.2893270  97.0005312   9.3184510  77.2315310  95.8892740
  12.4773658  74.9031534  99.9381145  12.4995354  74.9670867  98.9833124
  12.8941717  74.0636043 100.1321651  22.8557282  84.6386794  97.9760367
  23.2988428  83.8894119  97.5779490  21.9783792  84.6296930  97.5934099
  17.9893063  91.1917135  93.4566966  18.6843968  91.8123828  93.6754280
  18.3316213  90.3412486  93.7319344  19.8884486  88.6416841  94.9854296
  20.4135810  88.9804113  94.2603616  19.8006839  87.7063856  94.8017431
  19.6976267  86.1242211 107.6038223  19.7474272  85.9592218 108.5453746
  19.5890191  85.2569470 107.2136104   8.5812526  88.8030756  94.8930312
   8.7300646  89.4866221  94.2396985   9.3878970  88.7835846  95.4079768
  16.9880030  82.1073139 108.9197530  17.8889893  81.9679603 108.6281527
  17.0628004  82.2727593 109.8595707  11.3222835  79.4839993 107.7650716
  10.4526145  79.7773559 107.4933305  11.5582316  80.0680438 108.4857980
  21.1994464  88.5439152 107.8480244  20.9079273  88.9069133 108.6843705
  20.5866596  87.8306160 107.6693577  22.3990147  86.1092032 100.3682815
  23.2337038  86.5481836 100.5320375  22.5349275  85.6330685  99.5491060
  19.4481653  83.6671767 106.3160302  19.9235774  83.8599413 105.5079154
  18.5247218  83.7230953 106.0703686   6.3365159  84.8295934  95.8991381
   6.0911201  83.9258264  96.0971591   6.5061074  84.8313084  94.9570859
  14.0261869  75.7019610 105.2816136  14.5443813  76.4380637 104.9562625
  13.6717002  76.0083604 106.1162895   5.6060807  80.5624292  93.3977542
   4.9130052  80.6368647  92.7417578   5.3612559  79.7984635  93.9199059
  14.2774463  72.1219893 100.8017033  14.5576217  71.4543082 101.4277459
  15.0625070  72.3148988 100.2891697  12.0807932  91.2978887  92.3642059
  11.5081899  91.9169074  91.9112531  12.6540725  91.8478248  92.8981981
  18.1483322  80.5437527 104.5488608  19.1000744  80.6435625 104.5700832
  17.9786772  79.7515795 105.0586692  16.1697701  77.6293110 104.7348009
  15.5747633  77.9098123 104.0394498  15.8847398  78.1187011 105.5064750
  15.3005191  91.5816037  93.4950642  16.2335865  91.5161599  93.6983517
  15.2128404  92.4172304  93.0365174  17.9293208  90.8981907  90.4554589
  17.8506840  90.5641771  91.3490347  18.7502875  91.3903675  90.4546061
  20.6271399  83.7643647 103.6630908  20.5947719  82.8259647 103.8490592
  21.2372023  83.8427683 102.9296733  12.4654730  82.6339700  89.7058112
  13.4113835  82.5045908  89.7746530  12.0868975  81.8954361  90.1827540
  20.7765888  80.5554690 103.7089191  20.2604936  79.7713147 103.5219120
  21.6605836  80.2273407 103.8735710  18.4376615  74.2995706  99.6685004
  18.2401436  73.9910794 100.5528336  19.0476320  75.0257344  99.7982933
  26.4447949  84.8259653 102.8036945  27.1751338  84.5644942 103.3644648
  25.8354895  84.0888375 102.8439012  24.5263246  82.9667516 103.4011396
  23.7996410  82.8323481 102.7927887  24.1110533  83.2744345 104.2068114
  10.6497647  80.5589676  89.6412997   9.7429103  80.2622789  89.7175711
  10.9273628  80.2619494  88.7747283  12.2659713  75.1026566  95.7957238
  11.4560441  74.7573651  96.1712484  12.9544130  74.7934109  96.3844850
  14.1950261  74.1804612  97.4181535  14.7481300  74.6000066  98.0771558
  14.4320348  73.2540361  97.4604491   9.4196432  77.4176611  89.7824976
  10.2815596  77.7431509  90.0420794   9.6046776  76.6308107  89.2698042
  17.5729068  76.2905138  96.9260199  16.9927737  76.9489942  96.5438252
  17.3065001  75.4682482  96.5147617  16.0232635  75.6910195  99.1281520
  16.5232413  75.8026730  98.3195838  16.6668243  75.3871248  99.7682328
  16.3553946  78.4505228  95.9816547  15.4679801  78.7354879  95.7636742
  16.7707935  78.2898991  95.1343824  19.7068483  78.4751749  99.6970887
  20.4828873  78.9648201  99.9695504  18.9816617  78.9009803 100.1542756
  22.1441041  79.1879368 100.7544827  22.7385532  78.9475104 100.0438136
  22.2167625  78.4686499 101.3818364  15.4997160  88.2149903  90.0764567
  16.2033010  88.4199905  90.6922223  14.7759809  88.7826665  90.3413651
  16.3294970  83.9659764  96.1966838  16.2730172  84.4228315  95.3574470
  16.8823313  83.2050448  96.0189680  20.1399776  79.7549496  97.0216957
  19.8836710  79.3546131  97.8525165  19.5152644  80.4693290  96.8967096
  24.4512114  82.4945569  99.5288249  23.8911672  82.5638758 100.3019811
  23.8455617  82.3186554  98.8087745  17.4083857  88.6532432  92.1263027
  18.2429461  88.2213630  91.9440502  17.2468200  88.4814446  93.0539922
  17.0629749  85.1564545  93.4919367  17.0078553  84.9908817  92.5507811
  16.4375805  85.8640578  93.6481557  10.3725875  74.6572654  93.0704685
  10.3604545  75.6014494  93.2272956  11.2649297  74.4742800  92.7764146
  14.1877994  71.2515431  97.3250622  13.4210390  70.6973917  97.4707304
  14.5988699  71.3237300  98.1864774  26.0368132  99.1702083 102.2218204
  26.6746542  99.0508830 101.5181544  25.9188975 100.1182927 102.2806156
  22.8457839  99.1229511 102.1579729  22.5076350  99.0070576 101.2700264
  23.7147607  98.7220676 102.1380735  18.7044654 100.9764987  98.1476620
  18.1409519 100.8854924  97.3792908  18.5897049 100.1564892  98.6279112
  24.2844213 104.6435955  93.4591085  23.6332193 105.2290036  93.0725099
  25.0788576 105.1742150  93.5186122  18.2099840 101.7325092  93.8578219
  18.9830716 101.1854079  93.7191095  18.5625239 102.5969342  94.0692681
  20.9741090 100.4378323 103.6546478  21.5704662 100.2134345 102.9403441
  21.0316061  99.6963069 104.2571926  20.5466118  97.8917758  91.4896669
  20.7991639  97.3699280  90.7280132  19.6090677  97.7283904  91.5923353
  25.5909401  96.8953537  99.2971412  26.3772490  96.4772960  98.9461829
  25.8548105  97.7999629  99.4653061  25.7619478 102.3326387  93.9960069
  25.1265311 102.4061014  94.7080974  25.4316885 102.9219986  93.3179148
  30.9917828  96.8328770 100.2004391  31.7243000  96.2627987 100.4342220
  30.2357184  96.4450370 100.6410896  20.2662407  99.7945864  93.6921044
  20.1498665  99.1190768  94.3602128  20.3764667  99.3078238  92.8753197
  22.6093948  99.2556011  97.3967733  22.2452155  98.7286632  98.1080655
  23.4661064  98.8654481  97.2234219  28.5143248  90.5450344 104.6598999
  28.1826573  91.4145755 104.4360214  27.9188862  90.2286628 105.3393030
  22.2499435  94.2845911  92.3929082  22.4173837  95.1526148  92.7599553
  22.0596604  94.4473193  91.4690371  25.0074768 102.7462890 104.0594912
  24.7075491 103.6487929 103.9510719  24.6625827 102.4795073 104.9116065
  18.4587249  99.1976687 100.0931617  17.5337746  99.0652901 100.3009308
  18.7071663  99.9770906 100.5901559  28.4071912  95.2645430 101.7392349
  27.4988789  95.1960839 101.4451110  28.3559507  95.7417375 102.5674175
  22.2288656  96.7403569  93.3775749  22.1088281  97.1860619  94.2161229
  21.5341244  97.0888886  92.8189287  19.9895548 109.5107210  97.0265880
  19.9119577 110.4615036  97.1054360  19.3857191 109.1653083  97.6840806
  30.2733558  93.4661869 103.5170223  29.6307938  93.7594402 102.8710018
  29.7688487  93.3514789 104.3223420  27.9273722  97.2125042  94.2056083
  28.8391578  97.4452429  94.0303780  27.4183369  97.7962086  93.6431161
  22.5645559  96.5722276 105.2150932  23.4106755  96.9961690 105.3585581
  22.5044197  95.9155901 105.9089495  26.5343304 102.1950860 101.5969664
  25.9052166 102.3596574 100.8945732  26.1468966 102.6092470 102.3680628
  30.4132536 103.1305298  98.9514028  29.7283574 103.5104200  98.4011061
  30.4976385 103.7400625  99.6845976  25.7145005  94.2326645 106.8732106
  25.4705937  94.9868705 106.3366381  25.9904935  94.6111992 107.7079353
  27.6683468 100.7765257 105.5509371  27.8800363 101.4197017 104.8743752
  27.6213216  99.9427574 105.0831301  25.2709697  93.3883078 102.4545944
  24.4094176  93.6864331 102.7462681  25.2972131  93.6053477 101.5226976
  22.0871266 101.9325268  98.8619749  22.5509611 102.2112971  98.0724372
  21.8228064 101.0308713  98.6792840  18.9795347 101.4796750 101.7999512
  19.5496704 101.9084018 101.1616997  19.5703459 101.1979335 102.4983698
  21.0240152  98.0548421  95.6709314  21.7264195  98.5069464  96.1383241
  20.6920780  97.4132240  96.2989207  14.7665486  96.3131973 100.9726448
  13.9764540  96.5689502 100.4966559  15.2576733  97.1280311 101.0778488
  28.7829295 103.6537213 103.7231729  29.6046739 103.2517400 103.4414410
  28.7791698 103.5505447 104.6747845  16.7180231  96.6776553  97.9309925
  15.9211395  96.7895247  98.4493420  16.4905824  97.0163205  97.0650815
  36.8735289  99.9975961 100.0716700  36.1198997  99.4283359  99.9160705
  37.0082830  99.9638626 101.0187335  22.2633917 104.8689363  95.7471420
  22.1279591 105.7140899  96.1756267  22.8043729 105.0708641  94.9837353
  15.7163314 102.3864801  96.3199345  16.2287835 103.1808052  96.4704909
  16.3686027 101.6891092  96.2532946  17.5258199 105.5030558  98.4022098
  17.7024827 106.4248522  98.2143082  18.3215032 105.1888977  98.8316478
  25.6126380  88.3919925 104.2770313  25.2690650  89.2821567 104.2009424
  25.9805343  88.2021583 103.4139898  13.6812231 100.7153456  97.0958915
  14.5187453 101.1250464  96.8792623  13.8590498  99.7752898  97.0659109
  25.5776663  98.3828536  92.7842748  25.0623286  99.1533141  93.0231136
  25.3053971  97.7093673  93.4075810  23.1623774  93.2278237  97.8427987
  22.3065370  92.8385088  97.6633625  23.5750726  93.3070198  96.9827772
  24.6922921  90.7624580 102.2419546  24.1887716  90.7254716 101.4287352
  24.9853527  91.6717323 102.3016203  20.9365806  90.8463310 101.2485728
  21.8018803  90.6506119 100.8891617  21.0043315  90.6173662 102.1755085
  30.5510937 101.1360891  94.7195922  29.7740380 100.7972051  94.2751084
  31.2302418 101.1413514  94.0450887  25.3662966  96.2555628  94.6102529
  25.0613102  96.5701778  95.4612672  26.3193408  96.3337048  94.6529862
  23.8109398 102.4145852  96.2595483  23.2830759 101.6798611  95.9468721
  23.3096901 103.1920528  96.0135452  28.7902244 100.6094872 101.3762530
  28.1325918 101.2994134 101.4642658  29.5942643 100.9991304 101.7196516
  18.5428126  93.0765518  98.6202095  19.1171877  92.8540700  97.8875288
  19.1299108  93.1454213  99.3730696  27.6007703  98.9639245  99.4266471
  28.1139584  99.5969237  99.9288181  28.2508927  98.3640440  99.0609831
  18.8697713  95.1069979  92.6397980  18.0335025  95.4444666  92.9607255
  18.7302482  94.9718959  91.7025117  20.8450793  89.9506767  97.3477164
  20.1915206  89.6355784  96.7233779  20.8031267  89.3282507  98.0736987
  21.9561998 100.2326062  89.2630456  21.0489060 100.0015316  89.4621605
  22.4533030  99.4363681  89.4504438  24.8630077 108.9423569  92.1827142
  24.1891776 109.2455266  92.7912100  25.2495899 109.7452650  91.8332600
  24.0788534  96.4388701 101.6724812  23.1611095  96.6603648 101.5146500
  24.4948677  96.5135011 100.8136519  24.8623581  97.8380116  96.8027492
  25.6095400  98.3501513  96.4934614  25.1315171  97.5164169  97.6631886
  23.1350232 100.3338657  93.7854446  22.2261451 100.0497690  93.8826916
  23.1645315 100.7537735  92.9257753  28.3669499 103.9445246  97.5545614
  27.9131826 103.1036156  97.6110804  27.7363466 104.5806645  97.8920394
  27.3102419  94.8737232  98.7846281  26.5725175  94.3614619  99.1156524
  27.5629192  94.4337614  97.9729558  26.8102438 105.7821743  98.4895432
  27.1025413 106.3426800  97.7707798  27.3201059 106.0750304  99.2448591
  27.4114046  87.6513484  99.3788051  27.7172923  86.7910848  99.0913966
  28.1366651  88.2431105  99.1787045  13.7038402  98.0544171  97.7669649
  13.5062802  97.4613532  97.0420715  13.1485066  97.7496381  98.4845587
  21.6835126  97.9467278  99.8864242  21.7383735  96.9941114  99.8106718
  20.8726328  98.1026717 100.3705540  22.8326319 101.8747401  91.1242525
  22.3945749 101.1583260  90.6648162  23.5736760 102.1023515  90.5627616
  19.6227485  96.5644337  97.6454621  18.8095351  96.8638508  98.0519813
  20.1186480  96.1700026  98.3629103  21.7736063 106.5602094  99.5788885
  21.7312242 106.7862941  98.6497417  22.6898762 106.3265469  99.7274686
  25.2201697  97.0286162 106.4769515  25.5751085  97.2557635 107.3363980
  25.8673828  97.3604539 105.8546770  30.9499434 100.1504598  97.1818844
  30.8117333 100.3406194  96.2540033  30.5935653 100.9123980  97.6386895
  19.1141560  94.1362693 103.2615856  19.7540940  93.9951452 102.5638819
  18.2819091  93.8497206 102.8854458  30.9768814 102.2181125 102.1930115
  31.4105320 102.1256414 103.0413169  31.6900394 102.1938625 101.5550131
  19.8901864 103.4365123  99.3750848  20.6842463 102.9415443  99.1733423
  19.1793557 102.9082986  99.0118554  16.1984628  97.5808205  95.4510601
  15.2682216  97.5192660  95.6680563  16.2942100  97.0584158  94.6547242
  16.1170177  94.1063018  98.0388842  16.3776994  95.0208351  97.9298003
  16.9387349  93.6387460  98.1885455  31.8384363 102.2604825 104.7263000
  32.0320253 103.1650636 104.9722275  31.7384981 101.8012244 105.5601585
  23.4920674  92.1462716 107.2253328  22.8448589  92.8452666 107.1317804
  24.2621689  92.5798860 107.5929576  23.6684808  99.9843481 105.2850148
  24.5976868 100.1354640 105.1119115  23.2475838 100.0727502 104.4298794
  23.0621292 109.1103242  94.3974222  23.2373048 108.6391285  95.2119844
  22.3754080 109.7369008  94.6255482  24.0178355 103.3875748 100.4437523
  23.6828188 103.3476518 101.3395173  23.5182301 102.7220464  99.9707933
  26.9537547 100.7331782  90.7174583  26.3366718 100.0078610  90.6207635
  26.4854035 101.4941143  90.3741657  18.7436093  94.9517207  89.8395887
  17.8665559  94.8306007  89.4758134  19.2193846  94.1603285  89.5874776
  28.6109086 103.4070275 106.6094343  27.7235865 103.0696196 106.7320741
  29.1807637 102.6753306 106.8463108  21.9300019 107.3043497  97.0858407
  21.1467541 107.8465177  97.1796632  22.6292764 107.8217477  97.4852649
  25.2396669  93.1138126  99.7292613  25.7365369  92.3608089  99.4093683
  24.4683651  93.1502443  99.1635822  33.0926426  98.8178492 101.3710904
  33.0816303  99.7003207 101.0004837  32.2243806  98.4650043 101.1765441
  26.3226450 101.8709814  97.3031036  25.3882728 101.9911276  97.1335740
  26.5003118 100.9682280  97.0391046  21.8231638  95.2555509  99.4564297
  21.4529425  94.7026550 100.1445203  22.3190730  94.6513643  98.9039297
  29.7099001  97.7127133  97.8381070  30.1759453  98.5455124  97.7641373
  30.1606502  97.2472114  98.5426329  27.7775232 104.0570954  94.8367222
  28.0535076 103.9427549  95.7461096  26.9079731 103.6588439  94.7979395
  27.6815664  90.0807720 101.8771972  26.7678744  90.3111947 102.0454179
  28.1108765  90.1646164 102.7286004  27.4522122  98.2697612 104.3771866
  26.7993573  98.5173519 103.7224318  27.8302502  97.4561750 104.0434343
  24.4129296 108.3057305  98.4800036  24.5951691 107.4878961  98.9427788
  25.2362282 108.5224997  98.0424926  24.7471462 107.2325490  95.7415084
  25.2759228 106.7217945  95.1285247  25.0099681 106.9168020  96.6060617
  17.2196971  92.6659500 105.7017403  17.2838298  93.5274331 105.2894801
  17.1564092  92.0533502 104.9689762  13.4714787  96.5459062  95.2808793
  13.7668228  95.6369740  95.2275846  12.5702822  96.5246801  94.9589795
  25.3800865 108.2666326 102.0859201  25.2552005 107.4656066 101.5770146
  26.0379957 108.7612519 101.5973171  17.0009034  94.6215058 101.2636341
  16.2795619  95.2351026 101.1243814  17.7902289  95.1572823 101.1852987
  27.4435774 106.0675346 103.7138751  26.4966109 105.9480697 103.6417078
  27.7918547 105.1797844 103.7965012  19.8035347  91.9569485 107.5376993
  20.3269749  92.2031781 108.3003302  19.5847680  92.7889520 107.1180130
  15.2002628  94.2273159  95.4048118  14.8715334  93.3470538  95.2223224
  15.5541999  94.1720828  96.2924507  24.4482207 105.8628062  99.9143103
  24.3007170 104.9344770 100.0950673  25.2735701 105.8848153  99.4300178
  18.3144451  94.5146129  95.7723595  18.6540524  95.0432050  95.0502204
  18.7616572  94.8526535  96.5482162  28.0516329 106.6856621 101.0007976
  28.9762876 106.4799482 100.8632427  27.8831632 106.4373022 101.9097317
  21.0087892  92.8983180 105.2226663  20.6684713  92.0990993 105.6247343
  20.3026899  93.1984891 104.6503497  21.6604364  89.9832492 103.6753986
  22.4830433  89.5092971 103.5532877  21.9042428  90.7622976 104.1752673
  20.3012599  93.0120751  93.9716888  21.0220961  93.3902004  93.4680605
  19.6777903  93.7309628  94.0751866  24.4443721  93.7165900  94.9075220
  24.6607336  94.5990538  94.6064049  23.9637789  93.3252113  94.1780862
  19.1842943  96.6751613 101.4845965  19.0387524  96.9891916 102.3770247
  18.7068146  97.2936513 100.9316864  21.0439326  93.6654161 101.5326855
  21.0300894  92.7695254 101.1959153  21.7611754  93.6724825 102.1665141
  22.8965456  94.0991501 103.5779982  22.6383234  95.0208572 103.5764312
  22.3650497  93.7021936 104.2680446  27.8411645 107.2042288  96.3570067
  28.0148523 106.6388711  95.6043920  28.3340536 108.0043183  96.1749557
  20.4476222  92.5468541  96.8014425  20.5692133  91.6185187  97.0005312
  20.1578264  92.5607227  95.8892740  23.3167412  90.2323452  99.9381145
  23.3389109  90.2962785  98.9833124  23.7335471  89.3927960 100.1321651
  33.6951036  99.9678711  97.9760367  34.1382182  99.2186036  97.5779490
  32.8177547  99.9588848  97.5934099  28.8286818 106.5209053  93.4566966
  29.5237722 107.1415745  93.6754280  29.1709968 105.6704404  93.7319344
  30.7278241 103.9708758  94.9854296  31.2529565 104.3096031  94.2603616
  30.6400593 103.0355774  94.8017431  30.5370022 101.4534128 107.6038223
  30.5868027 101.2884136 108.5453746  30.4283945 100.5861387 107.2136104
  19.4206281 104.1322674  94.8930312  19.5694401 104.8158138  94.2396985
  20.2272724 104.1127764  95.4079768  27.8273784  97.4365056 108.9197530
  28.7283647  97.2971521 108.6281527  27.9021759  97.6019511 109.8595707
  22.1616590  94.8131911 107.7650716  21.2919899  95.1065477 107.4933305
  22.3976070  95.3972356 108.4857980  32.0388219 103.8731070 107.8480244
  31.7473027 104.2361050 108.6843705  31.4260350 103.1598078 107.6693577
  33.2383901 101.4383950 100.3682815  34.0730792 101.8773754 100.5320375
  33.3743030 100.9622603  99.5491060  30.2875407  98.9963684 106.3160302
  30.7629529  99.1891331 105.5079154  29.3640972  99.0522870 106.0703686
  17.1758914 100.1587852  95.8991381  16.9304956  99.2550182  96.0971591
  17.3454828 100.1605002  94.9570859  24.8655623  91.0311528 105.2816136
  25.3837567  91.7672555 104.9562625  24.5110756  91.3375521 106.1162895
  16.4454561  95.8916209  93.3977542  15.7523806  95.9660564  92.7417578
  16.2006313  95.1276553  93.9199059  25.1168218  87.4511811 100.8017033
  25.3969971  86.7835000 101.4277459  25.9018825  87.6440906 100.2891697
  22.9201686 106.6270804  92.3642059  22.3475653 107.2460992  91.9112531
  23.4934480 107.1770166  92.8981981  28.9877076  95.8729445 104.5488608
  29.9394499  95.9727542 104.5700832  28.8180526  95.0807713 105.0586692
  27.0091455  92.9585028 104.7348009  26.4141388  93.2390040 104.0394498
  26.7241152  93.4478929 105.5064750  26.1398946 106.9107955  93.4950642
  27.0729619 106.8453516  93.6983517  26.0522159 107.7464221  93.0365174
  28.7686963 106.2273825  90.4554589  28.6900594 105.8933689  91.3490347
  29.5896629 106.7195593  90.4546061  31.4665154  99.0935564 103.6630908
  31.4341474  98.1551565 103.8490592  32.0765777  99.1719601 102.9296733
  23.3048485  97.9631617  89.7058112  24.2507589  97.8337825  89.7746530
  22.9262730  97.2246279  90.1827540  31.6159642  95.8846608 103.7089191
  31.0998691  95.1005064 103.5219120  32.4999591  95.5565324 103.8735710
  29.2770369  89.6287623  99.6685004  29.0795190  89.3202711 100.5528336
  29.8870075  90.3549262  99.7982933  37.2841704 100.1551571 102.8036945
  38.0145092  99.8936859 103.3644648  36.6748649  99.4180293 102.8439012
  35.3657001  98.2959434 103.4011396  34.6390164  98.1615399 102.7927887
  34.9504288  98.6036262 104.2068114  21.4891402  95.8881594  89.6412997
  20.5822857  95.5914706  89.7175711  21.7667383  95.5911412  88.7747283
  23.1053468  90.4318483  95.7957238  22.2954196  90.0865568  96.1712484
  23.7937884  90.1226027  96.3844850  25.0344016  89.5096530  97.4181535
  25.5875054  89.9291984  98.0771558  25.2714102  88.5832278  97.4604491
  20.2590186  92.7468529  89.7824976  21.1209350  93.0723427  90.0420794
  20.4440531  91.9600025  89.2698042  28.4122823  91.6197055  96.9260199
  27.8321492  92.2781859  96.5438252  28.1458756  90.7974400  96.5147617
  26.8626389  91.0202113  99.1281520  27.3626168  91.1318647  98.3195838
  27.5061997  90.7163166  99.7682328  27.1947701  93.7797146  95.9816547
  26.3073556  94.0646796  95.7636742  27.6101690  93.6190909  95.1343824
  30.5462237  93.8043667  99.6970887  31.3222627  94.2940119  99.9695504
  29.8210371  94.2301721 100.1542756  32.9834796  94.5171286 100.7544827
  33.5779286  94.2767022 100.0438136  33.0561379  93.7978416 101.3818364
  26.3390914 103.5441820  90.0764567  27.0426765 103.7491823  90.6922223
  25.6153563 104.1118582  90.3413651  27.1688725  99.2951682  96.1966838
  27.1123926  99.7520233  95.3574470  27.7217067  98.5342366  96.0189680
  30.9793531  95.0841413  97.0216957  30.7230465  94.6838049  97.8525165
  30.3546399  95.7985207  96.8967096  35.2905868  97.8237487  99.5288249
  34.7305426  97.8930676 100.3019811  34.6849372  97.6478471  98.8087745
  28.2477612 103.9824350  92.1263027  29.0823216 103.5505548  91.9440502
  28.0861955 103.8106363  93.0539922  27.9023504 100.4856463  93.4919367
  27.8472308 100.3200734  92.5507811  27.2769559 101.1932496  93.6481557
  21.2119629  89.9864572  93.0704685  21.1998299  90.9306412  93.2272956
  22.1043051  89.8034717  92.7764146  25.0271749  86.5807348  97.3250622
  24.2604145  86.0265835  97.4707304  25.4382454  86.6529217  98.1864774
  36.8761887 114.4994001 102.2218204  37.5140297 114.3800748 101.5181544
  36.7582730 115.4474845 102.2806156  33.6851593 114.4521429 102.1579729
  33.3470105 114.3362493 101.2700264  34.5541361 114.0512594 102.1380735
  31.3859873 113.2209676  91.4896669  31.6385393 112.6991197  90.7280132
  30.4484432 113.0575822  91.5923353  36.4303155 112.2245454  99.2971412
  37.2166245 111.8064878  98.9461829  36.6941860 113.1291547  99.4653061
  41.8311582 112.1620688 100.2004391  42.5636754 111.5919904 100.4342220
  41.0750938 111.7742288 100.6410896  33.4487702 114.5847929  97.3967733
  33.0845909 114.0578550  98.1080655  34.3054818 114.1946398  97.2234219
  39.3537003 105.8742262 104.6598999  39.0220328 106.7437673 104.4360214
  38.7582616 105.5578546 105.3393030  33.0893189 109.6137829  92.3929082
  33.2567592 110.4818065  92.7599553  32.8990358 109.7765111  91.4690371
  39.2465666 110.5937348 101.7392349  38.3382544 110.5252756 101.4451110
  39.1953262 111.0709293 102.5674175  33.0682410 112.0695486  93.3775749
  32.9482035 112.5152537  94.2161229  32.3734998 112.4180804  92.8189287
  41.1127313 108.7953786 103.5170223  40.4701693 109.0886320 102.8710018
  40.6082241 108.6806707 104.3223420  38.7667476 112.5416960  94.2056083
  39.6785332 112.7744346  94.0303780  38.2577123 113.1254004  93.6431161
  33.4039314 111.9014194 105.2150932  34.2500509 112.3253608 105.3585581
  33.3437952 111.2447818 105.9089495  36.5538759 109.5618562 106.8732106
  36.3099691 110.3160623 106.3366381  36.8298690 109.9403910 107.7079353
  38.5077222 116.1057175 105.5509371  38.7194117 116.7488935 104.8743752
  38.4606970 115.2719491 105.0831301  36.1103451 108.7174996 102.4545944
  35.2487930 109.0156249 102.7462681  36.1365886 108.9345394 101.5226976
  31.8633906 113.3840338  95.6709314  32.5657950 113.8361382  96.1383241
  31.5314535 112.7424157  96.2989207  25.6059240 111.6423891 100.9726448
  24.8158294 111.8981420 100.4966559  26.0970488 112.4572229 101.0778488
  27.5573986 112.0068470  97.9309925  26.7605149 112.1187165  98.4493420
  27.3299578 112.3455123  97.0650815  47.7129043 115.3267879 100.0716700
  46.9592751 114.7575277  99.9160705  47.8476584 115.2930543 101.0187335
  36.4520135 103.7211843 104.2770313  36.1084404 104.6113485 104.2009424
  36.8199097 103.5313501 103.4139898  36.4170417 113.7120454  92.7842748
  35.9017041 114.4825059  93.0231136  36.1447726 113.0385590  93.4075810
  34.0017528 108.5570155  97.8427987  33.1459125 108.1677005  97.6633625
  34.4144480 108.6362116  96.9827772  35.5316675 106.0916498 102.2419546
  35.0281471 106.0546633 101.4287352  35.8247282 107.0009241 102.3016203
  31.7759561 106.1755228 101.2485728  32.6412558 105.9798037 100.8891617
  31.8437070 105.9465580 102.1755085  41.3904692 116.4652809  94.7195922
  40.6134134 116.1263968  94.2751084  42.0696172 116.4705432  94.0450887
  36.2056721 111.5847546  94.6102529  35.9006856 111.8993695  95.4612672
  37.1587163 111.6628966  94.6529862  39.6295998 115.9386790 101.3762530
  38.9719673 116.6286051 101.4642658  40.4336398 116.3283222 101.7196516
  29.3821880 108.4057436  98.6202095  29.9565632 108.1832617  97.8875288
  29.9692862 108.4746130  99.3730696  38.4401457 114.2931163  99.4266471
  38.9533339 114.9261154  99.9288181  39.0902681 113.6932358  99.0609831
  29.7091467 110.4361897  92.6397980  28.8728779 110.7736583  92.9607255
  29.5696237 110.3010877  91.7025117  31.6844548 105.2798685  97.3477164
  31.0308960 104.9647702  96.7233779  31.6425022 104.6574425  98.0736987
  34.9182288 111.7680618 101.6724812  34.0004849 111.9895565 101.5146500
  35.3342432 111.8426929 100.8136519  35.7017336 113.1672034  96.8027492
  36.4489155 113.6793431  96.4934614  35.9708925 112.8456087  97.6631886
  38.1496173 110.2029150  98.7846281  37.4118930 109.6906536  99.1156524
  38.4022947 109.7629532  97.9729558  38.2507800 102.9805402  99.3788051
  38.5566677 102.1202766  99.0913966  38.9760405 103.5723022  99.1787045
  32.5228880 113.2759195  99.8864242  32.5777490 112.3233032  99.8106718
  31.7120082 113.4318634 100.3705540  30.4621240 111.8936255  97.6454621
  29.6489106 112.1930426  98.0519813  30.9580234 111.4991944  98.3629103
  36.0595452 112.3578079 106.4769515  36.4144839 112.5849553 107.3363980
  36.7067583 112.6896456 105.8546770  41.7893189 115.4796515  97.1818844
  41.6511087 115.6698111  96.2540033  41.4329407 116.2415898  97.6386895
  29.9535315 109.4654610 103.2615856  30.5934694 109.3243370 102.5638819
  29.1212845 109.1789124 102.8854458  41.8162568 117.5473042 102.1930115
  42.2499075 117.4548331 103.0413169  42.5294149 117.5230543 101.5550131
  27.0378382 112.9100123  95.4510601  26.1075970 112.8484578  95.6680563
  27.1335854 112.3876075  94.6547242  26.9563931 109.4354935  98.0388842
  27.2170748 110.3500269  97.9298003  27.7781103 108.9679378  98.1885455
  42.6778118 117.5896743 104.7263000  42.8714008 118.4942553 104.9722275
  42.5778736 117.1304162 105.5601585  34.3314428 107.4754634 107.2253328
  33.6842344 108.1744583 107.1317804  35.1015444 107.9090777 107.5929576
  34.5078563 115.3135398 105.2850148  35.4370623 115.4646558 105.1119115
  34.0869593 115.4019419 104.4298794  37.7931301 116.0623700  90.7174583
  37.1760472 115.3370528  90.6207635  37.3247790 116.8233060  90.3741657
  29.5829847 110.2809124  89.8395887  28.7059314 110.1597925  89.4758134
  30.0587600 109.4895203  89.5874776  36.0790423 108.4430044  99.7292613
  36.5759123 107.6900006  99.4093683  35.3077405 108.4794361  99.1635822
  43.9320181 114.1470410 101.3710904  43.9210057 115.0295125 101.0004837
  43.0637560 113.7941960 101.1765441  32.6625392 110.5847427  99.4564297
  32.2923180 110.0318467 100.1445203  33.1584485 109.9805561  98.9039297
  40.5492756 113.0419051  97.8381070  41.0153208 113.8747042  97.7641373
  41.0000256 112.5764032  98.5426329  38.5209418 105.4099638 101.8771972
  37.6072498 105.6403864 102.0454179  38.9502520 105.4938082 102.7286004
  38.2915877 113.5989530 104.3771866  37.6387327 113.8465437 103.7224318
  38.6696257 112.7853668 104.0434343  28.0590726 107.9951418 105.7017403
  28.1232052 108.8566249 105.2894801  27.9957846 107.3825419 104.9689762
  24.3108541 111.8750979  95.2808793  24.6061982 110.9661658  95.2275846
  23.4096577 111.8538719  94.9589795  27.8402788 109.9506976 101.2636341
  27.1189374 110.5642944 101.1243814  28.6296044 110.4864741 101.1852987
  30.6429102 107.2861403 107.5376993  31.1663504 107.5323699 108.3003302
  30.4241435 108.1181437 107.1180130  26.0396383 109.5565077  95.4048118
  25.7109089 108.6762456  95.2223224  26.3935753 109.5012746  96.2924507
  29.1538206 109.8438047  95.7723595  29.4934278 110.3723968  95.0502204
  29.6010326 110.1818453  96.5482162  31.8481647 108.2275098 105.2226663
  31.5078467 107.4282911 105.6247343  31.1420653 108.5276808 104.6503497
  32.4998119 105.3124410 103.6753986  33.3224188 104.8384888 103.5532877
  32.7436182 106.0914894 104.1752673  31.1406353 108.3412669  93.9716888
  31.8614716 108.7193921  93.4680605  30.5171657 109.0601545  94.0751866
  35.2837476 109.0457817  94.9075220  35.5001090 109.9282455  94.6064049
  34.8031543 108.6544031  94.1780862  30.0236697 112.0043531 101.4845965
  29.8781278 112.3183834 102.3770247  29.5461901 112.6228431 100.9316864
  31.8833080 108.9946079 101.5326855  31.8694649 108.0987172 101.1959153
  32.6005508 109.0016742 102.1665141  33.7359211 109.4283419 103.5779982
  33.4776989 110.3500490 103.5764312  33.2044251 109.0313853 104.2680446
  31.2869976 107.8760459  96.8014425  31.4085887 106.9477105  97.0005312
  30.9972019 107.8899145  95.8892740  34.1561167 105.5615369  99.9381145
  34.1782863 105.6254702  98.9833124  34.5729226 104.7219878 100.1321651
  44.5344791 115.2970629  97.9760367  44.9775937 114.5477954  97.5779490
  43.6571301 115.2880765  97.5934099  41.3763776 116.7826046 107.6038223
  41.4261781 116.6176053 108.5453746  41.2677700 115.9153305 107.2136104
  38.6667539 112.7656974 108.9197530  39.5677402 112.6263439 108.6281527
  38.7415513 112.9311429 109.8595707  33.0010344 110.1423829 107.7650716
  32.1313654 110.4357395 107.4933305  33.2369824 110.7264274 108.4857980
  44.0777656 116.7675867 100.3682815  44.9124547 117.2065671 100.5320375
  44.2136784 116.2914520  99.5491060  41.1269161 114.3255602 106.3160302
  41.6023283 114.5183248 105.5079154  40.2034727 114.3814788 106.0703686
  35.7049378 106.3603446 105.2816136  36.2231322 107.0964473 104.9562625
  35.3504511 106.6667439 106.1162895  27.2848316 111.2208127  93.3977542
  26.5917561 111.2952482  92.7417578  27.0400068 110.4568471  93.9199059
  35.9561972 102.7803728 100.8017033  36.2363726 102.1126917 101.4277459
  36.7412579 102.9732824 100.2891697  39.8270830 111.2021362 104.5488608
  40.7788253 111.3019460 104.5700832  39.6574281 110.4099631 105.0586692
  37.8485210 108.2876945 104.7348009  37.2535142 108.5681958 104.0394498
  37.5634907 108.7770846 105.5064750  42.3058908 114.4227482 103.6630908
  42.2735228 113.4843483 103.8490592  42.9159532 114.5011519 102.9296733
  34.1442239 113.2923535  89.7058112  35.0901344 113.1629743  89.7746530
  33.7656484 112.5538197  90.1827540  42.4553397 111.2138525 103.7089191
  41.9392445 110.4296982 103.5219120  43.3393345 110.8857242 103.8735710
  40.1164124 104.9579541  99.6685004  39.9188945 104.6494629 100.5528336
  40.7263829 105.6841180  99.7982933  48.1235458 115.4843489 102.8036945
  48.8538847 115.2228777 103.3644648  47.5142404 114.7472211 102.8439012
  46.2050755 113.6251351 103.4011396  45.4783919 113.4907316 102.7927887
  45.7898042 113.9328180 104.2068114  32.3285156 111.2173511  89.6412997
  31.4216612 110.9206624  89.7175711  32.6061137 110.9203329  88.7747283
  33.9447222 105.7610401  95.7957238  33.1347950 105.4157486  96.1712484
  34.6331639 105.4517945  96.3844850  35.8737770 104.8388448  97.4181535
  36.4268809 105.2583901  98.0771558  36.1107857 103.9124196  97.4604491
  31.0983941 108.0760446  89.7824976  31.9603105 108.4015345  90.0420794
  31.2834285 107.2891942  89.2698042  39.2516577 106.9488973  96.9260199
  38.6715246 107.6073777  96.5438252  38.9852510 106.1266318  96.5147617
  37.7020144 106.3494031  99.1281520  38.2019922 106.4610565  98.3195838
  38.3455752 106.0455083  99.7682328  38.0341455 109.1089063  95.9816547
  37.1467310 109.3938714  95.7636742  38.4495444 108.9482827  95.1343824
  41.3855992 109.1335584  99.6970887  42.1616382 109.6232037  99.9695504
  40.6604126 109.5593638 100.1542756  43.8228550 109.8463204 100.7544827
  44.4173041 109.6058939 100.0438136  43.8955134 109.1270334 101.3818364
  38.0082479 114.6243599  96.1966838  37.9517681 115.0812151  95.3574470
  38.5610822 113.8634284  96.0189680  41.8187285 110.4133331  97.0216957
  41.5624219 110.0129967  97.8525165  41.1940153 111.1277125  96.8967096
  46.1299623 113.1529404  99.5288249  45.5699181 113.2222594 100.3019811
  45.5243126 112.9770389  98.8087745  38.7417258 115.8148380  93.4919367
  38.6866062 115.6492652  92.5507811  38.1163314 116.5224413  93.6481557
  32.0513384 105.3156489  93.0704685  32.0392054 106.2598329  93.2272956
  32.9436806 105.1326635  92.7764146  35.8665503 101.9099266  97.3250622
  35.0997899 101.3557753  97.4707304  36.2776208 101.9821135  98.1864774
  47.2913889 119.0503761 104.2770313  46.9478159 119.9405402 104.2009424
  47.6592852 118.8605418 103.4139898  49.0901555 118.3097320  99.3788051
  49.3960432 117.4494683  99.0913966  49.8154160 118.9014940  99.1787045
  46.7955727 118.1095646 100.8017033  47.0757480 117.4418835 101.4277459
  47.5806334 118.3024741 100.2891697  50.9557878 120.2871459  99.6685004
  50.7582699 119.9786547 100.5528336  51.5657584 121.0133097  99.7982933
  46.7059258 117.2391184  97.3250622  45.9391654 116.6849671  97.4707304
  47.1169963 117.3113053  98.1864774   4.3554026  31.0162331  86.7962007
   3.6017735  30.4469729  86.6406011   4.4901568  30.9824995  87.7432642
   0.7202639  32.4570319  87.0928121   1.5549530  32.8960123  87.2565682
   0.8561768  31.9808972  86.2736367   4.7660441  31.1737941  89.5282251
   5.4963830  30.9123229  90.0889954   4.1567387  30.4366663  89.5684319
   2.8475739  29.3145803  90.1256702   2.1208902  29.1801768  89.5173194
   2.4323025  29.6222632  90.9313420   0.4653533  25.5357655  87.4790134
   1.0598024  25.2953391  86.7683442   0.5380117  24.8164786  88.1063670
   2.7724606  28.8423856  86.2533555   2.2124164  28.9117046  87.0265117
   2.1668110  28.6664841  85.5333051   4.3580625  45.5180370  88.9463511
   4.9959035  45.3987118  88.2426851   4.2401468  46.4661214  89.0051463
   1.1670331  45.4707798  88.8825036   0.8288842  45.3548863  87.9945570
   2.0360099  45.0698963  88.8626042   1.6490114  46.6242650  94.8411241
   1.6378755  46.2295448  93.9691745   1.8110753  45.8908723  95.4345013
   2.6056705  50.9914242  80.1836391   1.9544685  51.5768323  79.7970405
   3.4001068  51.5220437  80.2431429   3.9121893  43.2431824  86.0216719
   4.6984982  42.8251247  85.6707136   4.1760597  44.1477916  86.1898367
   4.0831970  48.6804674  80.7205376   3.4477803  48.7539301  81.4326280
   3.7529377  49.2698273  80.0424455   9.3130320  43.1807057  86.9249697
  10.0455492  42.6106274  87.1587527   8.5569676  42.7928658  87.3656203
   0.9306440  45.6034299  84.1213040   0.5664647  45.0764920  84.8325961
   1.7873556  45.2132768  83.9479525   6.8355741  36.8928631  91.3844306
   6.5039065  37.7624042  91.1605521   6.2401354  36.5764915  92.0638336
   3.3287260  49.0941177  90.7840219   3.0287983  49.9966216  90.6756026
   2.9838320  48.8273361  91.6361372   6.7284404  41.6123718  88.4637656
   5.8201281  41.5439126  88.1696417   6.6772000  42.0895662  89.2919482
   8.5946050  39.8140156  90.2415530   7.9520431  40.1072689  89.5955325
   8.0900979  39.6993076  91.0468727   6.2486214  43.5603329  80.9301389
   7.1604070  43.7930716  80.7549087   5.7395861  44.1440373  80.3676468
   4.5326982  47.9827957  94.5662682   4.9410338  47.5410367  93.8217314
   3.8104243  47.4080584  94.8196875   0.8858052  42.9200564  91.9396239
   1.7319247  43.3439977  92.0830888   0.8256689  42.2634188  92.6334802
   4.8555796  48.5429148  88.3214971   4.2264659  48.7074862  87.6191039
   4.4681458  48.9570757  89.0925935   8.7345028  49.4783585  85.6759334
   8.0496066  49.8582487  85.1256368   8.8188878  50.0878912  86.4091282
   4.0357497  40.5804932  93.5977412   3.7918429  41.3346993  93.0611688
   4.3117428  40.9590280  94.4324659   5.9895960  47.1243544  92.2754678
   6.2012855  47.7675304  91.5989059   5.9425708  46.2905861  91.8076608
   3.5922189  39.7361365  89.1791250   2.7306668  40.0342619  89.4707988
   3.6184623  39.9531764  88.2472283   7.1041788  50.0015500  90.4477035
   7.9259232  49.5995687  90.1659717   7.1004191  49.8983734  91.3993151
  15.1947781  46.3454248  86.7962007  14.4411489  45.7761646  86.6406011
  15.3295322  46.3116913  87.7432642   0.5846409  51.2167651  82.4716726
   0.4492084  52.0619186  82.9001574   1.1256221  51.4186928  81.7082660
   2.2114885  51.8391217  96.6017068   1.7678739  51.0527596  96.2837973
   2.8732099  52.0270368  95.9360959   4.3096123  52.1194017  94.6298470
   4.2914599  52.9402898  94.1378739   5.2316043  51.9948092  94.8548611
   3.9338872  34.7398213  91.0015620   3.5903142  35.6299854  90.9254730
   4.3017835  34.5499870  90.1385205   3.8989155  44.7306824  79.5088055
   3.3835779  45.5011428  79.7476442   3.6266464  44.0571960  80.1321116
   1.4836266  39.5756524  84.5673293   0.6277863  39.1863375  84.3878932
   1.8963218  39.6548485  83.7073079   3.0135413  37.1102868  88.9664853
   2.5100208  37.0733003  88.1532658   3.3066020  38.0195610  89.0261510
   8.8723429  47.4839178  81.4441228   8.0952872  47.1450338  80.9996390
   9.5514910  47.4891801  80.7696193   3.6875458  42.6033916  81.3347836
   3.3825594  42.9180065  82.1857979   4.6405900  42.6815336  81.3775169
   2.1321890  48.7624139  82.9840790   1.6043252  48.0276899  82.6714027
   1.6309393  49.5398815  82.7380758   7.1114736  46.9573160  88.1007836
   6.4538411  47.6472421  88.1887965   7.9155135  47.3469591  88.4441823
   5.9220195  45.3117532  86.1511778   6.4352077  45.9447524  86.6533488
   6.5721419  44.7118728  85.7855138   3.1842569  55.2901856  78.9072449
   2.5104268  55.5933553  79.5157407   3.5708391  56.0930937  78.5577906
   2.4001026  42.7866988  88.3970118   1.4823587  43.0081935  88.2391807
   2.8161169  42.8613298  87.5381826   3.1836074  44.1858403  83.5272799
   3.9307893  44.6979801  83.2179921   3.4527663  43.8642456  84.3877192
   1.4562724  46.6816944  80.5099753   0.5473943  46.3975977  80.6072223
   1.4857808  47.1016023  79.6503060   6.6881991  50.2923534  84.2790921
   6.2344318  49.4514444  84.3356111   6.0575958  50.9284932  84.6165701
   5.6314911  41.2215520  85.5091588   4.8937668  40.7092906  85.8401831
   5.8841684  40.7815901  84.6974865   5.1314930  52.1300030  85.2140739
   5.4237905  52.6905087  84.4953104   5.6413551  52.4228591  85.9693898
   5.7326538  33.9991772  86.1033357   6.0385415  33.1389135  85.8159272
   6.4579143  34.5909392  85.9032351   1.1538812  48.2225688  77.8487832
   0.7158242  47.5061547  77.3893469   1.8949252  48.4501803  77.2872923
   3.5414189  43.3764449  93.2014821   3.8963577  43.6035922  94.0609287
   4.1886321  43.7082826  92.5792076   9.2711926  46.4982885  83.9064150
   9.1329825  46.6884481  82.9785339   8.9148145  47.2602268  84.3632201
   9.2981306  48.5659412  88.9175422   9.7317813  48.4734701  89.7658476
  10.0112887  48.5416912  88.2795438   3.0309201  52.1661506  90.4508522
   3.0846223  52.7352442  91.2186238   2.1623982  52.3363391  90.0862559
  10.1596856  48.6083113  91.4508307  10.3532746  49.5128923  91.6967582
  10.0597474  48.1490532  92.2846892   1.8133166  38.4941003  93.9498634
   1.1661081  39.1930953  93.8563111   2.5834182  38.9277147  94.3174883
   5.2211964  48.7589855  97.0249188   5.0697471  48.5300407  96.1079271
   5.2116644  49.7160457  97.0380533   1.9897301  46.3321768  92.0095454
   2.9189361  46.4832928  91.8364421   1.5688331  46.4205789  91.1544101
   1.3833784  55.4581529  81.1219528   1.5585540  54.9869572  81.9365151
   0.6966572  56.0847295  81.3500789   2.3390848  49.7354035  87.1682830
   2.0040680  49.6954805  88.0640479   1.8394793  49.0698751  86.6953240
   5.2750039  47.0810069  77.4419889   4.6579210  46.3556898  77.3452942
   4.8066528  47.8419430  77.0986963   6.9304171  51.7908978  95.1025670
   6.8716717  51.1068198  94.4356253   7.3323689  52.5327968  94.6506296
   6.9321578  49.7548562  93.3339649   6.0448357  49.4174484  93.4566048
   7.5020129  49.0231593  93.5708415   3.5609161  39.4616414  86.4537919
   4.0577861  38.7086376  86.1338990   2.7896143  39.4980730  85.8881129
  11.4138919  45.1656779  88.0956211  11.4028795  46.0481495  87.7250144
  10.5456298  44.8128330  87.9010748   2.9221415  54.3136848  92.4559051
   3.6349387  54.9484313  92.3834953   2.4311444  54.4100714  91.6399053
   4.6438942  48.2188101  84.0276343   3.7095221  48.3389563  83.8581047
   4.8215610  47.3160568  83.7636353   8.0311493  44.0605420  84.5626377
   8.4971946  44.8933412  84.4886680   8.4818994  43.5950402  85.2671635
   6.0987724  50.4049241  81.5612529   6.3747568  50.2905836  82.4706403
   5.2292223  50.0066726  81.5224702   6.0028156  36.4286007  88.6017278
   5.0891236  36.6590234  88.7699485   6.4321258  36.5124451  89.4531311
   5.7734615  44.6175899  91.1017172   5.1206065  44.8651807  90.4469625
   6.1514994  43.8040037  90.7679650   2.7341788  54.6535592  85.2045343
   2.9164183  53.8357248  85.6673095   3.5574774  54.8703284  84.7670233
   3.0683954  53.5803777  82.4660391   3.5971720  53.0696232  81.8530553
   3.3312174  53.2646308  83.3305924   1.8222188  45.3595710  97.5883209
   1.1462825  45.2589839  98.2585585   2.6449821  45.2034924  98.0519207
   0.5644970  56.6662638  91.8240825   1.1163278  56.8294259  92.5889911
   0.9051164  57.2567075  91.1520850   5.4155845  51.4923895  97.6789480
   5.9595749  52.1053853  97.1844435   4.8342690  52.0503473  98.1956493
   3.7013358  54.6144613  88.8104508   3.5764497  53.8134353  88.3015453
   4.3592449  55.1090806  88.3218477   5.7648266  52.4153633  90.4384058
   4.8178602  52.2958984  90.3662384   6.1131039  51.5276131  90.5210319
   2.7694699  52.2106349  86.6388410   2.6219662  51.2823057  86.8195980
   3.5948193  52.2326440  86.1545485   6.3728821  53.0334908  87.7253283
   7.2975369  52.8277769  87.5877734   6.2044125  52.7851309  88.6342624
   2.7656214  40.0644187  81.6320527   2.9819828  40.9468825  81.3309355
   2.2850281  39.6730400  80.9026169   1.2177949  40.4469788  90.3025289
   0.9595727  41.3686859  90.3009619   0.6862989  40.0500223  90.9925753
   6.1624137  53.5520576  83.0815374   6.3361015  52.9866998  82.3289227
   6.6553029  54.3521470  82.8994864   1.6379904  36.5801739  86.6626451
   1.6601601  36.6441072  85.7078431   2.0547963  35.7406248  86.8566957
  12.0163529  46.3156999  84.7005674  12.4594675  45.5664324  84.3024797
  11.1390039  46.3067135  84.3179406   7.1499310  52.8687340  80.1812272
   7.8450215  53.4894033  80.3999587   7.4922460  52.0182691  80.4564650
   9.0490733  50.3187046  81.7099603   9.5742057  50.6574318  80.9848923
   8.9613086  49.3834061  81.5262738   0.7110782  54.2321119  93.8389480
   1.0197908  53.9870266  94.7112179   1.5086264  54.4367758  93.3508350
   8.7384639  50.9519949  97.0150801   7.9480183  50.9344088  96.4755300
   8.5017994  51.4908243  97.7699838   8.8582514  47.8012416  94.3283530
   8.9080519  47.6362423  95.2699052   8.7496438  46.9339675  93.9381410
   6.1486277  43.7843344  95.6442836   7.0496139  43.6449808  95.3526834
   6.2234251  43.9497798  96.5841014  10.3600711  50.2209357  94.5725551
  10.0685519  50.5839338  95.4089012   9.7472842  49.5076365  94.3938883
  11.5596393  47.7862237  87.0928121  12.3943285  48.2252041  87.2565682
  11.6955522  47.3100890  86.2736367   8.6087899  45.3441972  93.0405609
   9.0842021  45.5369618  92.2324461   7.6853465  45.4001158  92.7948993
   3.1868116  37.3789815  92.0061443   3.7050060  38.1150842  91.6807932
   2.8323249  37.6853809  92.8408202   3.4380710  33.7990098  87.5262340
   3.7182464  33.1313287  88.1522766   4.2231317  33.9919193  87.0137003
   1.2414178  52.9749092  79.0887366   0.6688146  53.5939279  78.6357838
   1.8146972  53.5248453  79.6227288   7.3089568  42.2207732  91.2733915
   8.2606991  42.3205829  91.2946139   7.1393019  41.4286000  91.7831999
   5.3303948  39.3063315  91.4593316   4.7353880  39.5868328  90.7639804
   5.0453644  39.7957216  92.2310057   4.4611438  53.2586242  80.2195948
   5.3942111  53.1931803  80.4228824   4.3734651  54.0942509  79.7610481
   7.0899455  52.5752112  77.1799896   7.0113086  52.2411976  78.0735654
   7.9109122  53.0673880  77.1791368   9.7877646  45.4413851  90.3876214
   9.7553966  44.5029852  90.5735898  10.3978270  45.5197888  89.6542039
   1.6260977  44.3109904  76.4303418   2.5720082  44.1816113  76.4991836
   1.2475222  43.5724566  76.9072847   9.9372135  42.2324895  90.4334498
   9.4211183  41.4483352  90.2464426  10.8212083  41.9043612  90.5981017
   7.5982861  35.9765910  86.3930310   7.4007683  35.6680999  87.2773642
   8.2082567  36.7027549  86.5228240  15.6054196  46.5029858  89.5282251
  16.3357584  46.2415146  90.0889954  14.9961141  45.7658580  89.5684319
  13.6869493  44.6437721  90.1256702  12.9602657  44.5093686  89.5173194
  13.2716780  44.9514549  90.9313420   1.5099669  48.3627651  97.8904075
   2.4302679  48.5406250  98.0844122   1.4749252  47.4183696  97.7383775
   1.4265960  36.7796771  82.5202545   0.6166688  36.4343856  82.8957791
   2.1150377  36.4704314  83.1090156   3.3556508  35.8574817  84.1426842
   3.9087547  36.2770271  84.8016865   3.5926594  34.9310565  84.1849798
   6.7335315  37.9675342  83.6505506   6.1533984  38.6260147  83.2683558
   6.4671248  37.1452687  83.2392923   5.1838882  37.3680400  85.8526826
   5.6838660  37.4796935  85.0441145   5.8274489  37.0641453  86.4927635
   5.5160193  40.1275433  82.7061854   4.6286048  40.4125083  82.4882049
   5.9314182  39.9669196  81.8589131   8.8674729  40.1521954  86.4216193
   9.6435119  40.6418406  86.6940810   8.1422863  40.5780008  86.8788063
  11.3047288  40.8649573  87.4790134  11.8991779  40.6245309  86.7683442
  11.3773872  40.1456704  88.1063670   4.6603407  49.8920108  76.8009874
   5.3639257  50.0970110  77.4167530   3.9366055  50.4596869  77.0658958
   5.4901217  45.6429969  82.9212144   5.4336418  46.0998520  82.0819777
   6.0429559  44.8820653  82.7434987   9.3006023  41.4319701  83.7462264
   9.0442957  41.0316336  84.5770471   8.6758891  42.1463495  83.6212403
  13.6118361  44.1715774  86.2533555  13.0517919  44.2408963  87.0265117
  13.0061864  43.9956759  85.5333051   6.5690104  50.3302637  78.8508334
   7.4035708  49.8983835  78.6685809   6.4074447  50.1584650  79.7785229
   6.2235996  46.8334750  80.2164673   6.1684800  46.6679021  79.2753118
   5.5982052  47.5410783  80.3726863   3.5381903  49.1383662  99.5418236
   4.4073063  49.3124314  99.1804871   3.0588655  49.9578079  99.4193966
   3.3484241  32.9285636  84.0495929   2.5816637  32.3744122  84.1952611
   3.7594946  33.0007504  84.9110080  15.1974379  60.8472288  88.9463511
  15.8352789  60.7279035  88.2426851  15.0795222  61.7953132  89.0051463
  12.0064085  60.7999716  88.8825036  11.6682597  60.6840781  87.9945570
  12.8753854  60.3990881  88.8626042   7.8650901  62.6535192  84.8721927
   7.3015766  62.5625129  84.1038214   7.7503296  61.8335097  85.3524419
  12.4883868  61.9534568  94.8411241  12.4772509  61.5587366  93.9691745
  12.6504508  61.2200640  95.4345013   5.4115333  64.1486384  87.7106147
   6.2036625  63.8077209  87.2952446   5.6511983  64.2581359  88.6308300
  13.4450460  66.3206160  80.1836391  12.7938440  66.9060240  79.7970405
  14.2394823  66.8512355  80.2431429   7.3706087  63.4095297  80.5823526
   8.1436963  62.8624284  80.4436402   7.7231486  64.2739547  80.7937987
   9.2091130  64.7371679  93.7890425   8.9180996  65.6417310  93.6737091
   9.8448114  64.7788207  94.5034495  10.1347336  62.1148528  90.3791785
  10.7310909  61.8904550  89.6648748  10.1922308  61.3733273  90.9817233
   9.7072365  59.5687963  78.2141976   9.9597886  59.0469485  77.4525439
   8.7696924  59.4054109  78.3168659  14.7515648  58.5723742  86.0216719
  15.5378737  58.1543165  85.6707136  15.0154352  59.4769834  86.1898367
  14.9225725  64.0096592  80.7205376  14.2871558  64.0831219  81.4326280
  14.5923131  64.5990191  80.0424455  20.1524075  58.5098975  86.9249697
  20.8849247  57.9398192  87.1587527  19.3963430  58.1220575  87.3656203
   9.4268654  61.4716069  80.4166351   9.3104912  60.7960973  81.0847435
   9.5370913  60.9848443  79.5998504  11.7700194  60.9326216  84.1213040
  11.4058402  60.4056837  84.8325961  12.6267310  60.5424685  83.9479525
  17.6749495  52.2220549  91.3844306  17.3432820  53.0915960  91.1605521
  17.0795109  51.9056833  92.0638336  11.4105681  55.9616116  79.1174388
  11.5780084  56.8296353  79.4844859  11.2202851  56.1243398  78.1935678
  14.1681015  64.4233095  90.7840219  13.8681738  65.3258134  90.6756026
  13.8232074  64.1565278  91.6361372   7.6193496  60.8746892  86.8176923
   6.6943993  60.7423106  87.0254615   7.8677909  61.6541111  87.3146866
  17.5678158  56.9415635  88.4637656  16.6595036  56.8731044  88.1696417
  17.5165754  57.4187580  89.2919482  11.3894902  58.4173774  80.1021055
  11.2694528  58.8630824  80.9406536  10.6947491  58.7659091  79.5434593
   4.9802307  60.5180165  87.6520712   5.1094688  60.7714644  88.5660124
   4.2999758  61.1107873  87.3325367   9.1501794  71.1877415  83.7511186
   9.0725824  72.1385240  83.8299667   8.5463438  70.8423288  84.4086113
  11.6419024  58.3605281  96.4072553  10.8652358  58.9199201  96.3975418
  12.2809587  58.8462064  96.9287423  19.4339805  55.1432074  90.2415530
  18.7914185  55.4364607  89.5955325  18.9294733  55.0284994  91.0468727
  17.0879969  58.8895247  80.9301389  17.9997825  59.1222634  80.7549087
  16.5789616  59.4732291  80.3676468   9.8965397  61.1690734  95.9690520
  10.6380081  61.7075778  95.6925344   9.1902382  61.7957023  96.1262072
  15.3720736  63.3119875  94.5662682  15.7804092  62.8702285  93.8217314
  14.6497998  62.7372502  94.8196875  11.7251806  58.2492481  91.9396239
  12.5713001  58.6731895  92.0830888  11.6650444  57.5926106  92.6334802
  15.6949551  63.8721065  88.3214971  15.0658413  64.0366779  87.6191039
  15.3075213  64.2862675  89.0925935  19.5738783  64.8075503  85.6759334
  18.8889821  65.1874404  85.1256368  19.6582632  65.4170830  86.4091282
  14.8751252  55.9096850  93.5977412  14.6312183  56.6638910  93.0611688
  15.1511182  56.2882197  94.4324659  16.8289714  62.4535462  92.2754678
  17.0406610  63.0967222  91.5989059  16.7819463  61.6197779  91.8076608
  14.4315943  55.0653283  89.1791250  13.5700422  55.3634536  89.4707988
  14.4578378  55.2823682  88.2472283  11.2477513  63.6095473  85.5865056
  11.7115858  63.8883176  84.7969678  10.9834311  62.7078918  85.4038147
   8.1401594  63.1566955  88.5244819   8.7102951  63.5854223  87.8862304
   8.7309706  62.8749540  89.2229005  10.1846399  59.7318626  82.3954621
  10.8870442  60.1839669  82.8628547   9.8527027  59.0902445  83.0234514
   8.6326760  58.3230382  96.7705830   8.0025421  59.0046663  97.0041227
   8.5262848  58.2113464  95.8258969   3.9271733  57.9902178  87.6971755
   3.1370787  58.2459707  87.2211865   4.4182980  58.8050516  87.8023795
  17.9435542  65.3307418  90.4477035  18.7652986  64.9287605  90.1659717
  17.9397945  65.2275652  91.3993151   5.8786478  58.3546758  84.6555231
   5.0817641  58.4665452  85.1738727   5.6512070  58.6933410  83.7896122
  11.7092146  64.8791461  92.6037746  11.7736578  65.3411868  93.4395918
  11.0003070  64.2488826  92.7320056   2.2109436  58.2432669  90.1286745
   2.4617474  59.1279679  90.3944321   2.7468984  58.0637270  89.3561837
  26.0341535  61.6746166  86.7962007  25.2805244  61.1053564  86.6406011
  26.1689077  61.6408831  87.7432642  11.4240163  66.5459568  82.4716726
  11.2885838  67.3911104  82.9001574  11.9649976  66.7478846  81.7082660
   7.9107503  52.6251148  99.1331081   7.5174449  52.0717347  99.8078726
   8.7273643  52.9361727  99.5237599   4.8769561  64.0635006  83.0444651
   5.3894081  64.8578257  83.1950216   5.5292274  63.3661297  82.9778253
   6.6864445  67.1800763  85.1267404   6.8631074  68.1018727  84.9388388
   7.4821279  66.8659182  85.5561784  10.8275464  54.0409027  96.7251338
  11.5685177  54.6416180  96.6455800  11.0593387  53.2986665  96.1669381
   5.9716802  59.2265395  95.0029568   5.8570317  58.3250652  95.3036667
   5.1161320  59.4729091  94.6514384  13.0508640  67.1683135  96.6017068
  12.6072494  66.3819513  96.2837973  13.7125853  67.3562285  95.9360959
   7.8095761  68.6978936  91.1277747   8.3603186  68.5696000  90.3554741
   6.9707237  68.9973825  90.7772640  15.1489878  67.4485935  94.6298470
  15.1308353  68.2694816  94.1378739  16.0709798  67.3240010  94.8548611
  11.6062932  64.9630064  95.4721978  12.1391269  64.2018352  95.2421286
  11.0777013  64.6703716  96.2146132  14.7732627  50.0690130  91.0015620
  14.4296896  50.9591772  90.9254730  15.1411590  49.8791788  90.1385205
   2.8418478  62.3923661  83.8204222   3.6793700  62.8020669  83.6037930
   3.0196745  61.4523103  83.7904416  14.7382910  60.0598741  79.5088055
  14.2229533  60.8303346  79.7476442  14.4660218  59.3863877  80.1321116
  12.3230021  54.9048442  84.5673293  11.4671617  54.5155292  84.3878932
  12.7356972  54.9840403  83.7073079  13.8529167  52.4394785  88.9664853
  13.3493963  52.4024921  88.1532658  14.1459774  53.3487528  89.0261510
  10.0972053  52.5233515  87.9731035  10.9625050  52.3276324  87.6136924
  10.1649562  52.2943867  88.9000391  19.7117184  62.8131096  81.4441228
  18.9346627  62.4742255  80.9996390  20.3908665  62.8183719  80.7696193
  14.5269213  57.9325833  81.3347836  14.2219348  58.2471983  82.1857979
  15.4799655  58.0107253  81.3775169  12.9715645  64.0916057  82.9840790
  12.4437006  63.3568816  82.6714027  12.4703147  64.8690733  82.7380758
  17.9508491  62.2865077  88.1007836  17.2932165  62.9764339  88.1887965
  18.7548890  62.6761509  88.4441823   7.7034372  54.7535723  85.3447401
   8.2778124  54.5310904  84.6120594   8.2905355  54.8224418  86.0976003
  16.7613949  60.6409450  86.1511778  17.2745831  61.2739442  86.6533488
  17.4115173  60.0410645  85.7855138   8.0303959  56.7840184  79.3643287
   7.1941272  57.1214871  79.6852561   7.8908729  56.6489164  78.4270424
  10.0057040  51.6276972  84.0722471   9.3521452  51.3125989  83.4479086
   9.9637514  51.0052712  84.7982294  11.1168245  61.9096267  75.9875763
  10.2095307  61.6785520  76.1866912  11.6139277  61.1133886  76.1749745
  14.0236324  70.6193774  78.9072449  13.3498022  70.9225471  79.5157407
  14.4102146  71.4222855  78.5577906  13.2394780  58.1158905  88.3970118
  12.3217342  58.3373852  88.2391807  13.6554924  58.1905216  87.5381826
  14.0229828  59.5150321  83.5272799  14.7701647  60.0271718  83.2179921
  14.2921418  59.1934374  84.3877192  12.2956478  62.0108862  80.5099753
  11.3867698  61.7267895  80.6072223  12.3251562  62.4307940  79.6503060
  17.5275746  65.6215451  84.2790921  17.0738073  64.7806361  84.3356111
  16.8969712  66.2576850  84.6165701  16.4708665  56.5507437  85.5091588
  15.7331422  56.0384824  85.8401831  16.7235439  56.1107819  84.6974865
  15.9708685  67.4591948  85.2140739  16.2631659  68.0197005  84.4953104
  16.4807306  67.7520509  85.9693898  16.5720293  49.3283689  86.1033357
  16.8779169  48.4681053  85.8159272  17.2972897  49.9201310  85.9032351
   2.8644649  59.7314376  84.4914955   2.6669048  59.1383737  83.7666022
   2.3091313  59.4266586  85.2090894  10.8441372  59.6237482  86.6109548
  10.8989982  58.6711319  86.5352025  10.0332574  59.7796922  87.0950847
  11.9932566  63.5517606  77.8487832  11.5551996  62.8353464  77.3893469
  12.7343007  63.7793720  77.2872923   8.7833732  58.2414542  84.3699927
   7.9701598  58.5408713  84.7765119   9.2792726  57.8470231  85.0874410
  10.9342310  68.2372299  86.3034192  10.8918489  68.4633145  85.3742724
  11.8505009  68.0035674  86.4519993  14.3807944  58.7056367  93.2014821
  14.7357332  58.9327840  94.0609287  15.0280075  59.0374743  92.5792076
  20.1105681  61.8274803  83.9064150  19.9723579  62.0176399  82.9785339
  19.7541900  62.5894185  84.3632201   8.2747807  55.8132898  89.9861162
   8.9147186  55.6721657  89.2884126   7.4425338  55.5267411  89.6099764
  20.1375060  63.8951330  88.9175422  20.5711567  63.8026619  89.7658476
  20.8506641  63.8708830  88.2795438   9.0508111  65.1135328  86.0996155
   9.8448709  64.6185648  85.8978730   8.3399803  64.5853191  85.7363860
  13.8702955  67.4953424  90.4508522  13.9239978  68.0644360  91.2186238
  13.0017737  67.6655309  90.0862559   5.3590874  59.2578410  82.1755907
   4.4288462  59.1962865  82.3925869   5.4548346  58.7354363  81.3792549
   5.2776423  55.7833223  84.7634149   5.5383241  56.6978556  84.6543309
   6.0993596  55.3157665  84.9130762   6.7501349  57.1970980  91.9332974
   7.4224402  56.9888342  91.2845622   5.9231135  56.9993066  91.4938206
  20.9990610  63.9375030  91.4508307  21.1926500  64.8420841  91.6967582
  20.8991228  63.4782449  92.2846892  12.6526921  53.8232921  93.9498634
  12.0054836  54.5222870  93.8563111  13.4227936  54.2569065  94.3174883
  16.0605719  64.0881773  97.0249188  15.9091225  63.8592325  96.1079271
  16.0510398  65.0452374  97.0380533  12.8291055  61.6613686  92.0095454
  13.7583115  61.8124845  91.8364421  12.4082085  61.7497706  91.1544101
  11.6279387  65.6864350  89.7793992  11.4890473  65.3183135  90.6519930
  10.8393983  66.2011990  89.6077950  12.2227539  70.7873447  81.1219528
  12.3979295  70.3161490  81.9365151  11.5360327  71.4139213  81.3500789
  13.1784602  65.0645953  87.1682830  12.8434435  65.0246723  88.0640479
  12.6788548  64.3990669  86.6953240   7.1528846  60.4713583  92.6935411
   7.0148644  59.7393822  93.2946950   8.0633769  60.3822483  92.4119598
  16.1143794  62.4101987  77.4419889  15.4972964  61.6848815  77.3452942
  15.6460282  63.1711347  77.0986963   9.7811147  60.1833542  92.1819090
  10.4910765  59.5426734  92.1405709   9.7380455  60.4346437  93.1045271
  17.7697925  67.1200896  95.1025670  17.7110472  66.4360116  94.4356253
  18.1717444  67.8619886  94.6506296   8.4940081  57.1698760  94.0014730
   7.9577438  56.7189499  94.6536326   7.9056789  57.3044669  93.2585194
   6.7888624  73.9362809  87.8959388   7.0285222  74.5681334  88.5738407
   5.9457821  73.5850849  88.1824748   7.9042340  56.6287411  76.5641193
   7.0271806  56.5076212  76.2003440   8.3800093  55.8373490  76.3120082
  17.7715333  65.0840479  93.3339649  16.8842111  64.7466401  93.4566048
  18.3413884  64.3523511  93.5708415   4.2279202  56.3054768  91.0867724
   4.1437391  55.6980437  90.3518134   3.4061908  56.7963786  91.0877221
  11.3016486  69.7441932  90.3000892  11.2286658  70.5496903  90.8120197
  10.8593879  69.9433898  89.4748914  11.0906266  68.9813702  83.8103714
  10.3073788  69.5235382  83.9041939  11.7899011  69.4987681  84.2097955
  14.4002916  54.7908331  86.4537919  14.8971615  54.0378294  86.1338990
  13.6289897  54.8272648  85.8881129  22.2532673  60.4948697  88.0956211
  22.2422549  61.3773412  87.7250144  21.3850053  60.1420248  87.9010748
  13.7615170  69.6428766  92.4559051  14.4743142  70.2776231  92.3834953
  13.2705198  69.7392632  91.6399053  15.4832696  63.5480019  84.0276343
  14.5488975  63.6681481  83.8581047  15.6609365  62.6452485  83.7636353
  10.9837885  56.9325714  86.1809604  10.6135672  56.3796755  86.8690510
  11.4796977  56.3283848  85.6284604  18.8705248  59.3897338  84.5626377
  19.3365700  60.2225329  84.4886680  19.3212748  58.9242319  85.2671635
   8.8127083  67.3923209  93.2764622   9.5136543  68.0259692  93.4294016
   8.3422198  67.7337941  92.5160261  16.9381479  65.7341159  81.5612529
  17.2141323  65.6197754  82.4706403  16.0685978  65.3358644  81.5224702
  16.8421911  51.7577925  88.6017278  15.9284990  51.9882152  88.7699485
  17.2715012  51.8416369  89.4531311  16.6128369  59.9467817  91.1017172
  15.9599819  60.1943724  90.4469625  16.9908749  59.1331955  90.7679650
  13.5735543  69.9827510  85.2045343  13.7557937  69.1649166  85.6673095
  14.3968529  70.1995202  84.7670233  13.9077708  68.9095695  82.4660391
  14.4365475  68.3988150  81.8530553  14.1705928  68.5938225  83.3305924
  12.6615942  60.6887628  97.5883209  11.9856579  60.5881757  98.2585585
  13.4843576  60.5326842  98.0519207   4.4094801  66.9259564  90.2095725
   4.9948238  66.1803252  90.3423629   4.2119640  67.2363521  91.0932389
   7.2633456  69.9610812  85.2258167   6.5943832  70.4456939  84.7422207
   7.1246326  70.2080032  86.1401546  11.4038725  71.9954555  91.8240825
  11.9557033  72.1586177  92.5889911  11.7444918  72.5858993  91.1520850
   6.3803218  54.3429705  92.4262710   6.4444545  55.2044536  92.0140108
   6.3170338  53.7303707  91.6935069   5.8555491  56.4152838  96.0735744
   6.4827530  56.0329915  96.6873269   4.9983410  56.1967040  96.4391437
  16.2549599  66.8215813  97.6789480  16.7989503  67.4345771  97.1844435
  15.6736444  67.3795391  98.1956493   2.6321033  58.2229267  82.0054099
   2.9274475  57.3139945  81.9521153   1.7309069  58.2017006  81.6835102
  14.5407112  69.9436531  88.8104508  14.4158252  69.1426271  88.3015453
  15.1986203  70.4382724  88.3218477   6.1615280  56.2985263  87.9881648
   5.4401866  56.9121231  87.8489121   6.9508536  56.8343028  87.9098294
  16.6042021  67.7445551  90.4384058  15.6572356  67.6250902  90.3662384
  16.9524794  66.8568049  90.5210319   8.9641594  53.6339690  94.2622300
   9.4875996  53.8801986  95.0248609   8.7453927  54.4659725  93.8425437
   4.3608875  55.9043364  82.1293424   4.0321581  55.0240743  81.9468530
   4.7148246  55.8491033  83.0169814  13.6088454  67.5398267  86.6388410
  13.4613416  66.6114974  86.8195980  14.4341947  67.5618358  86.1545485
   7.4750698  56.1916334  82.4968902   7.8146771  56.7202255  81.7747510
   7.9222819  56.5296740  83.2727469  17.2122576  68.3626826  87.7253283
  18.1369123  68.1569687  87.5877734  17.0437879  68.1143227  88.6342624
  10.1694139  54.5753385  91.9471970   9.8290959  53.7761198  92.3492650
   9.4633145  54.8755096  91.3748803  10.8210611  51.6602697  90.3999293
  11.6436680  51.1863176  90.2778183  11.0648674  52.4393181  90.8997979
   9.4618845  54.6890956  80.6962195  10.1827208  55.0672209  80.1925912
   8.8384149  55.4079833  80.7997173  13.6049968  55.3936105  81.6320527
  13.8213583  56.2760743  81.3309355  13.1244035  55.0022318  80.9026169
   8.3449190  58.3521818  88.2091272   8.1993770  58.6662121  89.1015553
   7.8674393  58.9706718  87.6562170  10.2045572  55.3424366  88.2572161
  10.1907141  54.4465459  87.9204459  10.9218001  55.3495030  88.8910447
  12.0571703  55.7761706  90.3025289  11.7989481  56.6978777  90.3009619
  11.5256744  55.3792141  90.9925753  17.0017892  68.8812493  83.0815374
  17.1754769  68.3158916  82.3289227  17.4946783  69.6813388  82.8994864
   2.8194852  60.8927162  91.1478933   2.2748320  61.6686970  91.2799207
   3.6974202  61.2397967  90.9898054   9.6082468  54.2238746  83.5259731
   9.7298380  53.2955392  83.7250619   9.3184511  54.2377432  82.6138047
  12.4773659  51.9093657  86.6626451  12.4995356  51.9732990  85.7078431
  12.8941718  51.0698165  86.8566957  22.8557283  61.6448916  84.7005674
  23.2988429  60.8956241  84.3024797  21.9783793  61.6359053  84.3179406
  17.9893064  68.1979258  80.1812272  18.6843969  68.8185950  80.3999587
  18.3316215  67.3474609  80.4564650   3.6060874  60.0197059  94.0409090
   2.8642610  60.1679694  94.6273720   3.2853618  60.2805324  93.1775839
  19.8884488  65.6478963  81.7099603  20.4135812  65.9866236  80.9848923
  19.8006840  64.7125979  81.5262738  11.5504536  69.5613037  93.8389480
  11.8591663  69.3162184  94.7112179  12.3480018  69.7659675  93.3508350
  11.5725148  71.7150946  86.0694856  11.1330139  71.2227325  86.7627713
  12.3233265  71.1723914  85.8286932   4.0517487  67.9062487  86.0719484
   4.8775507  67.6066259  85.6918128   3.7011539  67.1370110  86.5209273
   9.0199020  67.2588956  88.1417158   8.3979030  66.5959661  87.8419386
   9.6903887  67.2850087  87.4590806   2.2526092  65.8248814  87.0308418
   1.4158001  65.3970988  86.8492419   2.2249738  66.0181257  87.9679209
   9.0923548  55.7370744  97.7349664   9.1411703  56.6132866  97.3527434
   9.6346062  55.1948137  97.1621307  19.5778394  66.2811867  97.0150801
  18.7873937  66.2636006  96.4755300  19.3411748  66.8200161  97.7699838
  19.6976269  63.1304333  94.3283530  19.7474274  62.9654341  95.2699052
  19.5890192  62.2631592  93.9381410   8.5812527  65.8092879  81.6175619
   8.7300648  66.4928343  80.9642291   9.3878971  65.7897969  82.1325074
  16.9880031  59.1135261  95.6442836  17.8889894  58.9741726  95.3526834
  17.0628006  59.2789716  96.5841014  11.3222836  56.4902116  94.4896023
  10.4526146  56.7835682  94.2178611  11.5582317  57.0742561  95.2103286
  21.1994466  65.5501275  94.5725551  20.9079274  65.9131255  95.4089012
  20.5866597  64.8368283  94.3938883  22.3990148  63.1154155  87.0928121
  23.2337039  63.5543959  87.2565682  22.5349277  62.6392808  86.2736367
  19.4481654  60.6733889  93.0405609  19.9235775  60.8661536  92.2324461
  18.5247219  60.7293075  92.7948993   6.3365160  61.8358057  82.6236687
   6.0911202  60.9320387  82.8216898   6.5061075  61.8375207  81.6816165
  14.0261870  52.7081733  92.0061443  14.5443814  53.4442760  91.6807932
  13.6717003  53.0145726  92.8408202   5.6060808  57.5686414  80.1222849
   4.9130053  57.6430769  79.4662885   5.3612560  56.8046758  80.6444366
  14.2774464  49.1282015  87.5262340  14.5576218  48.4605205  88.1522766
  15.0625071  49.3211111  87.0137003  12.0807933  68.3041009  79.0887366
  11.5081900  68.9231196  78.6357838  12.6540727  68.8540371  79.6227288
  18.1483323  57.5499649  91.2733915  19.1000746  57.6497747  91.2946139
  17.9786773  56.7577918  91.7831999  16.1697702  54.6355233  91.4593316
  15.5747634  54.9160245  90.7639804  15.8847399  55.1249134  92.2310057
  15.3005193  68.5878159  80.2195948  16.2335866  68.5223721  80.4228824
  15.2128406  69.4234426  79.7610481  17.9293209  67.9044030  77.1799896
  17.8506841  67.5703893  78.0735654  18.7502876  68.3965798  77.1791368
  20.6271401  60.7705769  90.3876214  20.5947721  59.8321770  90.5735898
  21.2372024  60.8489806  89.6542039  12.4654731  59.6401822  76.4303418
  13.4113836  59.5108030  76.4991836  12.0868976  58.9016484  76.9072847
  20.7765889  57.5616813  90.4334498  20.2604938  56.7775269  90.2464426
  21.6605838  57.2335529  90.5981017  18.4376616  51.3057828  86.3930310
  18.2401437  50.9972916  87.2773642  19.0476322  52.0319467  86.5228240
  26.4447950  61.8321776  89.5282251  27.1751339  61.5707064  90.0889954
  25.8354896  61.0950498  89.5684319  24.5263248  59.9729639  90.1256702
  23.7996411  59.8385603  89.5173194  24.1110534  60.2806467  90.9313420
  12.3493424  63.6919568  97.8904075  13.2696433  63.8698167  98.0844122
  12.3143007  62.7475614  97.7383775  10.6497649  57.5651798  76.3658304
   9.7429104  57.2684911  76.4421017  10.9273630  57.2681617  75.4992590
   1.5675589  58.8858162  86.8157350   1.2478373  58.0323470  86.5231724
   1.0209017  59.1006740  87.5715317   5.3455496  61.6020603  90.5326857
   5.5641506  62.5337711  90.5514890   5.7581270  61.2428577  91.3181660
  12.2659714  52.1088688  82.5202545  11.4560443  51.7635773  82.8957791
  12.9544131  51.7996232  83.1090156  14.1950263  51.1866735  84.1426842
  14.7481301  51.6062188  84.8016865  14.4320349  50.2602483  84.1849798
  10.2183362  57.1753809  99.9229605  10.1180089  58.1248166  99.8541697
  10.0004904  56.8472048  99.0505676   9.4196433  54.4238734  76.5070283
  10.2815597  54.7493632  76.7666100   9.6046777  53.6370230  75.9943349
   1.4363849  62.5061073  88.7850472   0.7427320  62.0915026  88.2720426
   2.1836840  62.5481610  88.1883891  17.5729070  53.2967260  83.6505506
  16.9927739  53.9552064  83.2683558  17.3065002  52.4744605  83.2392923
  16.0232636  52.6972318  85.8526826  16.5232414  52.8088852  85.0441145
  16.6668244  52.3933371  86.4927635  10.0814632  60.6050947  98.7394667
   9.5981714  61.4051308  98.9458556  10.1675571  60.6158892  97.7862111
   3.3500591  62.4379327  86.6616486   3.3271280  62.5367014  85.7098370
   3.6601228  63.2844478  86.9833653   6.0087969  64.4955482  90.7763101
   6.9631223  64.4639425  90.7093032   5.8100493  64.0346106  91.5913327
   6.5987351  63.0656598  93.3433899   7.4180240  63.5600677  93.3668736
   6.8724159  62.1488566  93.3151466  16.3553948  55.4567351  82.7061854
  15.4679803  55.7417001  82.4882049  16.7707937  55.2961114  81.8589131
  19.7068484  55.4813872  86.4216193  20.4828874  55.9710324  86.6940810
  18.9816618  55.9071926  86.8788063  22.1441042  56.1941491  87.4790134
  22.7385533  55.9537227  86.7683442  22.2167626  55.4748621  88.1063670
   4.3638198  70.0375102  87.7933299   4.2292666  69.2775503  87.2271297
   3.9470260  70.7616002  87.3262088  15.4997161  65.2212025  76.8009874
  16.2033011  65.4262028  77.4167530  14.7759810  65.7888787  77.0658958
  16.3294971  60.9721886  82.9212144  16.2730173  61.4290438  82.0819777
  16.8823314  60.2112571  82.7434987  20.1399777  56.7611618  83.7462264
  19.8836712  56.3608254  84.5770471  19.5152645  57.4755412  83.6212403
  24.4512115  59.5007692  86.2533555  23.8911673  59.5700881  87.0265117
  23.8455619  59.3248676  85.5333051   7.5207324  70.9344419  88.0051741
   7.4039708  71.8789851  87.9030432   6.6999770  70.6317980  88.3937541
  17.4083859  65.6594554  78.8508334  18.2429462  65.2275753  78.6685809
  17.2468201  65.4876568  79.7785229  17.0629751  62.1626668  80.2164673
  17.0078555  61.9970939  79.2753118  16.4375806  62.8702701  80.3726863
   1.8522266  57.3994732  94.0426096   2.4981129  56.8893686  94.5313321
   1.6439417  58.1363414  94.6169521  14.3775658  64.4675580  99.5418236
  15.2466818  64.6416232  99.1804871  13.8982409  65.2869996  99.4193966
  10.3725876  51.6634777  79.7949992  10.3604546  52.6076617  79.9518263
  11.2649298  51.4804922  79.5009453   8.5461838  71.5872681  91.2207670
   9.4489085  71.6196291  91.5374165   8.3199208  70.6573132  91.2354006
  10.3015440  70.3403667  87.8817748   9.3511071  70.3405529  87.7682121
  10.6047926  69.5936402  87.3653783  14.1877996  48.2577553  84.0495929
  13.4210391  47.7036040  84.1952611  14.5988701  48.3299422  84.9110080
   6.1919757  54.5462349  98.1401110   7.0551218  54.1899154  98.3504434
   5.6185167  54.2076244  98.8276514  26.0368134  76.1764206  88.9463511
  26.6746544  76.0570953  88.2426851  25.9188977  77.1245049  89.0051463
  22.8457840  76.1291634  88.8825036  22.5076351  76.0132698  87.9945570
  23.7147608  75.7282799  88.8626042  18.7044656  77.9827110  84.8721927
  18.1409521  77.8917047  84.1038214  18.5897051  77.1627015  85.3524419
  23.3277623  77.2826485  94.8411241  23.3166264  76.8879284  93.9691745
  23.4898262  76.5492558  95.4345013  16.2509088  79.4778302  87.7106147
  17.0430379  79.1369126  87.2952446  16.4905738  79.5873277  88.6308300
  24.2844214  81.6498078  80.1836391  23.6332194  82.2352158  79.7970405
  25.0788577  82.1804273  80.2431429  18.2099841  78.7387215  80.5823526
  18.9830717  78.1916202  80.4436402  18.5625240  79.6031464  80.7937987
  20.0484884  80.0663597  93.7890425  19.7574750  80.9709228  93.6737091
  20.6841868  80.1080125  94.5034495  20.9741091  77.4440446  90.3791785
  21.5704663  77.2196468  89.6648748  21.0316062  76.7025191  90.9817233
  20.5466119  74.8979881  78.2141976  20.7991640  74.3761402  77.4525439
  19.6090678  74.7346026  78.3168659  25.5909402  73.9015659  86.0216719
  26.3772491  73.4835083  85.6707136  25.8548106  74.8061752  86.1898367
  25.7619479  79.3388510  80.7205376  25.1265312  79.4123136  81.4326280
  25.4316886  79.9282109  80.0424455  20.2662408  76.8007987  80.4166351
  20.1498666  76.1252890  81.0847435  20.3764668  76.3140361  79.5998504
  22.6093949  76.2618134  84.1213040  22.2452156  75.7348755  84.8325961
  23.4661065  75.8716603  83.9479525  22.2499436  71.2908034  79.1174388
  22.4173838  72.1588270  79.4844859  22.0596605  71.4535315  78.1935678
  25.0074769  79.7525013  90.7840219  24.7075492  80.6550051  90.6756026
  24.6625829  79.4857196  91.6361372  18.4587251  76.2038810  86.8176923
  17.5337747  76.0715024  87.0254615  18.7071664  76.9833029  87.3146866
  22.2288657  73.7465691  80.1021055  22.1088282  74.1922742  80.9406536
  21.5341245  74.0951009  79.5434593  15.8196062  75.8472083  87.6520712
  15.9488443  76.1006562  88.5660124  15.1393513  76.4399791  87.3325367
  19.9895549  86.5169333  83.7511186  19.9119579  87.4677158  83.8299667
  19.3857193  86.1715206  84.4086113  22.4812779  73.6897198  96.4072553
  21.7046113  74.2491119  96.3975418  23.1203342  74.1753981  96.9287423
  27.9273723  74.2187164  80.9301389  28.8391579  74.4514551  80.7549087
  27.4183370  74.8024209  80.3676468  20.7359151  76.4982652  95.9690520
  21.4773835  77.0367696  95.6925344  20.0296136  77.1248941  96.1262072
  26.2114491  78.6411792  94.5662682  26.6197847  78.1994203  93.8217314
  25.4891752  78.0664420  94.8196875  22.5645561  73.5784399  91.9396239
  23.4106756  74.0023813  92.0830888  22.5044198  72.9218023  92.6334802
  26.5343305  79.2012983  88.3214971  25.9052168  79.3658697  87.6191039
  26.1468967  79.6154592  89.0925935  30.4132537  80.1367421  85.6759334
  29.7283575  80.5166322  85.1256368  30.4976387  80.7462747  86.4091282
  27.6683469  77.7827380  92.2754678  27.8800364  78.4259140  91.5989059
  27.6213217  76.9489696  91.8076608  25.2709698  70.3945200  89.1791250
  24.4094177  70.6926454  89.4707988  25.2972132  70.6115599  88.2472283
  22.0871267  78.9387391  85.5865056  22.5509613  79.2175094  84.7969678
  21.8228065  78.0370836  85.4038147  18.9795348  78.4858873  88.5244819
  19.5496705  78.9146141  87.8862304  19.5703460  78.2041457  89.2229005
  21.0240153  75.0610543  82.3954621  21.7264197  75.5131587  82.8628547
  20.6920782  74.4194362  83.0234514  19.4720515  73.6522300  96.7705830
  18.8419175  74.3338581  97.0041227  19.3656603  73.5405382  95.8258969
  14.7665487  73.3194096  87.6971755  13.9764541  73.5751625  87.2211865
  15.2576735  74.1342434  87.8023795  28.7829297  80.6599335  90.4477035
  29.6046740  80.2579522  90.1659717  28.7791700  80.5567569  91.3993151
  16.7180233  73.6838675  84.6555231  15.9211396  73.7957370  85.1738727
  16.4905825  74.0225327  83.7896122  22.5485900  80.2083378  92.6037746
  22.6130333  80.6703786  93.4395918  21.8396824  79.5780743  92.7320056
  13.0503190  73.5724586  90.1286745  13.3011229  74.4571596  90.3944321
  13.5862739  73.3929188  89.3561837  22.2633918  81.8751486  82.4716726
  22.1279593  82.7203022  82.9001574  22.8043730  82.0770764  81.7082660
  18.7501257  67.9543066  99.1331081  18.3568203  67.4009264  99.8078726
  19.5667398  68.2653644  99.5237599  15.7163315  79.3926924  83.0444651
  16.2287836  80.1870174  83.1950216  16.3686028  78.6953214  82.9778253
  17.5258200  82.5092680  85.1267404  17.7024828  83.4310645  84.9388388
  18.3215033  82.1951100  85.5561784  21.6669218  69.3700945  96.7251338
  22.4078932  69.9708098  96.6455800  21.8987141  68.6278583  96.1669381
  16.8110556  74.5557312  95.0029568  16.6964072  73.6542569  95.3036667
  15.9555074  74.8021009  94.6514384  23.8902394  82.4975052  96.6017068
  23.4466248  81.7111431  96.2837973  24.5519608  82.6854203  95.9360959
  18.6489515  84.0270854  91.1277747  19.1996941  83.8987917  90.3554741
  17.8100991  84.3265743  90.7772640  25.9883632  82.7777852  94.6298470
  25.9702108  83.5986733  94.1378739  26.9103552  82.6531928  94.8548611
  22.4456686  80.2921982  95.4721978  22.9785023  79.5310270  95.2421286
  21.9170768  79.9995634  96.2146132  25.6126381  65.3982048  91.0015620
  25.2690651  66.2883690  90.9254730  25.9805344  65.2083706  90.1385205
  13.6812232  77.7215578  83.8204222  14.5187454  78.1312587  83.6037930
  13.8590500  76.7815020  83.7904416  25.5776664  75.3890659  79.5088055
  25.0623288  76.1595264  79.7476442  25.3053973  74.7155795  80.1321116
  23.1623775  70.2340360  84.5673293  22.3065372  69.8447210  84.3878932
  23.5750727  70.3132321  83.7073079  24.6922922  67.7686703  88.9664853
  24.1887717  67.7316838  88.1532658  24.9853529  68.6779446  89.0261510
  20.9365808  67.8525433  87.9731035  21.8018804  67.6568241  87.6136924
  21.0043317  67.6235785  88.9000391  30.5510938  78.1423014  81.4441228
  29.7740381  77.8034173  80.9996390  31.2302419  78.1475637  80.7696193
  25.3662967  73.2617751  81.3347836  25.0613103  73.5763900  82.1857979
  26.3193409  73.3399171  81.3775169  23.8109399  79.4207974  82.9840790
  23.2830761  78.6860734  82.6714027  23.3096902  80.1982651  82.7380758
  28.7902245  77.6156995  88.1007836  28.1325920  78.3056256  88.1887965
  29.5942644  78.0053427  88.4441823  18.5428127  70.0827641  85.3447401
  19.1171879  69.8602822  84.6120594  19.1299109  70.1516335  86.0976003
  27.6007704  75.9701368  86.1511778  28.1139586  76.6031359  86.6533488
  28.2508928  75.3702563  85.7855138  18.8697714  72.1132102  79.3643287
  18.0335026  72.4506788  79.6852561  18.7302484  71.9781081  78.4270424
  20.8450794  66.9568890  84.0722471  20.1915207  66.6417907  83.4479086
  20.8031269  66.3344630  84.7982294  21.9561999  77.2388185  75.9875763
  21.0489061  77.0077438  76.1866912  22.4533031  76.4425804  76.1749745
  24.8630078  85.9485692  78.9072449  24.1891777  86.2517389  79.5157407
  25.2495900  86.7514772  78.5577906  24.0788535  73.4450823  88.3970118
  23.1611096  73.6665770  88.2391807  24.4948678  73.5197134  87.5381826
  24.8623583  74.8442239  83.5272799  25.6095402  75.3563636  83.2179921
  25.1315172  74.5226292  84.3877192  23.1350233  77.3400780  80.5099753
  22.2261452  77.0559812  80.6072223  23.1645317  77.7599858  79.6503060
  28.3669500  80.9507369  84.2790921  27.9131827  80.1098279  84.3356111
  27.7363467  81.5868767  84.6165701  27.3102420  71.8799355  85.5091588
  26.5725177  71.3676741  85.8401831  27.5629193  71.4399737  84.6974865
  26.8102439  82.7883866  85.2140739  27.1025414  83.3488923  84.4953104
  27.3201060  83.0812427  85.9693898  27.4114047  64.6575607  86.1033357
  27.7172924  63.7972970  85.8159272  28.1366652  65.2493227  85.9032351
  13.7038403  75.0606294  84.4914955  13.5062803  74.4675654  83.7666022
  13.1485067  74.7558504  85.2090894  21.6835127  74.9529400  86.6109548
  21.7383737  74.0003237  86.5352025  20.8726329  75.1088839  87.0950847
  22.8326321  78.8809523  77.8487832  22.3945751  78.1645382  77.3893469
  23.5736761  79.1085638  77.2872923  19.6227487  73.5706460  84.3699927
  18.8095352  73.8700630  84.7765119  20.1186481  73.1762149  85.0874410
  21.7736065  83.5664217  86.3034192  21.7312243  83.7925063  85.3742724
  22.6898763  83.3327591  86.4519993  25.2201698  74.0348284  93.2014821
  25.5751086  74.2619757  94.0609287  25.8673830  74.3666661  92.5792076
  30.9499435  77.1566720  83.9064150  30.8117334  77.3468316  82.9785339
  30.5935654  77.9186103  84.3632201  19.1141562  71.1424815  89.9861162
  19.7540941  71.0013574  89.2884126  18.2819092  70.8559329  89.6099764
  19.8901865  80.4427246  86.0996155  20.6842464  79.9477566  85.8978730
  19.1793558  79.9145109  85.7363860  24.7096710  82.8245341  90.4508522
  24.7633732  83.3936278  91.2186238  23.8411491  82.9947226  90.0862559
  16.1984629  74.5870328  82.1755907  15.2682217  74.5254783  82.3925869
  16.2942101  74.0646280  81.3792549  16.1170178  71.1125140  84.7634149
  16.3776995  72.0270474  84.6543309  16.9387350  70.6449583  84.9130762
  17.5895103  72.5262898  91.9332974  18.2618157  72.3180260  91.2845622
  16.7624890  72.3284984  91.4938206  23.4920675  69.1524838  93.9498634
  22.8448590  69.8514788  93.8563111  24.2621691  69.5860982  94.3174883
  26.8999473  79.4173691  97.0249188  26.7484980  79.1884242  96.1079271
  26.8904153  80.3744292  97.0380533  23.6684810  76.9905603  92.0095454
  24.5976870  77.1416763  91.8364421  23.2475840  77.0789624  91.1544101
  22.4673141  81.0156268  89.7793992  22.3284227  80.6475052  90.6519930
  21.6787738  81.5303907  89.6077950  23.0621293  86.1165364  81.1219528
  23.2373049  85.6453407  81.9365151  22.3754081  86.7431130  81.3500789
  24.0178357  80.3937870  87.1682830  23.6828189  80.3538640  88.0640479
  23.5182302  79.7282586  86.6953240  17.9922601  75.8005501  92.6935411
  17.8542398  75.0685739  93.2946950  18.9027524  75.7114401  92.4119598
  26.9537548  77.7393905  77.4419889  26.3366719  77.0140733  77.3452942
  26.4854037  78.5003265  77.0986963  20.6204901  75.5125460  92.1819090
  21.3304520  74.8718652  92.1405709  20.5774209  75.7638355  93.1045271
  28.6091680  82.4492813  95.1025670  28.5504226  81.7652033  94.4356253
  29.0111198  83.1911803  94.6506296  19.3333835  72.4990678  94.0014730
  18.7971192  72.0481416  94.6536326  18.7450544  72.6336587  93.2585194
  17.6282379  89.2654727  87.8959388  17.8678977  89.8973251  88.5738407
  16.7851575  88.9142767  88.1824748  18.7436094  71.9579329  76.5641193
  17.8665560  71.8368130  76.2003440  19.2193847  71.1665407  76.3120082
  28.6109087  80.4132397  93.3339649  27.7235866  80.0758319  93.4566048
  29.1807638  79.6815428  93.5708415  10.2638234  76.7456489  86.6582701
  10.9509274  76.4318219  86.0703716  10.1086363  77.6497854  86.3849952
  15.0672956  71.6346685  91.0867724  14.9831145  71.0272355  90.3518134
  14.2455663  72.1255704  91.0877221  22.1410241  85.0733849  90.3000892
  22.0680412  85.8788821  90.8120197  21.6987634  85.2725815  89.4748914
  21.9300020  84.3105620  83.8103714  21.1467542  84.8527300  83.9041939
  22.6292765  84.8279599  84.2097955  25.2396670  70.1200249  86.4537919
  25.7365370  69.3670211  86.1338990  24.4683652  70.1564566  85.8881129
  24.6008924  84.9720684  92.4559051  25.3136896  85.6068148  92.3834953
  24.1098953  85.0684549  91.6399053  26.3226451  78.8771936  84.0276343
  25.3882730  78.9973399  83.8581047  26.5003119  77.9744403  83.7636353
  21.8231639  72.2617632  86.1809604  21.4529427  71.7088672  86.8690510
  22.3190731  71.6575765  85.6284604  29.7099002  74.7189255  84.5626377
  30.1759455  75.5517247  84.4886680  30.1606503  74.2534237  85.2671635
  19.6520838  82.7215127  93.2764622  20.3530297  83.3551610  93.4294016
  19.1815953  83.0629859  92.5160261  27.7775233  81.0633077  81.5612529
  28.0535077  80.9489671  82.4706403  26.9079732  80.6650562  81.5224702
  27.6815665  67.0869842  88.6017278  26.7678745  67.3174069  88.7699485
  28.1108767  67.1708287  89.4531311  24.4129297  85.3119428  85.2045343
  24.5951692  84.4941084  85.6673095  25.2362283  85.5287120  84.7670233
  24.7471463  84.2387613  82.4660391  25.2759229  83.7280067  81.8530553
  25.0099683  83.9230143  83.3305924  23.5009697  76.0179545  97.5883209
  22.8250334  75.9173675  98.2585585  24.3237330  75.8618759  98.0519207
  15.2488556  82.2551482  90.2095725  15.8341992  81.5095170  90.3423629
  15.0513394  82.5655439  91.0932389  18.1027211  85.2902729  85.2258167
  17.4337586  85.7748857  84.7422207  17.9640081  85.5371950  86.1401546
   9.8406210  74.8257082  88.9300168   9.8790310  74.2920673  89.7237286
   9.3346503  74.2992288  88.3111145  22.2432479  87.3246473  91.8240825
  22.7950787  87.4878094  92.5889911  22.5838673  87.9150911  91.1520850
  17.2196973  69.6721623  92.4262710  17.2838299  70.5336454  92.0140108
  17.1564093  69.0595624  91.6935069  16.6949245  71.7444755  96.0735744
  17.3221284  71.3621833  96.6873269  15.8377164  71.5258957  96.4391437
  27.0943354  82.1507730  97.6789480  27.6383258  82.7637689  97.1844435
  26.5130199  82.7087309  98.1956493  13.4714788  73.5521184  82.0054099
  13.7668229  72.6431863  81.9521153  12.5702824  73.5308924  81.6835102
  25.3800867  85.2728448  88.8104508  25.2552006  84.4718188  88.3015453
  26.0379958  85.7674642  88.3218477  17.0009035  71.6277181  87.9881648
  16.2795621  72.2413149  87.8489121  17.7902291  72.1634946  87.9098294
  27.4435775  83.0737469  90.4384058  26.4966111  82.9542820  90.3662384
  27.7918548  82.1859967  90.5210319  19.8035348  68.9631607  94.2622300
  20.3269750  69.2093904  95.0248609  19.5847682  69.7951642  93.8425437
  15.2002630  71.2335282  82.1293424  14.8715336  70.3532661  81.9468530
  15.5542000  71.1782951  83.0169814  24.4482208  82.8690185  86.6388410
  24.3007171  81.9406892  86.8195980  25.2735702  82.8910275  86.1545485
  18.3144453  71.5208252  82.4968902  18.6540525  72.0494173  81.7747510
  18.7616573  71.8588658  83.2727469  28.0516330  83.6918743  87.7253283
  28.9762878  83.4861605  87.5877734  27.8831634  83.4435145  88.6342624
  21.0087894  69.9045303  91.9471970  20.6684714  69.1053116  92.3492650
  20.3026900  70.2047013  91.3748803  21.6604365  66.9894615  90.3999293
  22.4830435  66.5155093  90.2778183  21.9042429  67.7685099  90.8997979
  20.3012600  70.0182873  80.6962195  21.0220962  70.3964126  80.1925912
  19.6777904  70.7371750  80.7997173  24.4443723  70.7228022  81.6320527
  24.6607337  71.6052660  81.3309355  23.9637790  70.3314236  80.9026169
  19.1842944  73.6813736  88.2091272  19.0387525  73.9954039  89.1015553
  18.7068148  74.2998636  87.6562170  21.0439327  70.6716284  88.2572161
  21.0300896  69.7757377  87.9204459  21.7611755  70.6786947  88.8910447
  22.8965458  71.1053624  90.3025289  22.6383236  72.0270694  90.3009619
  22.3650498  70.7084058  90.9925753  27.8411646  84.2104411  83.0815374
  28.0148524  83.6450833  82.3289227  28.3340538  85.0105306  82.8994864
  13.6588606  76.2219080  91.1478933  13.1142074  76.9978888  91.2799207
  14.5367956  76.5689884  90.9898054  20.4476223  69.5530664  83.5259731
  20.5692134  68.6247310  83.7250619  20.1578265  69.5669350  82.6138047
  23.3167413  67.2385574  86.6626451  23.3389110  67.3024907  85.7078431
  23.7335472  66.3990083  86.8566957  33.6951038  76.9740834  84.7005674
  34.1382184  76.2248159  84.3024797  32.8177548  76.9650970  84.3179406
  28.8286819  83.5271175  80.1812272  29.5237724  84.1477868  80.3999587
  29.1709969  82.6766527  80.4564650  14.4454628  75.3488976  94.0409090
  13.7036364  75.4971612  94.6273720  14.1247372  75.6097242  93.1775839
  30.7278242  80.9770881  81.7099603  31.2529566  81.3158154  80.9848923
  30.6400595  80.0417896  81.5262738  22.3898291  84.8904955  93.8389480
  22.6985417  84.6454101  94.7112179  23.1873773  85.0951593  93.3508350
  22.4118903  87.0442864  86.0694856  21.9723893  86.5519243  86.7627713
  23.1627020  86.5015832  85.8286932  14.8911242  83.2354405  86.0719484
  15.7169262  82.9358177  85.6918128  14.5405294  82.4662027  86.5209273
  19.8592775  82.5880873  88.1417158  19.2372784  81.9251578  87.8419386
  20.5297642  82.6142005  87.4590806  13.0919847  81.1540731  87.0308418
  12.2551755  80.7262906  86.8492419  13.0643492  81.3473175  87.9679209
  19.9317302  71.0662661  97.7349664  19.9805458  71.9424784  97.3527434
  20.4739817  70.5240054  97.1621307  19.4206282  81.1384797  81.6175619
  19.5694402  81.8220261  80.9642291  20.2272725  81.1189887  82.1325074
  22.1616591  71.8194034  94.4896023  21.2919900  72.1127600  94.2178611
  22.3976071  72.4034479  95.2103286  33.2383902  78.4446072  87.0928121
  34.0730794  78.8835876  87.2565682  33.3743031  77.9684725  86.2736367
  17.1758915  77.1649974  82.6236687  16.9304957  76.2612304  82.8216898
  17.3454829  77.1667125  81.6816165  24.8655625  68.0373651  92.0061443
  25.3837569  68.7734678  91.6807932  24.5110758  68.3437644  92.8408202
  16.4454562  72.8978332  80.1222849  15.7523807  72.9722687  79.4662885
  16.2006314  72.1338675  80.6444366  25.1168219  64.4573933  87.5262340
  25.3969973  63.7897122  88.1522766  25.9018826  64.6503029  87.0137003
  22.9201687  83.6332927  79.0887366  22.3475654  84.2523114  78.6357838
  23.4934481  84.1832289  79.6227288  26.1398947  83.9170077  80.2195948
  27.0729620  83.8515639  80.4228824  26.0522160  84.7526344  79.7610481
  28.7686964  83.2335948  77.1799896  28.6900595  82.8995811  78.0735654
  29.5896631  83.7257715  77.1791368  23.3048486  74.9693740  76.4303418
  24.2507591  74.8399948  76.4991836  22.9262731  74.2308402  76.9072847
  29.2770370  66.6349746  86.3930310  29.0795192  66.3264834  87.2773642
  29.8870076  67.3611385  86.5228240  23.1887178  79.0211486  97.8904075
  24.1090188  79.1990085  98.0844122  23.1536761  78.0767531  97.7383775
  21.4891403  72.8943716  76.3658304  20.5822858  72.5976829  76.4421017
  21.7667384  72.5973534  75.4992590  12.4069343  74.2150080  86.8157350
  12.0872128  73.3615388  86.5231724  11.8602772  74.4298658  87.5715317
  16.1849251  76.9312521  90.5326857  16.4035261  77.8629628  90.5514890
  16.5975025  76.5720495  91.3181660  23.1053469  67.4380606  82.5202545
  22.2954197  67.0927691  82.8957791  23.7937886  67.1288150  83.1090156
  25.0344017  66.5158653  84.1426842  25.5875056  66.9354106  84.8016865
  25.2714103  65.5894401  84.1849798  21.0577116  72.5045726  99.9229605
  20.9573843  73.4540083  99.8541697  20.8398658  72.1763965  99.0505676
  20.2590188  69.7530651  76.5070283  21.1209352  70.0785550  76.7666100
  20.4440532  68.9662147  75.9943349  12.2757603  77.8352991  88.7850472
  11.5821075  77.4206944  88.2720426  13.0230594  77.8773528  88.1883891
  28.4122824  68.6259178  83.6505506  27.8321493  69.2843982  83.2683558
  28.1458757  67.8036522  83.2392923  26.8626391  68.0264236  85.8526826
  27.3626169  68.1380770  85.0441145  27.5061998  67.7225288  86.4927635
  20.9208386  75.9342865  98.7394667  20.4375468  76.7343225  98.9458556
  21.0069325  75.9450810  97.7862111  14.1894346  77.7671245  86.6616486
  14.1665034  77.8658932  85.7098370  14.4994982  78.6136396  86.9833653
  16.8481724  79.8247400  90.7763101  17.8024977  79.7931342  90.7093032
  16.6494247  79.3638024  91.5913327  17.4381106  78.3948516  93.3433899
  18.2573995  78.8892595  93.3668736  17.7117914  77.4780484  93.3151466
  27.1947702  70.7859268  82.7061854  26.3073557  71.0708919  82.4882049
  27.6101691  70.6253032  81.8589131  15.2031953  85.3667019  87.7933299
  15.0686421  84.6067420  87.2271297  14.7864015  86.0907919  87.3262088
  26.3390916  80.5503943  76.8009874  27.0426766  80.7553945  77.4167530
  25.6153564  81.1180705  77.0658958  27.1688726  76.3013804  82.9212144
  27.1123927  76.7582356  82.0819777  27.7217068  75.5404489  82.7434987
  30.9793532  72.0903536  83.7462264  30.7230466  71.6900172  84.5770471
  30.3546400  72.8047330  83.6212403  18.3601078  86.2636336  88.0051741
  18.2433463  87.2081769  87.9030432  17.5393525  85.9609898  88.3937541
  28.2477613  80.9886472  78.8508334  29.0823217  80.5567671  78.6685809
  28.0861956  80.8168486  79.7785229  27.9023505  77.4918585  80.2164673
  27.8472309  77.3262857  79.2753118  27.2769560  78.1994618  80.3726863
  12.6916020  72.7286650  94.0426096  13.3374884  72.2185604  94.5313321
  12.4833171  73.4655331  94.6169521  25.2169412  79.7967497  99.5418236
  26.0860572  79.9708150  99.1804871  24.7376164  80.6161914  99.4193966
  21.2119631  66.9926694  79.7949992  21.1998301  67.9368534  79.9518263
  22.1043053  66.8096840  79.5009453  19.3855593  86.9164598  91.2207670
  20.2882839  86.9488209  91.5374165  19.1592963  85.9865049  91.2354006
  21.1409195  85.6695585  87.8817748  20.1904826  85.6697446  87.7682121
  21.4441681  84.9228319  87.3653783  25.0271750  63.5869471  84.0495929
  24.2604146  63.0327958  84.1952611  25.4382455  63.6591340  84.9110080
  17.0313511  69.8754267  98.1401110  17.8944973  69.5191072  98.3504434
  16.4578922  69.5368162  98.8276514  36.8761888  91.5056123  88.9463511
  37.5140298  91.3862871  88.2426851  36.7582731  92.4536967  89.0051463
  33.6851594  91.4583551  88.8825036  33.3470106  91.3424616  87.9945570
  34.5541363  91.0574716  88.8626042  29.5438410  93.3119028  84.8721927
  28.9803275  93.2208965  84.1038214  29.4290805  92.4918932  85.3524419
  34.1671377  92.6118403  94.8411241  34.1560018  92.2171201  93.9691745
  34.3292017  91.8784476  95.4345013  27.0902842  94.8070219  87.7106147
  27.8824134  94.4661044  87.2952446  27.3299492  94.9165194  88.6308300
  35.1237969  96.9789995  80.1836391  34.4725949  97.5644076  79.7970405
  35.9182332  97.5096190  80.2431429  29.0493596  94.0679133  80.5823526
  29.8224472  93.5208120  80.4436402  29.4018995  94.9323382  80.7937987
  30.8878639  95.3955515  93.7890425  30.5968505  96.3001146  93.6737091
  31.5235623  95.4372042  94.5034495  31.8134845  92.7732363  90.3791785
  32.4098418  92.5488386  89.6648748  31.8709817  92.0317109  90.9817233
  31.3859874  90.2271799  78.2141976  31.6385394  89.7053320  77.4525439
  30.4484433  90.0637944  78.3168659  36.4303157  89.2307577  86.0216719
  37.2166246  88.8127000  85.6707136  36.6941861  90.1353669  86.1898367
  36.6013234  94.6680427  80.7205376  35.9659067  94.7415054  81.4326280
  36.2710640  95.2574026  80.0424455  41.8311584  89.1682810  86.9249697
  42.5636756  88.5982027  87.1587527  41.0750939  88.7804411  87.3656203
  31.1056163  92.1299905  80.4166351  30.9892421  91.4544808  81.0847435
  31.2158422  91.6432279  79.5998504  33.4487703  91.5910052  84.1213040
  33.0845911  91.0640673  84.8325961  34.3054819  91.2008521  83.9479525
  39.3537004  82.8804384  91.3844306  39.0220329  83.7499795  91.1605521
  38.7582617  82.5640668  92.0638336  33.0893190  86.6199951  79.1174388
  33.2567593  87.4880188  79.4844859  32.8990360  86.7827233  78.1935678
  35.8468524  95.0816930  90.7840219  35.5469247  95.9841969  90.6756026
  35.5019583  94.8149114  91.6361372  29.2981005  91.5330727  86.8176923
  28.3731502  91.4006941  87.0254615  29.5465418  92.3124946  87.3146866
  39.2465667  87.5999471  88.4637656  38.3382545  87.5314879  88.1696417
  39.1953263  88.0771415  89.2919482  33.0682411  89.0757609  80.1021055
  32.9482037  89.5214660  80.9406536  32.3735000  89.4242927  79.5434593
  26.6589816  91.1764001  87.6520712  26.7882197  91.4298480  88.5660124
  25.9787267  91.7691709  87.3325367  30.8289303 101.8461251  83.7511186
  30.7513333 102.7969076  83.8299667  30.2250947 101.5007123  84.4086113
  33.3206533  89.0189116  96.4072553  32.5439867  89.5783036  96.3975418
  33.9597096  89.5045899  96.9287423  41.1127314  85.8015909  90.2415530
  40.4701694  86.0948442  89.5955325  40.6082242  85.6868829  91.0468727
  38.7667477  89.5479082  80.9301389  39.6785334  89.7806469  80.7549087
  38.2577125  90.1316126  80.3676468  31.5752906  91.8274569  95.9690520
  32.3167590  92.3659613  95.6925344  30.8689891  92.4540858  96.1262072
  37.0508245  93.9703710  94.5662682  37.4591601  93.5286120  93.8217314
  36.3285507  93.3956337  94.8196875  33.4039315  88.9076317  91.9396239
  34.2500510  89.3315730  92.0830888  33.3437953  88.2509941  92.6334802
  37.3737060  94.5304901  88.3214971  36.7445922  94.6950615  87.6191039
  36.9862722  94.9446510  89.0925935  41.2526292  95.4659338  85.6759334
  40.5677330  95.8458240  85.1256368  41.3370141  96.0754665  86.4091282
  36.5538761  86.5680685  93.5977412  36.3099692  87.3222746  93.0611688
  36.8298691  86.9466033  94.4324659  38.5077223  93.1119297  92.2754678
  38.7194119  93.7551057  91.5989059  38.4606972  92.2781614  91.8076608
  36.1103452  85.7237118  89.1791250  35.2487931  86.0218372  89.4707988
  36.1365887  85.9407517  88.2472283  32.9265022  94.2679309  85.5865056
  33.3903367  94.5467012  84.7969678  32.6621820  93.3662753  85.4038147
  29.8189103  93.8150790  88.5244819  30.3890460  94.2438059  87.8862304
  30.4097215  93.5333375  89.2229005  31.8633908  90.3902461  82.3954621
  32.5657951  90.8423505  82.8628547  31.5314536  89.7486280  83.0234514
  30.3114269  88.9814218  96.7705830  29.6812930  89.6630499  97.0041227
  30.2050357  88.8697299  95.8258969  25.6059242  88.6486014  87.6971755
  24.8158296  88.9043542  87.2211865  26.0970489  89.4634352  87.8023795
  39.6223051  95.9891253  90.4477035  40.4440495  95.5871440  90.1659717
  39.6185454  95.8859487  91.3993151  27.5573987  89.0130593  84.6555231
  26.7605150  89.1249287  85.1738727  27.3299579  89.3517245  83.7896122
  33.3879655  95.5375296  92.6037746  33.4524087  95.9995703  93.4395918
  32.6790579  94.9072661  92.7320056  23.8896945  88.9016504  90.1286745
  24.1404983  89.7863514  90.3944321  24.4256493  88.7221106  89.3561837
  47.7129044  92.3330001  86.7962007  46.9592753  91.7637399  86.6406011
  47.8476586  92.2992666  87.7432642  33.1027672  97.2043404  82.4716726
  32.9673347  98.0494939  82.9001574  33.6437485  97.4062681  81.7082660
  26.5557070  94.7218842  83.0444651  27.0681590  95.5162092  83.1950216
  27.2079783  94.0245132  82.9778253  28.3651954  97.8384598  85.1267404
  28.5418583  98.7602563  84.9388388  29.1608788  97.5243017  85.5561784
  27.6504311  89.8849230  95.0029568  27.5357826  88.9834487  95.3036667
  26.7948829  90.1312927  94.6514384  34.7296149  97.8266970  96.6017068
  34.2860003  97.0403349  96.2837973  35.3913362  98.0146121  95.9360959
  29.4883270  99.3562772  91.1277747  30.0390695  99.2279835  90.3554741
  28.6494746  99.6557661  90.7772640  36.8277387  98.1069770  94.6298470
  36.8095862  98.9278651  94.1378739  37.7497307  97.9823845  94.8548611
  33.2850441  95.6213900  95.4721978  33.8178778  94.8602188  95.2421286
  32.7564522  95.3287551  96.2146132  24.5205987  93.0507496  83.8204222
  25.3581209  93.4604504  83.6037930  24.6984254  92.1106938  83.7904416
  36.4170419  90.7182577  79.5088055  35.9017042  91.4887181  79.7476442
  36.1447727  90.0447713  80.1321116  34.0017530  85.5632277  84.5673293
  33.1459126  85.1739128  84.3878932  34.4144481  85.6424238  83.7073079
  31.7759562  83.1817350  87.9731035  32.6412559  82.9860159  87.6136924
  31.8437071  82.9527702  88.9000391  41.3904693  93.4714931  81.4441228
  40.6134136  93.1326091  80.9996390  42.0696174  93.4767554  80.7696193
  36.2056722  88.5909669  81.3347836  35.9006857  88.9055818  82.1857979
  37.1587164  88.6691089  81.3775169  34.6503154  94.7499892  82.9840790
  34.1224515  94.0152652  82.6714027  34.1490656  95.5274568  82.7380758
  39.6296000  92.9448913  88.1007836  38.9719674  93.6348174  88.1887965
  40.4336399  93.3345344  88.4441823  29.3821881  85.4119558  85.3447401
  29.9565633  85.1894740  84.6120594  29.9692864  85.4808253  86.0976003
  38.4401458  91.2993285  86.1511778  38.9533340  91.9323277  86.6533488
  39.0902682  90.6994481  85.7855138  29.7091468  87.4424019  79.3643287
  28.8728781  87.7798706  79.6852561  29.5696238  87.3072999  78.4270424
  31.6844549  82.2860807  84.0722471  31.0308961  81.9709824  83.4479086
  31.6425023  81.6636548  84.7982294  32.7955754  92.5680102  75.9875763
  31.8882816  92.3369356  76.1866912  33.2926786  91.7717722  76.1749745
  35.7023833 101.2777610  78.9072449  35.0285531 101.5809306  79.5157407
  36.0889655 102.0806690  78.5577906  34.9182289  88.7742741  88.3970118
  34.0004851  88.9957688  88.2391807  35.3342433  88.8489051  87.5381826
  35.7017337  90.1734156  83.5272799  36.4489156  90.6855554  83.2179921
  35.9708927  89.8518209  84.3877192  33.9743987  92.6692697  80.5099753
  33.0655207  92.3851730  80.6072223  34.0039071  93.0891776  79.6503060
  39.2063255  96.2799287  84.2790921  38.7525582  95.4390197  84.3356111
  38.5757221  96.9160685  84.6165701  38.1496174  87.2091273  85.5091588
  37.4118931  86.6968659  85.8401831  38.4022948  86.7691654  84.6974865
  37.6496194  98.1175783  85.2140739  37.9419168  98.6780840  84.4953104
  38.1594814  98.4104344  85.9693898  38.2507802  79.9867525  86.1033357
  38.5566678  79.1264888  85.8159272  38.9760406  80.5785145  85.9032351
  24.5432158  90.3898211  84.4914955  24.3456557  89.7967572  83.7666022
  23.9878822  90.0850422  85.2090894  32.5228881  90.2821318  86.6109548
  32.5777491  89.3295154  86.5352025  31.7120083  90.4380757  87.0950847
  33.6720075  94.2101441  77.8487832  33.2339505  93.4937300  77.3893469
  34.4130516  94.4377556  77.2872923  30.4621241  88.8998378  84.3699927
  29.6489107  89.1992548  84.7765119  30.9580235  88.5054066  85.0874410
  32.6129819  98.8956134  86.3034192  32.5705998  99.1216981  85.3742724
  33.5292518  98.6619509  86.4519993  36.0595453  89.3640202  93.2014821
  36.4144841  89.5911675  94.0609287  36.7067584  89.6958579  92.5792076
  41.7893190  92.4858638  83.9064150  41.6511088  92.6760234  82.9785339
  41.4329409  93.2478021  84.3632201  29.9535316  86.4716733  89.9861162
  30.5934695  86.3305492  89.2884126  29.1212847  86.1851246  89.6099764
  41.8162569  94.5535165  88.9175422  42.2499076  94.4610454  89.7658476
  42.5294150  94.5292665  88.2795438  30.7295620  95.7719163  86.0996155
  31.5236218  95.2769484  85.8978730  30.0187312  95.2437027  85.7363860
  35.5490464  98.1537259  90.4508522  35.6027487  98.7228195  91.2186238
  34.6805246  98.3239144  90.0862559  27.0378383  89.9162245  82.1755907
  26.1075971  89.8546701  82.3925869  27.1335855  89.3938198  81.3792549
  26.9563932  86.4417058  84.7634149  27.2170750  87.3562391  84.6543309
  27.7781105  85.9741501  84.9130762  28.4288858  87.8554815  91.9332974
  29.1011911  87.6472177  91.2845622  27.6018644  87.6576901  91.4938206
  42.6778119  94.5958866  91.4508307  42.8714009  95.5004676  91.6967582
  42.5778737  94.1366285  92.2846892  34.3314430  84.4816756  93.9498634
  33.6842345  85.1806706  93.8563111  35.1015445  84.9152900  94.3174883
  37.7393228  94.7465608  97.0249188  37.5878734  94.5176160  96.1079271
  37.7297907  95.7036210  97.0380533  34.5078564  92.3197521  92.0095454
  35.4370624  92.4708681  91.8364421  34.0869594  92.4081542  91.1544101
  33.3066896  96.3448185  89.7793992  33.1677982  95.9766970  90.6519930
  32.5181492  96.8595825  89.6077950  33.9015048 101.4457282  81.1219528
  34.0766804 100.9745325  81.9365151  33.2147836 102.0723048  81.3500789
  34.8572111  95.7229788  87.1682830  34.5221944  95.6830558  88.0640479
  34.3576057  95.0574504  86.6953240  28.8316355  91.1297418  92.6935411
  28.6936153  90.3977657  93.2946950  29.7421278  91.0406318  92.4119598
  37.7931303  93.0685823  77.4419889  37.1760473  92.3432651  77.3452942
  37.3247791  93.8295183  77.0986963  31.4598656  90.8417378  92.1819090
  32.1698274  90.2010570  92.1405709  31.4167964  91.0930272  93.1045271
  39.4485434  97.7784731  95.1025670  39.3897981  97.0943951  94.4356253
  39.8504953  98.5203721  94.6506296  30.1727590  87.8282595  94.0014730
  29.6364947  87.3773334  94.6536326  29.5844298  87.9628504  93.2585194
  28.4676133 104.5946645  87.8959388  28.7072731 105.2265169  88.5738407
  27.6245330 104.2434685  88.1824748  29.5829849  87.2871247  76.5641193
  28.7059315  87.1660048  76.2003440  30.0587602  86.4957325  76.3120082
  39.4502842  95.7424315  93.3339649  38.5629620  95.4050237  93.4566048
  40.0201393  95.0107346  93.5708415  21.1031989  92.0748407  86.6582701
  21.7903029  91.7610137  86.0703716  20.9480117  92.9789771  86.3849952
  25.9066711  86.9638603  91.0867724  25.8224900  86.3564273  90.3518134
  25.0849417  87.4547621  91.0877221  32.9803995 100.4025767  90.3000892
  32.9074166 101.2080739  90.8120197  32.5381388 100.6017733  89.4748914
  32.7693775  99.6397537  83.8103714  31.9861297 100.1819217  83.9041939
  33.4686520 100.1571517  84.2097955  36.0790425  85.4492167  86.4537919
  36.5759124  84.6962129  86.1338990  35.3077406  85.4856483  85.8881129
  43.9320182  91.1532532  88.0956211  43.9210058  92.0357248  87.7250144
  43.0637562  90.8004083  87.9010748  35.4402679 100.3012601  92.4559051
  36.1530651 100.9360066  92.3834953  34.9492707 100.3976467  91.6399053
  37.1620205  94.2063854  84.0276343  36.2276484  94.3265316  83.8581047
  37.3396874  93.3036321  83.7636353  32.6625393  87.5909550  86.1809604
  32.2923181  87.0380590  86.8690510  33.1584486  86.9867683  85.6284604
  40.5492757  90.0481173  84.5626377  41.0153209  90.8809165  84.4886680
  41.0000257  89.5826155  85.2671635  30.4914592  98.0507045  93.2764622
  31.1924052  98.6843528  93.4294016  30.0209707  98.3921776  92.5160261
  38.6168988  96.3924994  81.5612529  38.8928832  96.2781589  82.4706403
  37.7473487  95.9942479  81.5224702  38.5209420  82.4161760  88.6017278
  37.6072499  82.6465987  88.7699485  38.9502521  82.5000204  89.4531311
  38.2915878  90.6051652  91.1017172  37.6387328  90.8527560  90.4469625
  38.6696258  89.7915790  90.7679650  35.2523052 100.6411345  85.2045343
  35.4345446  99.8233001  85.6673095  36.0756038 100.8579038  84.7670233
  35.5865217  99.5679530  82.4660391  36.1152984  99.0571985  81.8530553
  35.8493437  99.2522061  83.3305924  34.3403451  91.3471463  97.5883209
  33.6644088  91.2465592  98.2585585  35.1631085  91.1910677  98.0519207
  26.0882310  97.5843400  90.2095725  26.6735747  96.8387088  90.3423629
  25.8907149  97.8947356  91.0932389  28.9420965 100.6194647  85.2258167
  28.2731341 101.1040775  84.7422207  28.8033835 100.8663868  86.1401546
  20.6799965  90.1549000  88.9300168  20.7184064  89.6212591  89.7237286
  20.1740258  89.6284205  88.3111145  33.0826234 102.6538391  91.8240825
  33.6344542 102.8170012  92.5889911  33.4232427 103.2442828  91.1520850
  28.0590727  85.0013540  92.4262710  28.1232054  85.8628371  92.0140108
  27.9957847  84.3887542  91.6935069  27.5343000  87.0736673  96.0735744
  28.1615039  86.6913750  96.6873269  26.6770919  86.8550875  96.4391437
  37.9337108  97.4799648  97.6789480  38.4777012  98.0929606  97.1844435
  37.3523953  98.0379227  98.1956493  24.3108542  88.8813102  82.0054099
  24.6061984  87.9723780  81.9521153  23.4096578  88.8600842  81.6835102
  36.2194621 100.6020366  88.8104508  36.0945761  99.8010106  88.3015453
  36.8773712 101.0966559  88.3218477  27.8402789  86.9569099  87.9881648
  27.1189375  87.5705066  87.8489121  28.6296045  87.4926863  87.9098294
  38.2829530  98.4029386  90.4384058  37.3359865  98.2834737  90.3662384
  38.6312303  97.5151884  90.5210319  30.6429103  84.2923525  94.2622300
  31.1663505  84.5385822  95.0248609  30.4241436  85.1243560  93.8425437
  26.0396384  86.5627200  82.1293424  25.7109090  85.6824579  81.9468530
  26.3935755  86.5074868  83.0169814  35.2875963  98.1982102  86.6388410
  35.1400925  97.2698810  86.8195980  36.1129456  98.2202193  86.1545485
  29.1538207  86.8500170  82.4968902  29.4934280  87.3786091  81.7747510
  29.6010328  87.1880576  83.2727469  38.8910085  99.0210661  87.7253283
  39.8156632  98.8153523  87.5877734  38.7225388  98.7727062  88.6342624
  31.8481648  85.2337220  91.9471970  31.5078468  84.4345033  92.3492650
  31.1420654  85.5338931  91.3748803  31.1406354  85.3474791  80.6962195
  31.8614717  85.7256044  80.1925912  30.5171658  86.0663668  80.7997173
  35.2837477  86.0519940  81.6320527  35.5001092  86.9344578  81.3309355
  34.8031544  85.6606153  80.9026169  30.0236699  89.0105653  88.2091272
  29.8781279  89.3245956  89.1015553  29.5461902  89.6290554  87.6562170
  31.8833081  86.0008201  88.2572161  31.8694650  85.1049295  87.9204459
  32.6005510  86.0078865  88.8910447  33.7359212  86.4345541  90.3025289
  33.4776990  87.3562612  90.3009619  33.2044253  86.0375976  90.9925753
  38.6805401  99.5396329  83.0815374  38.8542278  98.9742751  82.3289227
  39.1734292 100.3397223  82.8994864  24.4982361  91.5510998  91.1478933
  23.9535829  92.3270806  91.2799207  25.3761711  91.8981802  90.9898054
  31.2869977  84.8822582  83.5259731  31.4085889  83.9539228  83.7250619
  30.9972020  84.8961268  82.6138047  34.1561168  82.5677492  86.6626451
  34.1782865  82.6316825  85.7078431  34.5729227  81.7282001  86.8566957
  44.5344792  92.3032752  84.7005674  44.9775938  91.5540077  84.3024797
  43.6571302  92.2942888  84.3179406  39.6680573  98.8563093  80.1812272
  40.3631478  99.4769786  80.3999587  40.0103724  98.0058444  80.4564650
  25.2848383  90.6780894  94.0409090  24.5430119  90.8263529  94.6273720
  24.9641127  90.9389160  93.1775839  41.5671997  96.3062799  81.7099603
  42.0923321  96.6450071  80.9848923  41.4794349  95.3709814  81.5262738
  33.2292045 100.2196872  93.8389480  33.5379172  99.9746019  94.7112179
  34.0267527 100.4243511  93.3508350  33.2512657 102.3734782  86.0694856
  32.8117648 101.8811161  86.7627713  34.0020774 101.8307749  85.8286932
  25.7304996  98.5646323  86.0719484  26.5563016  98.2650095  85.6918128
  25.3799048  97.7953945  86.5209273  30.6986529  97.9172791  88.1417158
  30.0766539  97.2543496  87.8419386  31.3691396  97.9433923  87.4590806
  23.9313601  96.4832649  87.0308418  23.0945510  96.0554824  86.8492419
  23.9037247  96.6765092  87.9679209  30.7711057  86.3954579  97.7349664
  30.8199212  87.2716702  97.3527434  31.3133571  85.8531972  97.1621307
  41.2565903  96.9395702  97.0150801  40.4661446  96.9219841  96.4755300
  41.0199257  97.4783996  97.7699838  41.3763778  93.7888169  94.3283530
  41.4261783  93.6238176  95.2699052  41.2677701  92.9215428  93.9381410
  30.2600036  96.4676714  81.6175619  30.4088157  97.1512179  80.9642291
  31.0666480  96.4481804  82.1325074  38.6667540  89.7719097  95.6442836
  39.5677403  89.6325561  95.3526834  38.7415515  89.9373551  96.5841014
  33.0010345  87.1485951  94.4896023  32.1313655  87.4419517  94.2178611
  33.2369826  87.7326396  95.2103286  42.8781975  96.2085110  94.5725551
  42.5866783  96.5715091  95.4089012  42.2654106  95.4952118  94.3938883
  44.0777657  93.7737990  87.0928121  44.9124548  94.2127794  87.2565682
  44.2136786  93.2976643  86.2736367  41.1269163  91.3317725  93.0405609
  41.6023284  91.5245371  92.2324461  40.2034728  91.3876911  92.7948993
  28.0152669  92.4941892  82.6236687  27.7698711  91.5904222  82.8216898
  28.1848584  92.4959042  81.6816165  27.2848317  88.2270249  80.1222849
  26.5917562  88.3014604  79.4662885  27.0400069  87.4630593  80.6444366
  35.9561973  79.7865851  87.5262340  36.2363727  79.1189040  88.1522766
  36.7412580  79.9794946  87.0137003  33.7595442  98.9624845  79.0887366
  33.1869409  99.5815032  78.6357838  34.3328236  99.5124206  79.6227288
  39.8270832  88.2083485  91.2733915  40.7788255  88.3081582  91.2946139
  39.6574282  87.4161753  91.7831999  37.8485211  85.2939068  91.4593316
  37.2535143  85.5744081  90.7639804  37.5634908  85.7832969  92.2310057
  36.9792702  99.2461995  80.2195948  37.9123375  99.1807557  80.4228824
  36.8915915 100.0818262  79.7610481  39.6080718  98.5627865  77.1799896
  39.5294350  98.2287729  78.0735654  40.4290385  99.0549633  77.1791368
  42.3058910  91.4289604  90.3876214  42.2735230  90.4905605  90.5735898
  42.9159533  91.5073641  89.6542039  34.1442240  90.2985657  76.4303418
  35.0901345  90.1691866  76.4991836  33.7656485  89.5600319  76.9072847
  42.4553398  88.2200648  90.4334498  41.9392447  87.4359105  90.2464426
  43.3393347  87.8919365  90.5981017  40.1164125  81.9641663  86.3930310
  39.9188946  81.6556752  87.2773642  40.7263831  82.6903302  86.5228240
  48.1235459  92.4905611  89.5282251  48.8538848  92.2290899  90.0889954
  47.5142405  91.7534333  89.5684319  46.2050757  90.6313474  90.1256702
  45.4783920  90.4969439  89.5173194  45.7898043  90.9390303  90.9313420
  34.0280933  94.3503404  97.8904075  34.9483942  94.5282003  98.0844122
  33.9930516  93.4059449  97.7383775  32.3285158  88.2235634  76.3658304
  31.4216613  87.9268747  76.4421017  32.6061139  87.9265452  75.4992590
  23.2463098  89.5441997  86.8157350  22.9265882  88.6907305  86.5231724
  22.6996526  89.7590575  87.5715317  27.0243005  92.2604438  90.5326857
  27.2429015  93.1921546  90.5514890  27.4368779  91.9012413  91.3181660
  33.9447223  82.7672524  82.5202545  33.1347952  82.4219609  82.8957791
  34.6331640  82.4580067  83.1090156  35.8737772  81.8450570  84.1426842
  36.4268810  82.2646024  84.8016865  36.1107858  80.9186318  84.1849798
  31.8970871  87.8337644  99.9229605  31.7967598  88.7832001  99.8541697
  31.6792413  87.5055883  99.0505676  31.0983942  85.0822569  76.5070283
  31.9603106  85.4077467  76.7666100  31.2834286  84.2954065  75.9943349
  23.1151358  93.1644909  88.7850472  22.4214829  92.7498862  88.2720426
  23.8624349  93.2065445  88.1883891  39.2516579  83.9551096  83.6505506
  38.6715248  84.6135900  83.2683558  38.9852511  83.1328440  83.2392923
  37.7020145  83.3556153  85.8526826  38.2019923  83.4672688  85.0441145
  38.3455753  83.0517206  86.4927635  31.7602141  91.2634783  98.7394667
  31.2769223  92.0635143  98.9458556  31.8463080  91.2742728  97.7862111
  25.0288100  93.0963163  86.6616486  25.0058789  93.1950850  85.7098370
  25.3388737  93.9428313  86.9833653  27.6875478  95.1539318  90.7763101
  28.6418732  95.1223260  90.7093032  27.4888002  94.6929941  91.5913327
  28.2774860  93.7240434  93.3433899  29.0967749  94.2184512  93.3668736
  28.5511668  92.8072402  93.3151466  38.0341457  86.1151186  82.7061854
  37.1467312  86.4000837  82.4882049  38.4495446  85.9544949  81.8589131
  41.3855993  86.1397707  86.4216193  42.1616383  86.6294159  86.6940810
  40.6604127  86.5655761  86.8788063  43.8228551  86.8525326  87.4790134
  44.4173042  86.6121062  86.7683442  43.8955135  86.1332457  88.1063670
  26.0425707 100.6958937  87.7933299  25.9080175  99.9359338  87.2271297
  25.6257769 101.4199837  87.3262088  37.1784670  95.8795861  76.8009874
  37.8820520  96.0845863  77.4167530  36.4547319  96.4472622  77.0658958
  38.0082480  91.6305722  82.9212144  37.9517682  92.0874273  82.0819777
  38.5610823  90.8696406  82.7434987  41.8187286  87.4195454  83.7462264
  41.5624221  87.0192089  84.5770471  41.1940154  88.1339248  83.6212403
  46.1299624  90.1591527  86.2533555  45.5699182  90.2284716  87.0265117
  45.5243128  89.9832512  85.5333051  29.1994833 101.5928254  88.0051741
  29.0827217 102.5373687  87.9030432  28.3787279 101.2901816  88.3937541
  39.0871368  96.3178390  78.8508334  39.9216971  95.8859588  78.6685809
  38.9255710  96.1460403  79.7785229  38.7417260  92.8210503  80.2164673
  38.6866064  92.6554775  79.2753118  38.1163315  93.5286536  80.3726863
  23.5309775  88.0578567  94.0426096  24.1768638  87.5477521  94.5313321
  23.3226926  88.7947249  94.6169521  36.0563167  95.1259415  99.5418236
  36.9254327  95.3000067  99.1804871  35.5769918  95.9453832  99.4193966
  32.0513385  82.3218612  79.7949992  32.0392055  83.2660452  79.9518263
  32.9436807  82.1388758  79.5009453  30.2249347 102.2456516  91.2207670
  31.1276594 102.2780126  91.5374165  29.9986717 101.3156967  91.2354006
  31.9802949 100.9987503  87.8817748  31.0298580 100.9989364  87.7682121
  32.2835435 100.2520237  87.3653783  27.8707266  85.2046185  98.1401110
  28.7338727  84.8482989  98.3504434  27.2972676  84.8660079  98.8276514
  47.7155643 106.8348041  88.9463511  48.3534053 106.7154788  88.2426851
  47.5976486 107.7828885  89.0051463  44.5245349 106.7875469  88.8825036
  44.1863860 106.6716534  87.9945570  45.3935117 106.3866634  88.8626042
  40.3832165 108.6410945  84.8721927  39.8197030 108.5500882  84.1038214
  40.2684560 107.8210850  85.3524419  45.0065132 107.9410321  94.8411241
  44.9953773 107.5463119  93.9691745  45.1685771 107.2076393  95.4345013
  37.9296597 110.1362137  87.7106147  38.7217888 109.7952962  87.2952446
  38.1693247 110.2457112  88.6308300  45.9631723 112.3081913  80.1836391
  45.3119703 112.8935994  79.7970405  46.7576086 112.8388108  80.2431429
  39.8887350 109.3971050  80.5823526  40.6618226 108.8500037  80.4436402
  40.2412749 110.2615300  80.7937987  41.7272393 110.7247433  93.7890425
  41.4362259 111.6293063  93.6737091  42.3629377 110.7663960  94.5034495
  42.6528600 108.1024281  90.3791785  43.2492172 107.8780303  89.6648748
  42.7103571 107.3609027  90.9817233  42.2253628 105.5563716  78.2141976
  42.4779149 105.0345238  77.4525439  41.2878187 105.3929862  78.3168659
  47.2696911 104.5599495  86.0216719  48.0560000 104.1418918  85.6707136
  47.5335615 105.4645587  86.1898367  47.4406988 109.9972345  80.7205376
  46.8052821 110.0706972  81.4326280  47.1104395 110.5865944  80.0424455
  52.6705338 104.4974728  86.9249697  53.4030510 103.9273945  87.1587527
  51.9144694 104.1096328  87.3656203  41.9449917 107.4591822  80.4166351
  41.8286175 106.7836726  81.0847435  42.0552177 106.9724196  79.5998504
  44.2881458 106.9201969  84.1213040  43.9239665 106.3932590  84.8325961
  45.1448574 106.5300438  83.9479525  50.1930759  98.2096302  91.3844306
  49.8614083  99.0791713  91.1605521  49.5976372  97.8932586  92.0638336
  43.9286945 101.9491869  79.1174388  44.0961347 102.8172106  79.4844859
  43.7384114 102.1119151  78.1935678  46.6862278 110.4108848  90.7840219
  46.3863001 111.3133887  90.6756026  46.3413338 110.1441031  91.6361372
  40.1374760 106.8622645  86.8176923  39.2125256 106.7298859  87.0254615
  40.3859173 107.6416864  87.3146866  50.0859422 102.9291388  88.4637656
  49.1776299 102.8606797  88.1696417  50.0347018 103.4063333  89.2919482
  43.9076166 104.4049527  80.1021055  43.7875791 104.8506577  80.9406536
  43.2128754 104.7534844  79.5434593  37.4983571 106.5055918  87.6520712
  37.6275952 106.7590397  88.5660124  36.8181022 107.0983626  87.3325367
  41.6683058 117.1753168  83.7511186  41.5907088 118.1260993  83.8299667
  41.0644702 116.8299041  84.4086113  44.1600288 104.3481034  96.4072553
  43.3833622 104.9074954  96.3975418  44.7990851 104.8337817  96.9287423
  51.9521068 101.1307827  90.2415530  51.3095449 101.4240360  89.5955325
  51.4475997 101.0160747  91.0468727  49.6061232 104.8771000  80.9301389
  50.5179088 105.1098387  80.7549087  49.0970879 105.4608044  80.3676468
  42.4146660 107.1566487  95.9690520  43.1561344 107.6951531  95.6925344
  41.7083645 107.7832776  96.1262072  47.8902000 109.2995628  94.5662682
  48.2985356 108.8578038  93.8217314  47.1679261 108.7248255  94.8196875
  44.2433070 104.2368234  91.9396239  45.0894265 104.6607648  92.0830888
  44.1831707 103.5801859  92.6334802  48.2130814 109.8596818  88.3214971
  47.5839677 110.0242532  87.6191039  47.8256476 110.2738428  89.0925935
  52.0920046 110.7951256  85.6759334  51.4071084 111.1750157  85.1256368
  52.1763895 111.4046583  86.4091282  47.3932515 101.8972603  93.5977412
  47.1493447 102.6514663  93.0611688  47.6692446 102.2757950  94.4324659
  49.3470978 108.4411215  92.2754678  49.5587873 109.0842975  91.5989059
  49.3000726 107.6073532  91.8076608  46.9497207 101.0529036  89.1791250
  46.0881686 101.3510289  89.4707988  46.9759641 101.2699435  88.2472283
  43.7658776 109.5971226  85.5865056  44.2297122 109.8758929  84.7969678
  43.5015574 108.6954671  85.4038147  40.6582857 109.1442708  88.5244819
  41.2284214 109.5729976  87.8862304  41.2490969 108.8625293  89.2229005
  42.7027662 105.7194379  82.3954621  43.4051706 106.1715422  82.8628547
  42.3708291 105.0778198  83.0234514  41.1508024 104.3106135  96.7705830
  40.5206684 104.9922416  97.0041227  41.0444112 104.1989217  95.8258969
  36.4452996 103.9777931  87.6971755  35.6552050 104.2335460  87.2211865
  36.9364244 104.7926269  87.8023795  50.4616806 111.3183171  90.4477035
  51.2834249 110.9163358  90.1659717  50.4579209 111.2151405  91.3993151
  38.3967742 104.3422511  84.6555231  37.5998905 104.4541205  85.1738727
  38.1693334 104.6809163  83.7896122  44.2273409 110.8667214  92.6037746
  44.2917842 111.3287621  93.4395918  43.5184333 110.2364579  92.7320056
  34.7290699 104.2308422  90.1286745  34.9798738 105.1155432  90.3944321
  35.2650248 104.0513023  89.3561837  58.5522799 107.6621919  86.7962007
  57.7986507 107.0929317  86.6406011  58.6870340 107.6284584  87.7432642
  43.9421427 112.5335321  82.4716726  43.8067102 113.3786857  82.9001574
  44.4831239 112.7354599  81.7082660  40.4288766  98.6126901  99.1331081
  40.0355712  98.0593100  99.8078726  41.2454907  98.9237480  99.5237599
  37.3950824 110.0510759  83.0444651  37.9075345 110.8454010  83.1950216
  38.0473537 109.3537050  82.9778253  39.2045709 113.1676516  85.1267404
  39.3812337 114.0894480  84.9388388  40.0002542 112.8534935  85.5561784
  43.3456727 100.0284780  96.7251338  44.0866441 100.6291933  96.6455800
  43.5774650  99.2862418  96.1669381  38.4898065 105.2141148  95.0029568
  38.3751581 104.3126405  95.3036667  37.6342583 105.4604844  94.6514384
  45.5689903 113.1558888  96.6017068  45.1253757 112.3695266  96.2837973
  46.2307117 113.3438038  95.9360959  40.3277024 114.6854689  91.1277747
  40.8784450 114.5571753  90.3554741  39.4888500 114.9849578  90.7772640
  47.6671141 113.4361688  94.6298470  47.6489617 114.2570569  94.1378739
  48.5891061 113.3115763  94.8548611  44.1244195 110.9505817  95.4721978
  44.6572532 110.1894105  95.2421286  43.5958277 110.6579469  96.2146132
  47.2913890  96.0565883  91.0015620  46.9478160  96.9467525  90.9254730
  47.6592853  95.8667541  90.1385205  35.3599741 108.3799414  83.8204222
  36.1974963 108.7896422  83.6037930  35.5378009 107.4398856  83.7904416
  47.2564173 106.0474494  79.5088055  46.7410797 106.8179099  79.7476442
  46.9841482 105.3739630  80.1321116  44.8411284 100.8924195  84.5673293
  43.9852880 100.5031046  84.3878932  45.2538236 100.9716156  83.7073079
  46.3710431  98.4270538  88.9664853  45.8675226  98.3900674  88.1532658
  46.6641038  99.3363281  89.0261510  42.6153317  98.5109268  87.9731035
  43.4806313  98.3152077  87.6136924  42.6830826  98.2819620  88.9000391
  52.2298447 108.8006849  81.4441228  51.4527890 108.4618008  80.9996390
  52.9089928 108.8059472  80.7696193  47.0450476 103.9201586  81.3347836
  46.7400612 104.2347736  82.1857979  47.9980918 103.9983006  81.3775169
  45.4896908 110.0791810  82.9840790  44.9618270 109.3444569  82.6714027
  44.9884411 110.8566486  82.7380758  50.4689754 108.2740830  88.1007836
  49.8113429 108.9640092  88.1887965  51.2730153 108.6637262  88.4441823
  40.2215636 100.7411476  85.3447401  40.7959388 100.5186658  84.6120594
  40.8086618 100.8100171  86.0976003  49.2795213 106.6285203  86.1511778
  49.7927095 107.2615195  86.6533488  49.9296437 106.0286398  85.7855138
  40.5485223 102.7715937  79.3643287  39.7122535 103.1090624  79.6852561
  40.4089993 102.6364917  78.4270424  42.5238303  97.6152725  84.0722471
  41.8702716  97.3001742  83.4479086  42.4818778  96.9928465  84.7982294
  43.6349508 107.8972020  75.9875763  42.7276570 107.6661273  76.1866912
  44.1320540 107.1009639  76.1749745  46.5417587 116.6069527  78.9072449
  45.8679286 116.9101224  79.5157407  46.9283409 117.4098608  78.5577906
  45.7576044 104.1034658  88.3970118  44.8398605 104.3249605  88.2391807
  46.1736187 104.1780969  87.5381826  46.5411092 105.5026074  83.5272799
  47.2882911 106.0147471  83.2179921  46.8102681 105.1810127  84.3877192
  44.8137742 107.9984615  80.5099753  43.9048961 107.7143648  80.6072223
  44.8432826 108.4183693  79.6503060  50.0457009 111.6091204  84.2790921
  49.5919336 110.7682114  84.3356111  49.4150976 112.2452603  84.6165701
  48.9889929 102.5383190  85.5091588  48.2512686 102.0260577  85.8401831
  49.2416702 102.0983572  84.6974865  48.4889948 113.4467701  85.2140739
  48.7812923 114.0072758  84.4953104  48.9988569 113.7396262  85.9693898
  49.0901556  95.3159442  86.1033357  49.3960433  94.4556806  85.8159272
  49.8154161  95.9077063  85.9032351  35.3825912 105.7190129  84.4914955
  35.1850312 105.1259490  83.7666022  34.8272576 105.4142339  85.2090894
  43.3622636 105.6113235  86.6109548  43.4171246 104.6587072  86.5352025
  42.5513838 105.7672675  87.0950847  44.5113830 109.5393359  77.8487832
  44.0733259 108.8229217  77.3893469  45.2524270 109.7669473  77.2872923
  41.3014996 104.2290295  84.3699927  40.4882861 104.5284466  84.7765119
  41.7973990 103.8345984  85.0874410  43.4523574 114.2248052  86.3034192
  43.4099752 114.4508898  85.3742724  44.3686272 113.9911427  86.4519993
  46.8989207 104.6932120  93.2014821  47.2538595 104.9203593  94.0609287
  47.5461339 105.0250496  92.5792076  52.6286944 107.8150556  83.9064150
  52.4904843 108.0052152  82.9785339  52.2723163 108.5769938  84.3632201
  40.7929070 101.8008651  89.9861162  41.4328450 101.6597410  89.2884126
  39.9606601 101.5143164  89.6099764  52.6556324 109.8827083  88.9175422
  53.0892831 109.7902372  89.7658476  53.3687905 109.8584583  88.2795438
  41.5689374 111.1011081  86.0996155  42.3629973 110.6061401  85.8978730
  40.8581067 110.5728944  85.7363860  46.3884219 113.4829177  90.4508522
  46.4421241 114.0520113  91.2186238  45.5199000 113.6531062  90.0862559
  37.8772138 105.2454163  82.1755907  36.9469726 105.1838618  82.3925869
  37.9729610 104.7230116  81.3792549  37.7957687 101.7708976  84.7634149
  38.0564504 102.6854309  84.6543309  38.6174859 101.3033418  84.9130762
  39.2682612 103.1846733  91.9332974  39.9405666 102.9764095  91.2845622
  38.4412399 102.9868819  91.4938206  53.5171874 109.9250783  91.4508307
  53.7107764 110.8296594  91.6967582  53.4172492 109.4658202  92.2846892
  45.1708184  99.8108674  93.9498634  44.5236099 100.5098623  93.8563111
  45.9409200 100.2444818  94.3174883  48.5786982 110.0757526  97.0249188
  48.4272489 109.8468078  96.1079271  48.5691662 111.0328127  97.0380533
  45.3472319 107.6489439  92.0095454  46.2764379 107.8000598  91.8364421
  44.9263349 107.7373460  91.1544101  44.1460650 111.6740103  89.7793992
  44.0071736 111.3058888  90.6519930  43.3575247 112.1887743  89.6077950
  44.7408802 116.7749200  81.1219528  44.9160558 116.3037243  81.9365151
  44.0541590 117.4014966  81.3500789  45.6965866 111.0521706  87.1682830
  45.3615698 111.0122476  88.0640479  45.1969811 110.3866422  86.6953240
  39.6710109 106.4589336  92.6935411  39.5329907 105.7269575  93.2946950
  40.5815033 106.3698236  92.4119598  48.6325057 108.3977740  77.4419889
  48.0154228 107.6724568  77.3452942  48.1641546 109.1587100  77.0986963
  42.2992410 106.1709295  92.1819090  43.0092029 105.5302487  92.1405709
  42.2561718 106.4222190  93.1045271  50.2879189 113.1076649  95.1025670
  50.2291735 112.4235869  94.4356253  50.6898707 113.8495639  94.6506296
  41.0121344 103.1574513  94.0014730  40.4758701 102.7065252  94.6536326
  40.4238053 103.2920422  93.2585194  40.4223603 102.6163164  76.5641193
  39.5453069 102.4951965  76.2003440  40.8981356 101.8249243  76.3120082
  50.2896596 111.0716232  93.3339649  49.4023375 110.7342154  93.4566048
  50.8595147 110.3399264  93.5708415  31.9425743 107.4040324  86.6582701
  32.6296783 107.0902054  86.0703716  31.7873872 108.3081689  86.3849952
  36.7460465 102.2930521  91.0867724  36.6618654 101.6856190  90.3518134
  35.9243172 102.7839539  91.0877221  43.8197750 115.7317685  90.3000892
  43.7467921 116.5372656  90.8120197  43.3775143 115.9309651  89.4748914
  43.6087529 114.9689455  83.8103714  42.8255051 115.5111135  83.9041939
  44.3080274 115.4863434  84.2097955  46.9184179 100.7784084  86.4537919
  47.4152879 100.0254047  86.1338990  46.1471161 100.8148401  85.8881129
  54.7713937 106.4824450  88.0956211  54.7603813 107.3649165  87.7250144
  53.9031316 106.1296001  87.9010748  46.2796433 115.6304519  92.4559051
  46.9924405 116.2651984  92.3834953  45.7886462 115.7268385  91.6399053
  48.0013960 109.5355772  84.0276343  47.0670239 109.6557234  83.8581047
  48.1790628 108.6328238  83.7636353  43.5019148 102.9201467  86.1809604
  43.1316936 102.3672508  86.8690510  43.9978240 102.3159601  85.6284604
  51.3886511 105.3773091  84.5626377  51.8546963 106.2101082  84.4886680
  51.8394012 104.9118072  85.2671635  41.3308347 113.3798962  93.2764622
  42.0317806 114.0135445  93.4294016  40.8603462 113.7213694  92.5160261
  49.4562742 111.7216912  81.5612529  49.7322586 111.6073507  82.4706403
  48.5867241 111.3234397  81.5224702  49.3603174  97.7453678  88.6017278
  48.4466254  97.9757905  88.7699485  49.7896275  97.8292122  89.4531311
  49.1309633 105.9343570  91.1017172  48.4781083 106.1819477  90.4469625
  49.5090012 105.1207708  90.7679650  46.0916806 115.9703263  85.2045343
  46.2739201 115.1524919  85.6673095  46.9149792 116.1870955  84.7670233
  46.4258972 114.8971448  82.4660391  46.9546738 114.3863903  81.8530553
  46.6887191 114.5813978  83.3305924  45.1797206 106.6763381  97.5883209
  44.5037843 106.5757510  98.2585585  46.0024839 106.5202595  98.0519207
  36.9276065 112.9135317  90.2095725  37.5129501 112.1679005  90.3423629
  36.7300903 113.2239274  91.0932389  39.7814720 115.9486565  85.2258167
  39.1125095 116.4332692  84.7422207  39.6427590 116.1955785  86.1401546
  31.5193719 105.4840918  88.9300168  31.5577819 104.9504508  89.7237286
  31.0134012 104.9576123  88.3111145  43.9219988 117.9830308  91.8240825
  44.4738296 118.1461930  92.5889911  44.2626182 118.5734746  91.1520850
  38.8984482 100.3305458  92.4262710  38.9625808 101.1920289  92.0140108
  38.8351602  99.7179460  91.6935069  38.3736754 102.4028591  96.0735744
  39.0008793 102.0205668  96.6873269  37.5164673 102.1842793  96.4391437
  48.7730863 112.8091566  97.6789480  49.3170767 113.4221524  97.1844435
  48.1917708 113.3671144  98.1956493  35.1502297 104.2105020  82.0054099
  35.4455738 103.3015698  81.9521153  34.2490333 104.1892759  81.6835102
  47.0588376 115.9312284  88.8104508  46.9339515 115.1302024  88.3015453
  47.7167467 116.4258477  88.3218477  38.6796544 102.2861016  87.9881648
  37.9583130 102.8996984  87.8489121  39.4689800 102.8218781  87.9098294
  49.1223284 113.7321304  90.4384058  48.1753620 113.6126655  90.3662384
  49.4706057 112.8443802  90.5210319  41.4822857  99.6215443  94.2622300
  42.0057259  99.8677739  95.0248609  41.2635191 100.4535478  93.8425437
  36.8790139 101.8919117  82.1293424  36.5502845 101.0116496  81.9468530
  37.2329509 101.8366786  83.0169814  46.1269717 113.5274020  86.6388410
  45.9794680 112.5990728  86.8195980  46.9523211 113.5494111  86.1545485
  39.9931962 102.1792087  82.4968902  40.3328034 102.7078008  81.7747510
  40.4404082 102.5172493  83.2727469  49.7303839 114.3502579  87.7253283
  50.6550387 114.1445440  87.5877734  49.5619143 114.1018980  88.6342624
  42.6875403 100.5629138  91.9471970  42.3472223  99.7636951  92.3492650
  41.9814409 100.8630849  91.3748803  43.3391874  97.6478450  90.3999293
  44.1617944  97.1738929  90.2778183  43.5829938  98.4268934  90.8997979
  41.9800109 100.6766709  80.6962195  42.7008471 101.0547962  80.1925912
  41.3565413 101.3955586  80.7997173  46.1231232 101.3811858  81.6320527
  46.3394846 102.2636496  81.3309355  45.6425299 100.9898071  80.9026169
  40.8630453 104.3397571  88.2091272  40.7175034 104.6537874  89.1015553
  40.3855657 104.9582471  87.6562170  42.7226836 101.3300119  88.2572161
  42.7088405 100.4341212  87.9204459  43.4399264 101.3370783  88.8910447
  44.5752967 101.7637459  90.3025289  44.3170745 102.6854530  90.3009619
  44.0438007 101.3667894  90.9925753  49.5199155 114.8688246  83.0815374
  49.6936033 114.3034669  82.3289227  50.0128047 115.6689141  82.8994864
  35.3376115 106.8802915  91.1478933  34.7929583 107.6562723  91.2799207
  36.2155465 107.2273720  90.9898054  42.1263732 100.2114499  83.5259731
  42.2479643  99.2831145  83.7250619  41.8365774 100.2253185  82.6138047
  44.9954922  97.8969410  86.6626451  45.0176619  97.9608743  85.7078431
  45.4122981  97.0573918  86.8566957  55.3738547 107.6324669  84.7005674
  55.8169693 106.8831994  84.3024797  54.4965057 107.6234806  84.3179406
  50.5074328 114.1855011  80.1812272  51.2025233 114.8061703  80.3999587
  50.8497478 113.3350362  80.4564650  36.1242137 106.0072812  94.0409090
  35.3823873 106.1555447  94.6273720  35.8034881 106.2681077  93.1775839
  52.4065751 111.6354716  81.7099603  52.9317075 111.9741989  80.9848923
  52.3188104 110.7001732  81.5262738  44.0685800 115.5488790  93.8389480
  44.3772926 115.3037937  94.7112179  44.8661282 115.7535428  93.3508350
  44.0906412 117.7026700  86.0694856  43.6511402 117.2103078  86.7627713
  44.8414529 117.1599667  85.8286932  36.5698751 113.8938240  86.0719484
  37.3956771 113.5942012  85.6918128  36.2192803 113.1245863  86.5209273
  41.5380284 113.2464709  88.1417158  40.9160293 112.5835414  87.8419386
  42.2085151 113.2725840  87.4590806  34.7707356 111.8124567  87.0308418
  33.9339264 111.3846741  86.8492419  34.7431001 112.0057010  87.9679209
  41.6104811 101.7246497  97.7349664  41.6592967 102.6008619  97.3527434
  42.1527326 101.1823890  97.1621307  52.0959657 112.2687620  97.0150801
  51.3055201 112.2511759  96.4755300  51.8593012 112.8075914  97.7699838
  52.2157532 109.1180086  94.3283530  52.2655537 108.9530094  95.2699052
  52.1071456 108.2507345  93.9381410  41.0993791 111.7968632  81.6175619
  41.2481911 112.4804096  80.9642291  41.9060234 111.7773722  82.1325074
  49.5061295 105.1011014  95.6442836  50.4071157 104.9617479  95.3526834
  49.5809269 105.2665469  96.5841014  43.8404100 102.4777869  94.4896023
  42.9707409 102.7711435  94.2178611  44.0763580 103.0618314  95.2103286
  53.7175729 111.5377028  94.5725551  53.4260537 111.9007008  95.4089012
  53.1047860 110.8244036  94.3938883  54.9171411 109.1029908  87.0928121
  55.7518303 109.5419712  87.2565682  55.0530540 108.6268561  86.2736367
  51.9662917 106.6609642  93.0405609  52.4417039 106.8537289  92.2324461
  51.0428483 106.7168828  92.7948993  38.8546424 107.8233810  82.6236687
  38.6092466 106.9196140  82.8216898  39.0242338 107.8250960  81.6816165
  46.5443134  98.6957486  92.0061443  47.0625078  99.4318513  91.6807932
  46.1898266  99.0021479  92.8408202  38.1242071 103.5562167  80.1222849
  37.4311316 103.6306522  79.4662885  37.8793823 102.7922511  80.6444366
  46.7955728  95.1157768  87.5262340  47.0757482  94.4480958  88.1522766
  47.5806335  95.3086864  87.0137003  44.5989196 114.2916762  79.0887366
  44.0263163 114.9106950  78.6357838  45.1721990 114.8416124  79.6227288
  50.6664586 103.5375402  91.2733915  51.6182009 103.6373500  91.2946139
  50.4968037 102.7453671  91.7831999  48.6878966 100.6230986  91.4593316
  48.0928898 100.9035998  90.7639804  48.4028662 101.1124887  92.2310057
  47.8186456 114.5753913  80.2195948  48.7517129 114.5099474  80.4228824
  47.7309669 115.4110179  79.7610481  50.4474473 113.8919783  77.1799896
  50.3688104 113.5579646  78.0735654  51.2684140 114.3841551  77.1791368
  53.1452664 106.7581522  90.3876214  53.1128984 105.8197523  90.5735898
  53.7553288 106.8365559  89.6542039  44.9835995 105.6277575  76.4303418
  45.9295100 105.4983783  76.4991836  44.6050240 104.8892237  76.9072847
  53.2947153 103.5492566  90.4334498  52.7786201 102.7651022  90.2464426
  54.1787101 103.2211282  90.5981017  50.9557879  97.2933581  86.3930310
  50.7582701  96.9848669  87.2773642  51.5657585  98.0195220  86.5228240
  58.9629214 107.8197529  89.5282251  59.6932602 107.5582817  90.0889954
  58.3536159 107.0826251  89.5684319  57.0444511 105.9605392  90.1256702
  56.3177675 105.8261357  89.5173194  56.6291798 106.2682220  90.9313420
  44.8674687 109.6795321  97.8904075  45.7877697 109.8573920  98.0844122
  44.8324270 108.7351367  97.7383775  43.1678912 103.5527552  76.3658304
  42.2610367 103.2560664  76.4421017  43.4454893 103.2557370  75.4992590
  34.0856852 104.8733915  86.8157350  33.7659637 104.0199223  86.5231724
  33.5390281 105.0882493  87.5715317  37.8636760 107.5896356  90.5326857
  38.0822770 108.5213464  90.5514890  38.2762534 107.2304330  91.3181660
  44.7840978  98.0964441  82.5202545  43.9741706  97.7511526  82.8957791
  45.4725395  97.7871985  83.1090156  46.7131526  97.1742488  84.1426842
  47.2662565  97.5937941  84.8016865  46.9501612  96.2478236  84.1849798
  42.7364625 103.1629562  99.9229605  42.6361352 104.1123919  99.8541697
  42.5186167 102.8347801  99.0505676  41.9377697 100.4114487  76.5070283
  42.7996861 100.7369385  76.7666100  42.1228041  99.6245983  75.9943349
  33.9545112 108.4936826  88.7850472  33.2608584 108.0790779  88.2720426
  34.7018103 108.5357363  88.1883891  50.0910333  99.2843013  83.6505506
  49.5109002  99.9427817  83.2683558  49.8246266  98.4620358  83.2392923
  48.5413900  98.6848071  85.8526826  49.0413678  98.7964605  85.0441145
  49.1849507  98.3809124  86.4927635  42.5995895 106.5926701  98.7394667
  42.1162977 107.3927061  98.9458556  42.6856834 106.6034645  97.7862111
  35.8681855 108.4255080  86.6616486  35.8452543 108.5242767  85.7098370
  36.1782491 109.2720231  86.9833653  38.5269233 110.4831235  90.7763101
  39.4812486 110.4515178  90.7093032  38.3281756 110.0221859  91.5913327
  39.1168615 109.0532351  93.3433899  39.9361504 109.5476430  93.3668736
  39.3905423 108.1364319  93.3151466  48.8735211 101.4443104  82.7061854
  47.9861066 101.7292754  82.4882049  49.2889200 101.2836867  81.8589131
  52.2249747 101.4689625  86.4216193  53.0010137 101.9586077  86.6940810
  51.4997881 101.8947679  86.8788063  54.6622306 102.1817244  87.4790134
  55.2566797 101.9412980  86.7683442  54.7348890 101.4624374  88.1063670
  48.0178425 111.2087778  76.8009874  48.7214275 111.4137781  77.4167530
  47.2941073 111.7764540  77.0658958  48.8476235 106.9597640  82.9212144
  48.7911436 107.4166191  82.0819777  49.4004577 106.1988324  82.7434987
  52.6581041 102.7487371  83.7462264  52.4017975 102.3484007  84.5770471
  52.0333909 103.4631165  83.6212403  56.9693379 105.4883445  86.2533555
  56.4092937 105.5576634  87.0265117  56.3636882 105.3124429  85.5333051
  49.9265122 111.6470307  78.8508334  50.7610726 111.2151506  78.6685809
  49.7649465 111.4752321  79.7785229  49.5811014 108.1502421  80.2164673
  49.5259818 107.9846692  79.2753118  48.9557069 108.8578454  80.3726863
  34.3703529 103.3870485  94.0426096  35.0162393 102.8769439  94.5313321
  34.1620680 104.1239167  94.6169521  46.8956921 110.4551333  99.5418236
  47.7648081 110.6291985  99.1804871  46.4163673 111.2745749  99.4193966
  42.8907140  97.6510530  79.7949992  42.8785809  98.5952370  79.9518263
  43.7830562  97.4680675  79.5009453  41.0643102 117.5748434  91.2207670
  41.9670348 117.6072044  91.5374165  40.8380472 116.6448885  91.2354006
  42.8196704 116.3279420  87.8817748  41.8692335 116.3281282  87.7682121
  43.1229190 115.5812155  87.3653783  46.7059259  94.2453306  84.0495929
  45.9391655  93.6911793  84.1952611  47.1169964  94.3175175  84.9110080
  38.7101020 100.5338102  98.1401110  39.5732482 100.1774907  98.3504434
  38.1366431 100.1951997  98.8276514  58.5549397 122.1639959  88.9463511
  59.1927807 122.0446706  88.2426851  58.4370240 123.1120803  89.0051463
  55.3639103 122.1167387  88.8825036  55.0257615 122.0008451  87.9945570
  56.2328872 121.7158552  88.8626042  55.8458886 123.2702238  94.8411241
  55.8347527 122.8755037  93.9691745  56.0079526 122.5368311  95.4345013
  53.0647383 120.8855634  78.2141976  53.3172903 120.3637155  77.4525439
  52.1271942 120.7221779  78.3168659  58.1090666 119.8891412  86.0216719
  58.8953755 119.4710836  85.6707136  58.3729370 120.7937505  86.1898367
  63.5099093 119.8266646  86.9249697  64.2424265 119.2565862  87.1587527
  62.7538448 119.4388246  87.3656203  55.1275212 122.2493887  84.1213040
  54.7633420 121.7224508  84.8325961  55.9842328 121.8592356  83.9479525
  61.0324513 113.5388220  91.3844306  60.7007838 114.4083631  91.1605521
  60.4370126 113.2224504  92.0638336  54.7680699 117.2783787  79.1174388
  54.9355102 118.1464023  79.4844859  54.5777869 117.4411069  78.1935678
  60.9253176 118.2583306  88.4637656  60.0170054 118.1898714  88.1696417
  60.8740772 118.7355251  89.2919482  54.7469920 119.7341444  80.1021055
  54.6269546 120.1798495  80.9406536  54.0522509 120.0826762  79.5434593
  54.9994042 119.6772951  96.4072553  54.2227376 120.2366872  96.3975418
  55.6384605 120.1629734  96.9287423  62.7914823 116.4599744  90.2415530
  62.1489203 116.7532277  89.5955325  62.2869751 116.3452665  91.0468727
  60.4454986 120.2062917  80.9301389  61.3572843 120.4390304  80.7549087
  59.9364634 120.7899962  80.3676468  55.0826824 119.5660152  91.9396239
  55.9288019 119.9899566  92.0830888  55.0225462 118.9093776  92.6334802
  58.2326270 117.2264520  93.5977412  57.9887201 117.9806581  93.0611688
  58.5086200 117.6049868  94.4324659  60.1864732 123.7703133  92.2754678
  60.3981628 124.4134893  91.5989059  60.1394481 122.9365449  91.8076608
  57.7890961 116.3820953  89.1791250  56.9275440 116.6802207  89.4707988
  57.8153396 116.5991352  88.2472283  53.5421417 121.0486296  82.3954621
  54.2445460 121.5007340  82.8628547  53.2102045 120.4070115  83.0234514
  51.9901778 119.6398053  96.7705830  51.3600439 120.3214334  97.0041227
  51.8837866 119.5281135  95.8258969  47.2846751 119.3069849  87.6971755
  46.4945805 119.5627378  87.2211865  47.7757998 120.1218187  87.8023795
  49.2361496 119.6714428  84.6555231  48.4392659 119.7833123  85.1738727
  49.0087088 120.0101081  83.7896122  69.3916553 122.9913837  86.7962007
  68.6380262 122.4221235  86.6406011  69.5264094 122.9576501  87.7432642
  51.2682521 113.9418819  99.1331081  50.8749467 113.3885017  99.8078726
  52.0848661 114.2529397  99.5237599  54.1850482 115.3576698  96.7251338
  54.9260195 115.9583851  96.6455800  54.4168405 114.6154336  96.1669381
  58.1307645 111.3857801  91.0015620  57.7871914 112.2759443  90.9254730
  58.4986607 111.1959459  90.1385205  58.0957928 121.3766412  79.5088055
  57.5804551 122.1471017  79.7476442  57.8235236 120.7031548  80.1321116
  55.6805039 116.2216113  84.5673293  54.8246635 115.8322963  84.3878932
  56.0931990 116.3008074  83.7073079  57.2104185 113.7562456  88.9664853
  56.7068981 113.7192591  88.1532658  57.5034792 114.6655199  89.0261510
  53.4547071 113.8401186  87.9731035  54.3200068 113.6443994  87.6136924
  53.5224580 113.6111538  88.9000391  63.0692202 124.1298767  81.4441228
  62.2921645 123.7909926  80.9996390  63.7483683 124.1351390  80.7696193
  57.8844231 119.2493504  81.3347836  57.5794366 119.5639653  82.1857979
  58.8374673 119.3274924  81.3775169  61.3083509 123.6032748  88.1007836
  60.6507183 124.2932009  88.1887965  62.1123908 123.9929180  88.4441823
  51.0609390 116.0703394  85.3447401  51.6353142 115.8478575  84.6120594
  51.6480373 116.1392088  86.0976003  60.1188967 121.9577121  86.1511778
  60.6320849 122.5907112  86.6533488  60.7690191 121.3578316  85.7855138
  51.3878977 118.1007855  79.3643287  50.5516290 118.4382541  79.6852561
  51.2483747 117.9656835  78.4270424  53.3632058 112.9444643  84.0722471
  52.7096470 112.6293660  83.4479086  53.3212532 112.3220383  84.7982294
  56.5969798 119.4326576  88.3970118  55.6792360 119.6541523  88.2391807
  57.0129942 119.5072887  87.5381826  57.3804846 120.8317992  83.5272799
  58.1276665 121.3439389  83.2179921  57.6496436 120.5102045  84.3877192
  59.8283683 117.8675108  85.5091588  59.0906440 117.3552494  85.8401831
  60.0810457 117.4275490  84.6974865  59.9295311 110.6451360  86.1033357
  60.2354187 109.7848724  85.8159272  60.6547915 111.2368980  85.9032351
  54.2016390 120.9405153  86.6109548  54.2565000 119.9878990  86.5352025
  53.3907592 121.0964592  87.0950847  52.1408750 119.5582213  84.3699927
  51.3276616 119.8576383  84.7765119  52.6367744 119.1637902  85.0874410
  57.7382962 120.0224037  93.2014821  58.0932350 120.2495511  94.0609287
  58.3855093 120.3542414  92.5792076  63.4680699 123.1442473  83.9064150
  63.3298597 123.3344069  82.9785339  63.1116918 123.9061856  84.3632201
  51.6322825 117.1300568  89.9861162  52.2722204 116.9889328  89.2884126
  50.8000356 116.8435082  89.6099764  63.4950078 125.2119000  88.9175422
  63.9286585 125.1194289  89.7658476  64.2081659 125.1876501  88.2795438
  48.7165892 120.5746081  82.1755907  47.7863480 120.5130536  82.3925869
  48.8123364 120.0522033  81.3792549  48.6351441 117.1000893  84.7634149
  48.8958259 118.0146227  84.6543309  49.4568614 116.6325336  84.9130762
  50.1076367 118.5138651  91.9332974  50.7799420 118.3056013  91.2845622
  49.2806153 118.3160737  91.4938206  64.3565628 125.2542701  91.4508307
  64.5501518 126.1588511  91.6967582  64.2566246 124.7950120  92.2846892
  56.0101939 115.1400591  93.9498634  55.3629854 115.8390541  93.8563111
  56.7802954 115.5736735  94.3174883  56.1866073 122.9781356  92.0095454
  57.1158133 123.1292516  91.8364421  55.7657103 123.0665377  91.1544101
  59.4718812 123.7269658  77.4419889  58.8547982 123.0016486  77.3452942
  59.0035300 124.4879018  77.0986963  53.1386165 121.5001213  92.1819090
  53.8485783 120.8594405  92.1405709  53.0955473 121.7514108  93.1045271
  51.8515099 118.4866431  94.0014730  51.3152456 118.0357169  94.6536326
  51.2631807 118.6212340  93.2585194  51.2617358 117.9455082  76.5641193
  50.3846824 117.8243883  76.2003440  51.7375111 117.1541160  76.3120082
  47.5854220 117.6222438  91.0867724  47.5012409 117.0148108  90.3518134
  46.7636926 118.1131457  91.0877221  57.7577934 116.1076002  86.4537919
  58.2546633 115.3545964  86.1338990  56.9864915 116.1440319  85.8881129
  65.6107691 121.8116368  88.0956211  65.5997567 122.6941083  87.7250144
  64.7425071 121.4587918  87.9010748  54.3412902 118.2493385  86.1809604
  53.9710690 117.6964425  86.8690510  54.8371995 117.6451518  85.6284604
  62.2280266 120.7065008  84.5626377  62.6940718 121.5393000  84.4886680
  62.6787766 120.2409990  85.2671635  60.1996929 113.0745595  88.6017278
  59.2860008 113.3049822  88.7699485  60.6290030 113.1584040  89.4531311
  59.9703387 121.2635487  91.1017172  59.3174837 121.5111395  90.4469625
  60.3483767 120.4499626  90.7679650  56.0190960 122.0055299  97.5883209
  55.3431597 121.9049428  98.2585585  56.8418594 121.8494512  98.0519207
  49.7378236 115.6597376  92.4262710  49.8019563 116.5212207  92.0140108
  49.6745356 115.0471377  91.6935069  49.2130509 117.7320508  96.0735744
  49.8402547 117.3497586  96.6873269  48.3558428 117.5134710  96.4391437
  45.9896051 119.5396937  82.0054099  46.2849493 118.6307616  81.9521153
  45.0884087 119.5184677  81.6835102  49.5190298 117.6152934  87.9881648
  48.7976884 118.2288902  87.8489121  50.3083554 118.1510699  87.9098294
  52.3216612 114.9507360  94.2622300  52.8451014 115.1969657  95.0248609
  52.1028945 115.7827395  93.8425437  47.7183893 117.2211035  82.1293424
  47.3896599 116.3408414  81.9468530  48.0723264 117.1658704  83.0169814
  50.8325716 117.5084005  82.4968902  51.1721789 118.0369926  81.7747510
  51.2797837 117.8464411  83.2727469  53.5269157 115.8921056  91.9471970
  53.1865977 115.0928869  92.3492650  52.8208163 116.1922766  91.3748803
  54.1785629 112.9770368  90.3999293  55.0011698 112.5030846  90.2778183
  54.4223692 113.7560852  90.8997979  52.8193863 116.0058626  80.6962195
  53.5402226 116.3839879  80.1925912  52.1959167 116.7247503  80.7997173
  56.9624986 116.7103775  81.6320527  57.1788601 117.5928413  81.3309355
  56.4819053 116.3189989  80.9026169  51.7024208 119.6689489  88.2091272
  51.5568788 119.9829792  89.1015553  51.2249411 120.2874389  87.6562170
  53.5620590 116.6592037  88.2572161  53.5482159 115.7633130  87.9204459
  54.2793019 116.6662700  88.8910447  55.4146721 117.0929377  90.3025289
  55.1564499 118.0146447  90.3009619  54.8831762 116.6959811  90.9925753
  52.9657486 115.5406417  83.5259731  53.0873398 114.6123063  83.7250619
  52.6759529 115.5545103  82.6138047  55.8348677 113.2261327  86.6626451
  55.8570374 113.2900660  85.7078431  56.2516736 112.3865836  86.8566957
  66.2132301 122.9616587  84.7005674  66.6563447 122.2123912  84.3024797
  65.3358811 122.9526723  84.3179406  52.4498566 117.0538414  97.7349664
  52.4986721 117.9300537  97.3527434  52.9921080 116.5115807  97.1621307
  63.0551287 124.4472004  94.3283530  63.1049292 124.2822011  95.2699052
  62.9465210 123.5799263  93.9381410  60.3455049 120.4302932  95.6442836
  61.2464912 120.2909397  95.3526834  60.4203024 120.5957387  96.5841014
  54.6797854 117.8069787  94.4896023  53.8101164 118.1003353  94.2178611
  54.9157335 118.3910232  95.2103286  65.7565166 124.4321825  87.0928121
  66.5912057 124.8711629  87.2565682  65.8924295 123.9560478  86.2736367
  62.8056672 121.9901560  93.0405609  63.2810793 122.1829206  92.2324461
  61.8822237 122.0460746  92.7948993  57.3836888 114.0249404  92.0061443
  57.9018832 114.7610431  91.6807932  57.0292021 114.3313397  92.8408202
  48.9635826 118.8854085  80.1222849  48.2705071 118.9598440  79.4662885
  48.7187578 118.1214428  80.6444366  57.6349482 110.4449686  87.5262340
  57.9151236 109.7772875  88.1522766  58.4200089 110.6378782  87.0137003
  61.5058341 118.8667320  91.2733915  62.4575764 118.9665418  91.2946139
  61.3361791 118.0745589  91.7831999  59.5272720 115.9522903  91.4593316
  58.9322652 116.2327916  90.7639804  59.2422417 116.4416804  92.2310057
  63.9846419 122.0873440  90.3876214  63.9522739 121.1489441  90.5735898
  64.5947042 122.1657477  89.6542039  55.8229749 120.9569493  76.4303418
  56.7688854 120.8275701  76.4991836  55.4443994 120.2184155  76.9072847
  64.1340907 118.8784483  90.4334498  63.6179956 118.0942940  90.2464426
  65.0180856 118.5503200  90.5981017  61.7951634 112.6225499  86.3930310
  61.5976455 112.3140587  87.2773642  62.4051339 113.3487138  86.5228240
  69.8022968 123.1489447  89.5282251  70.5326357 122.8874735  90.0889954
  69.1929914 122.4118169  89.5684319  67.8838265 121.2897309  90.1256702
  67.1571429 121.1553274  89.5173194  67.4685552 121.5974138  90.9313420
  54.0072667 118.8819469  76.3658304  53.1004122 118.5852582  76.4421017
  54.2848648 118.5849287  75.4992590  55.6234732 113.4256359  82.5202545
  54.8135461 113.0803444  82.8957791  56.3119149 113.1163903  83.1090156
  57.5525281 112.5034406  84.1426842  58.1056319 112.9229859  84.8016865
  57.7895367 111.5770154  84.1849798  53.5758380 118.4921479  99.9229605
  53.4755107 119.4415836  99.8541697  53.3579922 118.1639718  99.0505676
  52.7771451 115.7406404  76.5070283  53.6390615 116.0661303  76.7666100
  52.9621795 114.9537900  75.9943349  60.9304088 114.6134931  83.6505506
  60.3502757 115.2719735  83.2683558  60.6640020 113.7912275  83.2392923
  59.3807654 114.0139989  85.8526826  59.8807432 114.1256523  85.0441145
  60.0243262 113.7101041  86.4927635  59.7128966 116.7735021  82.7061854
  58.8254821 117.0584672  82.4882049  60.1282955 116.6128785  81.8589131
  63.0643502 116.7981542  86.4216193  63.8403892 117.2877995  86.6940810
  62.3391636 117.2239596  86.8788063  65.5016060 117.5109161  87.4790134
  66.0960551 117.2704897  86.7683442  65.5742644 116.7916292  88.1063670
  59.6869989 122.2889557  82.9212144  59.6305191 122.7458109  82.0819777
  60.2398332 121.5280242  82.7434987  63.4974795 118.0779289  83.7462264
  63.2411730 117.6775925  84.5770471  62.8727663 118.7923083  83.6212403
  67.8087133 120.8175362  86.2533555  67.2486691 120.8868552  87.0265117
  67.2030637 120.6416347  85.5333051  60.4204769 123.4794338  80.2164673
  60.3653572 123.3138610  79.2753118  59.7950824 124.1870371  80.3726863
  45.2097284 118.7162403  94.0426096  45.8556147 118.2061357  94.5313321
  45.0014435 119.4531084  94.6169521  53.7300894 112.9802447  79.7949992
  53.7179564 113.9244287  79.9518263  54.6224316 112.7972593  79.5009453
  57.5453014 109.5745224  84.0495929  56.7785409 109.0203711  84.1952611
  57.9563719 109.6467093  84.9110080  49.5494775 115.8630020  98.1401110
  50.4126236 115.5066825  98.3504434  48.9760185 115.5243915  98.8276514
  68.9701399 126.7149719  91.0015620  68.6265669 127.6051360  90.9254730
  69.3380362 126.5251376  90.1385205  70.7689065 125.9743278  86.1033357
  71.0747942 125.1140641  85.8159272  71.4941670 126.5660898  85.9032351
  68.4743237 125.7741604  87.5262340  68.7544991 125.1064793  88.1522766
  69.2593844 125.9670699  87.0137003  72.6345388 127.9517417  86.3930310
  72.4370210 127.6432505  87.2773642  73.2445094 128.6779055  86.5228240
  68.3846768 124.9037142  84.0495929  67.6179164 124.3495628  84.1952611
  68.7957473 124.9759011  84.9110080   4.3580626  22.5242493  75.6708818
   4.9959036  22.4049240  74.9672158   4.2401469  23.4723337  75.7296770
   1.1670332  22.4769921  75.6070342   0.8288844  22.3610986  74.7190877
   2.0360100  22.0761086  75.5871348   1.6490115  23.6304773  81.5656548
   1.6378756  23.2357571  80.6937051   1.8110755  22.8970845  82.1590319
   2.6056707  27.9976365  66.9081698   1.9544686  28.5830445  66.5215712
   3.4001069  28.5282560  66.9676736   3.9121894  20.2493947  72.7462026
   4.6984984  19.8313370  72.3952443   4.1760599  21.1540039  72.9143674
   4.0831972  25.6866797  67.4450682   3.4477805  25.7601423  68.1571587
   3.7529378  26.2760396  66.7669762   9.3130322  20.1869180  73.6495004
  10.0455493  19.6168397  73.8832834   8.5569677  19.7990780  74.0901510
   0.9306441  22.6096421  70.8458347   0.5664648  22.0827042  71.5571268
   1.7873557  22.2194890  70.6724832   3.3287261  26.1003300  77.5085525
   3.0287985  27.0028339  77.4001333   2.9838321  25.8335483  78.3606678
   6.7284405  18.6185840  75.1882963   5.8201283  18.5501249  74.8941724
   6.6772001  19.0957785  76.0164788   8.5946052  16.8202279  76.9660837
   7.9520432  17.1134812  76.3200631   8.0900980  16.7055199  77.7714033
   6.2486215  20.5665452  67.6546696   7.1604071  20.7992838  67.4794393
   5.7395862  21.1502496  67.0921775   4.5326983  24.9890080  81.2907988
   4.9410339  24.5472490  80.5462621   3.8104244  24.4142707  81.5442181
   0.8858053  19.9262686  78.6641545   1.7319248  20.3502100  78.8076194
   0.8256691  19.2696311  79.3580109   4.8555798  25.5491270  75.0460277
   4.2264660  25.7136984  74.3436345   4.4681460  25.9632880  75.8171241
   8.7345029  26.4845708  72.4004641   8.0496068  26.8644609  71.8501674
   8.8188879  27.0941035  73.1336589   4.0357498  17.5867055  80.3222719
   3.7918430  18.3409115  79.7856995   4.3117429  17.9652402  81.1569966
   5.9895961  24.1305667  78.9999985   6.2012856  24.7737427  78.3234366
   5.9425709  23.2967984  78.5321915   3.5922190  16.7423488  75.9036557
   2.7306669  17.0404741  76.1953294   3.6184625  16.9593887  74.9717589
   7.1041789  27.0077622  77.1722342   7.9259233  26.6057810  76.8905024
   7.1004192  26.9045857  78.1238458  15.1947782  23.3516371  73.5207313
  14.4411490  22.7823769  73.3651318  15.3295323  23.3179035  74.4677948
   0.5846410  28.2229773  69.1962033   0.4492085  29.0681309  69.6246881
   1.1256223  28.4249051  68.4327967   2.2114887  28.8453340  83.3262375
   1.7678741  28.0589718  83.0083279   2.8732100  29.0332490  82.6606266
   4.3096125  29.1256140  81.3543776   4.2914600  29.9465021  80.8624045
   5.2316045  29.0010215  81.5793917   3.8989156  21.7368946  66.2333361
   3.3835780  22.5073551  66.4721749   3.6266465  21.0634082  66.8566423
   8.8723431  24.4901301  68.1686535   8.0952873  24.1512460  67.7241697
   9.5514912  24.4953924  67.4941500   3.6875460  19.6096038  68.0593143
   3.3825595  19.9242187  68.9103286   4.6405902  19.6877458  68.1020476
   2.1321891  25.7686262  69.7086097   1.6043253  25.0339021  69.3959334
   1.6309394  26.5460938  69.4626065   7.1114737  23.9635282  74.8253143
   6.4538412  24.6534544  74.9133271   7.9155137  24.3531714  75.1687129
   5.9220196  22.3179655  72.8757085   6.4352078  22.9509647  73.3778794
   6.5721420  21.7180850  72.5100445   3.1842571  32.2963979  65.6317756
   2.5104269  32.5995676  66.2402714   3.5708392  33.0993059  65.2823213
   2.4001027  19.7929110  75.1215425   1.4823588  20.0144057  74.9637113
   2.8161171  19.8675421  74.2627132   3.1836075  21.1920526  70.2518105
   3.9307894  21.7041923  69.9425227   3.4527664  20.8704579  71.1122499
   1.4562725  23.6879067  67.2345060   0.5473944  23.4038100  67.3317529
   1.4857809  24.1078145  66.3748367   6.6881992  27.2985656  71.0036227
   6.2344320  26.4576566  71.0601418   6.0575959  27.9347055  71.3411007
   5.6314912  18.2277642  72.2336895   4.8937669  17.7155029  72.5647137
   5.8841686  17.7878024  71.4220172   5.1314932  29.1362153  71.9386045
   5.4237906  29.6967210  71.2198411   5.6413552  29.4290714  72.6939204
   1.1538813  25.2287810  64.5733138   0.7158243  24.5123669  64.1138776
   1.8949254  25.4563925  64.0118230   3.5414191  20.3826572  79.9260128
   3.8963578  20.6098045  80.7854594   4.1886322  20.7144948  79.3037383
   9.2711928  23.5045007  70.6309457   9.1329826  23.6946603  69.7030646
   8.9148146  24.2664390  71.0877508   9.2981307  25.5721534  75.6420728
   9.7317814  25.4796824  76.4903782  10.0112888  25.5479035  75.0040744
   3.0309202  29.1723629  77.1753829   3.0846224  29.7414565  77.9431545
   2.1623984  29.3425514  76.8107866  10.1596857  25.6145235  78.1753614
  10.3532747  26.5191046  78.4212889  10.0597475  25.1552654  79.0092199
   5.2211965  25.7651978  83.7494494   5.0697472  25.5362530  82.8324578
   5.2116645  26.7222579  83.7625839   1.9897302  23.3383891  78.7340761
   2.9189362  23.4895050  78.5609728   1.5688332  23.4267911  77.8789407
   1.3833786  32.4643652  67.8464835   1.5585541  31.9931695  68.6610458
   0.6966574  33.0909418  68.0746096   2.3390849  26.7416158  73.8928136
   2.0040681  26.7016928  74.7885786   1.8394795  26.0760874  73.4198546
   5.2750040  24.0872192  64.1665196   4.6579211  23.3619020  64.0698249
   4.8066529  24.8481552  63.8232270   6.9304172  28.7971100  81.8270976
   6.8716718  28.1130321  81.1601559   7.3323691  29.5390090  81.3751602
   6.9321579  26.7610684  80.0584956   6.0448358  26.4236606  80.1811355
   7.5020130  26.0293716  80.2953721   3.5609163  16.4678536  73.1783226
   4.0577862  15.7148499  72.8584296   2.7896144  16.5042853  72.6126435
  11.4138920  22.1718902  74.8201518  11.4028796  23.0543617  74.4495451
  10.5456299  21.8190453  74.6256055   2.9221416  31.3198971  79.1804358
   3.6349389  31.9546436  79.1080259   2.4311445  31.4162837  78.3644360
   4.6438943  25.2250223  70.7521649   3.7095222  25.3451686  70.5826354
   4.8215612  24.3222690  70.4881659   8.0311495  21.0667543  71.2871684
   8.4971947  21.8995534  71.2131986   8.4818995  20.6012524  71.9916942
   6.0987726  27.4111364  68.2857836   6.3747570  27.2967959  69.1951710
   5.2292224  27.0128849  68.2470009   5.7734616  21.6238022  77.8262479
   5.1206066  21.8713929  77.1714932   6.1514996  20.8102160  77.4924956
   2.7341790  31.6597715  71.9290649   2.9164184  30.8419371  72.3918402
   3.5574776  31.8765407  71.4915539   3.0683955  30.5865900  69.1905698
   3.5971722  30.0758355  68.5775860   3.3312175  30.2708430  70.0551231
   1.8222189  22.3657833  84.3128516   1.1462826  22.2651962  84.9830891
   2.6449823  22.2097046  84.7764513   0.5644972  33.6724760  78.5486132
   1.1163280  33.8356382  79.3135217   0.9051165  34.2629198  77.8766157
   5.4155846  28.4986018  84.4034786   5.9595750  29.1115976  83.9089741
   4.8342691  29.0565596  84.9201799   3.7013359  31.6206736  75.5349814
   3.5764498  30.8196476  75.0260760   4.3592450  32.1152929  75.0463784
   5.7648267  29.4215756  77.1629364   4.8178603  29.3021107  77.0907691
   6.1131040  28.5338254  77.2455626   2.7694701  29.2168472  73.3633716
   2.6219663  28.2885179  73.5441287   3.5948194  29.2388563  72.8790792
   6.3728823  30.0397031  74.4498589   7.2975370  29.8339892  74.3123040
   6.2044126  29.7913432  75.3587931   6.1624139  30.5582698  69.8060681
   6.3361016  29.9929121  69.0534533   6.6553030  31.3583593  69.6240171
  12.0163530  23.3219121  71.4250980  12.4594676  22.5726446  71.0270104
  11.1390040  23.3129257  71.0424712   7.1499311  29.8749463  66.9057579
   7.8450216  30.4956155  67.1244894   7.4922461  29.0244814  67.1809957
   9.0490734  27.3249168  68.4344910   9.5742058  27.6636441  67.7094230
   8.9613087  26.3896183  68.2508044   0.7110783  31.2383242  80.5634786
   1.0197909  30.9932389  81.4357486   1.5086265  31.4429880  80.0753657
   8.7384640  27.9582072  83.7396108   7.9480184  27.9406211  83.2000607
   8.5017995  28.4970365  84.4945144   8.8582515  24.8074538  81.0528836
   8.9080520  24.6424546  81.9944359   8.7496439  23.9401797  80.6626717
   6.1486278  20.7905466  82.3688143   7.0496141  20.6511931  82.0772141
   6.2234252  20.9559921  83.3086320  10.3600712  27.2271480  81.2970858
  10.0685521  27.5901460  82.1334319   9.7472844  26.5138488  81.1184190
  11.5596395  24.7924359  73.8173428  12.3943286  25.2314163  73.9810988
  11.6955523  24.3163013  72.9981674   8.6087901  22.3504094  79.7650916
   9.0842022  22.5431741  78.9569767   7.6853466  22.4063280  79.5194299
   1.2414180  29.9811214  65.8132673   0.6688147  30.6001401  65.3603144
   1.8146973  30.5310576  66.3472594   7.3089570  19.2269854  77.9979221
   8.2606992  19.3267952  78.0191445   7.1393020  18.4348123  78.5077306
   5.3303949  16.3125438  78.1838622   4.7353881  16.5930450  77.4885111
   5.0453646  16.8019339  78.9555363   4.4611439  30.2648364  66.9441255
   5.3942113  30.1993926  67.1474130   4.3734652  31.1004631  66.4855787
   7.0899456  29.5814235  63.9045202   7.0113088  29.2474098  64.7980960
   7.9109123  30.0736003  63.9036675   9.7877647  22.4475974  77.1121521
   9.7553967  21.5091975  77.2981205  10.3978271  22.5260011  76.3787346
   1.6260978  21.3172027  63.1548725   2.5720083  21.1878235  63.2237143
   1.2475223  20.5786689  63.6318153   9.9372136  19.2387017  77.1579804
   9.4211184  18.4545474  76.9709733  10.8212084  18.9105734  77.3226324
  15.6054197  23.5091981  76.2527558  16.3357586  23.2477269  76.8135261
  14.9961143  22.7720703  76.2929626  13.6869494  21.6499843  76.8502009
  12.9602658  21.5155808  76.2418501  13.2716781  21.9576672  77.6558727
   1.5099671  25.3689773  84.6149382   2.4302680  25.5468372  84.8089429
   1.4749254  24.4245819  84.4629081   6.7335316  14.9737465  70.3750812
   6.1533985  15.6322269  69.9928865   6.4671249  14.1514810  69.9638230
   5.5160194  17.1337555  69.4307161   4.6286049  17.4187206  69.2127355
   5.9314184  16.9731319  68.5834438   8.8674731  17.1584076  73.1461500
   9.6435121  17.6480529  73.4186117   8.1422865  17.5842131  73.6033369
  11.3047289  17.8711696  74.2035441  11.8991780  17.6307432  73.4928749
  11.3773873  17.1518826  74.8308977   4.6603408  26.8982230  63.5255181
   5.3639258  27.1032233  64.1412836   3.9366057  27.4658992  63.7904264
   5.4901218  22.6492091  69.6457451   5.4336420  23.1060643  68.8065083
   6.0429561  21.8882776  69.4680294   9.3006024  18.4381823  70.4707570
   9.0442958  18.0378459  71.3015778   8.6758892  19.1525617  70.3457710
  13.6118362  21.1777897  72.9778862  13.0517920  21.2471086  73.7510424
  13.0061865  21.0018881  72.2578358   6.5690105  27.3364759  65.5753641
   7.4035709  26.9045958  65.3931116   6.4074448  27.1646773  66.5030535
   6.2235998  23.8396873  66.9409980   6.1684801  23.6741144  65.9998424
   5.5982053  24.5472906  67.0972170   3.5381905  26.1445785  86.2663543
   4.4073064  26.3186437  85.9050178   3.0588656  26.9640201  86.1439272
  15.1974380  37.8534410  75.6708818  15.8352790  37.7341158  74.9672158
  15.0795223  38.8015254  75.7296770  12.0064087  37.8061839  75.6070342
  11.6682598  37.6902903  74.7190877  12.8753855  37.4053004  75.5871348
   7.8650902  39.6597315  71.5967233   7.3015768  39.5687252  70.8283521
   7.7503297  38.8397219  72.0769726  12.4883870  38.9596690  81.5656548
  12.4772510  38.5649489  80.6937051  12.6504509  38.2262763  82.1590319
   5.4115334  41.1548507  74.4351454   6.2036626  40.8139331  74.0197753
   5.6511984  41.2643482  75.3553607  13.4450461  43.3268283  66.9081698
  12.7938441  43.9122363  66.5215712  14.2394824  43.8574478  66.9676736
   7.3706088  40.4157420  67.3068832   8.1436964  39.8686407  67.1681708
   7.7231487  41.2801669  67.5183294   9.2091131  41.7433802  80.5135732
   8.9180997  42.6479433  80.3982398   9.8448115  41.7850330  81.2279801
  10.1347338  39.1210651  77.1037091  10.7310910  38.8966673  76.3894054
  10.1922309  38.3795396  77.7062539   9.7072366  36.5750086  64.9387282
   9.9597887  36.0531607  64.1770745   8.7696925  36.4116231  65.0413966
  14.7515649  35.5785864  72.7462026  15.5378738  35.1605287  72.3952443
  15.0154353  36.4831956  72.9143674  14.9225726  41.0158715  67.4450682
  14.2871559  41.0893341  68.1571587  14.5923133  41.6052313  66.7669762
  20.1524076  35.5161098  73.6495004  20.8849248  34.9460314  73.8832834
  19.3963432  35.1282698  74.0901510   9.4268655  38.4778192  67.1411657
   9.3104913  37.8023095  67.8092742   9.5370915  37.9910566  66.3243810
  11.7700196  37.9388339  70.8458347  11.4058403  37.4118960  71.5571268
  12.6267312  37.5486808  70.6724832  17.6749496  29.2282672  78.1089613
  17.3432821  30.0978083  77.8850828  17.0795110  28.9118956  78.7883643
  11.4105683  32.9678239  65.8419695  11.5780085  33.8358475  66.2090166
  11.2202852  33.1305520  64.9180984  14.1681016  41.4295218  77.5085525
  13.8681739  42.3320256  77.4001333  13.8232075  41.1627401  78.3606678
   7.6193497  37.8809014  73.5422230   6.6943994  37.7485229  73.7499922
   7.8677911  38.6603234  74.0392172  17.5678160  33.9477758  75.1882963
  16.6595037  33.8793166  74.8941724  17.5165755  34.4249703  76.0164788
  11.3894904  35.4235896  66.8266362  11.2694529  35.8692947  67.6651842
  10.6947492  35.7721214  66.2679900   4.9802308  37.5242288  74.3766019
   5.1094690  37.7776767  75.2905431   4.2999760  38.1169996  74.0570674
   9.1501796  48.1939538  70.4756493   9.0725825  49.1447363  70.5544974
   8.5463439  47.8485410  71.1331419  11.6419025  35.3667403  83.1317860
  10.8652360  35.9261324  83.1220725  12.2809589  35.8524186  83.6532730
  19.4339806  32.1494196  76.9660837  18.7914186  32.4426729  76.3200631
  18.9294735  32.0347117  77.7714033  17.0879970  35.8957369  67.6546696
  17.9997826  36.1284756  67.4794393  16.5789617  36.4794414  67.0921775
   9.8965398  38.1752857  82.6935827  10.6380082  38.7137901  82.4170651
   9.1902383  38.8019145  82.8507379  15.3720737  40.3181997  81.2907988
  15.7804093  39.8764408  80.5462621  14.6497999  39.7434625  81.5442181
  11.7251807  35.2554604  78.6641545  12.5713003  35.6794018  78.8076194
  11.6650445  34.5988228  79.3580109  15.6949552  40.8783188  75.0460277
  15.0658415  41.0428902  74.3436345  15.3075214  41.2924797  75.8171241
  19.5738784  41.8137626  72.4004641  18.8889822  42.1936527  71.8501674
  19.6582633  42.4232952  73.1336589  14.8751253  32.9158972  80.3222719
  14.6312185  33.6701033  79.7856995  15.1511183  33.2944320  81.1569966
  16.8289716  39.4597585  78.9999985  17.0406611  40.1029345  78.3234366
  16.7819464  38.6259901  78.5321915  14.4315945  32.0715405  75.9036557
  13.5700424  32.3696659  76.1953294  14.4578379  32.2885804  74.9717589
  11.2477514  40.6157596  72.3110362  11.7115859  40.8945299  71.5214985
  10.9834312  39.7141040  72.1283453   8.1401595  40.1629077  75.2490126
   8.7102952  40.5916346  74.6107610   8.7309707  39.8811662  75.9474311
  10.1846400  36.7380748  69.1199928  10.8870443  37.1901792  69.5873854
   9.8527028  36.0964567  69.7479821   8.6326762  35.3292505  83.4951137
   8.0025422  36.0108786  83.7286534   8.5262849  35.2175587  82.5504275
   3.9271734  34.9964301  74.4217061   3.1370788  35.2521829  73.9457172
   4.4182981  35.8112639  74.5269102  17.9435544  42.3369540  77.1722342
  18.7652987  41.9349727  76.8905024  17.9397946  42.2337774  78.1238458
   5.8786479  35.3608880  71.3800538   5.0817643  35.4727574  71.8984034
   5.6512072  35.6995532  70.5141428  11.7092147  41.8853583  79.3283053
  11.7736579  42.3473991  80.1641224  11.0003071  41.2550948  79.4565362
   2.2109437  35.2494791  76.8532052   2.4617475  36.1341801  77.1189628
   2.7468985  35.0699393  76.0807144  26.0341537  38.6808289  73.5207313
  25.2805245  38.1115687  73.3651318  26.1689078  38.6470953  74.4677948
  11.4240165  43.5521691  69.1962033  11.2885839  44.3973227  69.6246881
  11.9649977  43.7540969  68.4327967   7.9107504  29.6313271  85.8576388
   7.5174450  29.0779469  86.5324032   8.7273645  29.9423849  86.2482906
   4.8769562  41.0697129  69.7689958   5.3894083  41.8640379  69.9195523
   5.5292275  40.3723419  69.7023559   6.6864447  44.1862885  71.8512711
   6.8631075  45.1080850  71.6633695   7.4821280  43.8721304  72.2807091
  10.8275465  31.0471150  83.4496645  11.5685179  31.6478303  83.3701107
  11.0593388  30.3048788  82.8914687   5.9716803  36.2327517  81.7274874
   5.8570318  35.3312774  82.0281973   5.1161321  36.4791214  81.3759691
  13.0508641  44.1745257  83.3262375  12.6072495  43.3881636  83.0083279
  13.7125855  44.3624408  82.6606266   7.8095762  45.7041059  77.8523053
   8.3603187  45.5758122  77.0800047   6.9707238  46.0035948  77.5017946
  15.1489879  44.4548057  81.3543776  15.1308354  45.2756938  80.8624045
  16.0709799  44.3302133  81.5793917  11.6062933  41.9692187  82.1967285
  12.1391270  41.2080475  81.9666593  11.0777014  41.6765839  82.9391439
  14.7732628  27.0752253  77.7260926  14.4296898  27.9653894  77.6500037
  15.1411591  26.8853910  76.8630511   2.8418479  39.3985783  70.5449528
   3.6793701  39.8082792  70.3283236   3.0196746  38.4585225  70.5149722
  14.7382911  37.0660864  66.2333361  14.2229534  37.8365469  66.4721749
  14.4660219  36.3926000  66.8566423  12.3230022  31.9110565  71.2918600
  11.4671618  31.5217415  71.1124238  12.7356974  31.9902525  70.4318385
  13.8529169  29.4456908  75.6910160  13.3493964  29.4087043  74.8777965
  14.1459775  30.3549651  75.7506816  10.0972054  29.5295638  74.6976341
  10.9625051  29.3338446  74.3382231  10.1649563  29.3005989  75.6245698
  19.7117185  39.8193219  68.1686535  18.9346628  39.4804378  67.7241697
  20.3908666  39.8245842  67.4941500  14.5269214  34.9387956  68.0593143
  14.2219350  35.2534105  68.9103286  15.4799656  35.0169376  68.1020476
  12.9715646  41.0978179  69.7086097  12.4437008  40.3630939  69.3959334
  12.4703149  41.8752856  69.4626065  17.9508492  39.2927200  74.8253143
  17.2932166  39.9826461  74.9133271  18.7548891  39.6823632  75.1687129
   7.7034374  31.7597846  72.0692708   8.2778125  31.5373027  71.3365901
   8.2905356  31.8286540  72.8221309  16.7613951  37.6471572  72.8757085
  17.2745832  38.2801564  73.3778794  17.4115175  37.0472768  72.5100445
   8.0303961  33.7902307  66.0888593   7.1941273  34.1276993  66.4097868
   7.8908730  33.6551286  65.1515730  10.0057041  28.6339094  70.7967778
   9.3521454  28.3188112  70.1724392   9.9637515  28.0114835  71.5227600
  11.1168246  38.9158390  62.7121070  10.2095308  38.6847643  62.9112219
  11.6139278  38.1196009  62.8995051  14.0236325  47.6255897  65.6317756
  13.3498024  47.9287594  66.2402714  14.4102147  48.4284977  65.2823213
  13.2394782  35.1221028  75.1215425  12.3217343  35.3435975  74.9637113
  13.6554925  35.1967339  74.2627132  14.0229829  36.5212444  70.2518105
  14.7701648  37.0333841  69.9425227  14.2921419  36.1996496  71.1122499
  12.2956480  39.0170984  67.2345060  11.3867699  38.7330017  67.3317529
  12.3251563  39.4370063  66.3748367  17.5275747  42.6277574  71.0036227
  17.0738074  41.7868484  71.0601418  16.8969714  43.2638972  71.3411007
  16.4708667  33.5569560  72.2336895  15.7331423  33.0446946  72.5647137
  16.7235440  33.1169942  71.4220172  15.9708686  44.4654071  71.9386045
  16.2631661  45.0259128  71.2198411  16.4807307  44.7582632  72.6939204
  16.5720294  26.3345812  72.8278664  16.8779171  25.4743175  72.5404579
  17.2972899  26.9263432  72.6277658   2.8644650  36.7376499  71.2160262
   2.6669050  36.1445859  70.4911328   2.3091314  36.4328709  71.9336201
  10.8441374  36.6299605  73.3354855  10.8989983  35.6773441  73.2597332
  10.0332576  36.7859044  73.8196153  11.9932567  40.5579728  64.5733138
  11.5551997  39.8415587  64.1138776  12.7343008  40.7855843  64.0118230
   8.7833734  35.2476665  71.0945234   7.9701599  35.5470835  71.5010426
   9.2792728  34.8532354  71.8119716  10.9342311  45.2434422  73.0279499
  10.8918490  45.4695268  72.0988031  11.8505010  45.0097796  73.1765300
  14.3807945  35.7118489  79.9260128  14.7357333  35.9389962  80.7854594
  15.0280076  36.0436866  79.3037383  20.1105682  38.8336925  70.6309457
  19.9723581  39.0238521  69.7030646  19.7541901  39.5956308  71.0877508
   8.2747808  32.8195020  76.7106469   8.9147188  32.6783779  76.0129432
   7.4425339  32.5329534  76.3345071  20.1375062  40.9013452  75.6420728
  20.5711568  40.8088741  76.4903782  20.8506642  40.8770953  75.0040744
   9.0508112  42.1197451  72.8241461   9.8448711  41.6247771  72.6224036
   8.3399805  41.5915314  72.4609167  13.8702957  44.5015546  77.1753829
  13.9239979  45.0706483  77.9431545  13.0017738  44.6717431  76.8107866
   5.3590876  36.2640532  68.9001214   4.4288464  36.2024988  69.1171176
   5.4548348  35.7416485  68.1037855   5.2776425  32.7895345  71.4879456
   5.5383242  33.7040679  71.3788616   6.0993597  32.3219788  71.6376068
   6.7501350  34.2033102  78.6578280   7.4224403  33.9950465  78.0090929
   5.9231137  34.0055188  78.2183512  20.9990611  40.9437153  78.1753614
  21.1926501  41.8482963  78.4212889  20.8991229  40.4844572  79.0092199
  12.6526922  30.8295043  80.6743941  12.0054837  31.5284993  80.5808417
  13.4227937  31.2631187  81.0420189  16.0605720  41.0943896  83.7494494
  15.9091226  40.8654447  82.8324578  16.0510399  42.0514497  83.7625839
  12.8291056  38.6675808  78.7340761  13.7583116  38.8186968  78.5609728
  12.4082086  38.7559829  77.8789407  11.6279388  42.6926473  76.5039298
  11.4890474  42.3245257  77.3765237  10.8393984  43.2074112  76.3323256
  12.2227540  47.7935569  67.8464835  12.3979296  47.3223612  68.6610458
  11.5360328  48.4201335  68.0746096  13.1784603  42.0708075  73.8928136
  12.8434436  42.0308845  74.7885786  12.6788549  41.4052791  73.4198546
   7.1528847  37.4775705  79.4180717   7.0148645  36.7455944  80.0192256
   8.0633771  37.3884606  79.1364905  16.1143795  39.4164110  64.1665196
  15.4972966  38.6910938  64.0698249  15.6460283  40.1773470  63.8232270
   9.7811148  37.1895665  78.9064397  10.4910766  36.5488857  78.8651015
   9.7380456  37.4408560  79.8290578  17.7697927  44.1263018  81.8270976
  17.7110473  43.4422238  81.1601559  18.1717445  44.8682008  81.3751602
   8.4940082  34.1760883  80.7260036   7.9577439  33.7251621  81.3781633
   7.9056790  34.3106791  79.9830501   6.7888625  50.9424932  74.6204695
   7.0285224  51.5743456  75.2983714   5.9457822  50.5912972  74.9070054
   7.9042341  33.6349534  63.2886500   7.0271807  33.5138335  62.9248747
   8.3800094  32.8435612  63.0365389  17.7715334  42.0902602  80.0584956
  16.8842113  41.7528524  80.1811355  18.3413885  41.3585633  80.2953721
   4.2279203  33.3116890  77.8113031   4.1437392  32.7042560  77.0763441
   3.4061910  33.8025909  77.8122527  11.3016487  46.7504054  77.0246199
  11.2286659  47.5559026  77.5365504  10.8593880  46.9496020  76.1994220
  11.0906267  45.9875824  70.5349021  10.3073789  46.5297505  70.6287245
  11.7899012  46.5049804  70.9343262  14.4002917  31.7970454  73.1783226
  14.8971617  31.0440416  72.8584296  13.6289899  31.8334771  72.6126435
  22.2532674  37.5010819  74.8201518  22.2422551  38.3835535  74.4495451
  21.3850054  37.1482370  74.6256055  13.7615171  46.6490888  79.1804358
  14.4743143  47.2838353  79.1080259  13.2705199  46.7454754  78.3644360
  15.4832698  40.5542141  70.7521649  14.5488976  40.6743604  70.5826354
  15.6609366  39.6514608  70.4881659  10.9837886  33.9387837  72.9054911
  10.6135673  33.3858877  73.5935816  11.4796978  33.3345970  72.3529911
  18.8705249  36.3959460  71.2871684  19.3365701  37.2287452  71.2131986
  19.3212750  35.9304442  71.9916942   8.8127084  44.3985332  80.0009929
   9.5136544  45.0321815  80.1539323   8.3422199  44.7400063  79.2405568
  16.9381480  42.7403282  68.2857836  17.2141324  42.6259876  69.1951710
  16.0685979  42.3420767  68.2470009  16.8421912  28.7640047  75.3262585
  15.9284992  28.9944274  75.4944792  17.2715013  28.8478491  76.1776617
  16.6128370  36.9529939  77.8262479  15.9599821  37.2005847  77.1714932
  16.9908750  36.1394078  77.4924956  13.5735544  46.9889633  71.9290649
  13.7557939  46.1711288  72.3918402  14.3968530  47.2057325  71.4915539
  13.9077710  45.9157818  69.1905698  14.4365476  45.4050272  68.5775860
  14.1705929  45.6000348  70.0551231  12.6615943  37.6949750  84.3128516
  11.9856580  37.5943880  84.9830891  13.4843577  37.5388964  84.7764513
   4.4094802  43.9321687  76.9341031   4.9948239  43.1865375  77.0668935
   4.2119641  44.2425644  77.8177695   7.2633458  46.9672934  71.9503474
   6.5943833  47.4519062  71.4667514   7.1246327  47.2142155  72.8646852
  11.4038726  49.0016678  78.5486132  11.9557034  49.1648299  79.3135217
  11.7444920  49.5921116  77.8766157   6.3803219  31.3491828  79.1508017
   6.4444546  32.2106659  78.7385414   6.3170340  30.7365829  78.4180375
   5.8555492  33.4214960  82.7981051   6.4827531  33.0392038  83.4118575
   4.9983411  33.2029162  83.1636743  16.2549601  43.8277935  84.4034786
  16.7989505  44.4407894  83.9089741  15.6736445  44.3857514  84.9201799
   2.6321035  35.2291389  68.7299406   2.9274476  34.3202068  68.6766459
   1.7309070  35.2079129  68.4080408  14.5407113  46.9498653  75.5349814
  14.4158253  46.1488393  75.0260760  15.1986205  47.4444847  75.0463784
   6.1615282  33.3047386  74.7126954   5.4401867  33.9183354  74.5734428
   6.9508537  33.8405151  74.6343600  16.6042022  44.7507673  77.1629364
  15.6572357  44.6313025  77.0907691  16.9524795  43.8630172  77.2455626
   8.9641595  30.6401812  80.9867606   9.4875997  30.8864109  81.7493915
   8.7453929  31.4721847  80.5670743   4.3608876  32.9105487  68.8538731
   4.0321582  32.0302866  68.6713837   4.7148247  32.8553156  69.7415120
  13.6088455  44.5460390  73.3633716  13.4613418  43.6177097  73.5441287
  14.4341949  44.5680480  72.8790792   7.4750699  33.1978457  69.2214209
   7.8146772  33.7264378  68.4992817   7.9222820  33.5358863  69.9972775
  17.2122577  45.3688948  74.4498589  18.1369124  45.1631810  74.3123040
  17.0437880  45.1205350  75.3587931  10.1694140  31.5815507  78.6717277
   9.8290961  30.7823321  79.0737957   9.4633147  31.8817218  78.0994110
  10.8210612  28.6664820  77.1244600  11.6436681  28.1925298  77.0023490
  11.0648676  29.4455304  77.6243286   9.4618847  31.6953078  67.4207501
  10.1827209  32.0734331  66.9171218   8.8384151  32.4141955  67.5242479
  13.6049969  32.3998227  68.3565834  13.8213584  33.2822865  68.0554662
  13.1244037  32.0084441  67.6271476   8.3449191  35.3583941  74.9336578
   8.1993772  35.6724244  75.8260860   7.8674394  35.9768841  74.3807477
  10.2045574  32.3486489  74.9817468  10.1907143  31.4527582  74.6449766
  10.9218002  32.3557152  75.6155754  12.0571704  32.7823829  77.0270595
  11.7989482  33.7040899  77.0254926  11.5256745  32.3854263  77.7171059
  17.0017893  45.8874616  69.8060681  17.1754771  45.3221038  69.0534533
  17.4946784  46.6875511  69.6240171   2.8194853  37.8989285  77.8724239
   2.2748321  38.6749093  78.0044514   3.6974203  38.2460089  77.7143361
   9.6082470  31.2300869  70.2505038   9.7298381  30.3017515  70.4495926
   9.3184512  31.2439555  69.3383353  12.4773660  28.9155779  73.3871758
  12.4995357  28.9795112  72.4323737  12.8941719  28.0760288  73.5812264
  22.8557284  38.6511039  71.4250980  23.2988430  37.9018364  71.0270104
  21.9783795  38.6421175  71.0424712  17.9893066  45.2041380  66.9057579
  18.6843970  45.8248073  67.1244894  18.3316216  44.3536731  67.1809957
   3.6060875  37.0259181  80.7654396   2.8642611  37.1741817  81.3519027
   3.2853619  37.2867447  79.9021146  19.8884489  42.6541086  68.4344910
  20.4135813  42.9928359  67.7094230  19.8006841  41.7188101  68.2508044
  11.5504538  46.5675159  80.5634786  11.8591664  46.3224306  81.4357486
  12.3480020  46.7721798  80.0753657  11.5725150  48.7213069  72.7940163
  11.1330140  48.2289448  73.4873020  12.3233267  48.1786037  72.5532238
   4.0517489  44.9124610  72.7964791   4.8775508  44.6128382  72.4163435
   3.7011541  44.1432232  73.2454580   9.0199022  44.2651078  74.8662465
   8.3979031  43.6021783  74.5664692   9.6903889  44.2912210  74.1836112
   2.2526094  42.8310936  73.7553725   1.4158002  42.4033111  73.5737726
   2.2249739  43.0243380  74.6924516   9.0923549  32.7432866  84.4594971
   9.1411705  33.6194989  84.0772740   9.6346063  32.2010259  83.8866614
  19.5778395  43.2873989  83.7396108  18.7873939  43.2698128  83.2000607
  19.3411749  43.8262283  84.4945144  19.6976270  40.1366456  81.0528836
  19.7474275  39.9716463  81.9944359  19.5890193  39.2693715  80.6626717
   8.5812529  42.8155002  68.3420925   8.7300649  43.4990466  67.6887598
   9.3878972  42.7960092  68.8570381  16.9880032  36.1197384  82.3688143
  17.8889895  35.9803849  82.0772141  17.0628007  36.2851839  83.3086320
  11.3222838  33.4964239  81.2141329  10.4526147  33.7897805  80.9423918
  11.5582318  34.0804684  81.9348593  21.1994467  42.5563397  81.2970858
  20.9079275  42.9193378  82.1334319  20.5866598  41.8430406  81.1184190
  22.3990149  40.1216277  73.8173428  23.2337040  40.5606081  73.9810988
  22.5349278  39.6454930  72.9981674  19.4481655  37.6796012  79.7650916
  19.9235777  37.8723658  78.9569767  18.5247220  37.7355198  79.5194299
   6.3365162  38.8420179  69.3481994   6.0911204  37.9382509  69.5462204
   6.5061076  38.8437330  68.4061472  14.0261872  29.7143856  78.7306750
  14.5443815  30.4504882  78.4053238  13.6717004  30.0207849  79.5653509
   5.6060809  34.5748537  66.8468156   4.9130054  34.6492892  66.1908191
   5.3612561  33.8108880  67.3689672  14.2774466  26.1344138  74.2507646
  14.5576219  25.4667327  74.8768073  15.0625073  26.3273234  73.7382310
  12.0807934  45.3103132  65.8132673  11.5081901  45.9293319  65.3603144
  12.6540728  45.8602494  66.3472594  18.1483324  34.5561772  77.9979221
  19.1000747  34.6559870  78.0191445  17.9786774  33.7640041  78.5077306
  16.1697703  31.6417355  78.1838622  15.5747636  31.9222368  77.4885111
  15.8847400  32.1311256  78.9555363  15.3005194  45.5940282  66.9441255
  16.2335867  45.5285844  67.1474130  15.2128407  46.4296549  66.4855787
  17.9293211  44.9106152  63.9045202  17.8506842  44.5766016  64.7980960
  18.7502877  45.4027920  63.9036675  20.6271402  37.7767892  77.1121521
  20.5947722  36.8383892  77.2981205  21.2372025  37.8551928  76.3787346
  12.4654733  36.6463945  63.1548725  13.4113837  36.5170153  63.2237143
  12.0868978  35.9078607  63.6318153  20.7765890  34.5678935  77.1579804
  20.2604939  33.7837392  76.9709733  21.6605839  34.2397652  77.3226324
  18.4376617  28.3119951  73.1175617  18.2401438  28.0035039  74.0018949
  19.0476323  29.0381590  73.2473547  26.4447952  38.8383899  76.2527558
  27.1751340  38.5769187  76.8135261  25.8354897  38.1012621  76.2929626
  24.5263249  36.9791761  76.8502009  23.7996412  36.8447726  76.2418501
  24.1110536  37.2868590  77.6558727  12.3493425  40.6981691  84.6149382
  13.2696435  40.8760290  84.8089429  12.3143008  39.7537736  84.4629081
  10.6497650  34.5713921  63.0903610   9.7429105  34.2747034  63.1666324
  10.9273631  34.2743739  62.2237897   1.5675590  35.8920285  73.5402657
   1.2478375  35.0385593  73.2477031   1.0209018  36.1068863  74.2960624
   5.3455498  38.6082725  77.2572163   5.5641508  39.5399833  77.2760197
   5.7581272  38.2490700  78.0426967  12.2659716  29.1150811  69.2447852
  11.4560444  28.7697896  69.6203098  12.9544132  28.8058355  69.8335463
  14.1950264  28.1928858  70.8672148  14.7481302  28.6124311  71.5262171
  14.4320350  27.2664606  70.9095104  10.2183363  34.1815931  86.6474912
  10.1180090  35.1310288  86.5787003  10.0004905  33.8534170  85.7750982
   9.4196434  31.4300856  63.2315589  10.2815598  31.7555755  63.4911407
   9.6046779  30.6432352  62.7188655   1.4363850  39.5123196  75.5095778
   0.7427322  39.0977149  74.9965733   2.1836841  39.5543733  74.9129197
  17.5729071  30.3029383  70.3750812  16.9927740  30.9614187  69.9928865
  17.3065004  29.4806727  69.9638230  16.0232637  29.7034440  72.5772133
  16.5232416  29.8150975  71.7686452  16.6668245  29.3995493  73.2172941
  10.0814633  37.6113070  85.4639974   9.5981715  38.4113430  85.6703863
  10.1675572  37.6221015  84.5107418   3.3500593  39.4441450  73.3861793
   3.3271281  39.5429137  72.4343676   3.6601229  40.2906601  73.7078959
   6.0087971  41.5017605  77.5008408   6.9631224  41.4701547  77.4338339
   5.8100494  41.0408229  78.3158633   6.5987353  40.0718721  80.0679205
   7.4180242  40.5662800  80.0914042   6.8724160  39.1550689  80.0396773
  16.3553949  32.4629473  69.4307161  15.4679804  32.7479124  69.2127355
  16.7707938  32.3023237  68.5834438  19.7068485  32.4875994  73.1461500
  20.4828875  32.9772447  73.4186117  18.9816619  32.9134048  73.6033369
  22.1441044  33.2003613  74.2035441  22.7385535  32.9599349  73.4928749
  22.2167627  32.4810744  74.8308977   4.3638199  47.0437224  74.5178605
   4.2292667  46.2837625  73.9516603   3.9470262  47.7678124  74.0507394
  15.4997162  42.2274148  63.5255181  16.2033013  42.4324150  64.1412836
  14.7759811  42.7950910  63.7904264  16.3294973  37.9784009  69.6457451
  16.2730174  38.4352561  68.8065083  16.8823315  37.2174694  69.4680294
  20.1399779  33.7673741  70.4707570  19.8836713  33.3670377  71.3015778
  19.5152647  34.4817535  70.3457710  24.4512116  36.5069814  72.9778862
  23.8911674  36.5763004  73.7510424  23.8455620  36.3310799  72.2578358
   7.5207325  47.9406541  74.7297048   7.4039709  48.8851974  74.6275738
   6.6999772  47.6380103  75.1182847  17.4083860  42.6656677  65.5753641
  18.2429464  42.2337876  65.3931116  17.2468203  42.4938691  66.5030535
  17.0629752  39.1688790  66.9409980  17.0078556  39.0033062  65.9998424
  16.4375807  39.8764823  67.0972170   1.8522267  34.4056855  80.7671402
   2.4981131  33.8955809  81.2558627   1.6439418  35.1425536  81.3414828
  14.3775659  41.4737702  86.2663543  15.2466819  41.6478354  85.9050178
  13.8982411  42.2932119  86.1439272  10.3725877  28.6696899  66.5195298
  10.3604547  29.6138739  66.6763569  11.2649299  28.4867045  66.2254760
   8.5461839  48.5934803  77.9452976   9.4489086  48.6258413  78.2619471
   8.3199209  47.6635254  77.9599312  10.3015441  47.3465790  74.6063055
   9.3511072  47.3467651  74.4927427  10.6047928  46.5998524  74.0899090
  14.1877997  25.2639676  70.7741235  13.4210393  24.7098163  70.9197918
  14.5988702  25.3361545  71.6355387   6.1919758  31.5524472  84.8646417
   7.0551220  31.1961277  85.0749741   5.6185169  31.2138367  85.5521821
  26.0368135  53.1826328  75.6708818  26.6746545  53.0633075  74.9672158
  25.9188978  54.1307172  75.7296770  22.8457841  53.1353756  75.6070342
  22.5076353  53.0194821  74.7190877  23.7147609  52.7344921  75.5871348
  18.7044657  54.9889233  71.5967233  18.1409522  54.8979170  70.8283521
  18.5897052  54.1689137  72.0769726  23.3277624  54.2888608  81.5656548
  23.3166265  53.8941406  80.6937051  23.4898264  53.5554681  82.1590319
  16.2509089  56.4840424  74.4351454  17.0430381  56.1431249  74.0197753
  16.4905739  56.5935399  75.3553607  24.2844216  58.6560200  66.9081698
  23.6332195  59.2414281  66.5215712  25.0788578  59.1866395  66.9676736
  18.2099843  55.7449338  67.3068832  18.9830719  55.1978325  67.1681708
  18.5625242  56.6093587  67.5183294  20.0484885  57.0725720  80.5135732
  19.7574751  57.9771351  80.3982398  20.6841870  57.1142247  81.2279801
  20.9741092  54.4502568  77.1037091  21.5704664  54.2258591  76.3894054
  21.0316064  53.7087314  77.7062539  20.5466121  51.9042004  64.9387282
  20.7991641  51.3823525  64.1770745  19.6090680  51.7408149  65.0413966
  25.5909403  50.9077782  72.7462026  26.3772493  50.4897205  72.3952443
  25.8548108  51.8123874  72.9143674  25.7619481  56.3450632  67.4450682
  25.1265314  56.4185259  68.1571587  25.4316887  56.9344231  66.7669762
  30.9917831  50.8453015  73.6495004  31.7243002  50.2752232  73.8832834
  30.2357186  50.4574616  74.0901510  20.2662409  53.8070110  67.1411657
  20.1498667  53.1315013  67.8092742  20.3764669  53.3202484  66.3243810
  22.6093950  53.2680257  70.8458347  22.2452157  52.7410878  71.5571268
  23.4661066  52.8778726  70.6724832  28.5143251  44.5574589  78.1089613
  28.1826576  45.4270000  77.8850828  27.9188864  44.2410873  78.7883643
  22.2499437  48.2970156  65.8419695  22.4173840  49.1650393  66.2090166
  22.0596606  48.4597438  64.9180984  25.0074770  56.7587135  77.5085525
  24.7075493  57.6612174  77.4001333  24.6625830  56.4919318  78.3606678
  18.4587252  53.2100932  73.5422230  17.5337748  53.0777146  73.7499922
  18.7071665  53.9895151  74.0392172  28.4071914  49.2769675  75.1882963
  27.4988792  49.2085084  74.8941724  28.3559510  49.7541620  76.0164788
  22.2288658  50.7527814  66.8266362  22.1088283  51.1984865  67.6651842
  21.5341246  51.1013132  66.2679900  15.8196063  52.8534206  74.3766019
  15.9488444  53.1068685  75.2905431  15.1393514  53.4461914  74.0570674
  19.9895550  63.5231456  70.4756493  19.9119580  64.4739281  70.5544974
  19.3857194  63.1777328  71.1331419  22.4812780  50.6959321  83.1317860
  21.7046114  51.2553241  83.1220725  23.1203343  51.1816104  83.6532730
  30.2733561  47.4786114  76.9660837  29.6307941  47.7718647  76.3200631
  29.7688489  47.3639034  77.7714033  27.9273724  51.2249287  67.6546696
  28.8391580  51.4576674  67.4794393  27.4183371  51.8086331  67.0921775
  20.7359152  53.5044774  82.6935827  21.4773837  54.0429818  82.4170651
  20.0296138  54.1311063  82.8507379  26.2114492  55.6473915  81.2907988
  26.6197848  55.2056325  80.5462621  25.4891753  55.0726542  81.5442181
  22.5645562  50.5846522  78.6641545  23.4106757  51.0085935  78.8076194
  22.5044200  49.9280146  79.3580109  26.5343307  56.2075106  75.0460277
  25.9052169  56.3720820  74.3436345  26.1468969  56.6216715  75.8171241
  30.4132538  57.1429543  72.4004641  29.7283577  57.5228445  71.8501674
  30.4976388  57.7524870  73.1336589  25.7145007  48.2450890  80.3222719
  25.4705939  48.9992951  79.7856995  25.9904938  48.6236238  81.1569966
  27.6683470  54.7889502  78.9999985  27.8800365  55.4321262  78.3234366
  27.6213218  53.9551819  78.5321915  25.2709699  47.4007323  75.9036557
  24.4094178  47.6988577  76.1953294  25.2972134  47.6177722  74.9717589
  22.0871268  55.9449514  72.3110362  22.5509614  56.2237217  71.5214985
  21.8228067  55.0432958  72.1283453  18.9795350  55.4920995  75.2490126
  19.5496707  55.9208264  74.6107610  19.5703461  55.2103580  75.9474311
  21.0240154  52.0672666  69.1199928  21.7264198  52.5193710  69.5873854
  20.6920783  51.4256485  69.7479821  19.4720516  50.6584423  83.4951137
  18.8419177  51.3400703  83.7286534  19.3656604  50.5467504  82.5504275
  14.7665488  50.3256219  74.4217061  13.9764542  50.5813747  73.9457172
  15.2576736  51.1404556  74.5269102  28.7829298  57.6661458  77.1722342
  29.6046742  57.2641645  76.8905024  28.7791701  57.5629692  78.1238458
  16.7180234  50.6900798  71.3800538  15.9211397  50.8019492  71.8984034
  16.4905826  51.0287450  70.5141428  22.5485901  57.2145501  79.3283053
  22.6130334  57.6765908  80.1641224  21.8396825  56.5842866  79.4565362
  13.0503191  50.5786709  76.8532052  13.3011230  51.4633719  77.1189628
  13.5862740  50.3991311  76.0807144  22.2633919  58.8813609  69.1962033
  22.1279594  59.7265144  69.6246881  22.8043732  59.0832886  68.4327967
  18.7501259  44.9605188  85.8576388  18.3568204  44.4071387  86.5324032
  19.5667399  45.2715767  86.2482906  15.7163317  56.3989047  69.7689958
  16.2287837  57.1932297  69.9195523  16.3686029  55.7015337  69.7023559
  17.5258201  59.5154803  71.8512711  17.7024830  60.4372768  71.6633695
  18.3215035  59.2013222  72.2807091  21.6669220  46.3763068  83.4496645
  22.4078933  46.9770221  83.3701107  21.8987143  45.6340705  82.8914687
  16.8110558  51.5619435  81.7274874  16.6964073  50.6604692  82.0281973
  15.9555075  51.8083132  81.3759691  23.8902395  59.5037175  83.3262375
  23.4466250  58.7173554  83.0083279  24.5519609  59.6916326  82.6606266
  18.6489517  61.0332977  77.8523053  19.1996942  60.9050040  77.0800047
  17.8100993  61.3327866  77.5017946  25.9883634  59.7839975  81.3543776
  25.9702109  60.6048856  80.8624045  26.9103554  59.6594050  81.5793917
  22.4456688  57.2984105  82.1967285  22.9785025  56.5372393  81.9666593
  21.9170769  57.0057756  82.9391439  25.6126383  42.4044170  77.7260926
  25.2690652  43.2945812  77.6500037  25.9805345  42.2145828  76.8630511
  13.6812233  54.7277701  70.5449528  14.5187455  55.1374709  70.3283236
  13.8590501  53.7877143  70.5149722  25.5776665  52.3952782  66.2333361
  25.0623289  53.1657386  66.4721749  25.3053974  51.7217918  66.8566423
  23.1623776  47.2402482  71.2918600  22.3065373  46.8509333  71.1124238
  23.5750728  47.3194443  70.4318385  24.6922923  44.7748826  75.6910160
  24.1887719  44.7378961  74.8777965  24.9853530  45.6841568  75.7506816
  20.9365809  44.8587555  74.6976341  21.8018806  44.6630364  74.3382231
  21.0043318  44.6297907  75.6245698  25.3662969  50.2679874  68.0593143
  25.0613104  50.5826023  68.9103286  26.3193411  50.3461294  68.1020476
  23.8109400  56.4270097  69.7086097  23.2830762  55.6922857  69.3959334
  23.3096903  57.2044773  69.4626065  28.7902246  54.6219117  74.8253143
  28.1325921  55.3118379  74.9133271  29.5942646  55.0115549  75.1687129
  18.5428128  47.0889763  72.0692708  19.1171880  46.8664945  71.3365901
  19.1299110  47.1578458  72.8221309  27.6007705  52.9763490  72.8757085
  28.1139587  53.6093482  73.3778794  28.2508929  52.3764686  72.5100445
  18.8697715  49.1194224  66.0888593  18.0335027  49.4568911  66.4097868
  18.7302485  48.9843204  65.1515730  20.8450796  43.9631012  70.7967778
  20.1915208  43.6480029  70.1724392  20.8031270  43.3406753  71.5227600
  21.9562001  54.2450307  62.7121070  21.0489062  54.0139561  62.9112219
  22.4533033  53.4487927  62.8995051  24.8630079  62.9547814  65.6317756
  24.1891778  63.2579511  66.2402714  25.2495901  63.7576895  65.2823213
  24.0788536  50.4512946  75.1215425  23.1611097  50.6727893  74.9637113
  24.4948680  50.5259256  74.2627132  24.8623584  51.8504361  70.2518105
  25.6095403  52.3625759  69.9425227  25.1315173  51.5288414  71.1122499
  23.1350234  54.3462902  67.2345060  22.2261453  54.0621935  67.3317529
  23.1645318  54.7661981  66.3748367  28.3669501  57.9569492  71.0036227
  27.9131829  57.1160401  71.0601418  27.7363468  58.5930890  71.3411007
  27.3102421  48.8861478  72.2336895  26.5725178  48.3738864  72.5647137
  27.5629195  48.4461859  71.4220172  26.8102441  59.7945988  71.9386045
  27.1025415  60.3551045  71.2198411  27.3201061  60.0874549  72.6939204
  27.4114048  41.6637730  72.8278664  27.7172925  40.8035093  72.5404579
  28.1366653  42.2555350  72.6277658  13.7038404  52.0668416  71.2160262
  13.5062804  51.4737777  70.4911328  13.1485068  51.7620626  71.9336201
  21.6835128  51.9591523  73.3354855  21.7383738  51.0065359  73.2597332
  20.8726330  52.1150962  73.8196153  22.8326322  55.8871646  64.5733138
  22.3945752  55.1707505  64.1138776  23.5736763  56.1147761  64.0118230
  19.6227488  50.5768582  71.0945234  18.8095354  50.8762753  71.5010426
  20.1186482  50.1824271  71.8119716  21.7736066  60.5726339  73.0279499
  21.7312245  60.7987186  72.0988031  22.6898765  60.3389714  73.1765300
  25.2201700  51.0410407  79.9260128  25.5751087  51.2681880  80.7854594
  25.8673831  51.3728784  79.3037383  30.9499437  54.1628843  70.6309457
  30.8117335  54.3530439  69.7030646  30.5935655  54.9248226  71.0877508
  19.1141563  48.1486938  76.7106469  19.7540942  48.0075697  76.0129432
  18.2819093  47.8621451  76.3345071  30.9768816  56.2305370  75.6420728
  31.4105323  56.1380659  76.4903782  31.6900397  56.2062870  75.0040744
  19.8901867  57.4489368  72.8241461  20.6842465  56.9539689  72.6224036
  19.1793559  56.9207232  72.4609167  24.7096711  59.8307464  77.1753829
  24.7633733  60.3998400  77.9431545  23.8411493  60.0009349  76.8107866
  16.1984630  51.5932450  68.9001214  15.2682218  51.5316906  69.1171176
  16.2942102  51.0708403  68.1037855  16.1170179  48.1187263  71.4879456
  16.3776996  49.0332596  71.3788616  16.9387352  47.6511706  71.6376068
  17.5895105  49.5325020  78.6578280  18.2618158  49.3242382  78.0090929
  16.7624891  49.3347106  78.2183512  31.8384366  56.2729070  78.1753614
  32.0320256  57.1774881  78.4212889  31.7384984  55.8136490  79.0092199
  23.4920677  46.1586961  80.6743941  22.8448592  46.8576911  80.5808417
  24.2621692  46.5923105  81.0420189  26.8999474  56.4235813  83.7494494
  26.7484981  56.1946365  82.8324578  26.8904154  57.3806415  83.7625839
  23.6684811  53.9967726  78.7340761  24.5976871  54.1478886  78.5609728
  23.2475841  54.0851747  77.8789407  22.4673143  58.0218390  76.5039298
  22.3284228  57.6537175  77.3765237  21.6787739  58.5366030  76.3323256
  23.0621295  63.1227487  67.8464835  23.2373050  62.6515530  68.6610458
  22.3754083  63.7493253  68.0746096  24.0178358  57.3999993  73.8928136
  23.6828190  57.3600763  74.7885786  23.5182303  56.7344709  73.4198546
  17.9922602  52.8067623  79.4180717  17.8542400  52.0747862  80.0192256
  18.9027525  52.7176523  79.1364905  26.9537549  54.7456027  64.1665196
  26.3366720  54.0202856  64.0698249  26.4854038  55.5065388  63.8232270
  20.6204902  52.5187582  78.9064397  21.3304521  51.8780775  78.8651015
  20.5774211  52.7700477  79.8290578  28.6091681  59.4554936  81.8270976
  28.5504227  58.7714156  81.1601559  29.0111199  60.1973926  81.3751602
  19.3333836  49.5052800  80.7260036  18.7971193  49.0543539  81.3781633
  18.7450545  49.6398709  79.9830501  17.6282380  66.2716850  74.6204695
  17.8678978  66.9035374  75.2983714  16.7851576  65.9204890  74.9070054
  18.7436095  48.9641452  63.2886500  17.8665562  48.8430253  62.9248747
  19.2193848  48.1727530  63.0365389  28.6109088  57.4194520  80.0584956
  27.7235867  57.0820442  80.1811355  29.1807639  56.6877551  80.2953721
  10.2638235  53.7518611  73.3828007  10.9509275  53.4380341  72.7949023
  10.1086364  54.6559976  73.1095259  15.0672958  48.6408808  77.8113031
  14.9831146  48.0334478  77.0763441  14.2455664  49.1317826  77.8122527
  22.1410242  62.0795972  77.0246199  22.0680413  62.8850944  77.5365504
  21.6987635  62.2787938  76.1994220  21.9300021  61.3167742  70.5349021
  21.1467543  61.8589422  70.6287245  22.6292767  61.8341722  70.9343262
  25.2396672  47.1262372  73.1783226  25.7365371  46.3732334  72.8584296
  24.4683653  47.1626688  72.6126435  33.0926429  52.8302737  74.8201518
  33.0816305  53.7127453  74.4495451  32.2243808  52.4774288  74.6256055
  24.6008925  61.9782806  79.1804358  25.3136898  62.6130271  79.1080259
  24.1098954  62.0746672  78.3644360  26.3226452  55.8834059  70.7521649
  25.3882731  56.0035521  70.5826354  26.5003121  54.9806526  70.4881659
  21.8231640  49.2679755  72.9054911  21.4529428  48.7150795  73.5935816
  22.3190733  48.6637888  72.3529911  29.7099004  51.7251378  71.2871684
  30.1759456  52.5579370  71.2131986  30.1606504  51.2596360  71.9916942
  19.6520839  59.7277250  80.0009929  20.3530298  60.3613733  80.1539323
  19.1815954  60.0691981  79.2405568  27.7775235  58.0695199  68.2857836
  28.0535079  57.9551794  69.1951710  26.9079733  57.6712684  68.2470009
  27.6815666  44.0931965  75.3262585  26.7678746  44.3236192  75.4944792
  28.1108768  44.1770409  76.1776617  27.4522125  52.2821857  77.8262479
  26.7993575  52.5297764  77.1714932  27.8302505  51.4685995  77.4924956
  24.4129299  62.3181550  71.9290649  24.5951693  61.5003206  72.3918402
  25.2362285  62.5349242  71.4915539  24.7471464  61.2449735  69.1905698
  25.2759231  60.7342190  68.5775860  25.0099684  60.9292266  70.0551231
  23.5009698  53.0241668  84.3128516  22.8250335  52.9235797  84.9830891
  24.3237332  52.8680882  84.7764513  15.2488557  59.2613605  76.9341031
  15.8341994  58.5157293  77.0668935  15.0513395  59.5717561  77.8177695
  18.1027212  62.2964852  71.9503474  17.4337587  62.7810980  71.4667514
  17.9640082  62.5434072  72.8646852   9.8406212  51.8319205  75.6545474
   9.8790311  51.2982796  76.4482592   9.3346504  51.3054410  75.0356452
  22.2432481  64.3308596  78.5486132  22.7950789  64.4940217  79.3135217
  22.5838674  64.9213033  77.8766157  17.2196974  46.6783745  79.1508017
  17.2838300  47.5398576  78.7385414  17.1564094  46.0657747  78.4180375
  16.6949246  48.7506878  82.7981051  17.3221285  48.3683955  83.4118575
  15.8377165  48.5321080  83.1636743  27.0943355  59.1569853  84.4034786
  27.6383259  59.7699811  83.9089741  26.5130200  59.7149431  84.9201799
  13.4714789  50.5583307  68.7299406  13.7668230  49.6493985  68.6766459
  12.5702825  50.5371046  68.4080408  25.3800868  62.2790571  75.5349814
  25.2552007  61.4780311  75.0260760  26.0379959  62.7736764  75.0463784
  17.0009036  48.6339304  74.7126954  16.2795622  49.2475271  74.5734428
  17.7902292  49.1697068  74.6343600  27.4435776  60.0799591  77.1629364
  26.4966112  59.9604942  77.0907691  27.7918549  59.1922089  77.2455626
  19.8035350  45.9693730  80.9867606  20.3269752  46.2156027  81.7493915
  19.5847683  46.8013765  80.5670743  15.2002631  48.2397405  68.8538731
  14.8715337  47.3594784  68.6713837  15.5542001  48.1845073  69.7415120
  24.4482210  59.8752307  73.3633716  24.3007172  58.9469015  73.5441287
  25.2735703  59.8972398  72.8790792  18.3144454  48.5270374  69.2214209
  18.6540526  49.0556296  68.4992817  18.7616574  48.8650781  69.9972775
  28.0516331  60.6980866  74.4498589  28.9762879  60.4923727  74.3123040
  27.8831635  60.4497267  75.3587931  21.0087895  46.9107425  78.6717277
  20.6684715  46.1115238  79.0737957  20.3026901  47.2109136  78.0994110
  21.6604367  43.9956738  77.1244600  22.4830436  43.5217216  77.0023490
  21.9042430  44.7747221  77.6243286  20.3012601  47.0244996  67.4207501
  21.0220964  47.4026249  66.9171218  19.6777905  47.7433873  67.5242479
  24.4443724  47.7290145  68.3565834  24.6607338  48.6114783  68.0554662
  23.9637791  47.3376358  67.6271476  19.1842945  50.6875858  74.9336578
  19.0387526  51.0016161  75.8260860  18.7068149  51.3060759  74.3807477
  21.0439328  47.6778406  74.9817468  21.0300897  46.7819500  74.6449766
  21.7611756  47.6849070  75.6155754  22.8965459  48.1115746  77.0270595
  22.6383237  49.0332817  77.0254926  22.3650499  47.7146181  77.7171059
  27.8411648  61.2166534  69.8060681  28.0148525  60.6512956  69.0534533
  28.3340539  62.0167428  69.6240171  13.6588608  53.2281203  77.8724239
  13.1142076  54.0041011  78.0044514  14.5367957  53.5752007  77.7143361
  20.4476224  46.5592786  70.2505038  20.5692135  45.6309433  70.4495926
  20.1578267  46.5731472  69.3383353  23.3167415  44.2447697  73.3871758
  23.3389111  44.3087030  72.4323737  23.7335474  43.4052206  73.5812264
  33.6951039  53.9802956  71.4250980  34.1382185  53.2310282  71.0270104
  32.8177549  53.9713093  71.0424712  28.8286820  60.5333298  66.9057579
  29.5237725  61.1539991  67.1244894  29.1709970  59.6828649  67.1809957
  14.4454629  52.3551099  80.7654396  13.7036365  52.5033734  81.3519027
  14.1247374  52.6159364  79.9021146  22.3898292  61.8967077  80.5634786
  22.6985418  61.6516224  81.4357486  23.1873774  62.1013716  80.0753657
  22.4118904  64.0504987  72.7940163  21.9723894  63.5581365  73.4873020
  23.1627021  63.5077954  72.5532238  14.8911243  60.2416528  72.7964791
  15.7169263  59.9420299  72.4163435  14.5405295  59.4724150  73.2454580
  19.8592776  59.5942996  74.8662465  19.2372786  58.9313701  74.5664692
  20.5297643  59.6204128  74.1836112  13.0919848  58.1602854  73.7553725
  12.2551756  57.7325028  73.5737726  13.0643494  58.3535297  74.6924516
  19.9317304  48.0724784  84.4594971  19.9805459  48.9486907  84.0772740
  20.4739818  47.5302177  83.8866614  30.4172149  58.6165907  83.7396108
  29.6267693  58.5990046  83.2000607  30.1805504  59.1554201  84.4945144
  30.5370024  55.4658373  81.0528836  30.5868029  55.3008381  81.9944359
  30.4283948  54.5985633  80.6626717  19.4206283  58.1446919  68.3420925
  19.5694403  58.8282384  67.6887598  20.2272727  58.1252009  68.8570381
  27.8273787  51.4489302  82.3688143  28.7283650  51.3095766  82.0772141
  27.9021761  51.6143756  83.3086320  22.1616592  48.8256156  81.2141329
  21.2919902  49.1189722  80.9423918  22.3976073  49.4096601  81.9348593
  32.0388221  57.8855315  81.2970858  31.7473030  58.2485296  82.1334319
  31.4260353  57.1722323  81.1184190  30.2875410  53.0087930  79.7650916
  30.7629531  53.2015576  78.9569767  29.3640975  53.0647115  79.5194299
  17.1758916  54.1712097  69.3481994  16.9304958  53.2674427  69.5462204
  17.3454831  54.1729247  68.4061472  24.8655626  45.0435773  78.7306750
  25.3837570  45.7796800  78.4053238  24.5110759  45.3499766  79.5653509
  16.4454564  49.9040454  66.8468156  15.7523809  49.9784809  66.1908191
  16.2006316  49.1400798  67.3689672  25.1168220  41.4636056  74.2507646
  25.3969974  40.7959245  74.8768073  25.9018827  41.6565151  73.7382310
  22.9201689  60.6395050  65.8132673  22.3475656  61.2585237  65.3603144
  23.4934482  61.1894411  66.3472594  28.9877079  49.8853690  77.9979221
  29.9394501  49.9851787  78.0191445  28.8180529  49.0931958  78.5077306
  27.0091458  46.9709273  78.1838622  26.4141390  47.2514286  77.4885111
  26.7241155  47.4603174  78.9555363  26.1398948  60.9232200  66.9441255
  27.0729622  60.8577761  67.1474130  26.0522161  61.7588467  66.4855787
  28.7686965  60.2398070  63.9045202  28.6900597  59.9057934  64.7980960
  29.5896632  60.7319838  63.9036675  31.4665156  53.1059809  77.1121521
  31.4341476  52.1675810  77.2981205  32.0765780  53.1843846  76.3787346
  23.3048487  51.9755862  63.1548725  24.2507592  51.8462070  63.2237143
  22.9262732  51.2370524  63.6318153  31.6159645  49.8970853  77.1579804
  31.0998693  49.1129309  76.9709733  32.4999593  49.5689569  77.3226324
  29.2770372  43.6411868  73.1175617  29.0795193  43.3326957  74.0018949
  29.8870077  44.3673507  73.2473547  23.1887180  56.0273609  84.6149382
  24.1090189  56.2052208  84.8089429  23.1536763  55.0829654  84.4629081
  21.4891404  49.9005839  63.0903610  20.5822860  49.6038951  63.1666324
  21.7667385  49.6035657  62.2237897  12.4069345  51.2212202  73.5402657
  12.0872129  50.3677510  73.2477031  11.8602773  51.4360780  74.2960624
  16.1849252  53.9374643  77.2572163  16.4035262  54.8691751  77.2760197
  16.5975026  53.5782618  78.0426967  23.1053470  44.4442728  69.2447852
  22.2954198  44.0989813  69.6203098  23.7937887  44.1350272  69.8335463
  25.0344018  43.5220775  70.8672148  25.5875057  43.9416229  71.5262171
  25.2714105  42.5956523  70.9095104  21.0577118  49.5107849  86.6474912
  20.9573844  50.4602206  86.5787003  20.8398660  49.1826088  85.7750982
  20.2590189  46.7592774  63.2315589  21.1209353  47.0847672  63.4911407
  20.4440533  45.9724270  62.7188655  12.2757605  54.8415114  75.5095778
  11.5821076  54.4269066  74.9965733  13.0230596  54.8835650  74.9129197
  28.4122825  45.6321300  70.3750812  27.8321494  46.2906104  69.9928865
  28.1458758  44.8098645  69.9638230  26.8626392  45.0326358  72.5772133
  27.3626170  45.1442893  71.7686452  27.5062000  44.7287411  73.2172941
  20.9208388  52.9404988  85.4639974  20.4375469  53.7405348  85.6703863
  21.0069327  52.9512933  84.5107418  14.1894347  54.7733367  73.3861793
  14.1665035  54.8721055  72.4343676  14.4994984  55.6198518  73.7078959
  16.8481725  56.8309522  77.5008408  17.8024979  56.7993465  77.4338339
  16.6494249  56.3700146  78.3158633  17.4381107  55.4010639  80.0679205
  18.2573996  55.8954717  80.0914042  17.7117915  54.4842607  80.0396773
  27.1947703  47.7921391  69.4307161  26.3073558  48.0771041  69.2127355
  27.6101693  47.6315154  68.5834438  30.5462240  47.8167912  73.1461500
  31.3222630  48.3064364  73.4186117  29.8210374  48.2425966  73.6033369
  32.9834798  48.5295531  74.2035441  33.5779289  48.2891267  73.4928749
  33.0561382  47.8102662  74.8308977  15.2031954  62.3729142  74.5178605
  15.0686422  61.6129543  73.9516603  14.7864016  63.0970042  74.0507394
  26.3390917  57.5566065  63.5255181  27.0426767  57.7616068  64.1412836
  25.6153566  58.1242827  63.7904264  27.1688727  53.3075927  69.6457451
  27.1123929  53.7644478  68.8065083  27.7217070  52.5466611  69.4680294
  30.9793533  49.0965659  70.4707570  30.7230467  48.6962294  71.3015778
  30.3546401  49.8109453  70.3457710  18.3601080  63.2698459  74.7297048
  18.2433464  64.2143891  74.6275738  17.5393526  62.9672021  75.1182847
  28.2477614  57.9948595  65.5753641  29.0823218  57.5629793  65.3931116
  28.0861957  57.8230608  66.5030535  27.9023506  54.4980708  66.9409980
  27.8472310  54.3324979  65.9998424  27.2769562  55.2056741  67.0972170
  12.6916021  49.7348772  80.7671402  13.3374885  49.2247726  81.2558627
  12.4833173  50.4717454  81.3414828  25.2169414  56.8029620  86.2663543
  26.0860573  56.9770272  85.9050178  24.7376165  57.6224037  86.1439272
  21.2119632  43.9988817  66.5195298  21.1998302  44.9430657  66.6763569
  22.1043054  43.8158962  66.2254760  19.3855594  63.9226721  77.9452976
  20.2882841  63.9550331  78.2619471  19.1592964  62.9927172  77.9599312
  21.1409196  62.6757707  74.6063055  20.1904827  62.6759569  74.4927427
  21.4441682  61.9290442  74.0899090  25.0271751  40.5931594  70.7741235
  24.2604147  40.0390080  70.9197918  25.4382456  40.6653462  71.6355387
  17.0313512  46.8816389  84.8646417  17.8944974  46.5253194  85.0749741
  16.4578923  46.5430284  85.5521821  27.0902843  71.8132342  74.4351454
  27.8824135  71.4723167  74.0197753  27.3299493  71.9227317  75.3553607
  30.8878640  72.4017637  80.5135732  30.5968506  73.3063268  80.3982398
  31.5235624  72.4434165  81.2279801  31.8134847  69.7794486  77.1037091
  32.4098419  69.5550508  76.3894054  31.8709818  69.0379231  77.7062539
  29.2981006  68.5392850  73.5422230  28.3731503  68.4069064  73.7499922
  29.5465420  69.3187069  74.0392172  26.6589817  68.1826123  74.3766019
  26.7882199  68.4360602  75.2905431  25.9787269  68.7753831  74.0570674
  31.5752907  68.8336692  82.6935827  32.3167591  69.3721736  82.4170651
  30.8689892  69.4602981  82.8507379  29.8189104  70.8212913  75.2490126
  30.3890461  71.2500181  74.6107610  30.4097216  70.5395498  75.9474311
  30.3114271  65.9876340  83.4951137  29.6812931  66.6692621  83.7286534
  30.2050358  65.8759422  82.5504275  25.6059243  65.6548136  74.4217061
  24.8158297  65.9105665  73.9457172  26.0970490  66.4696474  74.5269102
  27.5573988  66.0192716  71.3800538  26.7605152  66.1311410  71.8984034
  27.3299581  66.3579368  70.5141428  23.8896946  65.9078627  76.8532052
  24.1404984  66.7925637  77.1189628  24.4256494  65.7283228  76.0807144
  29.5895013  60.2897106  85.8576388  29.1961959  59.7363305  86.5324032
  30.4061154  60.6007685  86.2482906  32.5062974  61.7054985  83.4496645
  33.2472688  62.3062138  83.3701107  32.7380897  60.9632623  82.8914687
  27.6504312  66.8911352  81.7274874  27.5357827  65.9896610  82.0281973
  26.7948830  67.1375049  81.3759691  29.4883271  76.3624894  77.8523053
  30.0390696  76.2341958  77.0800047  28.6494747  76.6619783  77.5017946
  33.2850442  72.6276022  82.1967285  33.8178779  71.8664310  81.9666593
  32.7564523  72.3349674  82.9391439  24.5205988  70.0569619  70.5449528
  25.3581210  70.4666627  70.3283236  24.6984255  69.1169061  70.5149722
  31.7759563  60.1879473  74.6976341  32.6412560  59.9922282  74.3382231
  31.8437072  59.9589825  75.6245698  29.3821883  62.4181681  72.0692708
  29.9565634  62.1956862  71.3365901  29.9692865  62.4870375  72.8221309
  31.6844550  59.2922930  70.7967778  31.0308963  58.9771947  70.1724392
  31.6425024  58.6698670  71.5227600  24.5432159  67.3960334  71.2160262
  24.3456559  66.8029695  70.4911328  23.9878823  67.0912544  71.9336201
  29.9535317  63.4778856  76.7106469  30.5934697  63.3367615  76.0129432
  29.1212848  63.1913369  76.3345071  27.0378385  66.9224368  68.9001214
  26.1075973  66.8608823  69.1171176  27.1335857  66.4000321  68.1037855
  26.9563934  63.4479181  71.4879456  27.2170751  64.3624514  71.3788616
  27.7781106  62.9803623  71.6376068  28.4288859  64.8616938  78.6578280
  29.1011912  64.6534300  78.0090929  27.6018646  64.6639024  78.2183512
  34.3314431  61.4878879  80.6743941  33.6842346  62.1868828  80.5808417
  35.1015446  61.9215023  81.0420189  34.5078565  69.3259644  78.7340761
  35.4370625  69.4770803  78.5609728  34.0869595  69.4143664  77.8789407
  28.8316356  68.1359541  79.4180717  28.6936154  67.4039780  80.0192256
  29.7421280  68.0468441  79.1364905  31.4598657  67.8479500  78.9064397
  32.1698275  67.2072692  78.8651015  31.4167965  68.0992395  79.8290578
  30.1727591  64.8344718  80.7260036  29.6364948  64.3835456  81.3781633
  29.5844299  64.9690627  79.9830501  28.4676134  81.6008767  74.6204695
  28.7072733  82.2327291  75.2983714  27.6245331  81.2496807  74.9070054
  21.1031990  69.0810529  73.3828007  21.7903030  68.7672259  72.7949023
  20.9480119  69.9851894  73.1095259  25.9066712  63.9700726  77.8113031
  25.8224901  63.3626395  77.0763441  25.0849419  64.4609744  77.8122527
  30.4914593  75.0569167  80.0009929  31.1924053  75.6905650  80.1539323
  30.0209708  75.3983899  79.2405568  26.0882311  74.5905522  76.9341031
  26.6735748  73.8449210  77.0668935  25.8907150  74.9009479  77.8177695
  20.6799966  67.1611123  75.6545474  20.7184066  66.6274713  76.4482592
  20.1740259  66.6346328  75.0356452  33.0826235  79.6600513  78.5486132
  33.6344543  79.8232135  79.3135217  33.4232429  80.2504951  77.8766157
  28.0590728  62.0075663  79.1508017  28.1232055  62.8690494  78.7385414
  27.9957849  61.3949665  78.4180375  27.5343001  64.0798796  82.7981051
  28.1615040  63.6975873  83.4118575  26.6770920  63.8612997  83.1636743
  24.3108544  65.8875225  68.7299406  24.6061985  64.9785903  68.6766459
  23.4096579  65.8662964  68.4080408  27.8402791  63.9631221  74.7126954
  27.1189376  64.5767189  74.5734428  28.6296046  64.4988986  74.6343600
  30.6429104  61.2985648  80.9867606  31.1663506  61.5447944  81.7493915
  30.4241437  62.1305683  80.5670743  26.0396385  63.5689322  68.8538731
  25.7109091  62.6886701  68.6713837  26.3935756  63.5136991  69.7415120
  32.4998121  59.3248655  77.1244600  33.3224190  58.8509133  77.0023490
  32.7436185  60.1039139  77.6243286  30.0236700  66.0167776  74.9336578
  29.8781281  66.3308079  75.8260860  29.5461903  66.6352676  74.3807477
  24.4982362  68.5573120  77.8724239  23.9535830  69.3332928  78.0044514
  25.3761712  68.9043925  77.7143361  25.2848384  67.6843017  80.7654396
  24.5430120  67.8325652  81.3519027  24.9641128  67.9451282  79.9021146
  33.2512659  79.3796904  72.7940163  32.8117649  78.8873283  73.4873020
  34.0020776  78.8369872  72.5532238  30.6986531  74.9234914  74.8662465
  30.0766540  74.2605619  74.5664692  31.3691398  74.9496045  74.1836112
  23.9313603  73.4894772  73.7553725  23.0945511  73.0616946  73.5737726
  23.9037248  73.6827215  74.6924516  30.7711058  63.4016702  84.4594971
  30.8199214  64.2778824  84.0772740  31.3133572  62.8594095  83.8866614
  33.0010347  64.1548074  81.2141329  32.1313656  64.4481640  80.9423918
  33.2369827  64.7388519  81.9348593  23.2463099  66.5504120  73.5402657
  22.9265884  65.6969428  73.2477031  22.6996527  66.7652698  74.2960624
  27.0243007  69.2666561  77.2572163  27.2429017  70.1983669  77.2760197
  27.4368781  68.9074535  78.0426967  31.8970872  64.8399767  86.6474912
  31.7967599  65.7894124  86.5787003  31.6792414  64.5118006  85.7750982
  31.0983943  62.0884692  63.2315589  31.9603107  62.4139590  63.4911407
  31.2834288  61.3016188  62.7188655  23.1151359  70.1707031  75.5095778
  22.4214831  69.7560984  74.9965733  23.8624350  70.2127568  74.9129197
  25.0288102  70.1025285  73.3861793  25.0058790  70.2012972  72.4343676
  25.3388738  70.9490436  73.7078959  27.6875480  72.1601440  77.5008408
  28.6418733  72.1285382  77.4338339  27.4888003  71.6992064  78.3158633
  28.2774862  70.7302556  80.0679205  29.0967751  71.2246635  80.0914042
  28.5511669  69.8134524  80.0396773  26.0425708  77.7021060  74.5178605
  25.9080176  76.9421461  73.9516603  25.6257771  78.4261959  74.0507394
  29.1994834  78.5990377  74.7297048  29.0827218  79.5435809  74.6275738
  28.3787281  78.2963938  75.1182847  23.5309776  65.0640690  80.7671402
  24.1768640  64.5539644  81.2558627  23.3226927  65.8009372  81.3414828
  30.2249348  79.2518639  77.9452976  31.1276595  79.2842249  78.2619471
  29.9986718  78.3219090  77.9599312  31.9802950  78.0049625  74.6063055
  31.0298581  78.0051487  74.4927427  32.2835437  77.2582360  74.0899090
  27.8707267  62.2108307  84.8646417  28.7338729  61.8545112  85.0749741
  27.2972678  61.8722202  85.5521821  47.7155644  83.8410163  75.6708818
  48.3534054  83.7216911  74.9672158  47.5976487  84.7891007  75.7296770
  44.5245350  83.7937592  75.6070342  44.1863862  83.6778656  74.7190877
  45.3935118  83.3928757  75.5871348  40.3832166  85.6473068  71.5967233
  39.8197031  85.5563005  70.8283521  40.2684561  84.8272972  72.0769726
  45.0065133  84.9472443  81.5656548  44.9953774  84.5525242  80.6937051
  45.1685773  84.2138516  82.1590319  37.9296598  87.1424260  74.4351454
  38.7217890  86.8015084  74.0197753  38.1693248  87.2519235  75.3553607
  45.9631725  89.3144036  66.9081698  45.3119704  89.8998116  66.5215712
  46.7576087  89.8450231  66.9676736  39.8887352  86.4033173  67.3068832
  40.6618228  85.8562160  67.1681708  40.2412751  87.2677422  67.5183294
  41.7272394  87.7309555  80.5135732  41.4362260  88.6355186  80.3982398
  42.3629379  87.7726083  81.2279801  42.6528601  85.1086404  77.1037091
  43.2492173  84.8842426  76.3894054  42.7103573  84.3671149  77.7062539
  42.2253630  82.5625839  64.9387282  42.4779150  82.0407360  64.1770745
  41.2878189  82.3991984  65.0413966  47.4406990  87.0034468  67.4450682
  46.8052823  87.0769094  68.1571587  47.1104396  87.5928066  66.7669762
  41.9449918  84.4653945  67.1411657  41.8286176  83.7898848  67.8092742
  42.0552178  83.9786319  66.3243810  44.2881459  83.9264092  70.8458347
  43.9239666  83.3994713  71.5571268  45.1448575  83.5362561  70.6724832
  46.6862279  87.4170971  77.5085525  46.3863002  88.3196009  77.4001333
  46.3413339  87.1503154  78.3606678  43.9076167  81.4111649  66.8266362
  43.7875792  81.8568700  67.6651842  43.2128755  81.7596967  66.2679900
  37.4983572  83.5118041  74.3766019  37.6275953  83.7652520  75.2905431
  36.8181023  84.1045749  74.0570674  41.6683059  94.1815291  70.4756493
  41.5907089  95.1323116  70.5544974  41.0644703  93.8361163  71.1331419
  42.4146661  84.1628610  82.6935827  43.1561346  84.7013654  82.4170651
  41.7083647  84.7894899  82.8507379  47.8902001  86.3057750  81.2907988
  48.2985357  85.8640161  80.5462621  47.1679262  85.7310378  81.5442181
  44.2433071  81.2430357  78.6641545  45.0894266  81.6669771  78.8076194
  44.1831709  80.5863981  79.3580109  48.2130816  86.8658941  75.0460277
  47.5839678  87.0304655  74.3436345  47.8256478  87.2800550  75.8171241
  52.0920047  87.8013379  72.4004641  51.4071086  88.1812280  71.8501674
  52.1763897  88.4108705  73.1336589  49.3470979  85.4473338  78.9999985
  49.5587874  86.0905098  78.3234366  49.3000727  84.6135654  78.5321915
  43.7658777  86.6033349  72.3110362  44.2297123  86.8821052  71.5214985
  43.5015576  85.7016794  72.1283453  40.6582858  86.1504830  75.2490126
  41.2284216  86.5792099  74.6107610  41.2490970  85.8687415  75.9474311
  42.7027663  82.7256501  69.1199928  43.4051707  83.1777545  69.5873854
  42.3708292  82.0840320  69.7479821  41.1508025  81.3168258  83.4951137
  40.5206686  81.9984539  83.7286534  41.0444113  81.2051340  82.5504275
  50.4616807  88.3245293  77.1722342  51.2834251  87.9225480  76.8905024
  50.4579210  88.2213527  78.1238458  44.2273410  87.8729336  79.3283053
  44.2917843  88.3349744  80.1641224  43.5184334  87.2426701  79.4565362
  34.7290700  81.2370544  76.8532052  34.9798739  82.1217554  77.1189628
  35.2650249  81.0575146  76.0807144  43.9421428  89.5397444  69.1962033
  43.8067103  90.3848980  69.6246881  44.4831241  89.7416722  68.4327967
  37.3950825  87.0572882  69.7689958  37.9075346  87.8516132  69.9195523
  38.0473538  86.3599172  69.7023559  39.2045710  90.1738638  71.8512711
  39.3812339  91.0956603  71.6633695  40.0002544  89.8597057  72.2807091
  38.4898067  82.2203270  81.7274874  38.3751582  81.3188527  82.0281973
  37.6342584  82.4666967  81.3759691  45.5689904  90.1621010  83.3262375
  45.1253759  89.3757389  83.0083279  46.2307118  90.3500161  82.6606266
  40.3277026  91.6916812  77.8523053  40.8784451  91.5633875  77.0800047
  39.4888502  91.9911701  77.5017946  47.6671143  90.4423810  81.3543776
  47.6489618  91.2632691  80.8624045  48.5891063  90.3177886  81.5793917
  44.1244197  87.9567940  82.1967285  44.6572533  87.1956228  81.9666593
  43.5958278  87.6641592  82.9391439  35.3599742  85.3861536  70.5449528
  36.1974964  85.7958545  70.3283236  35.5378010  84.4460978  70.5149722
  47.2564174  83.0536617  66.2333361  46.7410798  83.8241222  66.4721749
  46.9841483  82.3801753  66.8566423  45.4896909  87.0853932  69.7086097
  44.9618271  86.3506692  69.3959334  44.9884412  87.8628609  69.4626065
  50.4689755  85.2802953  74.8253143  49.8113430  85.9702214  74.9133271
  51.2730155  85.6699385  75.1687129  43.6349510  84.9034143  62.7121070
  42.7276571  84.6723396  62.9112219  44.1320542  84.1071762  62.8995051
  46.5417588  93.6131650  65.6317756  45.8679287  93.9163347  66.2402714
  46.9283410  94.4160730  65.2823213  44.8137743  85.0046737  67.2345060
  43.9048962  84.7205770  67.3317529  44.8432827  85.4245816  66.3748367
  50.0457010  88.6153327  71.0036227  49.5919338  87.7744237  71.0601418
  49.4150977  89.2514725  71.3411007  48.4889950  90.4529824  71.9386045
  48.7812924  91.0134881  71.2198411  48.9988570  90.7458385  72.6939204
  35.3825913  82.7252252  71.2160262  35.1850313  82.1321612  70.4911328
  34.8272577  82.4204462  71.9336201  43.3622637  82.6175358  73.3354855
  43.4171247  81.6649194  73.2597332  42.5513839  82.7734797  73.8196153
  44.5113831  86.5455481  64.5733138  44.0733261  85.8291340  64.1138776
  45.2524272  86.7731596  64.0118230  43.4523575  91.2310175  73.0279499
  43.4099754  91.4571021  72.0988031  44.3686274  90.9973549  73.1765300
  46.8989209  81.6994242  79.9260128  47.2538596  81.9265715  80.7854594
  47.5461340  82.0312619  79.3037383  52.6556325  86.8889205  75.6420728
  53.0892832  86.7964494  76.4903782  53.3687906  86.8646706  75.0040744
  41.5689376  88.1073204  72.8241461  42.3629974  87.6123524  72.6224036
  40.8581068  87.5791067  72.4609167  46.3884220  90.4891299  77.1753829
  46.4421242  91.0582236  77.9431545  45.5199001  90.6593184  76.8107866
  39.2682613  80.1908856  78.6578280  39.9405667  79.9826218  78.0090929
  38.4412400  79.9930941  78.2183512  53.5171875  86.9312906  78.1753614
  53.7107765  87.8358716  78.4212889  53.4172493  86.4720325  79.0092199
  48.5786983  87.0819649  83.7494494  48.4272490  86.8530200  82.8324578
  48.5691663  88.0390250  83.7625839  45.3472320  84.6551561  78.7340761
  46.2764380  84.8062721  78.5609728  44.9263350  84.7435582  77.8789407
  44.1460652  88.6802226  76.5039298  44.0071737  88.3121010  77.3765237
  43.3575248  89.1949865  76.3323256  44.7408804  93.7811322  67.8464835
  44.9160559  93.3099365  68.6610458  44.0541592  94.4077088  68.0746096
  45.6965867  88.0583828  73.8928136  45.3615699  88.0184598  74.7885786
  45.1969812  87.3928544  73.4198546  39.6710111  83.4651458  79.4180717
  39.5329909  82.7331697  80.0192256  40.5815034  83.3760359  79.1364905
  42.2992411  83.1771418  78.9064397  43.0092030  82.5364610  78.8651015
  42.2561720  83.4284313  79.8290578  50.2879190  90.1138771  81.8270976
  50.2291736  89.4297991  81.1601559  50.6898708  90.8557761  81.3751602
  41.0121345  80.1636636  80.7260036  40.4758702  79.7127374  81.3781633
  40.4238054  80.2982545  79.9830501  39.3069889  96.9300685  74.6204695
  39.5466487  97.5619209  75.2983714  38.4639085  96.5788725  74.9070054
  50.2896597  88.0778355  80.0584956  49.4023376  87.7404277  80.1811355
  50.8595148  87.3461386  80.2953721  31.9425744  84.4102447  73.3828007
  32.6296784  84.0964177  72.7949023  31.7873873  85.3143811  73.1095259
  43.8197751  92.7379807  77.0246199  43.7467922  93.5434779  77.5365504
  43.3775144  92.9371773  76.1994220  43.6087530  91.9751577  70.5349021
  42.8255052  92.5173258  70.6287245  44.3080276  92.4925557  70.9343262
  46.2796434  92.6366641  79.1804358  46.9924406  93.2714106  79.1080259
  45.7886463  92.7330507  78.3644360  48.0013961  86.5417894  70.7521649
  47.0670240  86.6619357  70.5826354  48.1790630  85.6390361  70.4881659
  41.3308348  90.3861085  80.0009929  42.0317807  91.0197568  80.1539323
  40.8603463  90.7275816  79.2405568  49.4562744  88.7279035  68.2857836
  49.7322588  88.6135629  69.1951710  48.5867242  88.3296520  68.2470009
  49.1309634  82.9405692  77.8262479  48.4781084  83.1881600  77.1714932
  49.5090014  82.1269831  77.4924956  46.0916808  92.9765386  71.9290649
  46.2739202  92.1587041  72.3918402  46.9149794  93.1933078  71.4915539
  46.4258973  91.9033571  69.1905698  46.9546740  91.3926025  68.5775860
  46.6887193  91.5876101  70.0551231  45.1797207  83.6825503  84.3128516
  44.5037844  83.5819633  84.9830891  46.0024841  83.5264717  84.7764513
  36.9276066  89.9197440  76.9341031  37.5129503  89.1741128  77.0668935
  36.7300904  90.2301397  77.8177695  39.7814721  92.9548687  71.9503474
  39.1125096  93.4394815  71.4667514  39.6427591  93.2017908  72.8646852
  31.5193721  82.4903040  75.6545474  31.5577820  81.9566631  76.4482592
  31.0134013  81.9638246  75.0356452  43.9219990  94.9892431  78.5486132
  44.4738298  95.1524052  79.3135217  44.2626183  95.5796869  77.8766157
  38.3736755  79.4090713  82.7981051  39.0008794  79.0267791  83.4118575
  37.5164674  79.1904915  83.1636743  48.7730864  89.8153688  84.4034786
  49.3170768  90.4283647  83.9089741  48.1917709  90.3733267  84.9201799
  35.1502298  81.2167142  68.7299406  35.4455739  80.3077821  68.6766459
  34.2490334  81.1954882  68.4080408  47.0588377  92.9374406  75.5349814
  46.9339516  92.1364146  75.0260760  47.7167468  93.4320600  75.0463784
  49.1223285  90.7383426  77.1629364  48.1753621  90.6188778  77.0907691
  49.4706058  89.8505925  77.2455626  46.1269719  90.5336143  73.3633716
  45.9794681  89.6052850  73.5441287  46.9523212  90.5556233  72.8790792
  49.7303840  91.3564701  74.4498589  50.6550388  91.1507563  74.3123040
  49.5619144  91.1081103  75.3587931  49.5199157  91.8750369  69.8060681
  49.6936034  91.3096791  69.0534533  50.0128048  92.6751264  69.6240171
  35.3376116  83.8865038  77.8724239  34.7929585  84.6624846  78.0044514
  36.2155466  84.2335842  77.7143361  50.5074329  91.1917133  66.9057579
  51.2025234  91.8123826  67.1244894  50.8497479  90.3412485  67.1809957
  36.1242138  83.0134934  80.7654396  35.3823874  83.1617570  81.3519027
  35.8034883  83.2743200  79.9021146  44.0685801  92.5550912  80.5634786
  44.3772927  92.3100059  81.4357486  44.8661283  92.7597551  80.0753657
  44.0906413  94.7088822  72.7940163  43.6511403  94.2165201  73.4873020
  44.8414530  94.1661790  72.5532238  36.5698752  90.9000363  72.7964791
  37.3956772  90.6004135  72.4163435  36.2192804  90.1307985  73.2454580
  41.5380285  90.2526831  74.8662465  40.9160294  89.5897536  74.5664692
  42.2085152  90.2787963  74.1836112  34.7707357  88.8186689  73.7553725
  33.9339265  88.3908864  73.5737726  34.7431003  89.0119133  74.6924516
  52.0959658  89.2749742  83.7396108  51.3055202  89.2573881  83.2000607
  51.8593013  89.8138036  84.4945144  52.2157533  86.1242209  81.0528836
  52.2655538  85.9592216  81.9944359  52.1071457  85.2569468  80.6626717
  41.0993792  88.8030755  68.3420925  41.2481912  89.4866219  67.6887598
  41.9060236  88.7835845  68.8570381  49.5061296  82.1073137  82.3688143
  50.4071159  81.9679602  82.0772141  49.5809270  82.2727592  83.3086320
  53.7175730  88.5439150  81.2970858  53.4260539  88.9069131  82.1334319
  53.1047862  87.8306159  81.1184190  51.9662918  83.6671765  79.7650916
  52.4417040  83.8599411  78.9569767  51.0428484  83.7230951  79.5194299
  38.8546425  84.8295932  69.3481994  38.6092467  83.9258262  69.5462204
  39.0242340  84.8313083  68.4061472  44.5989198  91.2978885  65.8132673
  44.0263165  91.9169072  65.3603144  45.1721991  91.8478247  66.3472594
  47.8186457  91.5816035  66.9441255  48.7517131  91.5161597  67.1474130
  47.7309670  92.4172302  66.4855787  50.4474474  90.8981905  63.9045202
  50.3688106  90.5641769  64.7980960  51.2684141  91.3903673  63.9036675
  44.8674689  86.6857444  84.6149382  45.7877698  86.8636043  84.8089429
  44.8324272  85.7413489  84.4629081  34.0856854  81.8796038  73.5402657
  33.7659638  81.0261346  73.2477031  33.5390282  82.0944616  74.2960624
  37.8636761  84.5958479  77.2572163  38.0822771  85.5275586  77.2760197
  38.2762535  84.2366453  78.0426967  42.7364627  80.1691684  86.6474912
  42.6361353  81.1186041  86.5787003  42.5186169  79.8409923  85.7750982
  33.9545114  85.4998949  75.5095778  33.2608585  85.0852902  74.9965733
  34.7018105  85.5419486  74.9129197  42.5995897  83.5988823  85.4639974
  42.1162978  84.3989183  85.6703863  42.6856836  83.6096768  84.5107418
  35.8681856  85.4317203  73.3861793  35.8452544  85.5304890  72.4343676
  36.1782493  86.2782354  73.7078959  38.5269234  87.4893358  77.5008408
  39.4812488  87.4577300  77.4338339  38.3281758  87.0283982  78.3158633
  39.1168616  86.0594474  80.0679205  39.9361505  86.5538553  80.0914042
  39.3905424  85.1426442  80.0396773  36.8819463  93.0312977  74.5178605
  36.7473931  92.2713378  73.9516603  36.4651525  93.7553877  74.0507394
  48.0178426  88.2149901  63.5255181  48.7214276  88.4199903  64.1412836
  47.2941075  88.7826663  63.7904264  40.0388589  93.9282294  74.7297048
  39.9220973  94.8727727  74.6275738  39.2181035  93.6255856  75.1182847
  49.9265123  88.6532430  65.5753641  50.7610727  88.2213629  65.3931116
  49.7649466  88.4814444  66.5030535  49.5811015  85.1564543  66.9409980
  49.5259819  84.9908815  65.9998424  48.9557071  85.8640576  67.0972170
  34.3703530  80.3932608  80.7671402  35.0162394  79.8831562  81.2558627
  34.1620682  81.1301289  81.3414828  46.8956923  87.4613455  86.2663543
  47.7648082  87.6354108  85.9050178  46.4163674  88.2807872  86.1439272
  41.0643103  94.5810556  77.9452976  41.9670350  94.6134166  78.2619471
  40.8380473  93.6511007  77.9599312  42.8196705  93.3341543  74.6063055
  41.8692336  93.3343404  74.4927427  43.1229191  92.5874277  74.0899090
  58.5549398  99.1702081  75.6708818  59.1927808  99.0508829  74.9672158
  58.4370241 100.1182925  75.7296770  55.3639105  99.1229509  75.6070342
  55.0257616  99.0070574  74.7190877  56.2328873  98.7220674  75.5871348
  51.2225920 100.9764986  71.5967233  50.6590785 100.8854923  70.8283521
  51.1078315 100.1564890  72.0769726  55.8458888 100.2764361  81.5656548
  55.8347528  99.8817159  80.6937051  56.0079527  99.5430434  82.1590319
  48.7690352 102.4716177  74.4351454  49.5611644 102.1307002  74.0197753
  49.0087002 102.5811152  75.3553607  56.8025479 104.6435953  66.9081698
  56.1513459 105.2290034  66.5215712  57.5969842 105.1742148  66.9676736
  50.7281106 101.7325091  67.3068832  51.5011982 101.1854078  67.1681708
  51.0806505 102.5969340  67.5183294  52.5666149 103.0601473  80.5135732
  52.2756015 103.9647104  80.3982398  53.2023133 103.1018000  81.2279801
  53.4922356 100.4378321  77.1037091  54.0885928 100.2134344  76.3894054
  53.5497327  99.6963067  77.7062539  53.0647384  97.8917757  64.9387282
  53.3172905  97.3699278  64.1770745  52.1271943  97.7283902  65.0413966
  58.1090667  96.8953535  72.7462026  58.8953756  96.4772958  72.3952443
  58.3729371  97.7999627  72.9143674  58.2800744 102.3326385  67.4450682
  57.6446577 102.4061012  68.1571587  57.9498151 102.9219984  66.7669762
  63.5099094  96.8328768  73.6495004  64.2424266  96.2627985  73.8832834
  62.7538450  96.4450369  74.0901510  52.7843673  99.7945863  67.1411657
  52.6679931  99.1190766  67.8092742  52.8945933  99.3078237  66.3243810
  55.1275214  99.2556010  70.8458347  54.7633421  98.7286631  71.5571268
  55.9842330  98.8654479  70.6724832  61.0324514  90.5450342  78.1089613
  60.7007839  91.4145753  77.8850828  60.4370128  90.2286626  78.7883643
  54.7680701  94.2845909  65.8419695  54.9355103  95.1526146  66.2090166
  54.5777870  94.4473191  64.9180984  57.5256034 102.7462888  77.5085525
  57.2256757 103.6487927  77.4001333  57.1807093 102.4795072  78.3606678
  50.9768515  99.1976685  73.5422230  50.0519012  99.0652899  73.7499922
  51.2252929  99.9770904  74.0392172  60.9253178  95.2645429  75.1882963
  60.0170055  95.1960837  74.8941724  60.8740773  95.7417373  76.0164788
  54.7469922  96.7403567  66.8266362  54.6269547  97.1860618  67.6651842
  54.0522510  97.0888885  66.2679900  48.3377326  98.8409959  74.3766019
  48.4669708  99.0944438  75.2905431  47.6574778  99.4337667  74.0570674
  52.5076814 109.5107209  70.4756493  52.4300843 110.4615034  70.5544974
  51.9038457 109.1653081  71.1331419  54.9994043  96.6835074  83.1317860
  54.2227377  97.2428994  83.1220725  55.6384606  97.1691857  83.6532730
  62.7914824  93.4661867  76.9660837  62.1489204  93.7594400  76.3200631
  62.2869753  93.3514787  77.7714033  60.4454988  97.2125040  67.6546696
  61.3572844  97.4452427  67.4794393  59.9364635  97.7962084  67.0921775
  53.2540416  99.4920527  82.6935827  53.9955100 100.0305571  82.4170651
  52.5477401 100.1186816  82.8507379  58.7295755 101.6349668  81.2907988
  59.1379111 101.1932078  80.5462621  58.0073017 101.0602295  81.5442181
  55.0826825  96.5722275  78.6641545  55.9288021  96.9961688  78.8076194
  55.0225463  95.9155899  79.3580109  59.0524570 102.1950859  75.0460277
  58.4233432 102.3596573  74.3436345  58.6650232 102.6092468  75.8171241
  62.9313802 103.1305296  72.4004641  62.2464840 103.5104198  71.8501674
  63.0157651 103.7400623  73.1336589  58.2326271  94.2326643  80.3222719
  57.9887203  94.9868704  79.7856995  58.5086201  94.6111991  81.1569966
  60.1864734 100.7765255  78.9999985  60.3981629 101.4197015  78.3234366
  60.1394482  99.9427572  78.5321915  57.7890962  93.3883076  75.9036557
  56.9275442  93.6864330  76.1953294  57.8153397  93.6053475  74.9717589
  54.6052532 101.9325267  72.3110362  55.0690877 102.2112970  71.5214985
  54.3409330 101.0308711  72.1283453  51.4976613 101.4796748  75.2490126
  52.0677970 101.9084017  74.6107610  52.0884725 101.1979333  75.9474311
  53.5421418  98.0548419  69.1199928  54.2445461  98.5069463  69.5873854
  53.2102046  97.4132238  69.7479821  51.9901779  96.6460176  83.4951137
  51.3600440  97.3276456  83.7286534  51.8837867  96.5343257  82.5504275
  47.2846752  96.3131972  74.4217061  46.4945806  96.5689500  73.9457172
  47.7757999  97.1280310  74.5269102  61.3010561 103.6537211  77.1722342
  62.1228005 103.2517398  76.8905024  61.2972964 103.5505445  78.1238458
  49.2361497  96.6776551  71.3800538  48.4392661  96.7895245  71.8984034
  49.0087090  97.0163203  70.5141428  55.0667165 103.2021254  79.3283053
  55.1311597 103.6641661  80.1641224  54.3578089 102.5718619  79.4565362
  45.5684455  96.5662462  76.8532052  45.8192493  97.4509472  77.1189628
  46.1044003  96.3867064  76.0807144  69.3916555  99.9975959  73.5207313
  68.6380263  99.4283357  73.3651318  69.5264096  99.9638624  74.4677948
  54.7815183 104.8689362  69.1962033  54.6460857 105.7140897  69.6246881
  55.3224995 105.0708639  68.4327967  51.2682522  90.9480941  85.8576388
  50.8749468  90.3947140  86.5324032  52.0848663  91.2591520  86.2482906
  48.2344580 102.3864800  69.7689958  48.7469101 103.1808050  69.9195523
  48.8867293 101.6891090  69.7023559  50.0439465 105.5030556  71.8512711
  50.2206093 106.4248521  71.6633695  50.8396298 105.1888975  72.2807091
  54.1850483  92.3638821  83.4496645  54.9260197  92.9645974  83.3701107
  54.4168406  91.6216458  82.8914687  49.3291821  97.5495188  81.7274874
  49.2145336  96.6480445  82.0281973  48.4736339  97.7958885  81.3759691
  56.4083659 105.4912928  83.3262375  55.9647513 104.7049307  83.0083279
  57.0700873 105.6792079  82.6606266  51.1670780 107.0208730  77.8523053
  51.7178205 106.8925793  77.0800047  50.3282256 107.3203619  77.5017946
  58.5064897 105.7715728  81.3543776  58.4883372 106.5924609  80.8624045
  59.4284817 105.6469803  81.5793917  54.9637951 103.2859858  82.1967285
  55.4966288 102.5248146  81.9666593  54.4352032 102.9933509  82.9391439
  46.1993497 100.7153454  70.5449528  47.0368719 101.1250462  70.3283236
  46.3771764  99.7752896  70.5149722  58.0957929  98.3828535  66.2333361
  57.5804552  99.1533139  66.4721749  57.8235237  97.7093671  66.8566423
  55.6805040  93.2278235  71.2918600  54.8246636  92.8385086  71.1124238
  56.0931992  93.3070196  70.4318385  57.2104187  90.7624579  75.6910160
  56.7068982  90.7254714  74.8777965  57.5034793  91.6717321  75.7506816
  53.4547072  90.8463308  74.6976341  54.3200069  90.6506117  74.3382231
  53.5224581  90.6173660  75.6245698  63.0692203 101.1360889  68.1686535
  62.2921646 100.7972049  67.7241697  63.7483684 101.1413512  67.4941500
  57.8844232  96.2555627  68.0593143  57.5794368  96.5701776  68.9103286
  58.8374674  96.3337047  68.1020476  56.3290664 102.4145850  69.7086097
  55.8012025 101.6798610  69.3959334  55.8278167 103.1920526  69.4626065
  61.3083510 100.6094871  74.8253143  60.6507184 101.2994132  74.9133271
  62.1123909 100.9991302  75.1687129  51.0609391  93.0765516  72.0692708
  51.6353143  92.8540698  71.3365901  51.6480374  93.1454211  72.8221309
  60.1188969  98.9639243  72.8757085  60.6320850  99.5969235  73.3778794
  60.7690193  98.3640439  72.5100445  51.3878979  95.1069977  66.0888593
  50.5516291  95.4444664  66.4097868  51.2483748  94.9718957  65.1515730
  53.3632059  89.9506765  70.7967778  52.7096472  89.6355782  70.1724392
  53.3212533  89.3282506  71.5227600  54.4743264 100.2326060  62.7121070
  53.5670326 100.0015314  62.9112219  54.9714296  99.4363680  62.8995051
  57.3811343 108.9423567  65.6317756  56.7073042 109.2455264  66.2402714
  57.7677165 109.7452648  65.2823213  56.5969800  96.4388699  75.1215425
  55.6792361  96.6603646  74.9637113  57.0129943  96.5135009  74.2627132
  57.3804847  97.8380114  70.2518105  58.1276666  98.3501512  69.9425227
  57.6496437  97.5164167  71.1122499  55.6531498 100.3338655  67.2345060
  54.7442717 100.0497688  67.3317529  55.6826581 100.7537734  66.3748367
  60.8850765 103.9445245  71.0036227  60.4313092 103.1036155  71.0601418
  60.2544732 104.5806643  71.3411007  59.8283684  94.8737231  72.2336895
  59.0906441  94.3614617  72.5647137  60.0810458  94.4337612  71.4220172
  59.3283704 105.7821741  71.9386045  59.6206679 106.3426798  71.2198411
  59.8382325 106.0750302  72.6939204  46.2219668  98.0544169  71.2160262
  46.0244068  97.4613530  70.4911328  45.6666332  97.7496379  71.9336201
  54.2016392  97.9467276  73.3354855  54.2565001  96.9941112  73.2597332
  53.3907594  98.1026715  73.8196153  55.3507585 101.8747399  64.5733138
  54.9127015 101.1583258  64.1138776  56.0918026 102.1023514  64.0118230
  52.1408751  96.5644335  71.0945234  51.3276617  96.8638506  71.5010426
  52.6367746  96.1700024  71.8119716  54.2917329 106.5602092  73.0279499
  54.2493508 106.7862939  72.0988031  55.2080028 106.3265467  73.1765300
  57.7382963  97.0286160  79.9260128  58.0932351  97.2557633  80.7854594
  58.3855094  97.3604537  79.3037383  63.4680700 100.1504596  70.6309457
  63.3298599 100.3406192  69.7030646  63.1116919 100.9123979  71.0877508
  51.6322826  94.1362691  76.7106469  52.2722206  93.9951450  76.0129432
  50.8000357  93.8497204  76.3345071  63.4950080 102.2181123  75.6420728
  63.9286586 102.1256412  76.4903782  64.2081660 102.1938623  75.0040744
  52.4083130 103.4365121  72.8241461  53.2023729 102.9415442  72.6224036
  51.6974823 102.9082985  72.4609167  57.2277975 105.8183217  77.1753829
  57.2814997 106.3874153  77.9431545  56.3592756 105.9885102  76.8107866
  48.7165894  97.5808203  68.9001214  47.7863482  97.5192659  69.1171176
  48.8123366  97.0584156  68.1037855  48.6351443  94.1063016  71.4879456
  48.8958260  95.0208349  71.3788616  49.4568615  93.6387459  71.6376068
  50.1076368  95.5200773  78.6578280  50.7799421  95.3118135  78.0090929
  49.2806155  95.3222859  78.2183512  64.3565629 102.2604824  78.1753614
  64.5501519 103.1650634  78.4212889  64.2566247 101.8012243  79.0092199
  56.0101940  92.1462714  80.6743941  55.3629855  92.8452664  80.5808417
  56.7802955  92.5798858  81.0420189  59.4180738 102.4111566  83.7494494
  59.2666244 102.1822118  82.8324578  59.4085417 103.3682168  83.7625839
  56.1866074  99.9843479  78.7340761  57.1158134 100.1354639  78.5609728
  55.7657104 100.0727500  77.8789407  54.9854406 104.0094143  76.5039298
  54.8465492 103.6412928  77.3765237  54.1969002 104.5241783  76.3323256
  55.5802558 109.1103240  67.8464835  55.7554314 108.6391283  68.6610458
  54.8935346 109.7369006  68.0746096  56.5359621 103.3875746  73.8928136
  56.2009454 103.3476516  74.7885786  56.0363567 102.7220462  73.4198546
  50.5103865  98.7943376  79.4180717  50.3723663  98.0623615  80.0192256
  51.4208789  98.7052276  79.1364905  59.4718813 100.7331780  64.1665196
  58.8547984 100.0078609  64.0698249  59.0035301 101.4941141  63.8232270
  53.1386166  98.5063335  78.9064397  53.8485784  97.8656528  78.8651015
  53.0955474  98.7576230  79.8290578  61.1272945 105.4430689  81.8270976
  61.0685491 104.7589909  81.1601559  61.5292463 106.1849679  81.3751602
  51.8515100  95.4928553  80.7260036  51.3152457  95.0419292  81.3781633
  51.2631808  95.6274462  79.9830501  50.1463643 112.2592603  74.6204695
  50.3860242 112.8911127  75.2983714  49.3032840 111.9080643  74.9070054
  51.2617359  94.9517205  63.2886500  50.3846825  94.8306006  62.9248747
  51.7375112  94.1603283  63.0365389  61.1290352 103.4070273  80.0584956
  60.2417131 103.0696195  80.1811355  61.6988903 102.6753304  80.2953721
  42.7819499  99.7394364  73.3828007  43.4690539  99.4256095  72.7949023
  42.6267628 100.6435729  73.1095259  47.5854221  94.6284561  77.8113031
  47.5012410  94.0210231  77.0763441  46.7636928  95.1193579  77.8122527
  54.6591505 108.0671725  77.0246199  54.5861677 108.8726697  77.5365504
  54.2168898 108.2663691  76.1994220  54.4481285 107.3043495  70.5349021
  53.6648807 107.8465175  70.6287245  55.1474030 107.8217475  70.9343262
  57.7577935  93.1138125  73.1783226  58.2546635  92.3608087  72.8584296
  56.9864916  93.1502441  72.6126435  65.6107692  98.8178490  74.8201518
  65.5997569  99.7003206  74.4495451  64.7425072  98.4650041  74.6256055
  57.1190189 107.9658559  79.1804358  57.8318161 108.6006024  79.1080259
  56.6280217 108.0622425  78.3644360  58.8407716 101.8709812  70.7521649
  57.9063994 101.9911274  70.5826354  59.0184384 100.9682279  70.4881659
  54.3412904  95.2555508  72.9054911  53.9710691  94.7026548  73.5935816
  54.8371996  94.6513641  72.3529911  62.2280267  97.7127131  71.2871684
  62.6940719  98.5455123  71.2131986  62.6787768  97.2472113  71.9916942
  52.1702102 105.7153003  80.0009929  52.8711562 106.3489486  80.1539323
  51.6997217 106.0567734  79.2405568  60.2956498 104.0570952  68.2857836
  60.5716342 103.9427547  69.1951710  59.4260997 103.6588437  68.2470009
  60.1996930  90.0807718  75.3262585  59.2860010  90.3111945  75.4944792
  60.6290031  90.1646162  76.1776617  59.9703388  98.2697610  77.8262479
  59.3174839  98.5173517  77.1714932  60.3483768  97.4561748  77.4924956
  56.9310562 108.3057303  71.9290649  57.1132957 107.4878959  72.3918402
  57.7543548 108.5224995  71.4915539  57.2652728 107.2325488  69.1905698
  57.7940494 106.7217943  68.5775860  57.5280947 106.9168019  70.0551231
  56.0190961  99.0117421  84.3128516  55.3431598  98.9111550  84.9830891
  56.8418595  98.8556635  84.7764513  47.7669820 105.2489358  76.9341031
  48.3523257 104.5033046  77.0668935  47.5694659 105.5593314  77.8177695
  50.6208476 108.2840605  71.9503474  49.9518851 108.7686733  71.4667514
  50.4821345 108.5309825  72.8646852  42.3587475  97.8194958  75.6545474
  42.3971575  97.2858549  76.4482592  41.8527768  97.2930163  75.0356452
  54.7613744 110.3184349  78.5486132  55.3132052 110.4815970  79.3135217
  55.1019938 110.9088786  77.8766157  49.7378237  92.6659498  79.1508017
  49.8019564  93.5274329  78.7385414  49.6745358  92.0533500  78.4180375
  49.2130510  94.7382631  82.7981051  49.8402549  94.3559708  83.4118575
  48.3558429  94.5196833  83.1636743  59.6124618 105.1445606  84.4034786
  60.1564522 105.7575564  83.9089741  59.0311463 105.7025184  84.9201799
  45.9896053  96.5459060  68.7299406  46.2849494  95.6369738  68.6766459
  45.0884088  96.5246799  68.4080408  57.8982131 108.2666324  75.5349814
  57.7733271 107.4656064  75.0260760  58.5561223 108.7612517  75.0463784
  49.5190300  94.6215057  74.7126954  48.7976885  95.2351024  74.5734428
  50.3083555  95.1572821  74.6343600  59.9617040 106.0675344  77.1629364
  59.0147375 105.9480695  77.0907691  60.3099813 105.1797842  77.2455626
  52.3216613  91.9569483  80.9867606  52.8451015  92.2031780  81.7493915
  52.1028946  92.7889518  80.5670743  47.7183894  94.2273158  68.8538731
  47.3896600  93.3470537  68.6713837  48.0723265  94.1720826  69.7415120
  56.9663473 105.8628060  73.3633716  56.8188436 104.9344768  73.5441287
  57.7916967 105.8848151  72.8790792  50.8325717  94.5146127  69.2214209
  51.1721790  95.0432049  68.4992817  51.2797838  94.8526534  69.9972775
  60.5697595 106.6856619  74.4498589  61.4944142 106.4799480  74.3123040
  60.4012898 106.4373020  75.3587931  53.5269158  92.8983178  78.6717277
  53.1865979  92.0990991  79.0737957  52.8208165  93.1984889  78.0994110
  54.1785630  89.9832491  77.1244600  55.0011699  89.5092969  77.0023490
  54.4223694  90.7622974  77.6243286  52.8193865  93.0120749  67.4207501
  53.5402227  93.3902002  66.9171218  52.1959169  93.7309626  67.5242479
  56.9624987  93.7165898  68.3565834  57.1788602  94.5990536  68.0554662
  56.4819055  93.3252111  67.6271476  51.7024209  96.6751611  74.9336578
  51.5568790  96.9891914  75.8260860  51.2249412  97.2936512  74.3807477
  53.5620592  93.6654159  74.9817468  53.5482160  92.7695253  74.6449766
  54.2793020  93.6724823  75.6155754  55.4146722  94.0991499  77.0270595
  55.1564500  95.0208570  77.0254926  54.8831763  93.7021934  77.7171059
  60.3592911 107.2042287  69.8060681  60.5329789 106.6388709  69.0534533
  60.8521802 108.0043181  69.6240171  46.1769871  99.2156956  77.8724239
  45.6323339  99.9916764  78.0044514  47.0549221  99.5627760  77.7143361
  52.9657488  92.5468540  70.2505038  53.0873399  91.6185186  70.4495926
  52.6759530  92.5607225  69.3383353  55.8348678  90.2323450  73.3871758
  55.8570375  90.2962783  72.4323737  56.2516737  89.3927959  73.5812264
  66.2132302  99.9678710  71.4250980  66.6563448  99.2186035  71.0270104
  65.3358813  99.9588846  71.0424712  61.3468084 106.5209051  66.9057579
  62.0418988 107.1415744  67.1244894  61.6891234 105.6704402  67.1809957
  46.9635893  98.3426852  80.7654396  46.2217629  98.4909487  81.3519027
  46.6428637  98.6035118  79.9021146  63.2459507 103.9708756  68.4344910
  63.7710831 104.3096029  67.7094230  63.1581859 103.0355772  68.2508044
  54.9079555 107.8842830  80.5634786  55.2166682 107.6391977  81.4357486
  55.7055038 108.0889469  80.0753657  54.9300168 110.0380740  72.7940163
  54.4905158 109.5457118  73.4873020  55.6808284 109.4953707  72.5532238
  47.4092507 106.2292281  72.7964791  48.2350526 105.9296053  72.4163435
  47.0586559 105.4599903  73.2454580  52.3774040 105.5818749  74.8662465
  51.7554049 104.9189454  74.5664692  53.0478907 105.6079881  74.1836112
  45.6101112 104.1478607  73.7553725  44.7733020 103.7200781  73.5737726
  45.5824757 104.3411050  74.6924516  52.4498567  94.0600537  84.4594971
  52.4986723  94.9362660  84.0772740  52.9921081  93.5177930  83.8866614
  62.9353413 104.6041660  83.7396108  62.1448957 104.5865799  83.2000607
  62.6986767 105.1429954  84.4945144  63.0551288 101.4534127  81.0528836
  63.1049293 101.2884134  81.9944359  62.9465211 100.5861386  80.6626717
  51.9387547 104.1322672  68.3420925  52.0875667 104.8158137  67.6887598
  52.7453990 104.1127762  68.8570381  60.3455050  97.4365055  82.3688143
  61.2464913  97.2971519  82.0772141  60.4203025  97.6019509  83.3086320
  54.6797856  94.8131909  81.2141329  53.8101165  95.1065475  80.9423918
  54.9157336  95.3972354  81.9348593  64.5569485 103.8731068  81.2970858
  64.2654293 104.2361049  82.1334319  63.9441616 103.1598076  81.1184190
  65.7565167 101.4383948  73.8173428  66.5912058 101.8773752  73.9810988
  65.8924296 100.9622601  72.9981674  62.8056673  98.9963683  79.7650916
  63.2810795  99.1891329  78.9569767  61.8822238  99.0522868  79.5194299
  49.6940180 100.1587850  69.3481994  49.4486222  99.2550180  69.5462204
  49.8636094 100.1605000  68.4061472  57.3836889  91.0311526  78.7306750
  57.9018833  91.7672553  78.4053238  57.0292022  91.3375520  79.5653509
  48.9635827  95.8916207  66.8468156  48.2705072  95.9660562  66.1908191
  48.7187579  95.1276551  67.3689672  55.4382952 106.6270803  65.8132673
  54.8656919 107.2460990  65.3603144  56.0115746 107.1770164  66.3472594
  61.5058342  95.8729443  77.9979221  62.4575765  95.9727540  78.0191445
  61.3361792  95.0807711  78.5077306  59.5272721  92.9585026  78.1838622
  58.9322654  93.2390039  77.4885111  59.2422418  93.4478927  78.9555363
  58.6580212 106.9107953  66.9441255  59.5910885 106.8453514  67.1474130
  58.5703425 107.7464220  66.4855787  61.2868229 106.2273823  63.9045202
  61.2081860 105.8933687  64.7980960  62.1077895 106.7195591  63.9036675
  63.9846420  99.0935562  77.1121521  63.9522740  98.1551563  77.2981205
  64.5947043  99.1719599  76.3787346  55.8229751  97.9631615  63.1548725
  56.7688855  97.8337824  63.2237143  55.4443996  97.2246277  63.6318153
  64.1340908  95.8846606  77.1579804  63.6179957  95.1005062  76.9709733
  65.0180857  95.5565322  77.3226324  69.8022970 100.1551569  76.2527558
  70.5326358  99.8936857  76.8135261  69.1929915  99.4180291  76.2929626
  67.8838267  98.2959432  76.8502009  67.1571430  98.1615397  76.2418501
  67.4685554  98.6036260  77.6558727  55.7068443 102.0149362  84.6149382
  56.6271453 102.1927961  84.8089429  55.6718026 101.0705407  84.4629081
  54.0072668  95.8881592  63.0903610  53.1004123  95.5914705  63.1666324
  54.2848649  95.5911410  62.2237897  44.9250608  97.2087955  73.5402657
  44.6053393  96.3553263  73.2477031  44.3784036  97.4236533  74.2960624
  48.7030516  99.9250396  77.2572163  48.9216525 100.8567504  77.2760197
  49.1156290  99.5658371  78.0426967  53.5758381  95.4983602  86.6474912
  53.4755108  96.4477959  86.5787003  53.3579923  95.1701841  85.7750982
  52.7771452  92.7468527  63.2315589  53.6390616  93.0723425  63.4911407
  52.9621797  91.9600023  62.7188655  44.7938868 100.8290867  75.5095778
  44.1002340 100.4144819  74.9965733  45.5411859 100.8711403  74.9129197
  60.9304089  91.6197053  70.3750812  60.3502758  92.2781858  69.9928865
  60.6640022  90.7974398  69.9638230  59.3807655  91.0202111  72.5772133
  59.8807434  91.1318646  71.7686452  60.0243263  90.7163164  73.2172941
  53.4389651  98.9280741  85.4639974  52.9556733  99.7281101  85.6703863
  53.5250590  98.9388686  84.5107418  46.7075611 100.7609120  73.3861793
  46.6846299 100.8596808  72.4343676  47.0176247 101.6074271  73.7078959
  49.3662989 102.8185275  77.5008408  50.3206242 102.7869218  77.4338339
  49.1675512 102.3575899  78.3158633  49.9562371 101.3886392  80.0679205
  50.7755260 101.8830470  80.0914042  50.2299178 100.4718360  80.0396773
  59.7128967  93.7797144  69.4307161  58.8254822  94.0646794  69.2127355
  60.1282956  93.6190907  68.5834438  63.0643503  93.8043665  73.1461500
  63.8403893  94.2940117  73.4186117  62.3391637  94.2301719  73.6033369
  65.5016062  94.5171284  74.2035441  66.0960552  94.2767020  73.4928749
  65.5742645  93.7978415  74.8308977  47.7213217 108.3604895  74.5178605
  47.5867685 107.6005296  73.9516603  47.3045280 109.0845795  74.0507394
  58.8572180 103.5441819  63.5255181  59.5608030 103.7491821  64.1412836
  58.1334829 104.1118580  63.7904264  59.6869991  99.2951680  69.6457451
  59.6305192  99.7520231  68.8065083  60.2398333  98.5342364  69.4680294
  63.4974797  95.0841412  70.4707570  63.2411731  94.6838047  71.3015778
  62.8727665  95.7985206  70.3457710  67.8087134  97.8237485  72.9778862
  67.2486692  97.8930674  73.7510424  67.2030638  97.6478470  72.2578358
  50.8782343 109.2574212  74.7297048  50.7614727 110.2019644  74.6275738
  50.0574789 108.9547774  75.1182847  60.7658878 103.9824348  65.5753641
  61.6004482 103.5505546  65.3931116  60.6043221 103.8106361  66.5030535
  60.4204770 100.4856461  66.9409980  60.3653574 100.3200732  65.9998424
  59.7950825 101.1932494  67.0972170  45.2097285  95.7224525  80.7671402
  45.8556149  95.2123479  81.2558627  45.0014436  96.4593207  81.3414828
  57.7350677 102.7905373  86.2663543  58.6041837 102.9646025  85.9050178
  57.2557429 103.6099790  86.1439272  51.9036857 109.9102474  77.9452976
  52.8064104 109.9426084  78.2619471  51.6774227 108.9802925  77.9599312
  53.6590459 108.6633460  74.6063055  52.7086090 108.6635322  74.4927427
  53.9622946 107.9166195  74.0899090  49.5494776  92.8692142  84.8646417
  50.4126237  92.5128947  85.0749741  48.9760187  92.5306037  85.5521821
  69.3943153 114.4993999  75.6708818  70.0321563 114.3800746  74.9672158
  69.2763996 115.4474843  75.7296770  66.2032859 114.4521427  75.6070342
  65.8651371 114.3362492  74.7190877  67.0722627 114.0512592  75.5871348
  62.0619675 116.3056903  71.5967233  61.4984540 116.2146840  70.8283521
  61.9472070 115.4856808  72.0769726  66.6852642 115.6056279  81.5656548
  66.6741283 115.2109077  80.6937051  66.8473282 114.8722351  82.1590319
  59.6084107 117.8008095  74.4351454  60.4005399 117.4598920  74.0197753
  59.8480757 117.9103070  75.3553607  67.6419234 119.9727871  66.9081698
  66.9907213 120.5581951  66.5215712  68.4363596 120.5034066  66.9676736
  61.5674861 117.0617008  67.3068832  62.3405737 116.5145995  67.1681708
  61.9200260 117.9261258  67.5183294  63.4059903 118.3893390  80.5135732
  63.1149769 119.2939021  80.3982398  64.0416888 118.4309918  81.2279801
  64.3316110 115.7670239  77.1037091  64.9279682 115.5426261  76.3894054
  64.3891082 115.0254984  77.7062539  63.9041139 113.2209674  64.9387282
  64.1566659 112.6991196  64.1770745  62.9665698 113.0575820  65.0413966
  68.9484421 112.2245453  72.7462026  69.7347511 111.8064876  72.3952443
  69.2123126 113.1291545  72.9143674  69.1194499 117.6618303  67.4450682
  68.4840332 117.7352930  68.1571587  68.7891905 118.2511902  66.7669762
  74.3492848 112.1620686  73.6495004  75.0818020 111.5919903  73.8832834
  73.5932204 111.7742286  74.0901510  63.6237427 115.1237780  67.1411657
  63.5073685 114.4482684  67.8092742  63.7339687 114.6370154  66.3243810
  65.9668968 114.5847927  70.8458347  65.6027175 114.0578548  71.5571268
  66.8236084 114.1946396  70.6724832  71.8718269 105.8742260  78.1089613
  71.5401594 106.7437671  77.8850828  71.2763882 105.5578544  78.7883643
  65.6074455 109.6137827  65.8419695  65.7748858 110.4818063  66.2090166
  65.4171624 109.7765109  64.9180984  68.3649788 118.0754806  77.5085525
  68.0650511 118.9779845  77.4001333  68.0200848 117.8086989  78.3606678
  61.8162270 114.5268603  73.5422230  60.8912766 114.3944817  73.7499922
  62.0646683 115.3062822  74.0392172  71.7646932 110.5937346  75.1882963
  70.8563809 110.5252755  74.8941724  71.7134528 111.0709291  76.0164788
  65.5863676 112.0695485  66.8266362  65.4663301 112.5152535  67.6651842
  64.8916264 112.4180802  66.2679900  59.1771081 114.1701876  74.3766019
  59.3063462 114.4236355  75.2905431  58.4968532 114.7629584  74.0570674
  63.3470568 124.8399126  70.4756493  63.2694598 125.7906951  70.5544974
  62.7432212 124.4944999  71.1331419  65.8387798 112.0126992  83.1317860
  65.0621132 112.5720912  83.1220725  66.4778361 112.4983775  83.6532730
  73.6308579 108.7953785  76.9660837  72.9882959 109.0886318  76.3200631
  73.1263507 108.6806705  77.7714033  71.2848742 112.5416958  67.6546696
  72.1966598 112.7744345  67.4794393  70.7758389 113.1254002  67.0921775
  64.0934170 114.8212445  82.6935827  64.8348855 115.3597489  82.4170651
  63.3871156 115.4478734  82.8507379  69.5689510 116.9641586  81.2907988
  69.9772866 116.5223996  80.5462621  68.8466771 116.3894213  81.5442181
  65.9220580 111.9014192  78.6641545  66.7681775 112.3253606  78.8076194
  65.8619218 111.2447817  79.3580109  69.8918325 117.5242776  75.0460277
  69.2627187 117.6888490  74.3436345  69.5043987 117.9384386  75.8171241
  73.7707556 118.4597214  72.4004641  73.0858595 118.8396115  71.8501674
  73.8551406 119.0692541  73.1336589  69.0720025 109.5618561  80.3222719
  68.8280957 110.3160621  79.7856995  69.3479956 109.9403908  81.1569966
  71.0258488 116.1057173  78.9999985  71.2375383 116.7488933  78.3234366
  70.9788236 115.2719490  78.5321915  68.6284717 108.7174994  75.9036557
  67.7669196 109.0156247  76.1953294  68.6547152 108.9345393  74.9717589
  65.4446286 117.2617184  72.3110362  65.9084632 117.5404887  71.5214985
  65.1803085 116.3600629  72.1283453  62.3370367 116.8088666  75.2490126
  62.9071725 117.2375934  74.6107610  62.9278479 116.5271251  75.9474311
  64.3815172 113.3840337  69.1199928  65.0839216 113.8361380  69.5873854
  64.0495801 112.7424156  69.7479821  62.8295534 111.9752093  83.4951137
  62.1994195 112.6568374  83.7286534  62.7231622 111.8635175  82.5504275
  58.1240506 111.6423889  74.4217061  57.3339560 111.8981418  73.9457172
  58.6151754 112.4572227  74.5269102  72.1404316 118.9829129  77.1722342
  72.9621760 118.5809316  76.8905024  72.1366719 118.8797363  78.1238458
  60.0755252 112.0068469  71.3800538  59.2786415 112.1187163  71.8984034
  59.8480844 112.3455121  70.5141428  65.9060919 118.5313172  79.3283053
  65.9705352 118.9933579  80.1641224  65.1971843 117.9010537  79.4565362
  56.4078209 111.8954380  76.8532052  56.6586248 112.7801390  77.1189628
  56.9437758 111.7158981  76.0807144  80.2310309 115.3267877  73.5207313
  79.4774017 114.7575275  73.3651318  80.3657850 115.2930541  74.4677948
  65.6208937 120.1981279  69.1962033  65.4854612 121.0432815  69.6246881
  66.1618750 120.4000557  68.4327967  62.1076277 106.2772859  85.8576388
  61.7143222 105.7239058  86.5324032  62.9242417 106.5883438  86.2482906
  59.0738334 117.7156717  69.7689958  59.5862855 118.5099968  69.9195523
  59.7261047 117.0183008  69.7023559  60.8833219 120.8322474  71.8512711
  61.0599848 121.7540438  71.6633695  61.6790053 120.5180893  72.2807091
  65.0244238 107.6930738  83.4496645  65.7653951 108.2937891  83.3701107
  65.2562161 106.9508376  82.8914687  60.1685576 112.8787105  81.7274874
  60.0539091 111.9772363  82.0281973  59.3130093 113.1250802  81.3759691
  67.2477413 120.8204846  83.3262375  66.8041268 120.0341224  83.0083279
  67.9094627 121.0083996  82.6606266  62.0064535 122.3500647  77.8523053
  62.5571960 122.2217711  77.0800047  61.1676011 122.6495536  77.5017946
  69.3458652 121.1007646  81.3543776  69.3277127 121.9216527  80.8624045
  70.2678572 120.9761721  81.5793917  65.8031706 118.6151775  82.1967285
  66.3360042 117.8540063  81.9666593  65.2745787 118.3225427  82.9391439
  68.9701401 103.7211841  77.7260926  68.6265670 104.6113483  77.6500037
  69.3380363 103.5313499  76.8630511  57.0387251 116.0445372  70.5449528
  57.8762473 116.4542380  70.3283236  57.2165519 115.1044814  70.5149722
  68.9351683 113.7120452  66.2333361  68.4198307 114.4825057  66.4721749
  68.6628992 113.0385588  66.8566423  66.5198794 108.5570153  71.2918600
  65.6640391 108.1677003  71.1124238  66.9325746 108.6362114  70.4318385
  68.0497941 106.0916496  75.6910160  67.5462737 106.0546631  74.8777965
  68.3428548 107.0009239  75.7506816  64.2940827 106.1755226  74.6976341
  65.1593824 105.9798035  74.3382231  64.3618336 105.9465578  75.6245698
  73.9085957 116.4652807  68.1686535  73.1315400 116.1263966  67.7241697
  74.5877438 116.4705430  67.4941500  68.7237987 111.5847544  68.0593143
  68.4188122 111.8993694  68.9103286  69.6768429 111.6628964  68.1020476
  67.1684418 117.7437768  69.7086097  66.6405780 117.0090527  69.3959334
  66.6671921 118.5212444  69.4626065  72.1477264 115.9386788  74.8253143
  71.4900939 116.6286050  74.9133271  72.9517664 116.3283220  75.1687129
  61.9003146 108.4057434  72.0692708  62.4746898 108.1832615  71.3365901
  62.4874128 108.4746128  72.8221309  70.9582723 114.2931161  72.8757085
  71.4714605 114.9261153  73.3778794  71.6083947 113.6932356  72.5100445
  62.2272733 110.4361895  66.0888593  61.3910045 110.7736582  66.4097868
  62.0877503 110.3010875  65.1515730  64.2025814 105.2798683  70.7967778
  63.5490226 104.9647700  70.1724392  64.1606288 104.6574423  71.5227600
  65.3137019 115.5617978  62.7121070  64.4064080 115.3307231  62.9112219
  65.8108051 114.7655597  62.8995051  68.2205097 124.2715485  65.6317756
  67.5466796 124.5747182  66.2402714  68.6070919 125.0744565  65.2823213
  67.4363554 111.7680616  75.1215425  66.5186115 111.9895563  74.9637113
  67.8523698 111.8426927  74.2627132  68.2198602 113.1672032  70.2518105
  68.9670421 113.6793429  69.9425227  68.4890191 112.8456085  71.1122499
  66.4925252 115.6630573  67.2345060  65.5836471 115.3789606  67.3317529
  66.5220336 116.0829651  66.3748367  71.7244519 119.2737162  71.0036227
  71.2706847 118.4328072  71.0601418  71.0938486 119.9098561  71.3411007
  70.6677439 110.2029148  72.2336895  69.9300196 109.6906535  72.5647137
  70.9204213 109.7629530  71.4220172  70.1677459 121.1113659  71.9386045
  70.4600433 121.6718716  71.2198411  70.6776079 121.4042220  72.6939204
  70.7689066 102.9805400  72.8278664  71.0747943 102.1202764  72.5404579
  71.4941671 103.5723021  72.6277658  57.0613422 113.3836087  71.2160262
  56.8637822 112.7905448  70.4911328  56.5060086 113.0788297  71.9336201
  65.0410146 113.2759193  73.3354855  65.0958756 112.3233030  73.2597332
  64.2301348 113.4318633  73.8196153  66.1901340 117.2039316  64.5733138
  65.7520770 116.4875175  64.1138776  66.9311781 117.4315431  64.0118230
  62.9802506 111.8936253  71.0945234  62.1670371 112.1930424  71.5010426
  63.4761500 111.4991942  71.8119716  65.1311084 121.8894010  73.0279499
  65.0887263 122.1154856  72.0988031  66.0473783 121.6557385  73.1765300
  68.5776718 112.3578078  79.9260128  68.9326105 112.5849551  80.7854594
  69.2248849 112.6896454  79.3037383  74.3074455 115.4796514  70.6309457
  74.1692353 115.6698110  69.7030646  73.9510673 116.2415896  71.0877508
  62.4716581 109.4654609  76.7106469  63.1115960 109.3243368  76.0129432
  61.6394111 109.1789122  76.3345071  74.3343834 117.5473041  75.6420728
  74.7680341 117.4548330  76.4903782  75.0475415 117.5230541  75.0040744
  63.2476885 118.7657039  72.8241461  64.0417483 118.2707359  72.6224036
  62.5368577 118.2374902  72.4609167  68.0671729 121.1475135  77.1753829
  68.1208751 121.7166071  77.9431545  67.1986510 121.3177020  76.8107866
  59.5559648 112.9100121  68.9001214  58.6257236 112.8484576  69.1171176
  59.6517120 112.3876074  68.1037855  59.4745197 109.4354934  71.4879456
  59.7352014 110.3500267  71.3788616  60.2962369 108.9679376  71.6376068
  60.9470122 110.8492691  78.6578280  61.6193176 110.6410053  78.0090929
  60.1199909 110.6514777  78.2183512  75.1959384 117.5896741  78.1753614
  75.3895274 118.4942552  78.4212889  75.0960002 117.1304160  79.0092199
  66.8495694 107.4754632  80.6743941  66.2023610 108.1744581  80.5808417
  67.6196710 107.9090776  81.0420189  70.2574492 117.7403484  83.7494494
  70.1059999 117.5114036  82.8324578  70.2479172 118.6974085  83.7625839
  67.0259829 115.3135397  78.7340761  67.9551889 115.4646556  78.5609728
  66.6050859 115.4019417  77.8789407  65.8248161 119.3386061  76.5039298
  65.6859246 118.9704846  77.3765237  65.0362757 119.8533701  76.3323256
  66.4196313 124.4395158  67.8464835  66.5948068 123.9683201  68.6610458
  65.7329101 125.0660924  68.0746096  67.3753376 118.7167664  73.8928136
  67.0403208 118.6768434  74.7885786  66.8757321 118.0512380  73.4198546
  61.3497620 114.1235294  79.4180717  61.2117418 113.3915533  80.0192256
  62.2602543 114.0344194  79.1364905  70.3112567 116.0623698  64.1665196
  69.6941738 115.3370526  64.0698249  69.8429056 116.8233058  63.8232270
  63.9779920 113.8355253  78.9064397  64.6879539 113.1948445  78.8651015
  63.9349229 114.0868148  79.8290578  71.9666699 120.7722606  81.8270976
  71.9079245 120.0881827  81.1601559  72.3686217 121.5141596  81.3751602
  62.6908854 110.8220471  80.7260036  62.1546211 110.3711209  81.3781633
  62.1025563 110.9566380  79.9830501  62.1011113 110.2809122  63.2886500
  61.2240580 110.1597923  62.9248747  62.5768866 109.4895201  63.0365389
  71.9684106 118.7362190  80.0584956  71.0810885 118.3988112  80.1811355
  72.5382657 118.0045222  80.2953721  53.6213253 115.0686282  73.3828007
  54.3084293 114.7548012  72.7949023  53.4661382 115.9727647  73.1095259
  58.4247976 109.9576479  77.8113031  58.3406164 109.3502148  77.0763441
  57.6030682 110.4485497  77.8122527  65.4985260 123.3963643  77.0246199
  65.4255431 124.2018614  77.5365504  65.0562653 123.5955609  76.1994220
  65.2875039 122.6335413  70.5349021  64.5042561 123.1757093  70.6287245
  65.9867785 123.1509392  70.9343262  68.5971689 108.4430042  73.1783226
  69.0940389 107.6900005  72.8584296  67.8258671 108.4794359  72.6126435
  76.4501447 114.1470408  74.8201518  76.4391323 115.0295123  74.4495451
  75.5818826 113.7941959  74.6256055  67.9583943 123.2950477  79.1804358
  68.6711915 123.9297942  79.1080259  67.4673972 123.3914343  78.3644360
  69.6801470 117.2001729  70.7521649  68.7457749 117.3203192  70.5826354
  69.8578139 116.2974196  70.4881659  65.1806658 110.5847425  72.9054911
  64.8104446 110.0318466  73.5935816  65.6765751 109.9805559  72.3529911
  73.0674022 113.0419049  71.2871684  73.5334474 113.8747040  71.2131986
  73.5181522 112.5764030  71.9916942  63.0095857 121.0444920  80.0009929
  63.7105316 121.6781403  80.1539323  62.5390972 121.3859652  79.2405568
  71.1350253 119.3862870  68.2857836  71.4110097 119.2719465  69.1951710
  70.2654751 118.9880355  68.2470009  71.0390684 105.4099636  75.3262585
  70.1253764 105.6403863  75.4944792  71.4683786 105.4938080  76.1776617
  70.8097143 113.5989528  77.8262479  70.1568593 113.8465435  77.1714932
  71.1877523 112.7853666  77.4924956  67.7704317 123.6349221  71.9290649
  67.9526711 122.8170877  72.3918402  68.5937303 123.8516913  71.4915539
  68.1046482 122.5617406  69.1905698  68.6334249 122.0509861  68.5775860
  68.3674702 122.2459936  70.0551231  66.8584716 114.3409339  84.3128516
  66.1825353 114.2403468  84.9830891  67.6812350 114.1848553  84.7764513
  58.6063575 120.5781275  76.9341031  59.1917012 119.8324963  77.0668935
  58.4088413 120.8885232  77.8177695  61.4602230 123.6132523  71.9503474
  60.7912605 124.0978650  71.4667514  61.3215100 123.8601743  72.8646852
  53.1981230 113.1486876  75.6545474  53.2365329 112.6150466  76.4482592
  52.6921522 112.6222081  75.0356452  65.6007499 125.6476266  78.5486132
  66.1525807 125.8107888  79.3135217  65.9413692 126.2380704  77.8766157
  60.5771992 107.9951416  79.1508017  60.6413318 108.8566247  78.7385414
  60.5139112 107.3825418  78.4180375  60.0524264 110.0674549  82.7981051
  60.6796303 109.6851626  83.4118575  59.1952183 109.8488751  83.1636743
  70.4518373 120.4737524  84.4034786  70.9958277 121.0867482  83.9089741
  69.8705218 121.0317102  84.9201799  56.8289807 111.8750978  68.7299406
  57.1243248 110.9661656  68.6766459  55.9277843 111.8538717  68.4080408
  68.7375886 123.5958242  75.5349814  68.6127025 122.7947982  75.0260760
  69.3954977 124.0904435  75.0463784  60.3584054 109.9506974  74.7126954
  59.6370640 110.5642942  74.5734428  61.1477310 110.4864739  74.6343600
  70.8010794 121.3967262  77.1629364  69.8541130 121.2772613  77.0907691
  71.1493567 120.5089760  77.2455626  63.1610368 107.2861401  80.9867606
  63.6844770 107.5323697  81.7493915  62.9422701 108.1181436  80.5670743
  58.5577649 109.5565075  68.8538731  58.2290355 108.6762454  68.6713837
  58.9117019 109.5012744  69.7415120  67.8057228 121.1919978  73.3633716
  67.6582190 120.2636685  73.5441287  68.6310721 121.2140069  72.8790792
  61.6719472 109.8438045  69.2214209  62.0115544 110.3723966  68.4992817
  62.1191592 110.1818451  69.9972775  71.4091349 122.0148537  74.4498589
  72.3337897 121.8091398  74.3123040  71.2406653 121.7664938  75.3587931
  64.3662913 108.2275096  78.6717277  64.0259733 107.4282909  79.0737957
  63.6601919 108.5276807  78.0994110  65.0179385 105.3124408  77.1244600
  65.8405454 104.8384886  77.0023490  65.2617448 106.0914892  77.6243286
  63.6587619 108.3412667  67.4207501  64.3795982 108.7193920  66.9171218
  63.0352923 109.0601544  67.5242479  67.8018742 109.0457816  68.3565834
  68.0182356 109.9282454  68.0554662  67.3212809 108.6544029  67.6271476
  62.5417963 112.0043529  74.9336578  62.3962544 112.3183832  75.8260860
  62.0643167 112.6228429  74.3807477  64.4014346 108.9946077  74.9817468
  64.3875915 108.0987170  74.6449766  65.1186774 109.0016741  75.6155754
  66.2540477 109.4283417  77.0270595  65.9958255 110.3500488  77.0254926
  65.7225517 109.0313852  77.7171059  71.1986666 122.5334204  69.8060681
  71.3723543 121.9680627  69.0534533  71.6915557 123.3335099  69.6240171
  57.0163625 114.5448873  77.8724239  56.4717094 115.3208681  78.0044514
  57.8942975 114.8919678  77.7143361  63.8051242 107.8760457  70.2505038
  63.9267153 106.9477103  70.4495926  63.5153284 107.8899143  69.3383353
  66.6742433 105.5615368  73.3871758  66.6964129 105.6254701  72.4323737
  67.0910492 104.7219876  73.5812264  77.0526057 115.2970627  71.4250980
  77.4957203 114.5477952  71.0270104  76.1752567 115.2880764  71.0424712
  72.1861838 121.8500969  66.9057579  72.8812743 122.4707661  67.1244894
  72.5284988 120.9996320  67.1809957  57.8029647 113.6718770  80.7654396
  57.0611383 113.8201405  81.3519027  57.4822392 113.9327035  79.9021146
  74.0853261 119.3000674  68.4344910  74.6104585 119.6387947  67.7094230
  73.9975614 118.3647689  68.2508044  65.7473310 123.2134748  80.5634786
  66.0560436 122.9683895  81.4357486  66.5448792 123.4181386  80.0753657
  65.7693922 125.3672657  72.7940163  65.3298912 124.8749036  73.4873020
  66.5202039 124.8245625  72.5532238  58.2486261 121.5584198  72.7964791
  59.0744281 121.2587970  72.4163435  57.8980313 120.7891821  73.2454580
  63.2167794 120.9110667  74.8662465  62.5947803 120.2481372  74.5664692
  63.8872661 120.9371798  74.1836112  56.4494866 119.4770525  73.7553725
  55.6126774 119.0492699  73.5737726  56.4218511 119.6702968  74.6924516
  63.2892322 109.3892455  84.4594971  63.3380477 110.2654577  84.0772740
  63.8314836 108.8469848  83.8866614  73.7747167 119.9333578  83.7396108
  72.9842711 119.9157717  83.2000607  73.5380522 120.4721872  84.4945144
  73.8945042 116.7826044  81.0528836  73.9443047 116.6176052  81.9944359
  73.7858966 115.9153303  80.6626717  62.7781301 119.4614590  68.3420925
  62.9269421 120.1450054  67.6887598  63.5847745 119.4419680  68.8570381
  71.1848805 112.7656972  82.3688143  72.0858668 112.6263437  82.0772141
  71.2596779 112.9311427  83.3086320  65.5191610 110.1423827  81.2141329
  64.6494920 110.4357393  80.9423918  65.7551090 110.7264272  81.9348593
  75.3963239 119.2022986  81.2970858  75.1048048 119.5652966  82.1334319
  74.7835371 118.4889994  81.1184190  76.5958922 116.7675865  73.8173428
  77.4305813 117.2065670  73.9810988  76.7318050 116.2914519  72.9981674
  73.6450427 114.3255600  79.7650916  74.1204549 114.5183247  78.9569767
  72.7215993 114.3814786  79.5194299  60.5333934 115.4879768  69.3481994
  60.2879976 114.5842098  69.5462204  60.7029849 115.4896918  68.4061472
  68.2230644 106.3603444  78.7306750  68.7412588 107.0964471  78.4053238
  67.8685777 106.6667437  79.5653509  59.8029582 111.2208125  66.8468156
  59.1098827 111.2952480  66.1908191  59.5581334 110.4568469  67.3689672
  68.4743238 102.7803726  74.2507646  68.7544992 102.1126915  74.8768073
  69.2593845 102.9732822  73.7382310  66.2776707 121.9562720  65.8132673
  65.7050674 122.5752907  65.3603144  66.8509500 122.5062082  66.3472594
  72.3452096 111.2021360  77.9979221  73.2969519 111.3019458  78.0191445
  72.1755547 110.4099629  78.5077306  70.3666476 108.2876944  78.1838622
  69.7716408 108.5681956  77.4885111  70.0816173 108.7770845  78.9555363
  69.4973966 122.2399870  66.9441255  70.4304640 122.1745432  67.1474130
  69.4097179 123.0756137  66.4855787  72.1261983 121.5565741  63.9045202
  72.0475615 121.2225604  64.7980960  72.9471650 122.0487509  63.9036675
  74.8240174 114.4227480  77.1121521  74.7916494 113.4843481  77.2981205
  75.4340798 114.5011517  76.3787346  66.6623505 113.2923533  63.1548725
  67.6082610 113.1629741  63.2237143  66.2837750 112.5538195  63.6318153
  74.9734663 111.2138524  77.1579804  74.4573711 110.4296980  76.9709733
  75.8574611 110.8857240  77.3226324  72.6345390 104.9579539  73.1175617
  72.4370211 104.6494627  74.0018949  73.2445095 105.6841178  73.2473547
  80.6416724 115.4843487  76.2527558  81.3720113 115.2228775  76.8135261
  80.0323670 114.7472209  76.2929626  78.7232021 113.6251350  76.8502009
  77.9965185 113.4907314  76.2418501  78.3079308 113.9328178  77.6558727
  66.5462198 117.3441279  84.6149382  67.4665207 117.5219878  84.8089429
  66.5111781 116.3997325  84.4629081  64.8466422 111.2173509  63.0903610
  63.9397878 110.9206622  63.1666324  65.1242403 110.9203328  62.2237897
  55.7644363 112.5379873  73.5402657  55.4447147 111.6845181  73.2477031
  55.2177791 112.7528451  74.2960624  59.5424270 115.2542314  77.2572163
  59.7610280 116.1859422  77.2760197  59.9550044 114.8950288  78.0426967
  66.4628488 105.7610399  69.2447852  65.6529216 105.4157484  69.6203098
  67.1512905 105.4517943  69.8335463  68.3919036 104.8388446  70.8672148
  68.9450075 105.2583899  71.5262171  68.6289123 103.9124194  70.9095104
  64.4152136 110.8275520  86.6474912  64.3148862 111.7769877  86.5787003
  64.1973678 110.4993759  85.7750982  63.6165207 108.0760445  63.2315589
  64.4784371 108.4015343  63.4911407  63.8015551 107.2891941  62.7188655
  55.6332623 116.1582784  75.5095778  54.9396094 115.7436737  74.9965733
  56.3805614 116.2003321  74.9129197  71.7697843 106.9488971  70.3750812
  71.1896512 107.6073775  69.9928865  71.5033776 106.1266316  69.9638230
  70.2201410 106.3494029  72.5772133  70.7201188 106.4610563  71.7686452
  70.8637018 106.0455082  73.2172941  64.2783406 114.2572658  85.4639974
  63.7950487 115.0573019  85.6703863  64.3644345 114.2680603  84.5107418
  57.5469365 116.0901038  73.3861793  57.5240053 116.1888725  72.4343676
  57.8570002 116.9366189  73.7078959  60.2056743 118.1477193  77.5008408
  61.1599997 118.1161136  77.4338339  60.0069267 117.6867817  78.3158633
  60.7956125 116.7178309  80.0679205  61.6149014 117.2122388  80.0914042
  61.0692933 115.8010277  80.0396773  70.5522721 109.1089062  69.4307161
  69.6648576 109.3938712  69.2127355  70.9676710 108.9482825  68.5834438
  73.9037258 109.1335583  73.1461500  74.6797648 109.6232035  73.4186117
  73.1785392 109.5593637  73.6033369  76.3409816 109.8463202  74.2035441
  76.9354307 109.6058938  73.4928749  76.4136400 109.1270332  74.8308977
  69.6965935 118.8733736  63.5255181  70.4001785 119.0783739  64.1412836
  68.9728584 119.4410498  63.7904264  70.5263745 114.6243597  69.6457451
  70.4698947 115.0812149  68.8065083  71.0792088 113.8634282  69.4680294
  74.3368551 110.4133329  70.4707570  74.0805485 110.0129965  71.3015778
  73.7121419 111.1277123  70.3457710  78.6480889 113.1529403  72.9778862
  78.0880447 113.2222592  73.7510424  78.0424392 112.9770387  72.2578358
  71.6052632 119.3116265  65.5753641  72.4398236 118.8797464  65.3931116
  71.4436975 119.1398279  66.5030535  71.2598524 115.8148379  66.9409980
  71.2047328 115.6492650  65.9998424  70.6344580 116.5224412  67.0972170
  56.0491039 111.0516443  80.7671402  56.6949903 110.5415397  81.2558627
  55.8408191 111.7885125  81.3414828  68.5744432 118.1197291  86.2663543
  69.4435591 118.2937943  85.9050178  68.0951183 118.9391707  86.1439272
  64.5694650 105.3156488  66.5195298  64.5573320 106.2598328  66.6763569
  65.4618072 105.1326633  66.2254760  62.7430612 125.2394392  77.9452976
  63.6457859 125.2718002  78.2619471  62.5167982 124.3094843  77.9599312
  64.4984214 123.9925378  74.6063055  63.5479845 123.9927240  74.4927427
  64.8016700 123.2458113  74.0899090  68.3846769 101.9099264  70.7741235
  67.6179165 101.3557751  70.9197918  68.7957474 101.9821133  71.6355387
  60.3888530 108.1984060  84.8646417  61.2519992 107.8420865  85.0749741
  59.8153941 107.8597955  85.5521821  80.2336907 129.8285917  75.6708818
  80.8715317 129.7092664  74.9672158  80.1157750 130.7766760  75.7296770
  77.0426614 129.7813345  75.6070342  76.7045125 129.6654409  74.7190877
  77.9116382 129.3804510  75.5871348  77.5246397 130.9348196  81.5656548
  77.5135037 130.5400995  80.6937051  77.6867036 130.2014269  82.1590319
  74.7434893 128.5501592  64.9387282  74.9960414 128.0283113  64.1770745
  73.8059452 128.3867737  65.0413966  79.7878176 127.5537370  72.7462026
  80.5741265 127.1356794  72.3952443  80.0516880 128.4583463  72.9143674
  85.1886603 127.4912604  73.6495004  85.9211775 126.9211820  73.8832834
  84.4325959 127.1034204  74.0901510  76.8062723 129.9139845  70.8458347
  76.4420930 129.3870466  71.5571268  77.6629839 129.5238314  70.6724832
  82.7112023 121.2034178  78.1089613  82.3795348 122.0729589  77.8850828
  82.1157637 120.8870462  78.7883643  76.4468210 124.9429745  65.8419695
  76.6142612 125.8109981  66.2090166  76.2565379 125.1057026  64.9180984
  82.6040687 125.9229264  75.1882963  81.6957564 125.8544672  74.8941724
  82.5528282 126.4001209  76.0164788  76.4257431 127.3987402  66.8266362
  76.3057056 127.8444453  67.6651842  75.7310019 127.7472720  66.2679900
  76.6781552 127.3418909  83.1317860  75.9014886 127.9012830  83.1220725
  77.3172115 127.8275692  83.6532730  84.4702333 124.1245702  76.9660837
  83.8276713 124.4178235  76.3200631  83.9657262 124.0098623  77.7714033
  82.1242497 127.8708875  67.6546696  83.0360353 128.1036262  67.4794393
  81.6152144 128.4545920  67.0921775  76.7614334 127.2306110  78.6641545
  77.6075530 127.6545524  78.8076194  76.7012972 126.5739734  79.3580109
  79.9113780 124.8910478  80.3222719  79.6674712 125.6452539  79.7856995
  80.1873710 125.2695826  81.1569966  79.4678471 124.0466911  75.9036557
  78.6062951 124.3448165  76.1953294  79.4940906 124.2637310  74.9717589
  75.2208927 128.7132254  69.1199928  75.9232970 129.1653298  69.5873854
  74.8889555 128.0716073  69.7479821  73.6689288 127.3044011  83.4951137
  73.0387949 127.9860292  83.7286534  73.5625376 127.1927093  82.5504275
  68.9634261 126.9715807  74.4217061  68.1733315 127.2273336  73.9457172
  69.4545508 127.7864145  74.5269102  70.9149006 127.3360386  71.3800538
  70.1180170 127.4479081  71.8984034  70.6874598 127.6747038  70.5141428
  72.9470031 121.6064777  85.8576388  72.5536977 121.0530975  86.5324032
  73.7636172 121.9175355  86.2482906  75.8637992 123.0222656  83.4496645
  76.6047706 123.6229809  83.3701107  76.0955915 122.2800294  82.8914687
  79.8095155 119.0503759  77.7260926  79.4659425 119.9405401  77.6500037
  80.1774118 118.8605416  76.8630511  79.7745438 129.0412370  66.2333361
  79.2592061 129.8116975  66.4721749  79.5022746 128.3677506  66.8566423
  77.3592549 123.8862071  71.2918600  76.5034145 123.4968921  71.1124238
  77.7719501 123.9654032  70.4318385  78.8891696 121.4208414  75.6910160
  78.3856491 121.3838549  74.8777965  79.1822302 122.3301157  75.7506816
  75.1334581 121.5047144  74.6976341  75.9987578 121.3089952  74.3382231
  75.2012090 121.2757495  75.6245698  79.5631741 126.9139462  68.0593143
  79.2581877 127.2285611  68.9103286  80.5162183 126.9920882  68.1020476
  72.7396900 123.7349352  72.0692708  73.3140652 123.5124533  71.3365901
  73.3267883 123.8038046  72.8221309  81.7976478 129.6223079  72.8757085
  82.3108359 130.2553070  73.3778794  82.4477702 129.0224274  72.5100445
  73.0666488 125.7653813  66.0888593  72.2303800 126.1028499  66.4097868
  72.9271257 125.6302792  65.1515730  75.0419568 120.6090601  70.7967778
  74.3883981 120.2939618  70.1724392  75.0000042 119.9866341  71.5227600
  78.2757309 127.0972534  75.1215425  77.3579870 127.3187481  74.9637113
  78.6917452 127.1718845  74.2627132  79.0592356 128.4963950  70.2518105
  79.8064175 129.0085347  69.9425227  79.3283946 128.1748003  71.1122499
  81.5071193 125.5321066  72.2336895  80.7693950 125.0198452  72.5647137
  81.7597967 125.0921448  71.4220172  81.6082821 118.3097318  72.8278664
  81.9141698 117.4494681  72.5404579  82.3335426 118.9014938  72.6277658
  75.8803901 128.6051111  73.3354855  75.9352510 127.6524948  73.2597332
  75.0695103 128.7610550  73.8196153  73.8196260 127.2228171  71.0945234
  73.0064126 127.5222341  71.5010426  74.3155255 126.8283860  71.8119716
  79.4170472 127.6869995  79.9260128  79.7719860 127.9141468  80.7854594
  80.0642603 128.0188372  79.3037383  73.3110335 124.7946526  76.7106469
  73.9509715 124.6535285  76.0129432  72.4787866 124.5081040  76.3345071
  70.3953403 128.2392039  68.9001214  69.4650991 128.1776494  69.1171176
  70.4910875 127.7167991  68.1037855  70.3138952 124.7646851  71.4879456
  70.5745769 125.6792185  71.3788616  71.1356124 124.2971294  71.6376068
  71.7863877 126.1784609  78.6578280  72.4586930 125.9701971  78.0090929
  70.9593663 125.9806695  78.2183512  77.6889449 122.8046549  80.6743941
  77.0417364 123.5036499  80.5808417  78.4590464 123.2382693  81.0420189
  77.8653583 130.6427314  78.7340761  78.7945643 130.7938474  78.5609728
  77.4444613 130.7311335  77.8789407  81.1506322 131.3915616  64.1665196
  80.5335493 130.6662444  64.0698249  80.6822810 132.1524976  63.8232270
  74.8173675 129.1647171  78.9064397  75.5273293 128.5240363  78.8651015
  74.7742983 129.4160066  79.8290578  73.5302609 126.1512389  80.7260036
  72.9939966 125.7003127  81.3781633  72.9419317 126.2858298  79.9830501
  72.9404868 125.6101040  63.2886500  72.0634334 125.4889841  62.9248747
  73.4162621 124.8187118  63.0365389  69.2641730 125.2868396  77.8113031
  69.1799919 124.6794066  77.0763441  68.4424436 125.7777415  77.8122527
  79.4365444 123.7721960  73.1783226  79.9334144 123.0191922  72.8584296
  78.6652425 123.8086277  72.6126435  76.0200413 125.9139343  72.9054911
  75.6498200 125.3610383  73.5935816  76.5159505 125.3097476  72.3529911
  83.9067776 128.3710966  71.2871684  84.3728228 129.2038958  71.2131986
  84.3575277 127.9055948  71.9916942  81.8784439 120.7391553  75.3262585
  80.9647519 120.9695780  75.4944792  82.3077540 120.8229997  76.1776617
  81.6490897 128.9281445  77.8262479  80.9962347 129.1757353  77.1714932
  82.0271277 128.1145584  77.4924956  77.6978470 129.6701256  84.3128516
  77.0219107 129.5695386  84.9830891  78.5206104 129.5140470  84.7764513
  71.4165746 123.3243334  79.1508017  71.4807073 124.1858165  78.7385414
  71.3532867 122.7117335  78.4180375  70.8918019 125.3966466  82.7981051
  71.5190058 125.0143544  83.4118575  70.0345938 125.1780668  83.1636743
  67.6683562 127.2042895  68.7299406  67.9637003 126.2953574  68.6766459
  66.7671597 127.1830635  68.4080408  71.1977809 125.2798892  74.7126954
  70.4764394 125.8934860  74.5734428  71.9871064 125.8156657  74.6343600
  74.0004122 122.6153318  80.9867606  74.5238524 122.8615615  81.7493915
  73.7816455 123.4473353  80.5670743  69.3971403 124.8856993  68.8538731
  69.0684109 124.0054372  68.6713837  69.7510774 124.8304662  69.7415120
  72.5113226 125.1729963  69.2214209  72.8509299 125.7015884  68.4992817
  72.9585347 125.5110369  69.9972775  75.2056667 123.5567014  78.6717277
  74.8653488 122.7574827  79.0737957  74.4995673 123.8568724  78.0994110
  75.8573139 120.6416326  77.1244600  76.6799208 120.1676804  77.0023490
  76.1011203 121.4206810  77.6243286  74.4981374 123.6704584  67.4207501
  75.2189736 124.0485837  66.9171218  73.8746678 124.3893461  67.5242479
  78.6412496 124.3749733  68.3565834  78.8576111 125.2574371  68.0554662
  78.1606564 123.9835947  67.6271476  73.3811718 127.3335447  74.9336578
  73.2356299 127.6475750  75.8260860  72.9036921 127.9520347  74.3807477
  75.2408101 124.3237995  74.9817468  75.2269669 123.4279088  74.6449766
  75.9580529 124.3308658  75.6155754  77.0934231 124.7575335  77.0270595
  76.8352009 125.6792405  77.0254926  76.5619272 124.3605769  77.7171059
  74.6444997 123.2052375  70.2505038  74.7660908 122.2769021  70.4495926
  74.3547039 123.2191061  69.3383353  77.5136187 120.8907285  73.3871758
  77.5357884 120.9546618  72.4323737  77.9304246 120.0511794  73.5812264
  74.1286076 124.7184372  84.4594971  74.1774232 125.5946495  84.0772740
  74.6708590 124.1761765  83.8866614  82.0242559 128.0948890  82.3688143
  82.9252422 127.9555355  82.0772141  82.0990534 128.2603345  83.3086320
  76.3585365 125.4715745  81.2141329  75.4888674 125.7649311  80.9423918
  76.5944845 126.0556190  81.9348593  79.0624398 121.6895362  78.7306750
  79.5806342 122.4256388  78.4053238  78.7079531 121.9959355  79.5653509
  70.6423336 126.5500043  66.8468156  69.9492581 126.6244398  66.1908191
  70.3975088 125.7860386  67.3689672  79.3136993 118.1095644  74.2507646
  79.5938746 117.4418833  74.8768073  80.0987600 118.3024740  73.7382310
  83.1845851 126.5313278  77.9979221  84.1363274 126.6311376  78.0191445
  83.0149301 125.7391547  78.5077306  81.2060230 123.6168861  78.1838622
  80.6110163 123.8973874  77.4885111  80.9209927 124.1062762  78.9555363
  77.5017260 128.6215451  63.1548725  78.4476364 128.4921659  63.2237143
  77.1231505 127.8830113  63.6318153  85.8128417 126.5430441  77.1579804
  85.2967466 125.7588898  76.9709733  86.6968366 126.2149158  77.3226324
  83.4739144 120.2871457  73.1175617  83.2763965 119.9786545  74.0018949
  84.0838850 121.0133096  73.2473547  75.6860177 126.5465427  63.0903610
  74.7791632 126.2498540  63.1666324  75.9636158 126.2495245  62.2237897
  77.3022242 121.0902317  69.2447852  76.4922971 120.7449402  69.6203098
  77.9906659 120.7809861  69.8335463  79.2312791 120.1680364  70.8672148
  79.7843829 120.5875817  71.5262171  79.4682877 119.2416112  70.9095104
  75.2545890 126.1567437  86.6474912  75.1542617 127.1061794  86.5787003
  75.0367432 125.8285676  85.7750982  74.4558961 123.4052362  63.2315589
  75.3178125 123.7307261  63.4911407  74.6409306 122.6183858  62.7188655
  82.6091598 122.2780889  70.3750812  82.0290267 122.9365693  69.9928865
  82.3427531 121.4558233  69.9638230  81.0595164 121.6785947  72.5772133
  81.5594943 121.7902481  71.7686452  81.7030772 121.3746999  73.2172941
  81.3916476 124.4380979  69.4307161  80.5042331 124.7230630  69.2127355
  81.8070465 124.2774743  68.5834438  84.7431012 124.4627500  73.1461500
  85.5191402 124.9523953  73.4186117  84.0179146 124.8885554  73.6033369
  87.1803571 125.1755119  74.2035441  87.7748061 124.9350855  73.4928749
  87.2530154 124.4562250  74.8308977  81.3657500 129.9535515  69.6457451
  81.3092701 130.4104067  68.8065083  81.9185842 129.1926200  69.4680294
  85.1762306 125.7425247  70.4707570  84.9199240 125.3421883  71.3015778
  84.5515174 126.4569041  70.3457710  82.0992279 131.1440296  66.9409980
  82.0441083 130.9784568  65.9998424  81.4738334 131.8516329  67.0972170
  66.8884794 126.3808361  80.7671402  67.5343658 125.8707315  81.2558627
  66.6801945 127.1177042  81.3414828  75.4088404 120.6448405  66.5195298
  75.3967074 121.5890245  66.6763569  76.3011826 120.4618551  66.2254760
  79.2240524 117.2391182  70.7741235  78.4572920 116.6849669  70.9197918
  79.6351229 117.3113051  71.6355387  71.2282285 123.5275978  84.8646417
  72.0913746 123.1712783  85.0749741  70.6547696 123.1889873  85.5521821
  15.1974382  14.8596533  62.3954124  15.8352792  14.7403280  61.6917464
  15.0795225  15.8077377  62.4542076  12.0064088  14.8123961  62.3315649
  11.6682599  14.6965026  61.4436184  12.8753856  14.4115126  62.3116655
   7.8650904  16.6659438  58.3212540   7.3015769  16.5749375  57.5528828
   7.7503299  15.8459342  58.8015032  12.4883871  15.9658813  68.2901854
  12.4772512  15.5711611  67.4182358  12.6504510  15.2324885  68.8835626
   5.4115336  18.1610629  61.1596760   6.2036627  17.8201454  60.7443060
   5.6511986  18.2705604  62.0798914  13.4450462  20.3330405  53.6327005
  12.7938442  20.9184486  53.2461018  14.2394825  20.8636600  53.6922042
   7.3706090  17.4219542  54.0314139   8.1436966  16.8748530  53.8927015
   7.7231488  18.2863792  54.2428600   9.2091132  18.7495925  67.2381038
   8.9180998  19.6541556  67.1227705   9.8448116  18.7912452  67.9525108
  10.1347339  16.1272773  63.8282398  10.7310911  15.9028796  63.1139361
  10.1922310  15.3857519  64.4307846   9.7072367  13.5812209  51.6632589
   9.9597888  13.0593730  50.9016052   8.7696926  13.4178354  51.7659273
  14.7515650  12.5847987  59.4707332  15.5378739  12.1667410  59.1197749
  15.0154354  13.4894079  59.6388981  14.9225728  18.0220837  54.1695989
  14.2871560  18.0955464  54.8816894  14.5923134  18.6114436  53.4915068
  20.1524077  12.5223220  60.3740311  20.8849249  11.9522437  60.6078140
  19.3963433  12.1344821  60.8146816   9.4268656  15.4840314  53.8656964
   9.3104914  14.8085218  54.5338048   9.5370916  14.9972688  53.0489117
  11.7700197  14.9450462  57.5703653  11.4058404  14.4181083  58.2816575
  12.6267313  14.5548931  57.3970139  14.1681017  18.4357340  64.2330832
  13.8681740  19.3382379  64.1246639  13.8232077  18.1689523  65.0851985
   7.6193499  14.8871137  60.2667536   6.6943995  14.7547351  60.4745228
   7.8677912  15.6665356  60.7637479  17.5678161  10.9539880  61.9128269
  16.6595038  10.8855289  61.6187030  17.5165757  11.4311825  62.7410095
  11.3894905  12.4298019  53.5511668  11.2694530  12.8755070  54.3897149
  10.6947493  12.7783336  52.9925207   9.1501797  25.2001661  57.2001800
   9.0725827  26.1509486  57.2790280   8.5463441  24.8547533  57.8576726
  11.6419027  12.3729526  69.8563167  10.8652361  12.9323446  69.8466031
  12.2809590  12.8586309  70.3778037  19.4339807   9.1556319  63.6906143
  18.7914188   9.4488852  63.0445938  18.9294736   9.0409239  64.4959340
  17.0879971  12.9019492  54.3792003  17.9997827  13.1346879  54.2039700
  16.5789618  13.4856536  53.8167081   9.8965399  15.1814979  69.4181134
  10.6380083  15.7200023  69.1415957   9.1902385  15.8081268  69.5752685
  15.3720739  17.3244120  68.0153295  15.7804095  16.8826530  67.2707927
  14.6498000  16.7496747  68.2687488  11.7251809  12.2616727  65.3886852
  12.5713004  12.6856140  65.5321501  11.6650446  11.6050351  66.0825415
  15.6949553  17.8845310  61.7705584  15.0658416  18.0491025  61.0681652
  15.3075215  18.2986920  62.5416548  19.5738785  18.8199748  59.1249948
  18.8889823  19.1998650  58.5746981  19.6582635  19.4295075  59.8581896
  14.8751254   9.9221095  67.0468026  14.6312186  10.6763155  66.5102301
  15.1511185  10.3006443  67.8815273  16.8289717  16.4659707  65.7245291
  17.0406612  17.1091467  65.0479672  16.7819465  15.6322024  65.2567221
  14.4315946   9.0777528  62.6281863  13.5700425   9.3758782  62.9198601
  14.4578380   9.2947927  61.6962896  11.2477515  17.6219719  59.0355669
  11.7115861  17.9007422  58.2460292  10.9834313  16.7203163  58.8528760
   8.1401596  17.1691200  61.9735432   8.7102953  17.5978468  61.3352917
   8.7309708  16.8873785  62.6719618  10.1846401  13.7442871  55.8445234
  10.8870445  14.1963915  56.3119161   9.8527030  13.1026690  56.4725127
  17.9435545  19.3431663  63.8967649  18.7652989  18.9411850  63.6150330
  17.9397948  19.2399897  64.8483764  11.7092148  18.8915706  66.0528359
  11.7736581  19.3536113  66.8886531  11.0003072  18.2613071  66.1810669
  26.0341538  15.6870411  60.2452620  25.2805246  15.1177809  60.0896625
  26.1689079  15.6533076  61.1923255  11.4240166  20.5583814  55.9207339
  11.2885841  21.4035349  56.3492187  11.9649978  20.7603091  55.1573273
   4.8769563  18.0759252  56.4935265   5.3894084  18.8702502  56.6440829
   5.5292276  17.3785542  56.4268866   6.6864448  21.1925008  58.5758018
   6.8631076  22.1142973  58.3879002   7.4821281  20.8783427  59.0052398
  13.0508642  21.1807380  70.0507682  12.6072496  20.3943759  69.7328586
  13.7125856  21.3686531  69.3851572   7.8095763  22.7103182  64.5768360
   8.3603189  22.5820245  63.8045354   6.9707239  23.0098071  64.2263253
  15.1489880  21.4610180  68.0789083  15.1308356  22.2819061  67.5869352
  16.0709800  21.3364255  68.3039224  11.6062934  18.9754309  68.9212591
  12.1391271  18.2142598  68.6911899  11.0777016  18.6827961  69.6636746
  14.7382912  14.0722986  52.9578668  14.2229536  14.8427591  53.1967055
  14.4660221  13.3988123  53.5811729  19.7117186  16.8255341  54.8931842
  18.9346629  16.4866501  54.4487004  20.3908667  16.8307964  54.2186807
  14.5269215  11.9450079  54.7838449  14.2219351  12.2596228  55.6348592
  15.4799657  12.0231498  54.8265782  12.9715647  18.1040302  56.4331403
  12.4437009  17.3693061  56.1204641  12.4703150  18.8814978  56.1871372
  17.9508493  16.2989322  61.5498450  17.2932168  16.9888584  61.6378578
  18.7548892  16.6885754  61.8932436  16.7613952  14.6533695  59.6002391
  17.2745834  15.2863687  60.1024101  17.4115176  14.0534891  59.2345751
  11.1168247  15.9220512  49.4366376  10.2095309  15.6909766  49.6357525
  11.6139279  15.1258131  49.6240358  14.0236326  24.6318019  52.3563062
  13.3498025  24.9349716  52.9648020  14.4102148  25.4347100  52.0068519
  13.2394783  12.1283151  61.8460732  12.3217344  12.3498098  61.6882420
  13.6554926  12.2029461  60.9872439  14.0229831  13.5274566  56.9763412
  14.7701650  14.0395964  56.6670534  14.2921420  13.2058619  57.8367806
  12.2956481  16.0233107  53.9590366  11.3867700  15.7392140  54.0562836
  12.3251565  16.4432186  53.0993673  17.5275748  19.6339697  57.7281534
  17.0738075  18.7930606  57.7846724  16.8969715  20.2701095  58.0656314
  16.4708668  10.5631683  58.9582201  15.7331425  10.0509069  59.2892444
  16.7235441  10.1232064  58.1465478  15.9708687  21.4716193  58.6631352
  16.2631662  22.0321250  57.9443718  16.4807308  21.7644754  59.4184511
  10.8441375  13.6361728  60.0600162  10.8989985  12.6835564  59.9842638
  10.0332577  13.7921167  60.5441460  11.9932569  17.5641851  51.2978445
  11.5551999  16.8477710  50.8384082  12.7343009  17.7917966  50.7363536
  10.9342313  22.2496544  59.7524805  10.8918491  22.4757391  58.8233337
  11.8505012  22.0159919  59.9010606  14.3807946  12.7180612  66.6505434
  14.7357334  12.9452085  67.5099900  15.0280078  13.0498989  66.0282690
  20.1105683  15.8399048  57.3554763  19.9723582  16.0300644  56.4275953
  19.7541902  16.6018431  57.8122815  20.1375063  17.9075575  62.3666035
  20.5711570  17.8150864  63.2149089  20.8506644  17.8833075  61.7286051
   9.0508113  19.1259573  59.5486768   9.8448712  18.6309893  59.3469343
   8.3399806  18.5977436  59.1854474  13.8702958  21.5077669  63.8999136
  13.9239980  22.0768605  64.6676851  13.0017739  21.6779554  63.5353173
  20.9990613  17.9499275  64.8998920  21.1926503  18.8545086  65.1458195
  20.8991231  17.4906694  65.7337505  16.0605721  18.1006018  70.4739801
  15.9091228  17.8716570  69.5569885  16.0510401  19.0576620  70.4871146
  12.8291058  15.6737931  65.4586067  13.7583118  15.8249091  65.2855035
  12.4082088  15.7621952  64.6034714  11.6279389  19.6988595  63.2284605
  11.4890475  19.3307380  64.1010543  10.8393986  20.2136235  63.0568563
  12.2227541  24.7997692  54.5710142  12.3979297  24.3285735  55.3855764
  11.5360329  25.4263458  54.7991402  13.1784605  19.0770198  60.6173443
  12.8434437  19.0370968  61.5131093  12.6788550  18.4114914  60.1443853
   7.1528849  14.4837828  66.1426024   7.0148646  13.7518067  66.7437563
   8.0633772  14.3946728  65.8610212  16.1143796  16.4226232  50.8910502
  15.4972967  15.6973061  50.7943555  15.6460285  17.1835593  50.5477577
   9.7811149  14.1957787  65.6309704  10.4910768  13.5550980  65.5896322
   9.7380457  14.4470682  66.5535884  17.7697928  21.1325141  68.5516283
  17.7110474  20.4484361  67.8846866  18.1717446  21.8744131  68.0996909
   6.7888627  27.9487055  61.3450002   7.0285225  28.5805579  62.0229020
   5.9457823  27.5975095  61.6315361  17.7715335  19.0964725  66.7830263
  16.8842114  18.7590646  66.9056661  18.3413886  18.3647756  67.0199028
  11.3016489  23.7566177  63.7491506  11.2286660  24.5621148  64.2610810
  10.8593882  23.9558143  62.9239527  11.0906268  22.9937947  57.2594327
  10.3073790  23.5359627  57.3532552  11.7899013  23.5111927  57.6588568
  14.4002918   8.8032576  59.9028533  14.8971618   8.0502539  59.5829603
  13.6289900   8.8396893  59.3371742  22.2532676  14.5072942  61.5446824
  22.2422552  15.3897657  61.1740757  21.3850055  14.1544493  61.3501361
  13.7615172  23.6553011  65.9049664  14.4743144  24.2900476  65.8325566
  13.2705201  23.7516877  65.0889666  15.4832699  17.5604264  57.4766956
  14.5488978  17.6805726  57.3071660  15.6609367  16.6576730  57.2126966
  18.8705250  13.4021583  58.0116990  19.3365703  14.2349575  57.9377293
  19.3212751  12.9366565  58.7162249   8.8127086  21.4047454  66.7255235
   9.5136545  22.0383937  66.8784629   8.3422201  21.7462186  65.9650874
  16.9381481  19.7465404  55.0103142  17.2141325  19.6321999  55.9197016
  16.0685980  19.3482889  54.9715315  16.6128372  13.9592062  64.5507786
  15.9599822  14.2067969  63.8960238  16.9908751  13.1456200  64.2170263
  13.5735545  23.9951755  58.6535956  13.7557940  23.1773411  59.1163708
  14.3968531  24.2119447  58.2160846  13.9077711  22.9219940  55.9151004
  14.4365477  22.4112395  55.3021166  14.1705931  22.6062470  56.7796537
  12.6615945  14.7011873  71.0373823  11.9856582  14.6006002  71.7076198
  13.4843578  14.5451087  71.5009820   4.4094804  20.9383810  63.6586338
   4.9948240  20.1927497  63.7914242   4.2119642  21.2487766  64.5423002
   7.2633459  23.9735057  58.6748780   6.5943834  24.4581185  58.1912820
   7.1246329  24.2204277  59.5892159  11.4038727  26.0078800  65.2731439
  11.9557035  26.1710422  66.0380524  11.7444921  26.5983238  64.6011463
  16.2549602  20.8340058  71.1280093  16.7989506  21.4470016  70.6335048
  15.6736447  21.3919636  71.6447106  14.5407115  23.9560776  62.2595121
  14.4158254  23.1550516  61.7506066  15.1986206  24.4506969  61.7709091
  16.6042023  21.7569796  63.8874671  15.6572359  21.6375147  63.8152998
  16.9524796  20.8692294  63.9700932  13.6088456  21.5522512  60.0879023
  13.4613419  20.6239220  60.2686593  14.4341950  21.5742603  59.6036098
  17.2122578  22.3751071  61.1743896  18.1369126  22.1693932  61.0368347
  17.0437882  22.1267472  62.0833237  17.0017894  22.8936738  56.5305987
  17.1754772  22.3283161  55.7779840  17.4946786  23.6937633  56.3485477
  22.8557286  15.6573161  58.1496287  23.2988432  14.9080487  57.7515410
  21.9783796  15.6483298  57.7670019  17.9893067  22.2103503  53.6302886
  18.6843972  22.8310196  53.8490200  18.3316217  21.3598854  53.9055263
  19.8884490  19.6603208  55.1590216  20.4135814  19.9990481  54.4339536
  19.8006843  18.7250224  54.9753351  11.5504539  23.5737282  67.2880093
  11.8591665  23.3286429  68.1602793  12.3480021  23.7783920  66.7998963
  11.5725151  25.7275192  59.5185470  11.1330141  25.2351570  60.2118326
  12.3233268  25.1848159  59.2777545   4.0517490  21.9186733  59.5210098
   4.8775510  21.6190504  59.1408741   3.7011542  21.1494355  59.9699886
   9.0199023  21.2713201  61.5907771   8.3979032  20.6083906  61.2909999
   9.6903890  21.2974333  60.9081419   2.2526095  19.8373059  60.4799031
   1.4158003  19.4095233  60.2983032   2.2249740  20.0305502  61.4169822
  19.5778396  20.2936112  70.4641414  18.7873940  20.2760251  69.9245914
  19.3411751  20.8324406  71.2190451  19.6976271  17.1428578  67.7774143
  19.7474276  16.9778586  68.7189666  19.5890195  16.2755837  67.3872024
   8.5812530  19.8217124  55.0666232   8.7300650  20.5052588  54.4132904
   9.3878973  19.8022214  55.5815687  16.9880034  13.1259506  69.0933450
  17.8889896  12.9865971  68.8017447  17.0628008  13.2913961  70.0331627
  21.1994468  19.5625520  68.0216164  20.9079276  19.9255500  68.8579625
  20.5866599  18.8492528  67.8429496  22.3990150  17.1278400  60.5418735
  23.2337042  17.5668204  60.7056295  22.5349279  16.6517053  59.7226980
  19.4481656  14.6858135  66.4896222  19.9235778  14.8785781  65.6815074
  18.5247222  14.7417320  66.2439606   6.3365163  15.8482302  56.0727301
   6.0911205  14.9444632  56.2707511   6.5061077  15.8499452  55.1306779
  12.0807935  22.3165255  52.5377979  11.5081903  22.9355442  52.0848451
  12.6540729  22.8664616  53.0717901  18.1483325  11.5623895  64.7224528
  19.1000748  11.6621992  64.7436752  17.9786776  10.7702163  65.2322612
  16.1697705   8.6479478  64.9083929  15.5747637   8.9284491  64.2130418
  15.8847401   9.1373379  65.6800670  15.3005195  22.6002405  53.6686561
  16.2335868  22.5347966  53.8719437  15.2128408  23.4358672  53.2101094
  17.9293212  21.9168275  50.6290509  17.8506843  21.5828139  51.5226267
  18.7502879  22.4090043  50.6281981  20.6271403  14.7830014  63.8366828
  20.5947723  13.8446015  64.0226511  21.2372027  14.8614051  63.1032653
  12.4654734  13.6526067  49.8794032  13.4113839  13.5232275  49.9482450
  12.0868979  12.9140729  50.3563460  20.7765892  11.5741058  63.8825111
  20.2604940  10.7899514  63.6955040  21.6605840  11.2459774  64.0471630
  26.4447953  15.8446021  62.9772864  27.1751341  15.5831309  63.5380568
  25.8354898  15.1074743  63.0174932  24.5263250  13.9853884  63.5747316
  23.7996414  13.8509849  62.9663807  24.1110537  14.2930712  64.3804034
  12.3493426  17.7043813  71.3394689  13.2696436  17.8822412  71.5334735
  12.3143009  16.7599859  71.1874388   5.3455499  15.6144848  63.9817470
   5.5641509  16.5461956  64.0005504   5.7581273  15.2552822  64.7672274
  17.5729072   7.3091505  57.0996119  16.9927741   7.9676309  56.7174172
  17.3065005   6.4868850  56.6883537  10.0814634  14.6175193  72.1885280
   9.5981716  15.4175553  72.3949169  10.1675573  14.6283138  71.2352724
   3.3500594  16.4503572  60.1107100   3.3271282  16.5491260  59.1588983
   3.6601230  17.2968723  60.4324266   6.0087972  18.5079727  64.2253714
   6.9631225  18.4763670  64.1583646   5.8100495  18.0470351  65.0403940
   6.5987354  17.0780843  66.7924512   7.4180243  17.5724922  66.8159349
   6.8724162  16.1612812  66.7642079  16.3553950   9.4691596  56.1552467
  15.4679805   9.7541246  55.9372662  16.7707939   9.3085359  55.3079744
  19.7068486   9.4938117  59.8706807  20.4828876   9.9834569  60.1431423
  18.9816620   9.9196171  60.3278676  22.1441045  10.2065736  60.9280747
  22.7385536   9.9661472  60.2174055  22.2167629   9.4872867  61.5554284
   4.3638201  24.0499347  61.2423912   4.2292669  23.2899748  60.6761910
   3.9470263  24.7740247  60.7752701  15.4997164  19.2336270  50.2500487
  16.2033014  19.4386273  50.8658143  14.7759812  19.8013032  50.5149571
  16.3294974  14.9846132  56.3702758  16.2730175  15.4414683  55.5310390
  16.8823316  14.2236816  56.1925600  20.1399780  10.7735864  57.1952877
  19.8836714  10.3732499  58.0261085  19.5152648  11.4879657  57.0703016
  24.4512118  13.5131937  59.7024168  23.8911676  13.5825126  60.4755730
  23.8455621  13.3372921  58.9823665   7.5207327  24.9468664  61.4542355
   7.4039711  25.8914096  61.3521045   6.6999773  24.6442225  61.8428154
  17.4083861  19.6718800  52.2998947  18.2429465  19.2399998  52.1176422
  17.2468204  19.5000813  53.2275842  17.0629753  16.1750913  53.6655287
  17.0078557  16.0095184  52.7243731  16.4375809  16.8826946  53.8217476
  14.3775660  18.4799825  72.9908849  15.2466820  18.6540477  72.6295484
  13.8982412  19.2994242  72.8684579   8.5461841  25.5996926  64.6698283
   9.4489087  25.6320536  64.9864778   8.3199211  24.6697377  64.6844619
  10.3015443  24.3527912  61.3308362   9.3511074  24.3529774  61.2172734
  10.6047929  23.6060647  60.8144396  26.0368136  30.1888451  62.3954124
  26.6746546  30.0695198  61.6917464  25.9188979  31.1369295  62.4542076
  22.8457842  30.1415879  62.3315649  22.5076354  30.0256944  61.4436184
  23.7147611  29.7407044  62.3116655  18.7044658  31.9951355  58.3212540
  18.1409523  31.9041292  57.5528828  18.5897053  31.1751260  58.8015032
  23.3277625  31.2950731  68.2901854  23.3166266  30.9003529  67.4182358
  23.4898265  30.5616803  68.8835626  16.2509090  33.4902547  61.1596760
  17.0430382  33.1493371  60.7443060  16.4905740  33.5997522  62.0798914
  24.2844217  35.6622323  53.6327005  23.6332197  36.2476403  53.2461018
  25.0788580  36.1928518  53.6922042  18.2099844  32.7511460  54.0314139
  18.9830720  32.2040447  53.8927015  18.5625243  33.6155709  54.2428600
  20.0484887  34.0787842  67.2381038  19.7574753  34.9833473  67.1227705
  20.6841871  34.1204370  67.9525108  20.9741093  31.4564691  63.8282398
  21.5704666  31.2320713  63.1139361  21.0316065  30.7149436  64.4307846
  20.5466122  28.9104126  51.6632589  20.7991643  28.3885647  50.9016052
  19.6090681  28.7470272  51.7659273  25.5909405  27.9139905  59.4707332
  26.3772494  27.4959328  59.1197749  25.8548109  28.8185997  59.6388981
  25.7619482  33.3512755  54.1695989  25.1265315  33.4247381  54.8816894
  25.4316888  33.9406354  53.4915068  30.9917832  27.8515138  60.3740311
  31.7243004  27.2814355  60.6078140  30.2357187  27.4636738  60.8146816
  20.2662411  30.8132232  53.8656964  20.1498669  30.1377136  54.5338048
  20.3764670  30.3264606  53.0489117  22.6093951  30.2742379  57.5703653
  22.2452159  29.7473000  58.2816575  23.4661067  29.8840848  57.3970139
  28.5143252  21.5636712  64.8334919  28.1826577  22.4332123  64.6096134
  27.9188866  21.2472996  65.5128950  22.2499438  25.3032279  52.5665002
  22.4173841  26.1712515  52.9335473  22.0596608  25.4659561  51.6426291
  25.0074772  33.7649258  64.2330832  24.7075495  34.6674297  64.1246639
  24.6625831  33.4981441  65.0851985  18.4587253  30.2163055  60.2667536
  17.5337750  30.0839269  60.4745228  18.7071666  30.9957274  60.7637479
  28.4071915  26.2831798  61.9128269  27.4988793  26.2147206  61.6187030
  28.3559511  26.7603743  62.7410095  22.2288659  27.7589936  53.5511668
  22.1088285  28.2046987  54.3897149  21.5341248  28.1075254  52.9925207
  15.8196064  29.8596328  61.1011326  15.9488445  30.1130807  62.0150737
  15.1393515  30.4524036  60.7815981  19.9895551  40.5293578  57.2001800
  19.9119581  41.4801403  57.2790280  19.3857195  40.1839451  57.8576726
  22.4812781  27.7021444  69.8563167  21.7046115  28.2615364  69.8466031
  23.1203344  28.1878227  70.3778037  30.2733562  24.4848236  63.6906143
  29.6307942  24.7780770  63.0445938  29.7688490  24.3701157  64.4959340
  27.9273726  28.2311410  54.3792003  28.8391582  28.4638796  54.2039700
  27.4183373  28.8148454  53.8167081  20.7359154  30.5106897  69.4181134
  21.4773838  31.0491941  69.1415957  20.0296139  31.1373186  69.5752685
  26.2114493  32.6536037  68.0153295  26.6197849  32.2118448  67.2707927
  25.4891755  32.0788665  68.2687488  22.5645563  27.5908644  65.3886852
  23.4106758  28.0148058  65.5321501  22.5044201  26.9342269  66.0825415
  26.5343308  33.2137228  61.7705584  25.9052170  33.3782942  61.0681652
  26.1468970  33.6278838  62.5416548  30.4132540  34.1491666  59.1249948
  29.7283578  34.5290567  58.5746981  30.4976389  34.7586993  59.8581896
  25.7145009  25.2513013  67.0468026  25.4705940  26.0055073  66.5102301
  25.9904939  25.6298360  67.8815273  27.6683471  31.7951625  65.7245291
  27.8800367  32.4383385  65.0479672  27.6213220  30.9613942  65.2567221
  25.2709700  24.4069446  62.6281863  24.4094179  24.7050699  62.9198601
  25.2972135  24.6239845  61.6962896  22.0871270  32.9511636  59.0355669
  22.5509615  33.2299339  58.2460292  21.8228068  32.0495081  58.8528760
  18.9795351  32.4983118  61.9735432  19.5496708  32.9270386  61.3352917
  19.5703463  32.2165702  62.6719618  21.0240156  29.0734789  55.8445234
  21.7264199  29.5255832  56.3119161  20.6920784  28.4318607  56.4725127
  19.4720517  27.6646545  70.2196444  18.8419178  28.3462826  70.4531840
  19.3656605  27.5529627  69.2749582  14.7665490  27.3318341  61.1462368
  13.9764544  27.5875870  60.6702478  15.2576737  28.1466679  61.2514408
  28.7829299  34.6723580  63.8967649  29.6046743  34.2703768  63.6150330
  28.7791702  34.5691815  64.8483764  16.7180235  27.6962920  58.1045845
  15.9211398  27.8081615  58.6229340  16.4905827  28.0349573  57.2386735
  22.5485903  34.2207624  66.0528359  22.6130335  34.6828031  66.8886531
  21.8396827  33.5904989  66.1810669  13.0503193  27.5848832  63.5777359
  13.3011231  28.4695842  63.8434935  13.5862741  27.4053433  62.8052450
  36.8735292  31.0162329  60.2452620  36.1199001  30.4469727  60.0896625
  37.0082834  30.9824993  61.1923255  22.2633920  35.8875731  55.9207339
  22.1279595  36.7327267  56.3492187  22.8043733  36.0895009  55.1573273
  18.7501260  21.9667311  72.5821695  18.3568206  21.4133510  73.2569339
  19.5667400  22.2777890  72.9728212  15.7163318  33.4051169  56.4935265
  16.2287838  34.1994419  56.6440829  16.3686031  32.7077460  56.4268866
  17.5258202  36.5216926  58.5758018  17.7024831  37.4434890  58.3879002
  18.3215036  36.2075345  59.0052398  21.6669221  23.3825190  70.1741951
  22.4078934  23.9832343  70.0946414  21.8987144  22.6402828  69.6159994
  16.8110559  28.5681557  68.4520181  16.6964074  27.6666815  68.7527280
  15.9555077  28.8145254  68.1004997  23.8902397  36.5099298  70.0507682
  23.4466251  35.7235676  69.7328586  24.5519610  36.6978448  69.3851572
  18.6489518  38.0395099  64.5768360  19.1996943  37.9112163  63.8045354
  17.8100994  38.3389988  64.2263253  25.9883635  36.7902098  68.0789083
  25.9702110  37.6110979  67.5869352  26.9103555  36.6656173  68.3039224
  22.4456689  34.3046227  68.9212591  22.9785026  33.5434515  68.6911899
  21.9170770  34.0119879  69.6636746  25.6126384  19.4106293  64.4506233
  25.2690653  20.3007935  64.3745344  25.9805347  19.2207951  63.5875818
  13.6812235  31.7339824  57.2694835  14.5187457  32.1436832  57.0528543
  13.8590502  30.7939266  57.2395029  25.5776667  29.4014904  52.9578668
  25.0623290  30.1719509  53.1967055  25.3053975  28.7280040  53.5811729
  23.1623778  24.2464605  58.0163906  22.3065374  23.8571455  57.8369545
  23.5750729  24.3256566  57.1563692  24.6922924  21.7810948  62.4155466
  24.1887720  21.7441083  61.6023271  24.9853531  22.6903691  62.4752123
  20.9365810  21.8649678  61.4221648  21.8018807  21.6692487  61.0627537
  21.0043319  21.6360030  62.3491005  30.5510941  32.1547259  54.8931842
  29.7740384  31.8158418  54.4487004  31.2302422  32.1599882  54.2186807
  25.3662970  27.2741996  54.7838449  25.0613105  27.5888145  55.6348592
  26.3193412  27.3523416  54.8265782  23.8109402  33.4332220  56.4331403
  23.2830763  32.6984979  56.1204641  23.3096904  34.2106896  56.1871372
  28.7902248  31.6281240  61.5498450  28.1325922  32.3180501  61.6378578
  29.5942647  32.0177672  61.8932436  18.5428129  24.0951886  58.7938015
  19.1171881  23.8727067  58.0611208  19.1299112  24.1640580  59.5466616
  27.6007707  29.9825613  59.6002391  28.1139588  30.6155605  60.1024101
  28.2508930  29.3826808  59.2345751  18.8697716  26.1256347  52.8133900
  18.0335029  26.4631033  53.1343175  18.7302486  25.9905327  51.8761037
  20.8450797  20.9693135  57.5213084  20.1915209  20.6542152  56.8969699
  20.8031271  20.3468875  58.2472907  21.9562002  31.2512430  49.4366376
  21.0489064  31.0201683  49.6357525  22.4533034  30.4550049  49.6240358
  24.8630081  39.9609937  52.3563062  24.1891780  40.2641634  52.9648020
  25.2495903  40.7639017  52.0068519  24.0788537  27.4575068  61.8460732
  23.1611099  27.6790015  61.6882420  24.4948681  27.5321379  60.9872439
  24.8623585  28.8566484  56.9763412  25.6095404  29.3687881  56.6670534
  25.1315175  28.5350537  57.8367806  23.1350235  31.3525025  53.9590366
  22.2261455  31.0684058  54.0562836  23.1645319  31.7724103  53.0993673
  28.3669503  34.9631614  57.7281534  27.9131830  34.1222524  57.7846724
  27.7363469  35.5993013  58.0656314  27.3102422  25.8923600  58.9582201
  26.5725179  25.3800986  59.2892444  27.5629196  25.4523982  58.1465478
  26.8102442  36.8008111  58.6631352  27.1025416  37.3613168  57.9443718
  27.3201063  37.0936672  59.4184511  27.4114050  18.6699852  59.5523971
  27.7172926  17.8097216  59.2649886  28.1366654  19.2617472  59.3522965
  13.7038406  29.0730539  57.9405569  13.5062805  28.4799900  57.2156635
  13.1485070  28.7682749  58.6581507  21.6835129  28.9653645  60.0600162
  21.7383739  28.0127482  59.9842638  20.8726331  29.1213084  60.5441460
  22.8326323  32.8933768  51.2978445  22.3945753  32.1769627  50.8384082
  23.5736764  33.1209883  50.7363536  19.6227489  27.5830705  57.8190541
  18.8095355  27.8824876  58.2255733  20.1186483  27.1886394  58.5365023
  21.7736067  37.5788462  59.7524805  21.7312246  37.8049308  58.8233337
  22.6898766  37.3451837  59.9010606  25.2201701  28.0472530  66.6505434
  25.5751089  28.2744003  67.5099900  25.8673832  28.3790906  66.0282690
  30.9499438  31.1690965  57.3554763  30.8117336  31.3592561  56.4275953
  30.5935657  31.9310348  57.8122815  19.1141564  25.1549061  63.4351775
  19.7540943  25.0137820  62.7374739  18.2819095  24.8683574  63.0590377
  30.9768817  33.2367492  62.3666035  31.4105324  33.1442782  63.2149089
  31.6900398  33.2124993  61.7286051  19.8901868  34.4551491  59.5486768
  20.6842466  33.9601811  59.3469343  19.1793560  33.9269354  59.1854474
  24.7096712  36.8369587  63.8999136  24.7633735  37.4060523  64.6676851
  23.8411494  37.0071472  63.5353173  16.1984631  28.5994573  55.6246521
  15.2682219  28.5379028  55.8416483  16.2942103  28.0770526  54.8283162
  16.1170180  25.1249386  58.2124762  16.3776998  26.0394719  58.1033923
  16.9387353  24.6573828  58.3621375  17.5895106  26.5387143  65.3823587
  18.2618159  26.3304505  64.7336236  16.7624892  26.3409229  64.9428819
  31.8384367  33.2791193  64.8998920  32.0320257  34.1837004  65.1458195
  31.7384985  32.8198612  65.7337505  23.4920678  23.1649084  67.3989248
  22.8448593  23.8639033  67.3053724  24.2621693  23.5985228  67.7665496
  26.8999476  33.4297936  70.4739801  26.7484982  33.2008488  69.5569885
  26.8904155  34.3868537  70.4871146  23.6684812  31.0029849  65.4586067
  24.5976872  31.1541008  65.2855035  23.2475842  31.0913869  64.6034714
  22.4673144  35.0280513  63.2284605  22.3284230  34.6599297  64.1010543
  21.6787740  35.5428152  63.0568563  23.0621296  40.1289609  54.5710142
  23.2373052  39.6577653  55.3855764  22.3754084  40.7555376  54.7991402
  24.0178359  34.4062116  60.6173443  23.6828192  34.3662886  61.5131093
  23.5182305  33.7406832  60.1443853  17.9922603  29.8129746  66.1426024
  17.8542401  29.0809985  66.7437563  18.9027526  29.7238646  65.8610212
  26.9537551  31.7518150  50.8910502  26.3366721  31.0264978  50.7943555
  26.4854039  32.5127510  50.5477577  20.6204904  29.5249705  65.6309704
  21.3304522  28.8842897  65.5896322  20.5774212  29.7762600  66.5535884
  28.6091682  36.4617058  68.5516283  28.5504229  35.7776279  67.8846866
  29.0111201  37.2036048  68.0996909  19.3333838  26.5114923  67.4505343
  18.7971195  26.0605661  68.1026939  18.7450546  26.6460832  66.7075807
  17.6282381  43.2778972  61.3450002  17.8678979  43.9097496  62.0229020
  16.7851578  42.9267012  61.6315361  18.7436097  25.9703574  50.0131807
  17.8665563  25.8492375  49.6494053  19.2193850  25.1789653  49.7610695
  28.6109090  34.4256642  66.7830263  27.7235868  34.0882564  66.9056661
  29.1807641  33.6939674  67.0199028  10.2638237  30.7580734  60.1073314
  10.9509277  30.4442464  59.5194329  10.1086365  31.6622099  59.8340565
  15.0672959  25.6470931  64.5358338  14.9831148  25.0396600  63.8008748
  14.2455665  26.1379949  64.5367834  22.1410243  39.0858095  63.7491506
  22.0680415  39.8913066  64.2610810  21.6987636  39.2850060  62.9239527
  21.9300023  38.3229865  57.2594327  21.1467545  38.8651545  57.3532552
  22.6292768  38.8403844  57.6588568  25.2396673  24.1324494  59.9028533
  25.7365372  23.3794456  59.5829603  24.4683654  24.1688811  59.3371742
  33.0926430  29.8364860  61.5446824  33.0816306  30.7189575  61.1740757
  32.2243810  29.4836411  61.3501361  24.6008927  38.9844929  65.9049664
  25.3136899  39.6192394  65.8325566  24.1098955  39.0808795  65.0889666
  26.3226453  32.8896181  57.4766956  25.3882732  33.0097644  57.3071660
  26.5003122  31.9868648  57.2126966  21.8231642  26.2741877  59.6300217
  21.4529429  25.7212918  60.3181123  22.3190734  25.6700011  59.0775217
  29.7099005  28.7313501  58.0116990  30.1759457  29.5641492  57.9377293
  30.1606505  28.2658482  58.7162249  19.6520840  36.7339372  66.7255235
  20.3530300  37.3675855  66.8784629  19.1815955  37.0754104  65.9650874
  27.7775236  35.0757322  55.0103142  28.0535080  34.9613917  55.9197016
  26.9079735  34.6774807  54.9715315  27.6815668  21.0994088  62.0507892
  26.7678747  21.3298314  62.2190098  28.1108769  21.1832532  62.9021924
  27.4522126  29.2883980  64.5507786  26.7993576  29.5359887  63.8960238
  27.8302506  28.4748118  64.2170263  24.4129300  39.3243673  58.6535956
  24.5951694  38.5065329  59.1163708  25.2362286  39.5411365  58.2160846
  24.7471465  38.2511858  55.9151004  25.2759232  37.7404313  55.3021166
  25.0099685  37.9354388  56.7796537  23.5009699  30.0303791  71.0373823
  22.8250336  29.9297920  71.7076198  24.3237333  29.8743004  71.5009820
  15.2488558  36.2675727  63.6586338  15.8341995  35.5219415  63.7914242
  15.0513397  36.5779684  64.5423002  18.1027213  39.3026975  58.6748780
  17.4337589  39.7873102  58.1912820  17.9640083  39.5496195  59.5892159
   9.8406213  28.8381327  62.3790781   9.8790312  28.3044918  63.1727899
   9.3346506  28.3116533  61.7601758  22.2432482  41.3370718  65.2731439
  22.7950790  41.5002340  66.0380524  22.5838675  41.9275156  64.6011463
  17.2196975  23.6845868  65.8753323  17.2838302  24.5460699  65.4630721
  17.1564095  23.0719870  65.1425682  16.6949248  25.7569000  69.5226358
  17.3221287  25.3746078  70.1363882  15.8377167  25.5383202  69.8882050
  27.0943356  36.1631976  71.1280093  27.6383260  36.7761934  70.6335048
  26.5130201  36.7211554  71.6447106  13.4714790  27.5645430  55.4544712
  13.7668232  26.6556108  55.4011766  12.5702826  27.5433169  55.1325715
  25.3800869  39.2852694  62.2595121  25.2552009  38.4842433  61.7506066
  26.0379960  39.7798887  61.7709091  17.0009037  25.6401426  61.4372261
  16.2795623  26.2537394  61.2979734  17.7902293  26.1759191  61.3588907
  27.4435778  37.0861714  63.8874671  26.4966113  36.9667065  63.8152998
  27.7918551  36.1984212  63.9700932  19.8035351  22.9755853  67.7112913
  20.3269753  23.2218149  68.4739222  19.5847684  23.8075887  67.2916050
  15.2002632  25.2459527  55.5784038  14.8715338  24.3656906  55.3959143
  15.5542003  25.1907196  56.4660427  24.4482211  36.8814430  60.0879023
  24.3007173  35.9531137  60.2686593  25.2735704  36.9034521  59.6036098
  18.3144455  25.5332497  55.9459515  18.6540528  26.0618418  55.2238124
  18.7616576  25.8712903  56.7218082  28.0516333  37.7042989  61.1743896
  28.9762880  37.4985850  61.0368347  27.8831636  37.4559390  62.0833237
  21.0087896  23.9169548  65.3962583  20.6684716  23.1177361  65.7983263
  20.3026902  24.2171259  64.8239416  21.6604368  21.0018860  63.8489906
  22.4830437  20.5279338  63.7268797  21.9042431  21.7809344  64.3488593
  20.3012602  24.0307119  54.1452808  21.0220965  24.4088371  53.6416525
  19.6777906  24.7495995  54.2487786  24.4443725  24.7352268  55.0811140
  24.6607340  25.6176905  54.7799969  23.9637792  24.3438481  54.3516782
  19.1842947  27.6937981  61.6581885  19.0387527  28.0078284  62.5506166
  18.7068150  28.3122881  61.1052784  21.0439329  24.6840529  61.7062774
  21.0300898  23.7881622  61.3695072  21.7611758  24.6911193  62.3401061
  22.8965460  25.1177869  63.7515902  22.6383238  26.0394940  63.7500232
  22.3650501  24.7208304  64.4416366  27.8411649  38.2228656  56.5305987
  28.0148527  37.6575079  55.7779840  28.3340540  39.0229551  56.3485477
  13.6588609  30.2343325  64.5969546  13.1142077  31.0103133  64.7289820
  14.5367959  30.5814130  64.4388668  20.4476225  23.5654909  56.9750345
  20.5692137  22.6371555  57.1741232  20.1578268  23.5793595  56.0628660
  23.3167416  21.2509820  60.1117064  23.3389113  21.3149153  59.1569044
  23.7335475  20.4114328  60.3057571  33.6951040  30.9865079  58.1496287
  34.1382186  30.2372404  57.7515410  32.8177550  30.9775215  57.7670019
  28.8286821  37.5395421  53.6302886  29.5237726  38.1602113  53.8490200
  29.1709972  36.6890772  53.9055263  14.4454631  29.3613221  67.4899703
  13.7036367  29.5095857  68.0764333  14.1247375  29.6221487  66.6266452
  30.7278245  34.9895126  55.1590216  31.2529569  35.3282399  54.4339536
  30.6400597  34.0542141  54.9753351  22.3898293  38.9029200  67.2880093
  22.6985420  38.6578346  68.1602793  23.1873775  39.1075838  66.7998963
  22.4118905  41.0567109  59.5185470  21.9723896  40.5643488  60.2118326
  23.1627022  40.5140077  59.2777545  14.8911244  37.2478650  59.5210098
  15.7169264  36.9482422  59.1408741  14.5405296  36.4786273  59.9699886
  19.8592777  36.6005118  61.5907771  19.2372787  35.9375823  61.2909999
  20.5297644  36.6266250  60.9081419  13.0919849  35.1664977  60.4799031
  12.2551758  34.7387151  60.2983032  13.0643495  35.3597420  61.4169822
  19.9317305  25.0786906  71.1840277  19.9805460  25.9549029  70.8018047
  20.4739819  24.5364300  70.6111920  30.4172151  35.6228030  70.4641414
  29.6267694  35.6052169  69.9245914  30.1805505  36.1616323  71.2190451
  30.5370026  32.4720496  67.7774143  30.5868031  32.3070504  68.7189666
  30.4283949  31.6047755  67.3872024  19.4206284  35.1509042  55.0666232
  19.5694405  35.8344506  54.4132904  20.2272728  35.1314132  55.5815687
  27.8273788  28.4551424  69.0933450  28.7283651  28.3157889  68.8017447
  27.9021763  28.6205879  70.0331627  22.1616593  25.8318279  67.9386636
  21.2919903  26.1251845  67.6669224  22.3976074  26.4158724  68.6593900
  32.0388223  34.8917438  68.0216164  31.7473031  35.2547418  68.8579625
  31.4260354  34.1784446  67.8429496  33.2383905  32.4570317  60.5418735
  34.0730796  32.8960121  60.7056295  33.3743034  31.9808971  59.7226980
  30.2875411  30.0150052  66.4896222  30.7629532  30.2077699  65.6815074
  29.3640976  30.0709238  66.2439606  17.1758917  31.1774219  56.0727301
  16.9304959  30.2736549  56.2707511  17.3454832  31.1791370  55.1306779
  24.8655627  22.0497896  65.4552056  25.3837571  22.7858923  65.1298545
  24.5110760  22.3561889  66.2898815  16.4454565  26.9102577  53.5713462
  15.7523810  26.9846932  52.9153498  16.2006317  26.1462921  54.0934979
  25.1168221  18.4698178  60.9752953  25.3969975  17.8021367  61.6013379
  25.9018828  18.6627274  60.4627617  22.9201690  37.6457172  52.5377979
  22.3475657  38.2647359  52.0848451  23.4934484  38.1956534  53.0717901
  28.9877080  26.8915812  64.7224528  29.9394503  26.9913910  64.7436752
  28.8180530  26.0994081  65.2322612  27.0091459  23.9771396  64.9083929
  26.4141391  24.2576408  64.2130418  26.7241156  24.4665296  65.6800670
  26.1398950  37.9294322  53.6686561  27.0729623  37.8639884  53.8719437
  26.0522163  38.7650589  53.2101094  28.7686966  37.2460193  50.6290509
  28.6900598  36.9120056  51.5226267  29.5896633  37.7381961  50.6281981
  31.4665158  30.1121932  63.8366828  31.4341478  29.1737933  64.0226511
  32.0765781  30.1905969  63.1032653  23.3048488  28.9817985  49.8794032
  24.2507593  28.8524193  49.9482450  22.9262733  28.2432647  50.3563460
  31.6159646  26.9032975  63.8825111  31.0998695  26.1191432  63.6955040
  32.4999595  26.5751692  64.0471630  29.2770373  20.6473991  59.8420923
  29.0795194  20.3389079  60.7264255  29.8870079  21.3735630  59.9718853
  37.2841707  31.1737939  62.9772864  38.0145096  30.9123227  63.5380568
  36.6748653  30.4366661  63.0174932  35.3657005  29.3145801  63.5747316
  34.6390168  29.1801766  62.9663807  34.9504291  29.6222630  64.3804034
  23.1887181  33.0335731  71.3394689  24.1090190  33.2114330  71.5334735
  23.1536764  32.0891776  71.1874388  21.4891406  26.9067961  49.8148917
  20.5822861  26.6101074  49.8911631  21.7667387  26.6097779  48.9483203
  12.4069346  28.2274325  60.2647963  12.0872130  27.3739633  59.9722337
  11.8602774  28.4422903  61.0205931  16.1849253  30.9436766  63.9817470
  16.4035263  31.8753874  64.0005504  16.5975027  30.5844740  64.7672274
  23.1053471  21.4504851  55.9693158  22.2954200  21.1051936  56.3448404
  23.7937888  21.1412395  56.5580770  25.0344020  20.5282898  57.5917455
  25.5875058  20.9478351  58.2507478  25.2714106  19.6018646  57.6340411
  21.0577119  26.5169972  73.3720219  20.9573846  27.4664328  73.3032310
  20.8398661  26.1888210  72.4996289  20.2590190  23.7654897  49.9560896
  21.1209354  24.0909795  50.2156713  20.4440534  22.9786392  49.4433962
  12.2757606  31.8477236  62.2341085  11.5821077  31.4331189  61.7211039
  13.0230597  31.8897773  61.6374504  28.4122827  22.6383423  57.0996119
  27.8321496  23.2968227  56.7174172  28.1458759  21.8160768  56.6883537
  26.8626393  22.0388481  59.3017439  27.3626171  22.1505015  58.4931758
  27.5062001  21.7349534  59.9418248  20.9208389  29.9467110  72.1885280
  20.4375471  30.7467470  72.3949169  21.0069328  29.9575055  71.2352724
  14.1894348  31.7795490  60.1107100  14.1665037  31.8783177  59.1588983
  14.4994985  32.6260641  60.4324266  16.8481726  33.8371645  64.2253714
  17.8024980  33.8055587  64.1583646  16.6494250  33.3762269  65.0403940
  17.4381108  32.4072761  66.7924512  18.2573997  32.9016840  66.8159349
  17.7117916  31.4904729  66.7642079  27.1947705  24.7983513  56.1552467
  26.3073560  25.0833164  55.9372662  27.6101694  24.6377277  55.3079744
  30.5462241  24.8230034  59.8706807  31.3222631  25.3126487  60.1431423
  29.8210375  25.2488089  60.3278676  32.9834799  25.5357654  60.9280747
  33.5779290  25.2953390  60.2174055  33.0561383  24.8164784  61.5554284
  15.2031955  39.3791265  61.2423912  15.0686423  38.6191665  60.6761910
  14.7864017  40.1032164  60.7752701  26.3390918  34.5628188  50.2500487
  27.0426768  34.7678191  50.8658143  25.6153567  35.1304950  50.5149571
  27.1688728  30.3138049  56.3702758  27.1123930  30.7706601  55.5310390
  27.7217071  29.5528734  56.1925600  30.9793534  26.1027781  57.1952877
  30.7230469  25.7024417  58.0261085  30.3546402  26.8171575  57.0703016
  35.2905872  28.8423854  59.7024168  34.7305430  28.9117044  60.4755730
  34.6849376  28.6664839  58.9823665  18.3601081  40.2760582  61.4542355
  18.2433465  41.2206014  61.3521045  17.5393527  39.9734143  61.8428154
  28.2477616  35.0010717  52.2998947  29.0823219  34.5691916  52.1176422
  28.0861958  34.8292731  53.2275842  27.9023508  31.5042831  53.6655287
  27.8472312  31.3387102  52.7243731  27.2769563  32.2118864  53.8217476
  12.6916023  26.7410895  67.4916709  13.3374886  26.2309849  67.9803934
  12.4833174  27.4779577  68.0660134  25.2169415  33.8091742  72.9908849
  26.0860575  33.9832395  72.6295484  24.7376166  34.6286159  72.8684579
  21.2119633  21.0050940  53.2440605  21.1998303  21.9492780  53.4008876
  22.1043055  20.8221085  52.9500066  19.3855595  40.9288843  64.6698283
  20.2882842  40.9612454  64.9864778  19.1592965  39.9989294  64.6844619
  21.1409197  39.6819830  61.3308362  20.1904828  39.6821692  61.2172734
  21.4441683  38.9352565  60.8144396  25.0271753  17.5993716  57.4986542
  24.2604148  17.0452203  57.6443224  25.4382458  17.6715585  58.3600694
  17.0313514  23.8878512  71.5891723  17.8944975  23.5315317  71.7995048
  16.4578924  23.5492407  72.2767127  36.8761891  45.5180368  62.3954124
  37.5140301  45.3987116  61.6917464  36.7582734  46.4661212  62.4542076
  33.6851597  45.4707797  62.3315649  33.3470108  45.3548861  61.4436184
  34.5541365  45.0698962  62.3116655  29.5438413  47.3243273  58.3212540
  28.9803278  47.2333210  57.5528828  29.4290808  46.5043177  58.8015032
  34.1671380  46.6242648  68.2901854  34.1560021  46.2295447  67.4182358
  34.3292019  45.8908721  68.8835626  27.0902845  48.8194465  61.1596760
  27.8824136  48.4785289  60.7443060  27.3299495  48.9289440  62.0798914
  29.0493598  48.0803378  54.0314139  29.8224474  47.5332365  53.8927015
  29.4018997  48.9447627  54.2428600  30.8878641  49.4079760  67.2381038
  30.5968507  50.3125391  67.1227705  31.5235625  49.4496288  67.9525108
  31.8134848  46.7856609  63.8282398  32.4098420  46.5612631  63.1139361
  31.8709819  46.0441354  64.4307846  31.3859876  44.2396044  51.6632589
  31.6385397  43.7177565  50.9016052  30.4484435  44.0762189  51.7659273
  36.4303159  43.2431822  59.4707332  37.2166248  42.8251245  59.1197749
  36.6941863  44.1477914  59.6388981  36.6013236  48.6804673  54.1695989
  35.9659069  48.7539299  54.8816894  36.2710643  49.2698271  53.4915068
  31.1056165  46.1424150  53.8656964  30.9892423  45.4669053  54.5338048
  31.2158425  45.6556524  53.0489117  33.4487706  45.6034297  57.5703653
  33.0845913  45.0764918  58.2816575  34.3054822  45.2132766  57.3970139
  39.3537007  36.8928630  64.8334919  39.0220331  37.7624041  64.6096134
  38.7582620  36.5764914  65.5128950  33.0893193  40.6324197  52.5665002
  33.2567595  41.5004433  52.9335473  32.8990362  40.7951478  51.6426291
  35.8468526  49.0941176  64.2330832  35.5469249  49.9966214  64.1246639
  35.5019586  48.8273359  65.0851985  29.2981008  45.5454972  60.2667536
  28.3731504  45.4131187  60.4745228  29.5465421  46.3249192  60.7637479
  39.2465670  41.6123716  61.9128269  38.3382547  41.5439124  61.6187030
  39.1953266  42.0895661  62.7410095  33.0682414  43.0881854  53.5511668
  32.9482039  43.5338905  54.3897149  32.3735002  43.4367172  52.9925207
  26.6589819  45.1888246  61.1011326  26.7882200  45.4422725  62.0150737
  25.9787270  45.7815954  60.7815981  33.3206536  43.0313361  69.8563167
  32.5439870  43.5907281  69.8466031  33.9597099  43.5170144  70.3778037
  41.1127316  39.8140154  63.6906143  40.4701697  40.1072687  63.0445938
  40.6082245  39.6993074  64.4959340  38.7667480  43.5603327  54.3792003
  39.6785336  43.7930714  54.2039700  38.2577127  44.1440372  53.8167081
  31.5752908  45.8398815  69.4181134  32.3167592  46.3783859  69.1415957
  30.8689893  46.4665103  69.5752685  37.0508248  47.9827955  68.0153295
  37.4591604  47.5410366  67.2707927  36.3285509  47.4080583  68.2687488
  33.4039318  42.9200562  65.3886852  34.2500513  43.3439975  65.5321501
  33.3437955  42.2634186  66.0825415  36.5538763  40.5804930  67.0468026
  36.3099695  41.3346991  66.5102301  36.8298694  40.9590278  67.8815273
  36.1103455  39.7361363  62.6281863  35.2487934  40.0342617  62.9198601
  36.1365889  39.9531762  61.6962896  32.9265024  48.2803554  59.0355669
  33.3903370  48.5591257  58.2460292  32.6621822  47.3786998  58.8528760
  29.8189105  47.8275035  61.9735432  30.3890462  48.2562304  61.3352917
  30.4097217  47.5457620  62.6719618  31.8633910  44.4026706  55.8445234
  32.5657954  44.8547750  56.3119161  31.5314539  43.7610525  56.4725127
  30.3114272  42.9938463  70.2196444  29.6812932  43.6754744  70.4531840
  30.2050360  42.8821544  69.2749582  25.6059244  42.6610259  61.1462368
  24.8158298  42.9167787  60.6702478  26.0970492  43.4758597  61.2514408
  27.5573990  43.0254838  58.1045845  26.7605153  43.1373532  58.6229340
  27.3299582  43.3641490  57.2386735  33.3879657  49.5499541  66.0528359
  33.4524090  50.0119949  66.8886531  32.6790581  48.9196906  66.1810669
  23.8896947  42.9140749  63.5777359  24.1404986  43.7987759  63.8434935
  24.4256496  42.7345351  62.8052450  29.5895014  37.2959229  72.5821695
  29.1961960  36.7425427  73.2569339  30.4061155  37.6069807  72.9728212
  26.5557072  48.7343087  56.4935265  27.0681593  49.5286337  56.6440829
  27.2079785  48.0369377  56.4268866  28.3651957  51.8508843  58.5758018
  28.5418585  52.7726808  58.3879002  29.1608790  51.5367262  59.0052398
  32.5062975  38.7117108  70.1741951  33.2472689  39.3124261  70.0946414
  32.7380898  37.9694746  69.6159994  27.6504313  43.8973475  68.4520181
  27.5357829  42.9958732  68.7527280  26.7948831  44.1437172  68.1004997
  34.7296151  51.8391215  70.0507682  34.2860005  51.0527594  69.7328586
  35.3913365  52.0270366  69.3851572  29.4883272  53.3687017  64.5768360
  30.0390698  53.2404080  63.8045354  28.6494748  53.6681906  64.2263253
  33.2850443  49.6338145  68.9212591  33.8178780  48.8726433  68.6911899
  32.7564525  49.3411797  69.6636746  36.4520138  34.7398211  64.4506233
  36.1084408  35.6299852  64.3745344  36.8199101  34.5499868  63.5875818
  24.5205989  47.0631741  57.2694835  25.3581211  47.4728750  57.0528543
  24.6984257  46.1231183  57.2395029  36.4170421  44.7306822  52.9578668
  35.9017045  45.5011426  53.1967055  36.1447730  44.0571958  53.5811729
  34.0017532  39.5756523  58.0163906  33.1459129  39.1863373  57.8369545
  34.4144484  39.6548483  57.1563692  35.5316679  37.1102866  62.4155466
  35.0281474  37.0733001  61.6023271  35.8247286  38.0195609  62.4752123
  31.7759565  37.1941596  61.4221648  32.6412561  36.9984404  61.0627537
  31.8437074  36.9651947  62.3491005  36.2056724  42.6033914  54.7838449
  35.9006860  42.9180063  55.6348592  37.1587166  42.6815334  54.8265782
  29.3821884  39.4243804  58.7938015  29.9565636  39.2018985  58.0611208
  29.9692866  39.4932498  59.5466616  38.4401461  45.3117530  59.6002391
  38.9533343  45.9447522  60.1024101  39.0902685  44.7118726  59.2345751
  29.7091471  41.4548265  52.8133900  28.8728783  41.7922951  53.1343175
  29.5696241  41.3197244  51.8761037  31.6844551  36.2985052  57.5213084
  31.0308964  35.9834070  56.8969699  31.6425026  35.6760793  58.2472907
  32.7955756  46.5804348  49.4366376  31.8882818  46.3493601  49.6357525
  33.2926788  45.7841967  49.6240358  34.9182292  42.7866986  61.8460732
  34.0004853  43.0081933  61.6882420  35.3342435  42.8613296  60.9872439
  35.7017340  44.1858402  56.9763412  36.4489159  44.6979799  56.6670534
  35.9708929  43.8642454  57.8367806  33.9743990  46.6816942  53.9590366
  33.0655209  46.3975975  54.0562836  34.0039074  47.1016021  53.0993673
  38.1496177  41.2215518  58.9582201  37.4118934  40.7092904  59.2892444
  38.4022950  40.7815900  58.1465478  38.2507804  33.9991770  59.5523971
  38.5566681  33.1389133  59.2649886  38.9760409  34.5909390  59.3522965
  24.5432160  44.4022457  57.9405569  24.3456560  43.8091817  57.2156635
  23.9878824  44.0974667  58.6581507  32.5228884  44.2945563  60.0600162
  32.5777494  43.3419399  59.9842638  31.7120086  44.4505002  60.5441460
  33.6720078  48.2225686  51.2978445  33.2339508  47.5061545  50.8384082
  34.4130518  48.4501801  50.7363536  30.4621244  42.9122623  57.8190541
  29.6489109  43.2116793  58.2255733  30.9580238  42.5178312  58.5365023
  36.0595455  43.3764447  66.6505434  36.4144843  43.6035920  67.5099900
  36.7067587  43.7082824  66.0282690  29.9535319  40.4840978  63.4351775
  30.5934698  40.3429737  62.7374739  29.1212849  40.1975492  63.0590377
  30.7295622  49.7843409  59.5486768  31.5236221  49.2893729  59.3469343
  30.0187315  49.2561272  59.1854474  27.0378386  43.9286490  55.6246521
  26.1075974  43.8670946  55.8416483  27.1335858  43.4062443  54.8283162
  26.9563935  40.4541303  58.2124762  27.2170752  41.3686636  58.1033923
  27.7781107  39.9865746  58.3621375  28.4288860  41.8679060  65.3823587
  29.1011914  41.6596423  64.7336236  27.6018647  41.6701146  64.9428819
  34.3314432  38.4941001  67.3989248  33.6842347  39.1930951  67.3053724
  35.1015448  38.9277145  67.7665496  37.7393230  48.7589854  70.4739801
  37.5878737  48.5300405  69.5569885  37.7297910  49.7160455  70.4871146
  34.5078567  46.3321766  65.4586067  35.4370627  46.4832926  65.2855035
  34.0869597  46.4205787  64.6034714  34.8572114  49.7354033  60.6173443
  34.5221946  49.6954803  61.5131093  34.3576059  49.0698749  60.1443853
  28.8316358  45.1421663  66.1426024  28.6936155  44.4101902  66.7437563
  29.7421281  45.0530563  65.8610212  37.7931305  47.0810068  50.8910502
  37.1760476  46.3556896  50.7943555  37.3247794  47.8419428  50.5477577
  31.4598658  44.8541623  65.6309704  32.1698277  44.2134815  65.5896322
  31.4167966  45.1054518  66.5535884  30.1727592  41.8406841  67.4505343
  29.6364949  41.3897579  68.1026939  29.5844301  41.9752749  66.7075807
  28.4676136  58.6070890  61.3450002  28.7072734  59.2389414  62.0229020
  27.6245332  58.2558930  61.6315361  29.5829851  41.2995492  50.0131807
  28.7059317  41.1784293  49.6494053  30.0587604  40.5081570  49.7610695
  21.1031991  46.0872652  60.1073314  21.7903031  45.7734382  59.5194329
  20.9480120  46.9914016  59.8340565  25.9066713  40.9762848  64.5358338
  25.8224902  40.3688518  63.8008748  25.0849420  41.4671867  64.5367834
  36.0790427  39.4616412  59.9028533  36.5759127  38.7086374  59.5829603
  35.3077409  39.4980728  59.3371742  32.6625396  41.6033795  59.6300217
  32.2923184  41.0504835  60.3181123  33.1584488  40.9991928  59.0775217
  30.4914595  52.0631290  66.7255235  31.1924054  52.6967773  66.8784629
  30.0209710  52.4046021  65.9650874  38.5209422  36.4286005  62.0507892
  37.6072502  36.6590232  62.2190098  38.9502524  36.5124449  62.9021924
  38.2915881  44.6175897  64.5507786  37.6387331  44.8651805  63.8960238
  38.6696260  43.8040035  64.2170263  34.3403454  45.3595708  71.0373823
  33.6644091  45.2589838  71.7076198  35.1631087  45.2034922  71.5009820
  26.0882313  51.5967645  63.6586338  26.6735749  50.8511333  63.7914242
  25.8907151  51.9071602  64.5423002  28.9420968  54.6318892  58.6748780
  28.2731343  55.1165020  58.1912820  28.8033838  54.8788113  59.5892159
  20.6799967  44.1673245  62.3790781  20.7184067  43.6336836  63.1727899
  20.1740260  43.6408451  61.7601758  28.0590730  39.0137786  65.8753323
  28.1232056  39.8752617  65.4630721  27.9957850  38.4011787  65.1425682
  27.5343002  41.0860918  69.5226358  28.1615041  40.7037995  70.1363882
  26.6770921  40.8675120  69.8882050  24.3108545  42.8937347  55.4544712
  24.6061986  41.9848026  55.4011766  23.4096581  42.8725087  55.1325715
  27.8402792  40.9693344  61.4372261  27.1189378  41.5829312  61.2979734
  28.6296048  41.5051109  61.3588907  30.6429105  38.3047770  67.7112913
  31.1663507  38.5510067  68.4739222  30.4241439  39.1367805  67.2916050
  26.0396387  40.5751445  55.5784038  25.7109093  39.6948824  55.3959143
  26.3935757  40.5199114  56.4660427  29.1538210  40.8624415  55.9459515
  29.4934282  41.3910336  55.2238124  29.6010330  41.2004821  56.7218082
  31.8481651  39.2461465  65.3962583  31.5078471  38.4469278  65.7983263
  31.1420657  39.5463176  64.8239416  32.4998122  36.3310778  63.8489906
  33.3224192  35.8571256  63.7268797  32.7436186  37.1101262  64.3488593
  31.1406357  39.3599036  54.1452808  31.8614719  39.7380289  53.6416525
  30.5171661  40.0787913  54.2487786  35.2837480  40.0644185  55.0811140
  35.5001094  40.9468823  54.7799969  34.8031547  39.6730399  54.3516782
  30.0236701  43.0229898  61.6581885  29.8781282  43.3370202  62.5506166
  29.5461905  43.6414799  61.1052784  31.8833084  40.0132446  61.7062774
  31.8694653  39.1173540  61.3695072  32.6005512  40.0203110  62.3401061
  33.7359215  40.4469787  63.7515902  33.4776993  41.3686857  63.7500232
  33.2044255  40.0500221  64.4416366  24.4982363  45.5635243  64.5969546
  23.9535831  46.3395051  64.7289820  25.3761713  45.9106047  64.4388668
  31.2869980  38.8946827  56.9750345  31.4085891  37.9663473  57.1741232
  30.9972022  38.9085513  56.0628660  34.1561170  36.5801737  60.1117064
  34.1782867  36.6441070  59.1569044  34.5729229  35.7406246  60.3057571
  25.2848385  44.6905139  67.4899703  24.5430121  44.8387775  68.0764333
  24.9641129  44.9513405  66.6266452  25.7304999  52.5770568  59.5210098
  26.5563019  52.2774340  59.1408741  25.3799051  51.8078190  59.9699886
  30.6986532  51.9297036  61.5907771  30.0766541  51.2667741  61.2909999
  31.3691399  51.9558168  60.9081419  23.9313604  50.4956894  60.4799031
  23.0945512  50.0679069  60.2983032  23.9037249  50.6889338  61.4169822
  30.7711059  40.4078824  71.1840277  30.8199215  41.2840947  70.8018047
  31.3133574  39.8656217  70.6111920  38.6667543  43.7843342  69.0933450
  39.5677405  43.6449807  68.8017447  38.7415517  43.9497797  70.0331627
  33.0010348  41.1610197  67.9386636  32.1313657  41.4543763  67.6669224
  33.2369828  41.7450642  68.6593900  28.0152672  46.5066137  56.0727301
  27.7698714  45.6028467  56.2707511  28.1848586  46.5083288  55.1306779
  35.7049382  37.3789813  65.4552056  36.2231326  38.1150840  65.1298545
  35.3504515  37.6853807  66.2898815  27.2848319  42.2394495  53.5713462
  26.5917564  42.3138850  52.9153498  27.0400071  41.4754838  54.0934979
  35.9561976  33.7990096  60.9752953  36.2363730  33.1313285  61.6013379
  36.7412583  33.9919192  60.4627617  39.8270834  42.2207730  64.7224528
  40.7788257  42.3205828  64.7436752  39.6574285  41.4285999  65.2322612
  37.8485214  39.3063313  64.9083929  37.2535146  39.5868326  64.2130418
  37.5634910  39.7957214  65.6800670  34.1442243  44.3109903  49.8794032
  35.0901348  44.1816111  49.9482450  33.7656488  43.5724565  50.3563460
  40.1164127  35.9765909  59.8420923  39.9188949  35.6680997  60.7264255
  40.7263833  36.7027548  59.9718853  34.0280935  48.3627649  71.3394689
  34.9483945  48.5406248  71.5334735  33.9930518  47.4183694  71.1874388
  32.3285160  42.2359879  49.8148917  31.4216615  41.9392992  49.8911631
  32.6061141  41.9389697  48.9483203  23.2463100  43.5566242  60.2647963
  22.9265885  42.7031551  59.9722337  22.6996529  43.7714821  61.0205931
  27.0243008  46.2728683  63.9817470  27.2429018  47.2045791  64.0005504
  27.4368782  45.9136658  64.7672274  33.9447226  36.7796769  55.9693158
  33.1347954  36.4343854  56.3448404  34.6331643  36.4704312  56.5580770
  35.8737774  35.8574816  57.5917455  36.4268813  36.2770269  58.2507478
  36.1107860  34.9310564  57.6340411  31.8970873  41.8461889  73.3720219
  31.7967600  42.7956246  73.3032310  31.6792415  41.5180128  72.4996289
  31.0983945  39.0946814  49.9560896  31.9603109  39.4201713  50.2156713
  31.2834289  38.3078310  49.4433962  23.1151360  47.1769154  62.2341085
  22.4214832  46.7623107  61.7211039  23.8624351  47.2189690  61.6374504
  39.2516581  37.9675341  57.0996119  38.6715250  38.6260145  56.7174172
  38.9852514  37.1452685  56.6883537  37.7020148  37.3680398  59.3017439
  38.2019926  37.4796933  58.4931758  38.3455755  37.0641451  59.9418248
  31.7602143  45.2759028  72.1885280  31.2769225  46.0759388  72.3949169
  31.8463082  45.2866973  71.2352724  25.0288103  47.1087408  60.1107100
  25.0058791  47.2075095  59.1588983  25.3388739  47.9552559  60.4324266
  27.6875481  49.1663563  64.2253714  28.6418734  49.1347505  64.1583646
  27.4888004  48.7054186  65.0403940  28.2774863  47.7364679  66.7924512
  29.0967752  48.2308757  66.8159349  28.5511671  46.8196647  66.7642079
  38.0341459  40.1275431  56.1552467  37.1467314  40.4125082  55.9372662
  38.4495448  39.9669194  55.3079744  41.3855995  40.1521952  59.8706807
  42.1616385  40.6418405  60.1431423  40.6604129  40.5780006  60.3278676
  26.0425710  54.7083182  61.2423912  25.9080178  53.9483583  60.6761910
  25.6257772  55.4324082  60.7752701  37.1784673  49.8920106  50.2500487
  37.8820523  50.0970108  50.8658143  36.4547321  50.4596868  50.5149571
  38.0082483  45.6429967  56.3702758  37.9517684  46.0998518  55.5310390
  38.5610825  44.8820652  56.1925600  29.1994836  55.6052499  61.4542355
  29.0827220  56.5497932  61.3521045  28.3787282  55.3026061  61.8428154
  38.7417262  46.8334748  53.6655287  38.6866066  46.6679020  52.7243731
  38.1163318  47.5410781  53.8217476  23.5309777  42.0702813  67.4916709
  24.1768641  41.5601767  67.9803934  23.3226928  42.8071494  68.0660134
  36.0563169  49.1383660  72.9908849  36.9254329  49.3124312  72.6295484
  35.5769921  49.9578077  72.8684579  32.0513388  36.3342857  53.2440605
  32.0392058  37.2784697  53.4008876  32.9436810  36.1513003  52.9500066
  35.8665507  32.9285634  57.4986542  35.0997903  32.3744121  57.6443224
  36.2776212  33.0007503  58.3600694  27.8707268  39.2170430  71.5891723
  28.7338730  38.8607235  71.7995048  27.2972679  38.8784325  72.2767127
  50.4474475  67.9044028  50.6290509  50.3688107  67.5703892  51.5226267
  51.2684142  68.3965796  50.6281981  56.8025480  81.6498076  53.6327005
  56.1513460  82.2352156  53.2461018  57.5969843  82.1804271  53.6922042
  53.0647385  74.8979879  51.6632589  53.3172906  74.3761401  50.9016052
  52.1271944  74.7346025  51.7659273  58.2800745  79.3388508  54.1695989
  57.6446578  79.4123134  54.8816894  57.9498152  79.9282107  53.4915068
  54.7469923  73.7465689  53.5511668  54.6269548  74.1922740  54.3897149
  54.0522511  74.0951007  52.9925207  53.5421419  75.0610542  55.8445234
  54.2445463  75.5131585  56.3119161  53.2102048  74.4194360  56.4725127
  49.2361499  73.6838674  58.1045845  48.4392662  73.7957368  58.6229340
  49.0087091  74.0225326  57.2386735  46.1993498  77.7215577  57.2694835
  47.0368720  78.1312585  57.0528543  46.3771766  76.7815019  57.2395029
  58.0957930  75.3890657  52.9578668  57.5804554  76.1595262  53.1967055
  57.8235239  74.7155793  53.5811729  63.0692204  78.1423012  54.8931842
  62.2921647  77.8034171  54.4487004  63.7483685  78.1475635  54.2186807
  57.8844233  73.2617749  54.7838449  57.5794369  73.5763898  55.6348592
  58.8374675  73.3399169  54.8265782  56.3290665  79.4207973  56.4331403
  55.8012027  78.6860732  56.1204641  55.8278168  80.1982649  56.1871372
  51.3878980  72.1132100  52.8133900  50.5516292  72.4506786  53.1343175
  51.2483750  71.9781080  51.8761037  54.4743265  77.2388183  49.4366376
  53.5670327  77.0077436  49.6357525  54.9714297  76.4425802  49.6240358
  55.6531499  77.3400778  53.9590366  54.7442718  77.0559811  54.0562836
  55.6826583  77.7599856  53.0993673  60.8850766  80.9507367  57.7281534
  60.4313093  80.1098277  57.7846724  60.2544733  81.5868766  58.0656314
  55.3507587  78.8809521  51.2978445  54.9127016  78.1645380  50.8384082
  56.0918027  79.1085636  50.7363536  52.1408753  73.5706458  57.8190541
  51.3276618  73.8700629  58.2255733  52.6367747  73.1762147  58.5365023
  48.7165895  74.5870326  55.6246521  47.7863483  74.5254781  55.8416483
  48.8123367  74.0646279  54.8283162  59.4718814  77.7393903  50.8910502
  58.8547985  77.0140731  50.7943555  59.0035303  78.5003263  50.5477577
  51.2617360  71.9579327  50.0131807  50.3846826  71.8368128  49.6494053
  51.7375113  71.1665406  49.7610695  42.7819500  76.7456487  60.1073314
  43.4690540  76.4318217  59.5194329  42.6267629  77.6497852  59.8340565
  60.2956499  81.0633075  55.0103142  60.5716343  80.9489670  55.9197016
  59.4260998  80.6650560  54.9715315  56.9624989  70.7228021  55.0811140
  57.1788603  71.6052658  54.7799969  56.4819056  70.3314234  54.3516782
  61.3468085  83.5271174  53.6302886  62.0418990  84.1477866  53.8490200
  61.6891235  82.6766525  53.9055263  63.2459508  80.9770879  55.1590216
  63.7710832  81.3158152  54.4339536  63.1581861  80.0417894  54.9753351
  45.6101113  81.1540730  60.4799031  44.7733021  80.7262904  60.2983032
  45.5824758  81.3473173  61.4169822  48.9635828  72.8978330  53.5713462
  48.2705073  72.9722685  52.9153498  48.7187580  72.1338674  54.0934979
  55.4382953  83.6332925  52.5377979  54.8656920  84.2523112  52.0848451
  56.0115747  84.1832287  53.0717901  61.2868230  83.2335946  50.6290509
  61.2081861  82.8995809  51.5226267  62.1077897  83.7257714  50.6281981
  55.8229752  74.9693738  49.8794032  56.7688857  74.8399946  49.9482450
  55.4443997  74.2308400  50.3563460  54.0072669  72.8943714  49.8148917
  53.1004124  72.5976827  49.8911631  54.2848650  72.5973532  48.9483203
  58.8572182  80.5503941  50.2500487  59.5608032  80.7553944  50.8658143
  58.1334830  81.1180703  50.5149571  60.7658879  80.9886470  52.2998947
  61.6004483  80.5567669  52.1176422  60.6043222  80.8168484  53.2275842
  60.4204771  77.4918584  53.6655287  60.3653575  77.3262855  52.7243731
  59.7950826  78.1994617  53.8217476  51.9036859  86.9164596  64.6698283
  52.8064105  86.9488207  64.9864778  51.6774229  85.9865047  64.6844619
  69.3943154  91.5056121  62.3954124  70.0321564  91.3862869  61.6917464
  69.2763997  92.4536965  62.4542076  66.2032860  91.4583550  62.3315649
  65.8651372  91.3424614  61.4436184  67.0722629  91.0574715  62.3116655
  62.0619676  93.3119026  58.3212540  61.4984541  93.2208963  57.5528828
  61.9472071  92.4918930  58.8015032  59.6084108  94.8070218  61.1596760
  60.4005400  94.4661042  60.7443060  59.8480758  94.9165193  62.0798914
  67.6419235  96.9789994  53.6327005  66.9907215  97.5644074  53.2461018
  68.4363598  97.5096189  53.6922042  61.5674862  94.0679131  54.0314139
  62.3405738  93.5208118  53.8927015  61.9200261  94.9323380  54.2428600
  63.4059905  95.3955513  67.2381038  63.1149771  96.3001144  67.1227705
  64.0416889  95.4372041  67.9525108  64.3316111  92.7732362  63.8282398
  64.9279684  92.5488384  63.1139361  64.3891083  92.0317107  64.4307846
  63.9041140  90.2271797  51.6632589  64.1566660  89.7053318  50.9016052
  62.9665699  90.0637942  51.7659273  68.9484423  89.2307575  59.4707332
  69.7347512  88.8126998  59.1197749  69.2123127  90.1353667  59.6388981
  69.1194500  94.6680426  54.1695989  68.4840333  94.7415052  54.8816894
  68.7891906  95.2574024  53.4915068  74.3492850  89.1682808  60.3740311
  75.0818022  88.5982025  60.6078140  73.5932205  88.7804409  60.8146816
  63.6237429  92.1299903  53.8656964  63.5073687  91.4544806  54.5338048
  63.7339688  91.6432277  53.0489117  65.9668969  91.5910050  57.5703653
  65.6027177  91.0640671  58.2816575  66.8236085  91.2008519  57.3970139
  65.6074456  86.6199950  52.5665002  65.7748859  87.4880186  52.9335473
  65.4171626  86.7827231  51.6426291  68.3649790  95.0816929  64.2330832
  68.0650513  95.9841967  64.1246639  68.0200849  94.8149112  65.0851985
  61.8162271  91.5330725  60.2667536  60.8912768  91.4006940  60.4745228
  62.0646684  92.3124945  60.7637479  65.5863677  89.0757607  53.5511668
  65.4663303  89.5214658  54.3897149  64.8916266  89.4242925  52.9925207
  59.1771082  91.1763999  61.1011326  59.3063463  91.4298478  62.0150737
  58.4968533  91.7691707  60.7815981  63.3470569 101.8461249  57.2001800
  63.2694599 102.7969074  57.2790280  62.7432213 101.5007121  57.8576726
  71.2848743  89.5479080  54.3792003  72.1966600  89.7806467  54.2039700
  70.7758391  90.1316125  53.8167081  64.0934171  91.8274568  69.4181134
  64.8348856  92.3659612  69.1415957  63.3871157  92.4540856  69.5752685
  69.8918326  94.5304899  61.7705584  69.2627188  94.6950613  61.0681652
  69.5043988  94.9446508  62.5416548  73.7707558  95.4659337  59.1249948
  73.0858596  95.8458238  58.5746981  73.8551407  96.0754663  59.8581896
  71.0258489  93.1119296  65.7245291  71.2375385  93.7551056  65.0479672
  70.9788238  92.2781612  65.2567221  65.4446288  94.2679307  59.0355669
  65.9084633  94.5467010  58.2460292  65.1803086  93.3662751  58.8528760
  62.3370369  93.8150788  61.9735432  62.9071726  94.2438057  61.3352917
  62.9278481  93.5333373  62.6719618  64.3815174  90.3902459  55.8445234
  65.0839217  90.8423503  56.3119161  64.0495802  89.7486278  56.4725127
  72.1404317  95.9891251  63.8967649  72.9621761  95.5871438  63.6150330
  72.1366720  95.8859485  64.8483764  65.9060921  95.5375294  66.0528359
  65.9705353  95.9995702  66.8886531  65.1971845  94.9072659  66.1810669
  80.2310310  92.3330000  60.2452620  79.4774019  91.7637398  60.0896625
  80.3657851  92.2992664  61.1923255  65.6208938  97.2043402  55.9207339
  65.4854613  98.0494938  56.3492187  66.1618751  97.4062680  55.1573273
  59.0738336  94.7218840  56.4935265  59.5862856  95.5162090  56.6440829
  59.7261049  94.0245130  56.4268866  60.8833220  97.8384596  58.5758018
  61.0599849  98.7602561  58.3879002  61.6790054  97.5243015  59.0052398
  60.1685577  89.8849228  68.4520181  60.0539092  88.9834485  68.7527280
  59.3130095  90.1312925  68.1004997  67.2477415  97.8266968  70.0507682
  66.8041269  97.0403347  69.7328586  67.9094628  98.0146119  69.3851572
  62.0064536  99.3562770  64.5768360  62.5571961  99.2279833  63.8045354
  61.1676012  99.6557659  64.2263253  69.3458653  98.1069768  68.0789083
  69.3277128  98.9278649  67.5869352  70.2678573  97.9823844  68.3039224
  65.8031707  95.6213898  68.9212591  66.3360044  94.8602186  68.6911899
  65.2745788  95.3287550  69.6636746  57.0387253  93.0507494  57.2694835
  57.8762475  93.4604503  57.0528543  57.2165520  92.1106936  57.2395029
  68.9351685  90.7182575  52.9578668  68.4198308  91.4887180  53.1967055
  68.6628993  90.0447711  53.5811729  73.9085959  93.4714930  54.8931842
  73.1315402  93.1326089  54.4487004  74.5877440  93.4767553  54.2186807
  68.7237988  88.5909667  54.7838449  68.4188123  88.9055816  55.6348592
  69.6768430  88.6691087  54.8265782  67.1684420  94.7499890  56.4331403
  66.6405781  94.0152650  56.1204641  66.6671922  95.5274567  56.1871372
  72.1477266  92.9448911  61.5498450  71.4900940  93.6348172  61.6378578
  72.9517665  93.3345343  61.8932436  70.9582724  91.2993283  59.6002391
  71.4714606  91.9323275  60.1024101  71.6083948  90.6994479  59.2345751
  62.2272734  87.4424018  52.8133900  61.3910047  87.7798704  53.1343175
  62.0877504  87.3072997  51.8761037  65.3137020  92.5680101  49.4366376
  64.4064082  92.3369354  49.6357525  65.8108052  91.7717720  49.6240358
  68.2205099 101.2777608  52.3563062  67.5466797 101.5809304  52.9648020
  68.6070921 102.0806688  52.0068519  68.2198603  90.1734155  56.9763412
  68.9670422  90.6855552  56.6670534  68.4890193  89.8518207  57.8367806
  66.4925253  92.6692695  53.9590366  65.5836473  92.3851728  54.0562836
  66.5220337  93.0891774  53.0993673  71.7244521  96.2799285  57.7281534
  71.2706848  95.4390195  57.7846724  71.0938487  96.9160683  58.0656314
  70.1677460  98.1175782  58.6631352  70.4600434  98.6780839  57.9443718
  70.6776080  98.4104343  59.4184511  65.0410147  90.2821316  60.0600162
  65.0958757  89.3295152  59.9842638  64.2301349  90.4380755  60.5441460
  66.1901341  94.2101439  51.2978445  65.7520771  93.4937298  50.8384082
  66.9311782  94.4377554  50.7363536  65.1311085  98.8956133  59.7524805
  65.0887264  99.1216979  58.8233337  66.0473784  98.6619507  59.9010606
  74.3074456  92.4858636  57.3554763  74.1692354  92.6760232  56.4275953
  73.9510675  93.2478019  57.8122815  74.3343835  94.5535163  62.3666035
  74.7680342  94.4610452  63.2149089  75.0475416  94.5292664  61.7286051
  63.2476886  95.7719162  59.5486768  64.0417484  95.2769482  59.3469343
  62.5368578  95.2437025  59.1854474  68.0671730  98.1537257  63.8999136
  68.1208753  98.7228194  64.6676851  67.1986512  98.3239142  63.5353173
  75.1959385  94.5958864  64.8998920  75.3895275  95.5004674  65.1458195
  75.0960003  94.1366283  65.7337505  70.2574494  94.7465607  70.4739801
  70.1060000  94.5176158  69.5569885  70.2479173  95.7036208  70.4871146
  67.0259830  92.3197519  65.4586067  67.9551890  92.4708679  65.2855035
  66.6050860  92.4081540  64.6034714  65.8248162  96.3448184  63.2284605
  65.6859248  95.9766968  64.1010543  65.0362758  96.8595823  63.0568563
  66.4196314 101.4457280  54.5710142  66.5948070 100.9745323  55.3855764
  65.7329102 102.0723046  54.7991402  67.3753377  95.7229786  60.6173443
  67.0403210  95.6830556  61.5131093  66.8757323  95.0574502  60.1443853
  61.3497621  91.1297416  66.1426024  61.2117419  90.3977655  66.7437563
  62.2602544  91.0406317  65.8610212  70.3112569  93.0685821  50.8910502
  69.6941739  92.3432649  50.7943555  69.8429057  93.8295181  50.5477577
  63.9779922  90.8417376  65.6309704  64.6879540  90.2010568  65.5896322
  63.9349230  91.0930271  66.5535884  71.9666700  97.7784729  68.5516283
  71.9079246  97.0943949  67.8846866  72.3686219  98.5203719  68.0996909
  60.9857399 104.5946643  61.3450002  61.2253997 105.2265167  62.0229020
  60.1426596 104.2434683  61.6315361  62.1011115  87.2871245  50.0131807
  61.2240581  87.1660046  49.6494053  62.5768868  86.4957323  49.7610695
  71.9684108  95.7424313  66.7830263  71.0810886  95.4050235  66.9056661
  72.5382659  95.0107344  67.0199028  53.6213255  92.0748405  60.1073314
  54.3084295  91.7610135  59.5194329  53.4661383  92.9789769  59.8340565
  65.4985261 100.4025765  63.7491506  65.4255432 101.2080737  64.2610810
  65.0562654 100.6017731  62.9239527  65.2875041  99.6397535  57.2594327
  64.5042563 100.1819216  57.3532552  65.9867786 100.1571515  57.6588568
  76.4501448  91.1532530  61.5446824  76.4391324  92.0357246  61.1740757
  75.5818828  90.8004081  61.3501361  67.9583945 100.3012599  65.9049664
  68.6711917 100.9360064  65.8325566  67.4673973 100.3976465  65.0889666
  69.6801471  94.2063852  57.4766956  68.7457750  94.3265315  57.3071660
  69.8578140  93.3036319  57.2126966  73.0674023  90.0481171  58.0116990
  73.5334475  90.8809163  57.9377293  73.5181523  89.5826153  58.7162249
  63.0095858  98.0507043  66.7255235  63.7105318  98.6843526  66.8784629
  62.5390973  98.3921774  65.9650874  71.1350254  96.3924993  55.0103142
  71.4110098  96.2781587  55.9197016  70.2654753  95.9942478  54.9715315
  70.8097144  90.6051650  64.5507786  70.1568594  90.8527558  63.8960238
  71.1877524  89.7915789  64.2170263  67.7704318 100.6411343  58.6535956
  67.9526712  99.8232999  59.1163708  68.5937304 100.8579036  58.2160846
  68.1046483  99.5679529  55.9151004  68.6334250  99.0571983  55.3021166
  68.3674703  99.2522059  56.7796537  58.6063576  97.5843398  63.6586338
  59.1917013  96.8387086  63.7914242  58.4088415  97.8947355  64.5423002
  61.4602231 100.6194645  58.6748780  60.7912607 101.1040773  58.1912820
  61.3215101 100.8663866  59.5892159  53.1981231  90.1548998  62.3790781
  53.2365330  89.6212589  63.1727899  52.6921524  89.6284204  61.7601758
  65.6007500 102.6538389  65.2731439  66.1525808 102.8170010  66.0380524
  65.9413693 103.2442827  64.6011463  70.4518374  97.4799646  71.1280093
  70.9958278  98.0929605  70.6335048  69.8705219  98.0379225  71.6447106
  68.7375887 100.6020364  62.2595121  68.6127027  99.8010104  61.7506066
  69.3954978 101.0966558  61.7709091  70.8010796  98.4029384  63.8874671
  69.8541131  98.2834736  63.8152998  71.1493569  97.5151882  63.9700932
  67.8057229  98.1982101  60.0879023  67.6582191  97.2698808  60.2686593
  68.6310722  98.2202191  59.6036098  61.6719473  86.8500168  55.9459515
  62.0115546  87.3786089  55.2238124  62.1191594  87.1880574  56.7218082
  71.4091351  99.0210659  61.1743896  72.3337898  98.8153521  61.0368347
  71.2406654  98.7727061  62.0833237  63.6587620  85.3474789  54.1452808
  64.3795983  85.7256042  53.6416525  63.0352924  86.0663666  54.2487786
  62.5417965  89.0105652  61.6581885  62.3962545  89.3245955  62.5506166
  62.0643168  89.6290552  61.1052784  71.1986667  99.5396327  56.5305987
  71.3723544  98.9742749  55.7779840  71.6915558 100.3397222  56.3485477
  77.0526058  92.3032750  58.1496287  77.4957204  91.5540075  57.7515410
  76.1752568  92.2942886  57.7670019  72.1861839  98.8563091  53.6302886
  72.8812744  99.4769784  53.8490200  72.5284990  98.0058442  53.9055263
  74.0853263  96.3062797  55.1590216  74.6104587  96.6450070  54.4339536
  73.9975615  95.3709812  54.9753351  65.7473311 100.2196870  67.2880093
  66.0560438  99.9746017  68.1602793  66.5448793 100.4243509  66.7998963
  65.7693923 102.3734780  59.5185470  65.3298914 101.8811159  60.2118326
  66.5202040 101.8307748  59.2777545  58.2486262  98.5646321  59.5210098
  59.0744282  98.2650093  59.1408741  57.8980314  97.7953943  59.9699886
  63.2167795  97.9172789  61.5907771  62.5947805  97.2543494  61.2909999
  63.8872662  97.9433921  60.9081419  56.4494867  96.4832647  60.4799031
  55.6126776  96.0554822  60.2983032  56.4218513  96.6765091  61.4169822
  73.7747169  96.9395700  70.4641414  72.9842712  96.9219839  69.9245914
  73.5380523  97.4783994  71.2190451  73.8945044  93.7888167  67.7774143
  73.9443049  93.6238174  68.7189666  73.7858967  92.9215426  67.3872024
  62.7781302  96.4676712  55.0666232  62.9269423  97.1512177  54.4132904
  63.5847746  96.4481803  55.5815687  75.3963240  96.2085108  68.0216164
  75.1048049  96.5715089  68.8579625  74.7835372  95.4952117  67.8429496
  76.5958923  93.7737988  60.5418735  77.4305814  94.2127792  60.7056295
  76.7318052  93.2976641  59.7226980  73.6450429  91.3317723  66.4896222
  74.1204550  91.5245369  65.6815074  72.7215994  91.3876909  66.2439606
  60.5333935  92.4941890  56.0727301  60.2879977  91.5904220  56.2707511
  60.7029850  92.4959041  55.1306779  66.2776708  98.9624843  52.5377979
  65.7050675  99.5815030  52.0848451  66.8509502  99.5124205  53.0717901
  69.4973968  99.2461993  53.6686561  70.4304641  99.1807555  53.8719437
  69.4097180 100.0818260  53.2101094  72.1261984  98.5627863  50.6290509
  72.0475616  98.2287727  51.5226267  72.9471651  99.0549631  50.6281981
  74.8240176  91.4289603  63.8366828  74.7916496  90.4905603  64.0226511
  75.4340799  91.5073639  63.1032653  66.6623506  90.2985656  49.8794032
  67.6082611  90.1691864  49.9482450  66.2837751  89.5600318  50.3563460
  80.6416725  92.4905610  62.9772864  81.3720114  92.2290898  63.5380568
  80.0323671  91.7534331  63.0174932  78.7232022  90.6313472  63.5747316
  77.9965186  90.4969437  62.9663807  78.3079309  90.9390301  64.3804034
  66.5462199  94.3503402  71.3394689  67.4665208  94.5282001  71.5334735
  66.5111782  93.4059447  71.1874388  64.8466424  88.2235632  49.8148917
  63.9397879  87.9268745  49.8911631  65.1242405  87.9265450  48.9483203
  59.5424271  92.2604436  63.9817470  59.7610281  93.1921544  64.0005504
  59.9550045  91.9012411  64.7672274  66.4628489  82.7672522  55.9693158
  65.6529218  82.4219607  56.3448404  67.1512906  82.4580066  56.5580770
  63.6165208  85.0822567  49.9560896  64.4784372  85.4077466  50.2156713
  63.8015552  84.2954063  49.4433962  55.6332624  93.1644907  62.2341085
  54.9396095  92.7498860  61.7211039  56.3805615  93.2065443  61.6374504
  64.2783407  91.2634781  72.1885280  63.7950489  92.0635141  72.3949169
  64.3644346  91.2742726  71.2352724  57.5469366  93.0963161  60.1107100
  57.5240055  93.1950848  59.1588983  57.8570003  93.9428312  60.4324266
  60.2056744  95.1539316  64.2253714  61.1599998  95.1223258  64.1583646
  60.0069268  94.6929940  65.0403940  60.7956126  93.7240432  66.7924512
  61.6149015  94.2184510  66.8159349  61.0692934  92.8072400  66.7642079
  76.3409817  86.8525324  60.9280747  76.9354308  86.6121060  60.2174055
  76.4136401  86.1332455  61.5554284  58.5606973 100.6958935  61.2423912
  58.4261441  99.9359336  60.6761910  58.1439035 101.4199835  60.7752701
  69.6965936  95.8795859  50.2500487  70.4001786  96.0845861  50.8658143
  68.9728585  96.4472621  50.5149571  70.5263746  91.6305720  56.3702758
  70.4698948  92.0874271  55.5310390  71.0792089  90.8696405  56.1925600
  74.3368552  87.4195452  57.1952877  74.0805487  87.0192088  58.0261085
  73.7121420  88.1339246  57.0703016  78.6480890  90.1591525  59.7024168
  78.0880448  90.2284714  60.4755730  78.0424394  89.9832510  58.9823665
  61.7176099 101.5928252  61.4542355  61.6008483 102.5373685  61.3521045
  60.8968545 101.2901814  61.8428154  71.6052634  96.3178388  52.2998947
  72.4398237  95.8859586  52.1176422  71.4436976  96.1460402  53.2275842
  71.2598526  92.8210501  53.6655287  71.2047329  92.6554773  52.7243731
  70.6344581  93.5286534  53.8217476  68.5744433  95.1259413  72.9908849
  69.4435593  95.3000065  72.6295484  68.0951184  95.9453830  72.8684579
  64.5694651  82.3218610  53.2440605  64.5573321  83.2660450  53.4008876
  65.4618073  82.1388756  52.9500066  62.7430613 102.2456514  64.6698283
  63.6457860 102.2780124  64.9864778  62.5167983 101.3156965  64.6844619
  64.4984215 100.9987501  61.3308362  63.5479846 100.9989362  61.2172734
  64.8016701 100.2520235  60.8144396  80.2336909 106.8348039  62.3954124
  80.8715319 106.7154786  61.6917464  80.1157752 107.7828883  62.4542076
  77.0426615 106.7875467  62.3315649  76.7045126 106.6716532  61.4436184
  77.9116383 106.3866632  62.3116655  72.9013431 108.6410944  58.3212540
  72.3378296 108.5500881  57.5528828  72.7865826 107.8210848  58.8015032
  77.5246398 107.9410319  68.2901854  77.5135039 107.5463117  67.4182358
  77.6867037 107.2076392  68.8835626  70.4477863 110.1362135  61.1596760
  71.2399154 109.7952960  60.7443060  70.6874513 110.2457110  62.0798914
  78.4812989 112.3081911  53.6327005  77.8300969 112.8935992  53.2461018
  79.2757352 112.8388106  53.6922042  72.4068616 109.3971048  54.0314139
  73.1799492 108.8500036  53.8927015  72.7594015 110.2615298  54.2428600
  74.2453659 110.7247431  67.2381038  73.9543525 111.6293062  67.1227705
  74.8810643 110.7663958  67.9525108  75.1709866 108.1024279  63.8282398
  75.7673438 107.8780302  63.1139361  75.2284837 107.3609025  64.4307846
  74.7434894 105.5563715  51.6632589  74.9960415 105.0345236  50.9016052
  73.8059453 105.3929860  51.7659273  79.7878177 104.5599493  59.4707332
  80.5741266 104.1418916  59.1197749  80.0516881 105.4645585  59.6388981
  79.9588254 109.9972343  54.1695989  79.3234087 110.0706970  54.8816894
  79.6285661 110.5865942  53.4915068  85.1886604 104.4974726  60.3740311
  85.9211776 103.9273943  60.6078140  84.4325960 104.1096327  60.8146816
  74.4631183 107.4591821  53.8656964  74.3467441 106.7836724  54.5338048
  74.5733443 106.9724194  53.0489117  76.8062724 106.9201968  57.5703653
  76.4420931 106.3932589  58.2816575  77.6629840 106.5300437  57.3970139
  82.7112025  98.2096300  64.8334919  82.3795349  99.0791711  64.6096134
  82.1157638  97.8932584  65.5128950  76.4468211 101.9491867  52.5665002
  76.6142613 102.8172104  52.9335473  76.2565380 102.1119149  51.6426291
  79.2043544 110.4108846  64.2330832  78.9044267 111.3133885  64.1246639
  78.8594604 110.1441029  65.0851985  72.6556026 106.8622643  60.2667536
  71.7306522 106.7298857  60.4745228  72.9040439 107.6416862  60.7637479
  82.6040688 102.9291386  61.9128269  81.6957565 102.8606795  61.6187030
  82.5528284 103.4063331  62.7410095  76.4257432 104.4049525  53.5511668
  76.3057057 104.8506576  54.3897149  75.7310020 104.7534843  52.9925207
  70.0164837 106.5055917  61.1011326  70.1457218 106.7590396  62.0150737
  69.3362288 107.0983625  60.7815981  74.1864324 117.1753167  57.2001800
  74.1088354 118.1260992  57.2790280  73.5825967 116.8299039  57.8576726
  76.6781554 104.3481032  69.8563167  75.9014888 104.9074952  69.8466031
  77.3172117 104.8337815  70.3778037  84.4702334 101.1307825  63.6906143
  83.8276715 101.4240358  63.0445938  83.9657263 101.0160745  64.4959340
  82.1242498 104.8770998  54.3792003  83.0360354 105.1098385  54.2039700
  81.6152145 105.4608042  53.8167081  74.9327926 107.1566485  69.4181134
  75.6742610 107.6951529  69.1415957  74.2264911 107.7832774  69.5752685
  80.4083266 109.2995626  68.0153295  80.8166622 108.8578036  67.2707927
  79.6860527 108.7248253  68.2687488  76.7614336 104.2368233  65.3886852
  77.6075531 104.6607646  65.5321501  76.7012973 103.5801857  66.0825415
  80.7312080 109.8596816  61.7705584  80.1020943 110.0242531  61.0681652
  80.3437742 110.2738426  62.5416548  84.6101312 110.7951254  59.1249948
  83.9252350 111.1750156  58.5746981  84.6945161 111.4046581  59.8581896
  79.9113781 101.8972601  67.0468026  79.6674713 102.6514662  66.5102301
  80.1873712 102.2757949  67.8815273  81.8652244 108.4411213  65.7245291
  82.0769139 109.0842973  65.0479672  81.8181992 107.6073530  65.2567221
  79.4678473 101.0529034  62.6281863  78.6062952 101.3510288  62.9198601
  79.4940907 101.2699433  61.6962896  76.2840042 109.5971225  59.0355669
  76.7478388 109.8758928  58.2460292  76.0196840 108.6954669  58.8528760
  73.1764123 109.1442706  61.9735432  73.7465480 109.5729974  61.3352917
  73.7672235 108.8625291  62.6719618  75.2208928 105.7194377  55.8445234
  75.9232972 106.1715421  56.3119161  74.8889557 105.0778196  56.4725127
  73.6689290 104.3106134  70.2196444  73.0387950 104.9922414  70.4531840
  73.5625378 104.1989215  69.2749582  68.9634262 103.9777930  61.1462368
  68.1733316 104.2335458  60.6702478  69.4545510 104.7926267  61.2514408
  82.9798072 111.3183169  63.8967649  83.8015515 110.9163356  63.6150330
  82.9760475 111.2151403  64.8483764  70.9149008 104.3422509  58.1045845
  70.1180171 104.4541203  58.6229340  70.6874600 104.6809161  57.2386735
  76.7454675 110.8667212  66.0528359  76.8099108 111.3287619  66.8886531
  76.0365599 110.2364577  66.1810669  67.2471965 104.2308420  63.5777359
  67.4980004 105.1155430  63.8434935  67.7831514 104.0513022  62.8052450
  91.0704065 107.6621917  60.2452620  90.3167773 107.0929315  60.0896625
  91.2051606 107.6284582  61.1923255  76.4602693 112.5335320  55.9207339
  76.3248368 113.3786855  56.3492187  77.0012505 112.7354597  55.1573273
  72.9470032  98.6126899  72.5821695  72.5536978  98.0593098  73.2569339
  73.7636173  98.9237478  72.9728212  69.9132090 110.0510758  56.4935265
  70.4256611 110.8454008  56.6440829  70.5654803 109.3537048  56.4268866
  71.7226975 113.1676514  58.5758018  71.8993603 114.0894479  58.3879002
  72.5183808 112.8534933  59.0052398  75.8637993 100.0284779  70.1741951
  76.6047707 100.6291932  70.0946414  76.0955916  99.2862416  69.6159994
  71.0079331 105.2141146  68.4520181  70.8932847 104.3126403  68.7527280
  70.1523849 105.4604843  68.1004997  78.0871169 113.1558886  70.0507682
  77.6435023 112.3695265  69.7328586  78.7488383 113.3438037  69.3851572
  72.8458290 114.6854688  64.5768360  73.3965715 114.5571751  63.8045354
  72.0069766 114.9849577  64.2263253  80.1852407 113.4361686  68.0789083
  80.1670883 114.2570567  67.5869352  81.1072327 113.3115761  68.3039224
  76.6425461 110.9505815  68.9212591  77.1753798 110.1894104  68.6911899
  76.1139543 110.6579467  69.6636746  79.8095156  96.0565881  64.4506233
  79.4659426  96.9467523  64.3745344  80.1774119  95.8667539  63.5875818
  67.8781007 108.3799412  57.2694835  68.7156229 108.7896420  57.0528543
  68.0559275 107.4398854  57.2395029  79.7745439 106.0474493  52.9578668
  79.2592063 106.8179097  53.1967055  79.5022748 105.3739629  53.5811729
  77.3592550 100.8924193  58.0163906  76.5034146 100.5031044  57.8369545
  77.7719502 100.9716154  57.1563692  78.8891697  98.4270537  62.4155466
  78.3856492  98.3900672  61.6023271  79.1822304  99.3363279  62.4752123
  75.1334583  98.5109266  61.4221648  75.9987579  98.3152075  61.0627537
  75.2012092  98.2819618  62.3491005  84.7479713 108.8006847  54.8931842
  83.9709156 108.4618007  54.4487004  85.4271194 108.8059470  54.2186807
  79.5631742 103.9201585  54.7838449  79.2581878 104.2347734  55.6348592
  80.5162184 103.9983005  54.8265782  78.0078174 110.0791808  56.4331403
  77.4799536 109.3444568  56.1204641  77.5065677 110.8566484  56.1871372
  82.9871020 108.2740828  61.5498450  82.3294695 108.9640090  61.6378578
  83.7911419 108.6637260  61.8932436  72.7396902 100.7411474  58.7938015
  73.3140654 100.5186656  58.0611208  73.3267884 100.8100169  59.5466616
  81.7976479 106.6285201  59.6002391  82.3108361 107.2615193  60.1024101
  82.4477703 106.0286397  59.2345751  73.0666489 102.7715935  52.8133900
  72.2303801 103.1090622  53.1343175  72.9271258 102.6364915  51.8761037
  75.0419569  97.6152723  57.5213084  74.3883982  97.3001740  56.8969699
  75.0000044  96.9928464  58.2472907  76.1530774 107.8972018  49.4366376
  75.2457836 107.6661272  49.6357525  76.6501806 107.1009637  49.6240358
  79.0598853 116.6069525  52.3563062  78.3860552 116.9101222  52.9648020
  79.4464675 117.4098606  52.0068519  78.2757310 104.1034657  61.8460732
  77.3579871 104.3249604  61.6882420  78.6917453 104.1780967  60.9872439
  79.0592358 105.5026072  56.9763412  79.8064177 106.0147470  56.6670534
  79.3283947 105.1810125  57.8367806  77.3319008 107.9984613  53.9590366
  76.4230227 107.7143646  54.0562836  77.3614092 108.4183692  53.0993673
  82.5638275 111.6091203  57.7281534  82.1100602 110.7682112  57.7846724
  81.9332242 112.2452601  58.0656314  81.5071195 102.5383189  58.9582201
  80.7693952 102.0260575  59.2892444  81.7597968 102.0983570  58.1465478
  81.0071214 113.4467699  58.6631352  81.2994189 114.0072756  57.9443718
  81.5169835 113.7396260  59.4184511  81.6082822  95.3159441  59.5523971
  81.9141699  94.4556804  59.2649886  82.3335427  95.9077061  59.3522965
  67.9007178 105.7190127  57.9405569  67.7031578 105.1259488  57.2156635
  67.3453842 105.4142337  58.6581507  75.8803902 105.6113234  60.0600162
  75.9352512 104.6587070  59.9842638  75.0695104 105.7672673  60.5441460
  77.0295096 109.5393357  51.2978445  76.5914525 108.8229216  50.8384082
  77.7705536 109.7669472  50.7363536  73.8196262 104.2290293  57.8190541
  73.0064127 104.5284464  58.2255733  74.3155256 103.8345982  58.5365023
  75.9704840 114.2248050  59.7524805  75.9281018 114.4508897  58.8233337
  76.8867538 113.9911425  59.9010606  79.4170473 104.6932118  66.6505434
  79.7719861 104.9203591  67.5099900  80.0642605 105.0250495  66.0282690
  85.1468210 107.8150554  57.3554763  85.0086109 108.0052150  56.4275953
  84.7904429 108.5769937  57.8122815  73.3110336 101.8008649  63.4351775
  73.9509716 101.6597408  62.7374739  72.4787867 101.5143162  63.0590377
  85.1737590 109.8827081  62.3666035  85.6074097 109.7902370  63.2149089
  85.8869171 109.8584581  61.7286051  74.0870640 111.1011079  59.5486768
  74.8811239 110.6061400  59.3469343  73.3762333 110.5728943  59.1854474
  78.9065485 113.4829175  63.8999136  78.9602507 114.0520111  64.6676851
  78.0380266 113.6531060  63.5353173  70.3953404 105.2454161  55.6246521
  69.4650992 105.1838617  55.8416483  70.4910876 104.7230114  54.8283162
  70.3138953 101.7708974  58.2124762  70.5745770 102.6854307  58.1033923
  71.1356125 101.3033417  58.3621375  71.7863878 103.1846731  65.3823587
  72.4586932 102.9764093  64.7336236  70.9593665 102.9868817  64.9428819
  86.0353140 109.9250781  64.8998920  86.2289030 110.8296592  65.1458195
  85.9353758 109.4658201  65.7337505  77.6889450  99.8108672  67.3989248
  77.0417365 100.5098622  67.3053724  78.4590466 100.2444816  67.7665496
  81.0968248 110.0757524  70.4739801  80.9453755 109.8468076  69.5569885
  81.0872928 111.0328126  70.4871146  77.8653585 107.6489437  65.4586067
  78.7945645 107.8000597  65.2855035  77.4444615 107.7373458  64.6034714
  76.6641916 111.6740101  63.2284605  76.5253002 111.3058886  64.1010543
  75.8756513 112.1887741  63.0568563  77.2590068 116.7749198  54.5710142
  77.4341824 116.3037241  55.3855764  76.5722856 117.4014964  54.7991402
  78.2147132 111.0521704  60.6173443  77.8796964 111.0122474  61.5131093
  77.7151077 110.3866420  60.1443853  72.1891375 106.4589334  66.1426024
  72.0511173 105.7269573  66.7437563  73.0996299 106.3698234  65.8610212
  81.1506323 108.3977738  50.8910502  80.5335494 107.6724567  50.7943555
  80.6822812 109.1587099  50.5477577  74.8173676 106.1709293  65.6309704
  75.5273295 105.5302486  65.5896322  74.7742984 106.4222188  66.5535884
  82.8060455 113.1076647  68.5516283  82.7473001 112.4235867  67.8846866
  83.2079973 113.8495637  68.0996909  73.5302610 103.1574511  67.4505343
  72.9939967 102.7065250  68.1026939  72.9419319 103.2920420  66.7075807
  71.8251154 119.9238561  61.3450002  72.0647752 120.5557085  62.0229020
  70.9820350 119.5726601  61.6315361  72.9404869 102.6163163  50.0131807
  72.0634335 102.4951964  49.6494053  73.4162622 101.8249241  49.7610695
  82.8077862 111.0716231  66.7830263  81.9204641 110.7342152  66.9056661
  83.3776413 110.3399262  67.0199028  64.4607009 107.4040322  60.1073314
  65.1478049 107.0902052  59.5194329  64.3055138 108.3081687  59.8340565
  69.2641731 102.2930519  64.5358338  69.1799920 101.6856189  63.8008748
  68.4424438 102.7839537  64.5367834  76.3379015 115.7317683  63.7491506
  76.2649187 116.5372655  64.2610810  75.8956409 115.9309649  62.9239527
  76.1268795 114.9689453  57.2594327  75.3436317 115.5111133  57.3532552
  76.8261540 115.4863433  57.6588568  79.4365445 100.7784083  59.9028533
  79.9334145 100.0254045  59.5829603  78.6652427 100.8148399  59.3371742
  87.2895203 106.4824448  61.5446824  87.2785079 107.3649163  61.1740757
  86.4212582 106.1295999  61.3501361  78.7977699 115.6304517  65.9049664
  79.5105671 116.2651982  65.8325566  78.3067728 115.7268383  65.0889666
  80.5195226 109.5355770  57.4766956  79.5851505 109.6557232  57.3071660
  80.6971894 108.6328237  57.2126966  76.0200414 102.9201466  59.6300217
  75.6498201 102.3672506  60.3181123  76.5159506 102.3159599  59.0775217
  83.9067777 105.3773089  58.0116990  84.3728229 106.2101081  57.9377293
  84.3575278 104.9118071  58.7162249  73.8489613 113.3798961  66.7255235
  74.5499072 114.0135444  66.8784629  73.3784728 113.7213692  65.9650874
  81.9744008 111.7216910  55.0103142  82.2503852 111.6073505  55.9197016
  81.1048507 111.3234395  54.9715315  81.8784440  97.7453676  62.0507892
  80.9647520  97.9757903  62.2190098  82.3077541  97.8292120  62.9021924
  81.6490899 105.9343568  64.5507786  80.9962349 106.1819475  63.8960238
  82.0271278 105.1207706  64.2170263  78.6098072 115.9703261  58.6535956
  78.7920467 115.1524917  59.1163708  79.4331058 116.1870953  58.2160846
  78.9440238 114.8971446  55.9151004  79.4728004 114.3863901  55.3021166
  79.2068457 114.5813977  56.7796537  77.6978472 106.6763379  71.0373823
  77.0219109 106.5757508  71.7076198  78.5206105 106.5202593  71.5009820
  69.4457331 112.9135316  63.6586338  70.0310767 112.1679003  63.7914242
  69.2482169 113.2239272  64.5423002  72.2995986 115.9486563  58.6748780
  71.6306361 116.4332691  58.1912820  72.1608856 116.1955783  59.5892159
  64.0374985 105.4840916  62.3790781  64.0759085 104.9504506  63.1727899
  63.5315278 104.9576121  61.7601758  76.4401254 117.9830307  65.2731439
  76.9919562 118.1461928  66.0380524  76.7807448 118.5734744  64.6011463
  71.4165748 100.3305456  65.8753323  71.4807074 101.1920287  65.4630721
  71.3532868  99.7179458  65.1425682  70.8918020 102.4028589  69.5226358
  71.5190059 102.0205666  70.1363882  70.0345939 102.1842791  69.8882050
  81.2912129 112.8091564  71.1280093  81.8352033 113.4221522  70.6335048
  80.7098974 113.3671142  71.6447106  67.6683563 104.2105018  55.4544712
  67.9637004 103.3015696  55.4011766  66.7671599 104.1892757  55.1325715
  79.5769642 115.9312282  62.2595121  79.4520781 115.1302022  61.7506066
  80.2348733 116.4258475  61.7709091  71.1977810 102.2861015  61.4372261
  70.4764396 102.8996982  61.2979734  71.9871066 102.8218779  61.3588907
  81.6404550 113.7321302  63.8874671  80.6934886 113.6126653  63.8152998
  81.9887323 112.8443800  63.9700932  74.0004123  99.6215441  67.7112913
  74.5238525  99.8677738  68.4739222  73.7816457 100.4535476  67.2916050
  69.3971405 101.8919116  55.5784038  69.0684111 101.0116495  55.3959143
  69.7510775 101.8366784  56.4660427  78.6450983 113.5274018  60.0879023
  78.4975946 112.5990726  60.2686593  79.4704477 113.5494109  59.6036098
  72.5113228 102.1792085  55.9459515  72.8509300 102.7078007  55.2238124
  72.9585348 102.5172492  56.7218082  82.2485105 114.3502577  61.1743896
  83.1731653 114.1445438  61.0368347  82.0800409 114.1018978  62.0833237
  75.2056668 100.5629136  65.3962583  74.8653489  99.7636949  65.7983263
  74.4995675 100.8630847  64.8239416  75.8573140  97.6478449  63.8489906
  76.6799210  97.1738927  63.7268797  76.1011204  98.4268932  64.3488593
  74.4981375 100.6766707  54.1452808  75.2189737 101.0547960  53.6416525
  73.8746679 101.3955584  54.2487786  78.6412498 101.3811856  55.0811140
  78.8576112 102.2636494  54.7799969  78.1606565 100.9898069  54.3516782
  73.3811719 104.3397569  61.6581885  73.2356300 104.6537872  62.5506166
  72.9036923 104.9582470  61.1052784  75.2408102 101.3300117  61.7062774
  75.2269671 100.4341210  61.3695072  75.9580530 101.3370781  62.3401061
  77.0934233 101.7637457  63.7515902  76.8352010 102.6854528  63.7500232
  76.5619273 101.3667892  64.4416366  82.0380421 114.8688245  56.5305987
  82.2117299 114.3034667  55.7779840  82.5309313 115.6689139  56.3485477
  67.8557381 106.8802914  64.5969546  67.3110849 107.6562722  64.7289820
  68.7336731 107.2273718  64.4388668  74.6444998 100.2114497  56.9750345
  74.7660909  99.2831144  57.1741232  74.3547040 100.2253183  56.0628660
  77.5136188  97.8969408  60.1117064  77.5357885  97.9608741  59.1569044
  77.9304247  97.0573917  60.3057571  87.8919813 107.6324667  58.1496287
  88.3350959 106.8831993  57.7515410  87.0146323 107.6234804  57.7670019
  83.0255594 114.1855009  53.6302886  83.7206499 114.8061702  53.8490200
  83.3678744 113.3350360  53.9055263  68.6423403 106.0072810  67.4899703
  67.9005139 106.1555445  68.0764333  68.3216147 106.2681075  66.6266452
  84.9247017 111.6354714  55.1590216  85.4498341 111.9741987  54.4339536
  84.8369370 110.7001730  54.9753351  76.5867066 115.5488788  67.2880093
  76.8954192 115.3037935  68.1602793  77.3842548 115.7535427  66.7998963
  76.6087678 117.7026698  59.5185470  76.1692668 117.2103076  60.2118326
  77.3595795 117.1599665  59.2777545  69.0880017 113.8938239  59.5210098
  69.9138037 113.5942010  59.1408741  68.7374069 113.1245861  59.9699886
  74.0561550 113.2464707  61.5907771  73.4341559 112.5835412  61.2909999
  74.7266417 113.2725839  60.9081419  67.2888622 111.8124565  60.4799031
  66.4520530 111.3846739  60.2983032  67.2612267 112.0057008  61.4169822
  74.1286077 101.7246495  71.1840277  74.1774233 102.6008618  70.8018047
  74.6708592 101.1823888  70.6111920  84.6140923 112.2687618  70.4641414
  83.8236467 112.2511757  69.9245914  84.3774278 112.8075912  71.2190451
  84.7338798 109.1180084  67.7774143  84.7836803 108.9530092  68.7189666
  84.6252721 108.2507343  67.3872024  73.6175057 111.7968630  55.0666232
  73.7663177 112.4804095  54.4132904  74.4241500 111.7773720  55.5815687
  82.0242561 105.1011012  69.0933450  82.9252423 104.9617477  68.8017447
  82.0990535 105.2665467  70.0331627  76.3585366 102.4777867  67.9386636
  75.4888675 102.7711433  67.6669224  76.5944846 103.0618312  68.6593900
  86.2356995 111.5377026  68.0216164  85.9441803 111.9007007  68.8579625
  85.6229126 110.8244034  67.8429496  87.4352677 109.1029906  60.5418735
  88.2699569 109.5419710  60.7056295  87.5711806 108.6268559  59.7226980
  84.4844183 106.6609641  66.4896222  84.9598305 106.8537287  65.6815074
  83.5609749 106.7168826  66.2439606  71.3727690 107.8233808  56.0727301
  71.1273732 106.9196138  56.2707511  71.5423604 107.8250958  55.1306779
  79.0624400  98.6957484  65.4552056  79.5806344  99.4318511  65.1298545
  78.7079532  99.0021477  66.2898815  70.6423337 103.5562165  53.5713462
  69.9492582 103.6306520  52.9153498  70.3975089 102.7922509  54.0934979
  79.3136994  95.1157767  60.9752953  79.5938748  94.4480956  61.6013379
  80.0987601  95.3086862  60.4627617  77.1170462 114.2916761  52.5377979
  76.5444429 114.9106948  52.0848451  77.6903256 114.8416122  53.0717901
  83.1845852 103.5375401  64.7224528  84.1363275 103.6373498  64.7436752
  83.0149303 102.7453669  65.2322612  81.2060232 100.6230984  64.9083929
  80.6110164 100.9035997  64.2130418  80.9209928 101.1124885  65.6800670
  80.3367722 114.5753911  53.6686561  81.2698395 114.5099472  53.8719437
  80.2490935 115.4110178  53.2101094  82.9655739 113.8919781  50.6290509
  82.8869370 113.5579645  51.5226267  83.7865406 114.3841549  50.6281981
  85.6633930 106.7581520  63.8366828  85.6310250 105.8197521  64.0226511
  86.2734554 106.8365557  63.1032653  77.5017261 105.6277573  49.8794032
  78.4476366 105.4983781  49.9482450  77.1231506 104.8892235  50.3563460
  85.8128418 103.5492564  63.8825111  85.2967467 102.7651020  63.6955040
  86.6968367 103.2211280  64.0471630  83.4739145  97.2933579  59.8420923
  83.2763967  96.9848668  60.7264255  84.0838851  98.0195218  59.9718853
  91.4810480 107.8197527  62.9772864  92.2113868 107.5582815  63.5380568
  90.8717425 107.0826249  63.0174932  89.5625777 105.9605390  63.5747316
  88.8358941 105.8261355  62.9663807  89.1473064 106.2682218  64.3804034
  77.3855953 109.6795319  71.3394689  78.3058963 109.8573918  71.5334735
  77.3505536 108.7351365  71.1874388  75.6860178 103.5527550  49.8148917
  74.7791633 103.2560662  49.8911631  75.9636159 103.2557368  48.9483203
  66.6038118 104.8733913  60.2647963  66.2840903 104.0199221  59.9722337
  66.0571547 105.0882491  61.0205931  70.3818026 107.5896354  63.9817470
  70.6004036 108.5213462  64.0005504  70.7943800 107.2304329  64.7672274
  77.3022244  98.0964439  55.9693158  76.4922972  97.7511524  56.3448404
  77.9906661  97.7871983  56.5580770  79.2312792  97.1742486  57.5917455
  79.7843831  97.5937940  58.2507478  79.4682878  96.2478234  57.6340411
  75.2545891 103.1629560  73.3720219  75.1542618 104.1123917  73.3032310
  75.0367433 102.8347799  72.4996289  74.4558963 100.4114485  49.9560896
  75.3178127 100.7369383  50.2156713  74.6409307  99.6245981  49.4433962
  66.4726378 108.4936825  62.2341085  65.7789850 108.0790777  61.7211039
  67.2199369 108.5357361  61.6374504  82.6091599  99.2843011  57.0996119
  82.0290268  99.9427815  56.7174172  82.3427532  98.4620356  56.6883537
  81.0595165  98.6848069  59.3017439  81.5594944  98.7964604  58.4931758
  81.7030773  98.3809122  59.9418248  75.1177161 106.5926699  72.1885280
  74.6344243 107.3927059  72.3949169  75.2038100 106.6034644  71.2352724
  68.3863121 108.4255078  60.1107100  68.3633809 108.5242766  59.1588983
  68.6963757 109.2720229  60.4324266  71.0450499 110.4831233  64.2253714
  71.9993752 110.4515176  64.1583646  70.8463022 110.0221857  65.0403940
  71.6349881 109.0532349  66.7924512  72.4542770 109.5476428  66.8159349
  71.9086689 108.1364318  66.7642079  81.3916477 101.4443102  56.1552467
  80.5042332 101.7292752  55.9372662  81.8070466 101.2836865  55.3079744
  84.7431013 101.4689623  59.8706807  85.5191403 101.9586075  60.1431423
  84.0179147 101.8947677  60.3278676  87.1803572 102.1817242  60.9280747
  87.7748063 101.9412978  60.2174055  87.2530156 101.4624373  61.5554284
  69.4000728 116.0250853  61.2423912  69.2655196 115.2651254  60.6761910
  68.9832790 116.7491753  60.7752701  80.5359691 111.2087776  50.2500487
  81.2395541 111.4137779  50.8658143  79.8122339 111.7764538  50.5149571
  81.3657501 106.9597638  56.3702758  81.3092702 107.4166189  55.5310390
  81.9185843 106.1988322  56.1925600  85.1762307 102.7487370  57.1952877
  84.9199241 102.3484005  58.0261085  84.5515175 103.4631164  57.0703016
  89.4874645 105.4883443  59.7024168  88.9274203 105.5576632  60.4755730
  88.8818148 105.3124427  58.9823665  72.5569853 116.9220170  61.4542355
  72.4402238 117.8665602  61.3521045  71.7362300 116.6193732  61.8428154
  82.4446388 111.6470306  52.2998947  83.2791992 111.2151504  52.1176422
  82.2830731 111.4752319  53.2275842  82.0992280 108.1502419  53.6655287
  82.0441084 107.9846690  52.7243731  81.4738335 108.8578452  53.8217476
  66.8884795 103.3870483  67.4916709  67.5343659 102.8769437  67.9803934
  66.6801946 104.1239165  68.0660134  79.4138187 110.4551331  72.9908849
  80.2829347 110.6291983  72.6295484  78.9344939 111.2745748  72.8684579
  75.4088406  97.6510528  53.2440605  75.3967075  98.5952368  53.4008876
  76.3011828  97.4680673  52.9500066  73.5824368 117.5748432  64.6698283
  74.4851614 117.6072042  64.9864778  73.3561738 116.6448883  64.6844619
  75.3377970 116.3279418  61.3308362  74.3873601 116.3281280  61.2172734
  75.6410456 115.5812153  60.8144396  79.2240525  94.2453305  57.4986542
  78.4572921  93.6911791  57.6443224  79.6351230  94.3175173  58.3600694
  71.2282286 100.5338100  71.5891723  72.0913748 100.1774905  71.7995048
  70.6547697 100.1951995  72.2767127  91.0730663 122.1639957  62.3954124
  91.7109073 122.0446704  61.6917464  90.9551506 123.1120801  62.4542076
  87.8820369 122.1167385  62.3315649  87.5438881 122.0008450  61.4436184
  88.7510138 121.7158550  62.3116655  83.7407185 123.9702861  58.3212540
  83.1772050 123.8792798  57.5528828  83.6259580 123.1502766  58.8015032
  88.3640152 123.2702237  68.2901854  88.3528793 122.8755035  67.4182358
  88.5260792 122.5368309  68.8835626  81.2871617 125.4654053  61.1596760
  82.0792909 125.1244878  60.7443060  81.5268267 125.5749028  62.0798914
  83.2462371 124.7262966  54.0314139  84.0193247 124.1791953  53.8927015
  83.5987770 125.5907215  54.2428600  85.0847414 126.0539348  67.2381038
  84.7937279 126.9584979  67.1227705  85.7204398 126.0955876  67.9525108
  86.0103620 123.4316197  63.8282398  86.6067193 123.2072219  63.1139361
  86.0678592 122.6900942  64.4307846  85.5828649 120.8855632  51.6632589
  85.8354169 120.3637154  50.9016052  84.6453208 120.7221778  51.7659273
  90.6271932 119.8891411  59.4707332  91.4135021 119.4710834  59.1197749
  90.8910636 120.7937503  59.6388981  96.0280359 119.8266644  60.3740311
  96.7605531 119.2565861  60.6078140  95.2719714 119.4388244  60.8146816
  85.3024938 122.7883738  53.8656964  85.1861196 122.1128642  54.5338048
  85.4127197 122.3016112  53.0489117  87.6456478 122.2493885  57.5703653
  87.2814686 121.7224506  58.2816575  88.5023594 121.8592354  57.3970139
  93.5505779 113.5388218  64.8334919  93.2189104 114.4083629  64.6096134
  92.9551392 113.2224502  65.5128950  87.2861965 117.2783785  52.5665002
  87.4536368 118.1464021  52.9335473  87.0959134 117.4411067  51.6426291
  83.4949780 122.1914561  60.2667536  82.5700277 122.0590775  60.4745228
  83.7434193 122.9708780  60.7637479  93.4434442 118.2583304  61.9128269
  92.5351320 118.1898713  61.6187030  93.3922038 118.7355249  62.7410095
  87.2651186 119.7341443  53.5511668  87.1450811 120.1798493  54.3897149
  86.5703775 120.0826760  52.9925207  80.8558591 121.8347834  61.1011326
  80.9850972 122.0882313  62.0150737  80.1756042 122.4275542  60.7815981
  87.5175308 119.6772950  69.8563167  86.7408642 120.2366870  69.8466031
  88.1565871 120.1629733  70.3778037  95.3096089 116.4599743  63.6906143
  94.6670469 116.7532276  63.0445938  94.8051017 116.3452663  64.4959340
  92.9636252 120.2062916  54.3792003  93.8754109 120.4390302  54.2039700
  92.4545900 120.7899960  53.8167081  85.7721680 122.4858403  69.4181134
  86.5136365 123.0243447  69.1415957  85.0658666 123.1124692  69.5752685
  91.2477020 124.6287544  68.0153295  91.6560376 124.1869954  67.2707927
  90.5254282 124.0540171  68.2687488  87.6008090 119.5660150  65.3886852
  88.4469285 119.9899564  65.5321501  87.5406728 118.9093775  66.0825415
  90.7507535 117.2264519  67.0468026  90.5068467 117.9806579  66.5102301
  91.0267466 117.6049866  67.8815273  90.3072227 116.3820952  62.6281863
  89.4456706 116.6802205  62.9198601  90.3334662 116.5991351  61.6962896
  87.1233797 124.9263142  59.0355669  87.5872142 125.2050845  58.2460292
  86.8590595 124.0246587  58.8528760  84.0157878 124.4734624  61.9735432
  84.5859235 124.9021892  61.3352917  84.6065990 124.1917208  62.6719618
  86.0602683 121.0486295  55.8445234  86.7626726 121.5007338  56.3119161
  85.7283311 120.4070113  56.4725127  84.5083044 119.6398051  70.2196444
  83.8781705 120.3214332  70.4531840  84.4019132 119.5281133  69.2749582
  79.8028017 119.3069847  61.1462368  79.0127071 119.5627376  60.6702478
  80.2939264 120.1218185  61.2514408  81.7542762 119.6714427  58.1045845
  80.9573925 119.7833121  58.6229340  81.5268354 120.0101079  57.2386735
  87.5848430 126.1959130  66.0528359  87.6492862 126.6579537  66.8886531
  86.8759354 125.5656495  66.1810669  78.0865720 119.5600338  63.5777359
  78.3373758 120.4447348  63.8434935  78.6225268 119.3804939  62.8052450
  83.7863787 113.9418817  72.5821695  83.3930733 113.3885016  73.2569339
  84.6029927 114.2529396  72.9728212  80.7525845 125.3802675  56.4935265
  81.2650365 126.1745926  56.6440829  81.4048558 124.6828966  56.4268866
  82.5620729 128.4968432  58.5758018  82.7387358 129.4186396  58.3879002
  83.3577563 128.1826851  59.0052398  86.7031748 115.3576696  70.1741951
  87.4441461 115.9583849  70.0946414  86.9349671 114.6154334  69.6159994
  81.8473086 120.5433063  68.4520181  81.7326601 119.6418321  68.7527280
  80.9917604 120.7896760  68.1004997  83.6852045 130.0146605  64.5768360
  84.2359470 129.8863669  63.8045354  82.8463521 130.3141494  64.2263253
  87.4819216 126.2797733  68.9212591  88.0147553 125.5186021  68.6911899
  86.9533297 125.9871385  69.6636746  90.6488911 111.3857799  64.4506233
  90.3053180 112.2759441  64.3745344  91.0167873 111.1959457  63.5875818
  78.7174761 123.7091330  57.2694835  79.5549983 124.1188338  57.0528543
  78.8953029 122.7690772  57.2395029  90.6139194 121.3766410  52.9578668
  90.0985817 122.1471015  53.1967055  90.3416502 120.7031546  53.5811729
  88.1986305 116.2216111  58.0163906  87.3427901 115.8322961  57.8369545
  88.6113256 116.3008072  57.1563692  89.7285451 113.7562454  62.4155466
  89.2250247 113.7192589  61.6023271  90.0216058 114.6655197  62.4752123
  85.9728337 113.8401184  61.4221648  86.8381334 113.6443993  61.0627537
  86.0405846 113.6111536  62.3491005  90.4025497 119.2493502  54.7838449
  90.0975632 119.5639652  55.6348592  91.3555939 119.3274922  54.8265782
  88.8471929 125.4083726  56.4331403  88.3193290 124.6736485  56.1204641
  88.3459431 126.1858402  56.1871372  83.5790656 116.0703392  58.7938015
  84.1534408 115.8478573  58.0611208  84.1661639 116.1392086  59.5466616
  92.6370233 121.9577119  59.6002391  93.1502115 122.5907111  60.1024101
  93.2871457 121.3578314  59.2345751  83.9060243 118.1007853  52.8133900
  83.0697556 118.4382539  53.1343175  83.7665013 117.9656833  51.8761037
  85.8813324 112.9444641  57.5213084  85.2277736 112.6293658  56.8969699
  85.8393798 112.3220381  58.2472907  86.9924529 123.2263936  49.4366376
  86.0851591 122.9953189  49.6357525  87.4895561 122.4301555  49.6240358
  89.1151064 119.4326574  61.8460732  88.1973626 119.6541521  61.6882420
  89.5311208 119.5072885  60.9872439  89.8986112 120.8317990  56.9763412
  90.6457931 121.3439387  56.6670534  90.1677702 120.5102043  57.8367806
  88.1712762 123.3276531  53.9590366  87.2623981 123.0435564  54.0562836
  88.2007846 123.7475609  53.0993673  92.3464949 117.8675106  58.9582201
  91.6087706 117.3552493  59.2892444  92.5991723 117.4275488  58.1465478
  92.4476577 110.6451358  59.5523971  92.7535453 109.7848722  59.2649886
  93.1729181 111.2368979  59.3522965  78.7400933 121.0482045  57.9405569
  78.5425332 120.4551406  57.2156635  78.1847597 120.7434255  58.6581507
  86.7197656 120.9405151  60.0600162  86.7746266 119.9878988  59.9842638
  85.9088858 121.0964590  60.5441460  87.8688850 124.8685274  51.2978445
  87.4308280 124.1521133  50.8384082  88.6099291 125.0961389  50.7363536
  84.6590016 119.5582211  57.8190541  83.8457882 119.8576382  58.2255733
  85.1549010 119.1637900  58.5365023  90.2564228 120.0224036  66.6505434
  90.6113616 120.2495509  67.5099900  90.9036359 120.3542412  66.0282690
  84.1504091 117.1300567  63.4351775  84.7903470 116.9889326  62.7374739
  83.3181622 116.8435080  63.0590377  84.9264395 126.4302997  59.5486768
  85.7204993 125.9353317  59.3469343  84.2156087 125.9020860  59.1854474
  81.2347158 120.5746079  55.6246521  80.3044746 120.5130534  55.8416483
  81.3304630 120.0522032  54.8283162  81.1532707 117.1000892  58.2124762
  81.4139525 118.0146225  58.1033923  81.9749880 116.6325334  58.3621375
  82.6257633 118.5138649  65.3823587  83.2980686 118.3056011  64.7336236
  81.7987419 118.3160735  64.9428819  88.5283205 115.1400590  67.3989248
  87.8811120 115.8390539  67.3053724  89.2984220 115.5736734  67.7665496
  88.7047339 122.9781355  65.4586067  89.6339399 123.1292514  65.2855035
  88.2838369 123.0665375  64.6034714  87.5035671 127.0032019  63.2284605
  87.3646757 126.6350803  64.1010543  86.7150267 127.5179658  63.0568563
  89.0540886 126.3813622  60.6173443  88.7190719 126.3414392  61.5131093
  88.5544832 125.7158338  60.1443853  83.0285130 121.7881252  66.1426024
  82.8904928 121.0561491  66.7437563  83.9390053 121.6990152  65.8610212
  91.9900078 123.7269656  50.8910502  91.3729248 123.0016484  50.7943555
  91.5216566 124.4879016  50.5477577  85.6567431 121.5001211  65.6309704
  86.3667049 120.8594403  65.5896322  85.6136739 121.7514106  66.5535884
  84.3696365 118.4866429  67.4505343  83.8333722 118.0357167  68.1026939
  83.7813073 118.6212338  66.7075807  83.7798624 117.9455080  50.0131807
  82.9028090 117.8243881  49.6494053  84.2556377 117.1541159  49.7610695
  75.3000764 122.7332240  60.1073314  75.9871804 122.4193970  59.5194329
  75.1448892 123.6373605  59.8340565  80.1035486 117.6222437  64.5358338
  80.0193675 117.0148106  63.8008748  79.2818192 118.1131455  64.5367834
  90.2759200 116.1076000  59.9028533  90.7727899 115.3545963  59.5829603
  89.5046181 116.1440317  59.3371742  91.3588980 124.8647687  57.4766956
  90.4245259 124.9849150  57.3071660  91.5365649 123.9620154  57.2126966
  86.8594168 118.2493383  59.6300217  86.4891956 117.6964424  60.3181123
  87.3553261 117.6451517  59.0775217  94.7461532 120.7065007  58.0116990
  95.2121984 121.5392998  57.9377293  95.1969032 120.2409988  58.7162249
  84.6883367 128.7090878  66.7255235  85.3892827 129.3427361  66.8784629
  84.2178482 129.0505610  65.9650874  92.7178194 113.0745594  62.0507892
  91.8041274 113.3049821  62.2190098  93.1471296 113.1584038  62.9021924
  92.4884653 121.2635486  64.5507786  91.8356103 121.5111393  63.8960238
  92.8665033 120.4499624  64.2170263  88.5372226 122.0055297  71.0373823
  87.8612863 121.9049426  71.7076198  89.3599860 121.8494510  71.5009820
  80.2851085 128.2427233  63.6586338  80.8704522 127.4970921  63.7914242
  80.0875924 128.5531190  64.5423002  74.8768740 120.8132833  62.3790781
  74.9152839 120.2796424  63.1727899  74.3709033 120.2868039  61.7601758
  82.2559502 115.6597374  65.8753323  82.3200829 116.5212205  65.4630721
  82.1926622 115.0471376  65.1425682  81.7311775 117.7320507  69.5226358
  82.3583813 117.3497584  70.1363882  80.8739694 117.5134708  69.8882050
  78.5077317 119.5396936  55.4544712  78.8030758 118.6307614  55.4011766
  77.6065353 119.5184675  55.1325715  82.0371564 117.6152932  61.4372261
  81.3158150 118.2288900  61.2979734  82.8264820 118.1510697  61.3588907
  84.8397878 114.9507359  67.7112913  85.3632280 115.1969655  68.4739222
  84.6210211 115.7827394  67.2916050  80.2365159 117.2211033  55.5784038
  79.9077865 116.3408412  55.3959143  80.5904530 117.1658702  56.4660427
  83.3506982 117.5084003  55.9459515  83.6903055 118.0369924  55.2238124
  83.7979103 117.8464409  56.7218082  86.0450423 115.8921054  65.3962583
  85.7047243 115.0928867  65.7983263  85.3389429 116.1922765  64.8239416
  86.6966895 112.9770366  63.8489906  87.5192964 112.5030844  63.7268797
  86.9404958 113.7560850  64.3488593  85.3375129 116.0058625  54.1452808
  86.0583492 116.3839877  53.6416525  84.7140433 116.7247501  54.2487786
  89.4806252 116.7103774  55.0811140  89.6969867 117.5928412  54.7799969
  89.0000319 116.3189987  54.3516782  84.2205474 119.6689487  61.6581885
  84.0750054 119.9829790  62.5506166  83.7430677 120.2874387  61.1052784
  86.0801856 116.6592035  61.7062774  86.0663425 115.7633128  61.3695072
  86.7974285 116.6662699  62.3401061  87.9327987 117.0929375  63.7515902
  87.6745765 118.0146446  63.7500232  87.4013028 116.6959810  64.4416366
  78.6951136 122.2094831  64.5969546  78.1504604 122.9854639  64.7289820
  79.5730486 122.5565636  64.4388668  85.4838752 115.5406415  56.9750345
  85.6054664 114.6123061  57.1741232  85.1940795 115.5545101  56.0628660
  88.3529943 113.2261326  60.1117064  88.3751640 113.2900659  59.1569044
  88.7698002 112.3865834  60.3057571  79.4817158 121.3364728  67.4899703
  78.7398894 121.4847363  68.0764333  79.1609902 121.5972993  66.6266452
  79.9273771 129.2230156  59.5210098  80.7531791 128.9233928  59.1408741
  79.5767823 128.4537779  59.9699886  84.8955304 128.5756624  61.5907771
  84.2735314 127.9127330  61.2909999  85.5660171 128.6017756  60.9081419
  78.1282376 127.1416483  60.4799031  77.2914285 126.7138657  60.2983032
  78.1006022 127.3348926  61.4169822  84.9679832 117.0538413  71.1840277
  85.0167987 117.9300535  70.8018047  85.5102346 116.5115806  70.6111920
  84.4568811 127.1260548  55.0666232  84.6056932 127.8096012  54.4132904
  85.2635255 127.1065638  55.5815687  92.8636315 120.4302930  69.0933450
  93.7646178 120.2909395  68.8017447  92.9384290 120.5957385  70.0331627
  87.1979120 117.8069785  67.9386636  86.3282430 118.1003351  67.6669224
  87.4338601 118.3910230  68.6593900  82.2121444 123.1525725  56.0727301
  81.9667486 122.2488055  56.2707511  82.3817359 123.1542876  55.1306779
  89.9018154 114.0249402  65.4552056  90.4200098 114.7610429  65.1298545
  89.5473287 114.3313395  66.2898815  81.4817092 118.8854083  53.5713462
  80.7886337 118.9598438  52.9153498  81.2368844 118.1214427  54.0934979
  90.1530748 110.4449684  60.9752953  90.4332502 109.7772873  61.6013379
  90.9381355 110.6378780  60.4627617  94.0239607 118.8667318  64.7224528
  94.9757030 118.9665416  64.7436752  93.8543057 118.0745587  65.2322612
  92.0453986 115.9522902  64.9083929  91.4503918 116.2327914  64.2130418
  91.7603683 116.4416803  65.6800670  88.3411015 120.9569491  49.8794032
  89.2870120 120.8275699  49.9482450  87.9625260 120.2184153  50.3563460
  96.6522173 118.8784481  63.8825111  96.1361222 118.0942938  63.6955040
  97.5362121 118.5503198  64.0471630  94.3132900 112.6225497  59.8420923
  94.1157721 112.3140585  60.7264255  94.9232605 113.3487136  59.9718853
  88.2249708 125.0087237  71.3394689  89.1452717 125.1865836  71.5334735
  88.1899291 124.0643283  71.1874388  86.5253933 118.8819467  49.8148917
  85.6185388 118.5852580  49.8911631  86.8029914 118.5849286  48.9483203
  77.4431873 120.2025831  60.2647963  77.1234657 119.3491139  59.9722337
  76.8965301 120.4174409  61.0205931  81.2211780 122.9188272  63.9817470
  81.4397790 123.8505380  64.0005504  81.6337554 122.5596246  64.7672274
  88.1415998 113.4256357  55.9693158  87.3316727 113.0803442  56.3448404
  88.8300415 113.1163901  56.5580770  90.0706547 112.5034404  57.5917455
  90.6237585 112.9229857  58.2507478  90.3076633 111.5770152  57.6340411
  86.0939646 118.4921478  73.3720219  85.9936373 119.4415835  73.3032310
  85.8761188 118.1639716  72.4996289  85.2952717 115.7406403  49.9560896
  86.1571881 116.0661301  50.2156713  85.4803061 114.9537899  49.4433962
  77.3120133 123.8228742  62.2341085  76.6183604 123.4082695  61.7211039
  78.0593124 123.8649279  61.6374504  93.4485354 114.6134929  57.0996119
  92.8684023 115.2719733  56.7174172  93.1821286 113.7912274  56.6883537
  91.8988920 114.0139987  59.3017439  92.3988698 114.1256521  58.4931758
  92.5424528 113.7101040  59.9418248  85.9570916 121.9218616  72.1885280
  85.4737998 122.7218977  72.3949169  86.0431855 121.9326561  71.2352724
  79.2256875 123.7546996  60.1107100  79.2027564 123.8534683  59.1588983
  79.5357512 124.6012147  60.4324266  81.8844253 125.8123151  64.2253714
  82.8387507 125.7807093  64.1583646  81.6856777 125.3513775  65.0403940
  82.4743635 124.3824267  66.7924512  83.2936524 124.8768346  66.8159349
  82.7480443 123.4656235  66.7642079  92.2310232 116.7735019  56.1552467
  91.3436087 117.0584670  55.9372662  92.6464221 116.6128783  55.3079744
  95.5824768 116.7981540  59.8706807  96.3585158 117.2877993  60.1431423
  94.8572902 117.2239595  60.3278676  98.0197326 117.5109160  60.9280747
  98.6141817 117.2704896  60.2174055  98.0923910 116.7916290  61.5554284
  92.2051255 122.2889555  56.3702758  92.1486457 122.7458107  55.5310390
  92.7579598 121.5280240  56.1925600  96.0156061 118.0779287  57.1952877
  95.7592996 117.6775923  58.0261085  95.3908929 118.7923081  57.0703016
  92.9386035 123.4794337  53.6655287  92.8834838 123.3138608  52.7243731
  92.3132090 124.1870370  53.8217476  77.7278550 118.7162401  67.4916709
  78.3737413 118.2061355  67.9803934  77.5195701 119.4531083  68.0660134
  86.2482160 112.9802446  53.2440605  86.2360830 113.9244286  53.4008876
  87.1405582 112.7972591  52.9500066  90.0634280 109.5745222  57.4986542
  89.2966675 109.0203709  57.6443224  90.4744985 109.6467091  58.3600694
  82.0676041 115.8630018  71.5891723  82.9307502 115.5066823  71.7995048
  81.4941451 115.5243913  72.2767127  26.0368137   7.1950573  49.1199431
  26.6746547   7.0757321  48.4162771  25.9188980   8.1431417  49.1787383
  22.8457844   7.1478001  49.0560955  22.5076355   7.0319066  48.1681490
  23.7147612   6.7469167  49.0361962  18.7044659   9.0013478  45.0457846
  18.1409525   8.9103415  44.2774134  18.5897054   8.1813382  45.5260339
  23.3277627   8.3012853  55.0147161  23.3166267   7.9065651  54.1427665
  23.4898266   7.5678926  55.6080932  16.2509091  10.4964669  47.8842067
  17.0430383  10.1555494  47.4688366  16.4905741  10.6059644  48.8044220
  24.2844218  12.6684446  40.3572311  23.6332198  13.2538526  39.9706325
  25.0788581  13.1990640  40.4167349  18.2099845   9.7573583  40.7559446
  18.9830721   9.2102570  40.6172321  18.5625244  10.6217832  40.9673907
  20.0484888  11.0849965  53.9626345  19.7574754  11.9895596  53.8473011
  20.6841872  11.1266493  54.6770415  20.9741095   8.4626813  50.5527705
  21.5704667   8.2382836  49.8384668  21.0316066   7.7211559  51.1553152
  20.5466123   5.9166249  38.3877896  20.7991644   5.3947770  37.6261359
  19.6090682   5.7532394  38.4904579  25.5909406   4.9202027  46.1952639
  26.3772495   4.5021450  45.8443056  25.8548110   5.8248119  46.3634287
  25.7619483  10.3574877  40.8941296  25.1265316  10.4309504  41.6062200
  25.4316890  10.9468476  40.2160375  30.9917833   4.8577260  47.0985617
  31.7243005   4.2876477  47.3323447  30.2357189   4.4698861  47.5392123
  20.2662412   7.8194355  40.5902271  20.1498670   7.1439258  41.2583355
  20.3764672   7.3326729  39.7734424  22.6093953   7.2804502  44.2948960
  22.2452160   6.7535123  45.0061881  23.4661069   6.8902971  44.1215445
  25.0074773  10.7711380  50.9576139  24.7075496  11.6736419  50.8491946
  24.6625832  10.5043564  51.8097292  18.4587254   7.2225177  46.9912843
  17.5337751   7.0901391  47.1990535  18.7071668   8.0019397  47.4882786
  28.4071917   3.2893921  48.6373576  27.4988794   3.2209329  48.3432337
  28.3559512   3.7665866  49.4655401  22.2288661   4.7652059  40.2756975
  22.1088286   5.2109110  41.1142455  21.5341249   5.1137377  39.7170513
  19.9895553  17.5355701  43.9247106  19.9119582  18.4863526  44.0035587
  19.3857196  17.1901573  44.5822033  22.4812782   4.7083566  56.5808473
  21.7046117   5.2677486  56.5711338  23.1203346   5.1940349  57.1023343
  30.2733563   1.4910359  50.4151450  29.6307943   1.7842892  49.7691245
  29.7688492   1.3763279  51.2204647  27.9273727   5.2373532  41.1037309
  28.8391583   5.4700919  40.9285007  27.4183374   5.8210576  40.5412388
  20.7359155   7.5169020  56.1426440  21.4773839   8.0554064  55.8661264
  20.0296140   8.1435308  56.2997992  26.2114494   9.6598160  54.7398602
  26.6197850   9.2180571  53.9953234  25.4891756   9.0850788  54.9932795
  22.5645564   4.5970767  52.1132159  23.4106760   5.0210180  52.2566808
  22.5044202   3.9404391  52.8070722  26.5343309  10.2199351  48.4950891
  25.9052172  10.3845065  47.7926958  26.1468971  10.6340960  49.2661855
  30.4132541  11.1553789  45.8495254  29.7283579  11.5352690  45.2992288
  30.4976390  11.7649115  46.5827202  25.7145010   2.2575135  53.7713332
  25.4705942   3.0117196  53.2347608  25.9904940   2.6360483  54.6060579
  27.6683473   8.8013748  52.4490598  27.8800368   9.4445507  51.7724979
  27.6213221   7.9676064  51.9812528  25.2709702   1.4131568  49.3527170
  24.4094181   1.7112822  49.6443908  25.2972136   1.6301967  48.4208203
  22.0871271   9.9573759  45.7600976  22.5509616  10.2361462  44.9705598
  21.8228069   9.0557203  45.5774066  18.9795352   9.5045240  48.6980739
  19.5496709   9.9332509  48.0598223  19.5703464   9.2227825  49.3964925
  21.0240157   6.0796911  42.5690541  21.7264200   6.5317955  43.0364467
  20.6920786   5.4380730  43.1970434  28.7829301  11.6785703  50.6212955
  29.6046744  11.2765890  50.3395637  28.7791703  11.5753937  51.5729071
  22.5485904  11.2269746  52.7773666  22.6130336  11.6890154  53.6131838
  21.8396828  10.5967111  52.9055976  36.8735294   8.0224451  46.9697927
  36.1199002   7.4531850  46.8141931  37.0082835   7.9887116  47.9168561
  22.2633922  12.8937854  42.6452646  22.1279596  13.7389390  43.0737494
  22.8043734  13.0957131  41.8818580  15.7163319  10.4113292  43.2180571
  16.2287840  11.2056542  43.3686136  16.3686032   9.7139582  43.1514173
  17.5258204  13.5279048  45.3003324  17.7024832  14.4497013  45.1124308
  18.3215037  13.2137467  45.7297704  23.8902398  13.5161420  56.7752988
  23.4466252  12.7297799  56.4573893  24.5519612  13.7040571  56.1096879
  18.6489519  15.0457222  51.3013667  19.1996944  14.9174285  50.5290661
  17.8100995  15.3452111  50.9508559  25.9883636  13.7964220  54.8034389
  25.9702111  14.6173101  54.3114659  26.9103556  13.6718295  55.0284531
  22.4456690  11.3108350  55.6457898  22.9785027  10.5496638  55.4157206
  21.9170771  11.0182002  56.3882052  25.5776668   6.4077027  39.6823975
  25.0623291   7.1781631  39.9212362  25.3053976   5.7342163  40.3057036
  30.5510942   9.1609381  41.6177148  29.7740385   8.8220541  41.1732310
  31.2302423   9.1662005  40.9432113  25.3662971   4.2804119  41.5083756
  25.0613107   4.5950268  42.3593899  26.3193413   4.3585539  41.5511089
  23.8109403  10.4394342  43.1576710  23.2830765   9.7047102  42.8449947
  23.3096906  11.2169019  42.9116678  28.7902249   8.6343363  48.2743756
  28.1325923   9.3242624  48.3623885  29.5942648   9.0239795  48.6177742
  27.6007708   6.9887735  46.3247698  28.1139590   7.6217727  46.8269408
  28.2508932   6.3888931  45.9591058  21.9562003   8.2574552  36.1611683
  21.0489065   8.0263806  36.3602832  22.4533035   7.4612172  36.3485664
  24.8630082  16.9672060  39.0808369  24.1891781  17.2703756  39.6893327
  25.2495904  17.7701140  38.7313826  24.0788539   4.4637191  48.5706038
  23.1611100   4.6852138  48.4127726  24.4948682   4.5383501  47.7117746
  24.8623586   5.8628607  43.7008719  25.6095405   6.3750004  43.3915841
  25.1315176   5.5412659  44.5613112  23.1350237   8.3587147  40.6835673
  22.2261456   8.0746180  40.7808143  23.1645320   8.7786226  39.8238980
  28.3669504  11.9693737  44.4526841  27.9131831  11.1284647  44.5092031
  27.7363471  12.6055135  44.7901621  27.3102424   2.8985723  45.6827508
  26.5725180   2.3863109  46.0137751  27.5629197   2.4586104  44.8710785
  26.8102443  13.8070234  45.3876659  27.1025418  14.3675291  44.6689024
  27.3201064  14.0998794  46.1429818  21.6835131   5.9715768  46.7845468
  21.7383740   5.0189604  46.7087945  20.8726333   6.1275207  47.2686767
  22.8326324   9.8995891  38.0223752  22.3945754   9.1831750  37.5629389
  23.5736765  10.1272006  37.4608843  21.7736068  14.5850585  46.4770112
  21.7312247  14.8111431  45.5478644  22.6898767  14.3513959  46.6255913
  25.2201702   5.0534652  53.3750741  25.5751090   5.2806125  54.2345207
  25.8673833   5.3853029  52.7527996  30.9499439   8.1753088  44.0800070
  30.8117338   8.3654684  43.1521259  30.5935658   8.9372471  44.5368121
  30.9768819  10.2429615  49.0911342  31.4105325  10.1504904  49.9394396
  31.6900399  10.2187115  48.4531358  19.8901869  11.4613614  46.2732075
  20.6842468  10.9663934  46.0714650  19.1793562  10.9331477  45.9099780
  24.7096714  13.8431709  50.6244442  24.7633736  14.4122645  51.3922158
  23.8411495  14.0133594  50.2598479  31.8384368  10.2853316  51.6244227
  32.0320258  11.1899126  51.8703502  31.7384986   9.8260735  52.4582812
  26.8999477  10.4360058  57.1985108  26.7484983  10.2070610  56.2815191
  26.8904156  11.3930660  57.2116453  23.6684813   8.0091971  52.1831374
  24.5976873   8.1603131  52.0100341  23.2475843   8.0975992  51.3280021
  22.4673145  12.0342636  49.9529912  22.3284231  11.6661420  50.8255850
  21.6787741  12.5490275  49.7813869  23.0621297  17.1351732  41.2955448
  23.2373053  16.6639775  42.1101071  22.3754085  17.7617498  41.5236709
  24.0178360  11.4124238  47.3418749  23.6828193  11.3725008  48.2376399
  23.5182306  10.7468954  46.8689160  17.9922604   6.8191868  52.8671331
  17.8542402   6.0872107  53.4682870  18.9027528   6.7300768  52.5855518
  26.9537552   8.7580273  37.6155809  26.3366723   8.0327101  37.5188862
  26.4854040   9.5189633  37.2722883  20.6204905   6.5311828  52.3555010
  21.3304523   5.8905020  52.3141629  20.5774213   6.7824722  53.2781191
  28.6091684  13.4679181  55.2761589  28.5504230  12.7838401  54.6092173
  29.0111202  14.2098171  54.8242215  17.6282382  20.2841095  48.0695308
  17.8678981  20.9159619  48.7474327  16.7851579  19.9329135  48.3560668
  28.6109091  11.4318765  53.5075569  27.7235870  11.0944687  53.6301968
  29.1807642  10.7001796  53.7444335  22.1410244  16.0920217  50.4736812
  22.0680416  16.8975189  50.9856117  21.6987637  16.2912183  49.6484834
  21.9300024  15.3291987  43.9839634  21.1467546  15.8713667  44.0777858
  22.6292769  15.8465967  44.3833875  25.2396674   1.1386617  46.6273839
  25.7365374   0.3856579  46.3074910  24.4683656   1.1750933  46.0617049
  33.0926431   6.8426982  48.2692131  33.0816308   7.7251698  47.8986064
  32.2243811   6.4898533  48.0746668  24.6008928  15.9907051  52.6294971
  25.3136900  16.6254516  52.5570872  24.1098956  16.0870917  51.8134973
  26.3226455   9.8958304  44.2012263  25.3882733  10.0159766  44.0316967
  26.5003123   8.9930771  43.9372273  29.7099006   5.7375623  44.7362297
  30.1759458   6.5703615  44.6622599  30.1606507   5.2720605  45.4407555
  19.6520841  13.7401495  53.4500542  20.3530301  14.3737978  53.6029936
  19.1815956  14.0816226  52.6896181  27.7775237  12.0819445  41.7348449
  28.0535081  11.9676039  42.6442323  26.9079736  11.6836929  41.6960622
  27.4522127   6.2946102  51.2753092  26.7993578   6.5422010  50.6205545
  27.8302507   5.4810240  50.9415569  24.4129301  16.3305795  45.3781262
  24.5951696  15.5127451  45.8409015  25.2362287  16.5473488  44.9406152
  24.7471467  15.2573981  42.6396311  25.2759233  14.7466435  42.0266473
  25.0099686  14.9416511  43.5041844  23.5009700   7.0365913  57.7619129
  22.8250337   6.9360043  58.4321504  24.3237334   6.8805127  58.2255126
  15.2488559  13.2737850  50.3831645  15.8341996  12.5281538  50.5159549
  15.0513398  13.5841807  51.2668308  18.1027215  16.3089097  45.3994087
  17.4337590  16.7935225  44.9158127  17.9640084  16.5558318  46.3137465
  22.2432483  18.3432841  51.9976745  22.7950791  18.5064462  52.7625830
  22.5838677  18.9337279  51.3256770  27.0943358  13.1694098  57.8525400
  27.6383262  13.7824057  57.3580354  26.5130202  13.7273677  58.3692413
  25.3800870  16.2914816  48.9840427  25.2552010  15.4904556  48.4751373
  26.0379962  16.7861010  48.4954397  27.4435779  14.0923836  50.6119978
  26.4966114  13.9729188  50.5398304  27.7918552  13.2046334  50.6946239
  24.4482212  13.8876553  46.8124330  24.3007175  12.9593260  46.9931900
  25.2735706  13.9096643  46.3281405  28.0516334  14.7105111  47.8989203
  28.9762881  14.5047973  47.7613654  27.8831637  14.4621512  48.8078544
  27.8411650  15.2290779  43.2551294  28.0148528  14.6637201  42.5025146
  28.3340541  16.0291674  43.0730784  33.6951041   7.9927202  44.8741594
  34.1382187   7.2434527  44.4760717  32.8177552   7.9837338  44.4915326
  28.8286823  14.5457543  40.3548192  29.5237727  15.1664236  40.5735507
  29.1709973  13.6952894  40.6300570  30.7278246  11.9957249  41.8835523
  31.2529570  12.3344521  41.1584843  30.6400598  11.0604264  41.6998658
  22.3898295  15.9091322  54.0125400  22.6985421  15.6640469  54.8848099
  23.1873777  16.1137961  53.5244270  22.4118907  18.0629232  46.2430776
  21.9723897  17.5705611  46.9363633  23.1627024  17.5202200  46.0022851
  14.8911246  14.2540773  46.2455404  15.7169265  13.9544545  45.8654048
  14.5405298  13.4848395  46.6945193  19.8592779  13.6067241  48.3153078
  19.2372788  12.9437946  48.0155306  20.5297646  13.6328373  47.6326726
  13.0919851  12.1727099  47.2044338  12.2551759  11.7449274  47.0228339
  13.0643496  12.3659543  48.1415129  30.4172152  12.6290152  57.1886721
  29.6267696  12.6114291  56.6491220  30.1805506  13.1678446  57.9435758
  30.5370027   9.4782619  54.5019450  30.5868032   9.3132626  55.4434972
  30.4283950   8.6109878  54.1117330  19.4206286  12.1571164  41.7911538
  19.5694406  12.8406629  41.1378211  20.2272729  12.1376254  42.3060994
  27.8273789   5.4613547  55.8178756  28.7283652   5.3220012  55.5262754
  27.9021764   5.6268002  56.7576934  32.0388224  11.8979560  54.7461471
  31.7473032  12.2609541  55.5824932  31.4260355  11.1846568  54.5674803
  33.2383906   9.4632440  47.2664041  34.0730797   9.9022244  47.4301602
  33.3743035   8.9871093  46.4472287  30.2875412   7.0212175  53.2141529
  30.7629534   7.2139821  52.4060380  29.3640977   7.0771361  52.9684913
  17.1758919   8.1836342  42.7972607  16.9304961   7.2798672  42.9952817
  17.3454833   8.1853492  41.8552085  22.9201691  14.6519295  39.2623286
  22.3475658  15.2709482  38.8093758  23.4934485  15.2018657  39.7963208
  28.9877081   3.8977935  51.4469835  29.9394504   3.9976033  51.4682059
  28.8180531   3.1056203  51.9567919  27.0091460   0.9833518  51.6329236
  26.4141393   1.2638531  50.9375724  26.7241157   1.4727419  52.4045977
  26.1398951  14.9356445  40.3931868  27.0729624  14.8702007  40.5964744
  26.0522164  15.7712712  39.9346401  28.7686968  14.2522315  37.3535816
  28.6900599  13.9182179  38.2471574  29.5896634  14.7444083  37.3527288
  31.4665159   7.1184055  50.5612134  31.4341479   6.1800055  50.7471818
  32.0765782   7.1968091  49.8277959  23.3048490   5.9880108  36.6039338
  24.2507594   5.8586316  36.6727756  22.9262735   5.2494769  37.0808766
  31.6159647   3.9095098  50.6070417  31.0998696   3.1253555  50.4200346
  32.4999596   3.5813815  50.7716937  37.2841709   8.1800061  49.7018171
  38.0145097   7.9185350  50.2625874  36.6748654   7.4428783  49.7420239
  35.3657006   6.3207924  50.2992622  34.6390169   6.1863889  49.6909114
  34.9504293   6.6284753  51.1049340  23.1887182  10.0397854  58.0639995
  24.1090192  10.2176453  58.2580042  23.1536765   9.0953899  57.9119695
  16.1849255   7.9498888  50.7062776  16.4035265   8.8815996  50.7250810
  16.5975029   7.5906863  51.4917580  28.4122828  -0.3554454  43.8241426
  27.8321497   0.3030350  43.4419478  28.1458761  -1.1777110  43.4128843
  20.9208390   6.9529233  58.9130587  20.4375472   7.7529593  59.1194476
  21.0069329   6.9637178  57.9598031  14.1894350   8.7857613  46.8352406
  14.1665038   8.8845300  45.8834290  14.4994986   9.6322763  47.1569573
  16.8481728  10.8433768  50.9499021  17.8024981  10.8117710  50.8828952
  16.6494251  10.3824391  51.7649247  17.4381110   9.4134884  53.5169818
  18.2573999   9.9078962  53.5404656  17.7117917   8.4966852  53.4887386
  27.1947706   1.8045636  42.8797774  26.3073561   2.0895287  42.6617969
  27.6101695   1.6439399  42.0325051  30.5462242   1.8292157  46.5952113
  31.3222632   2.3188609  46.8676730  29.8210376   2.2550211  47.0523983
  32.9834801   2.5419776  47.6526054  33.5779292   2.3015512  46.9419362
  33.0561384   1.8226907  48.2799590  15.2031956  16.3853387  47.9669219
  15.0686424  15.6253788  47.4007217  14.7864019  17.1094287  47.4998008
  26.3390919  11.5690311  36.9745794  27.0426770  11.7740313  37.5903450
  25.6153568  12.1367073  37.2394878  27.1688730   7.3200172  43.0948064
  27.1123931   7.7768723  42.2555697  27.7217072   6.5590857  42.9170907
  30.9793536   3.1089904  43.9198184  30.7230470   2.7086539  44.7506391
  30.3546404   3.8233698  43.7948323  35.2905873   5.8485977  46.4269475
  34.7305431   5.9179166  47.2001037  34.6849377   5.6726962  45.7068971
  18.3601082  17.2822704  48.1787661  18.2433466  18.2268137  48.0766352
  17.5393529  16.9796266  48.5673461  28.2477617  12.0072840  39.0244254
  29.0823221  11.5754038  38.8421729  28.0861960  11.8354854  39.9521149
  27.9023509   8.5104953  40.3900593  27.8472313   8.3449225  39.4489037
  27.2769564   9.2180986  40.5462783  25.2169416  10.8153865  59.7154156
  26.0860576  10.9894517  59.3540791  24.7376168  11.6348282  59.5929885
  19.3855596  17.9350966  51.3943590  20.2882843  17.9674576  51.7110085
  19.1592966  17.0051417  51.4089926  21.1409198  16.6881953  48.0553668
  20.1904829  16.6883814  47.9418041  21.4441685  15.9414687  47.5389703
  36.8761892  22.5242491  49.1199431  37.5140302  22.4049238  48.4162771
  36.7582735  23.4723335  49.1787383  33.6851598  22.4769919  49.0560955
  33.3470110  22.3610984  48.1681490  34.5541366  22.0761084  49.0361962
  29.5438414  24.3305396  45.0457846  28.9803279  24.2395332  44.2774134
  29.4290809  23.5105300  45.5260339  34.1671381  23.6304771  55.0147161
  34.1560022  23.2357569  54.1427665  34.3292021  22.8970843  55.6080932
  27.0902846  25.8256587  47.8842067  27.8824138  25.4847412  47.4688366
  27.3299496  25.9351562  48.8044220  35.1237973  27.9976363  40.3572311
  34.4725952  28.5830444  39.9706325  35.9182335  28.5282558  40.4167349
  29.0493600  25.0865500  40.7559446  29.8224476  24.5394487  40.6172321
  29.4018999  25.9509750  40.9673907  30.8878642  26.4141883  53.9626345
  30.5968508  27.3187513  53.8473011  31.5235627  26.4558410  54.6770415
  31.8134849  23.7918731  50.5527705  32.4098421  23.5674754  49.8384668
  31.8709821  23.0503477  51.1553152  31.3859878  21.2458166  38.3877896
  31.6385398  20.7239688  37.6261359  30.4484437  21.0824312  38.4904579
  36.4303160  20.2493945  46.1952639  37.2166250  19.8313368  45.8443056
  36.6941865  21.1540037  46.3634287  36.6013238  25.6866795  40.8941296
  35.9659071  25.7601422  41.6062200  36.2710644  26.2760394  40.2160375
  41.8311588  20.1869178  47.0985617  42.5636759  19.6168395  47.3323447
  41.0750943  19.7990778  47.5392123  31.1056166  23.1486272  40.5902271
  30.9892424  22.4731176  41.2583355  31.2158426  22.6618646  39.7734424
  33.4487707  22.6096420  44.2948960  33.0845914  22.0827041  45.0061881
  34.3054823  22.2194889  44.1215445  39.3537008  13.8990752  51.5580226
  39.0220333  14.7686163  51.3341441  38.7582621  13.5827036  52.2374256
  33.0893194  17.6386319  39.2910308  33.2567597  18.5066556  39.6580779
  32.8990363  17.8013601  38.3671598  35.8468527  26.1003298  50.9576139
  35.5469250  27.0028337  50.8491946  35.5019587  25.8335481  51.8097292
  29.2981009  22.5517095  46.9912843  28.3731505  22.4193309  47.1990535
  29.5465422  23.3311314  47.4882786  39.2465671  18.6185838  48.6373576
  38.3382549  18.5501247  48.3432337  39.1953267  19.0957783  49.4655401
  33.0682415  20.0943977  40.2756975  32.9482040  20.5401028  41.1142455
  32.3735003  20.4429294  39.7170513  26.6589820  22.1950369  47.8256632
  26.7882201  22.4484847  48.7396044  25.9787271  22.7878077  47.5061287
  30.8289307  32.8647618  43.9247106  30.7513337  33.8155444  44.0035587
  30.2250951  32.5193491  44.5822033  33.3206537  20.0375484  56.5808473
  32.5439871  20.5969404  56.5711338  33.9597100  20.5232267  57.1023343
  41.1127318  16.8202277  50.4151450  40.4701698  17.1134810  49.7691245
  40.6082246  16.7055197  51.2204647  38.7667481  20.5665450  41.1037309
  39.6785337  20.7992837  40.9285007  38.2577128  21.1502494  40.5412388
  31.5752909  22.8460937  56.1426440  32.3167594  23.3845981  55.8661264
  30.8689895  23.4727226  56.2997992  37.0508249  24.9890078  54.7398602
  37.4591605  24.5472488  53.9953234  36.3285510  24.4142705  54.9932795
  33.4039319  19.9262685  52.1132159  34.2500514  20.3502098  52.2566808
  33.3437957  19.2696309  52.8070722  37.3737064  25.5491268  48.4950891
  36.7445926  25.7136983  47.7926958  36.9862726  25.9632878  49.2661855
  41.2526295  26.4845706  45.8495254  40.5677334  26.8644608  45.2992288
  41.3370145  27.0941033  46.5827202  36.5538764  17.5867053  53.7713332
  36.3099696  18.3409113  53.2347608  36.8298695  17.9652400  54.6060579
  38.5077227  24.1305665  52.4490598  38.7194122  24.7737425  51.7724979
  38.4606975  23.2967982  51.9812528  36.1103456  16.7423486  49.3527170
  35.2487935  17.0404739  49.6443908  36.1365891  16.9593885  48.4208203
  32.9265025  25.2865676  45.7600976  33.3903371  25.5653379  44.9705598
  32.6621824  24.3849121  45.5774066  29.8189107  24.8337158  48.6980739
  30.3890464  25.2624426  48.0598223  30.4097218  24.5519743  49.3964925
  31.8633912  21.4088829  42.5690541  32.5657955  21.8609872  43.0364467
  31.5314540  20.7672648  43.1970434  30.3114273  20.0000585  56.9441750
  29.6812934  20.6816866  57.1777147  30.2050361  19.8883667  55.9994889
  25.6059245  19.6672381  47.8707674  24.8158299  19.9229910  47.3947785
  26.0970493  20.4820719  47.9759715  39.6223055  27.0077621  50.6212955
  40.4440499  26.6057808  50.3395637  39.6185458  26.9045855  51.5729071
  27.5573991  20.0316961  44.8291151  26.7605154  20.1435655  45.3474647
  27.3299583  20.3703613  43.9632042  33.3879658  26.5561664  52.7773666
  33.4524091  27.0182071  53.6131838  32.6790582  25.9259029  52.9055976
  23.8896948  19.9202872  50.3022665  24.1404987  20.8049882  50.5680241
  24.4256497  19.7407473  49.5297757  47.7129048  23.3516369  46.9697927
  46.9592756  22.7823767  46.8141931  47.8476589  23.3179034  47.9168561
  33.1027676  28.2229771  42.6452646  32.9673351  29.0681307  43.0737494
  33.6437489  28.4249049  41.8818580  29.5895016  14.3021351  59.3067001
  29.1961961  13.7487550  59.9814646  30.4061156  14.6131930  59.6973519
  26.5557074  25.7405209  43.2180571  27.0681594  26.5348460  43.3686136
  27.2079786  25.0431500  43.1514173  28.3651958  28.8570966  45.3003324
  28.5418587  29.7788930  45.1124308  29.1608792  28.5429385  45.7297704
  32.5062977  15.7179230  56.8987258  33.2472690  16.3186384  56.8191720
  32.7380900  14.9756868  56.3405300  27.6504315  20.9035598  55.1765488
  27.5357830  20.0020855  55.4772586  26.7948833  21.1499294  54.8250304
  34.7296153  28.8453338  56.7752988  34.2860007  28.0589717  56.4573893
  35.3913366  29.0332488  56.1096879  29.4883274  30.3749140  51.3013667
  30.0390699  30.2466203  50.5290661  28.6494750  30.6744029  50.9508559
  36.8277391  29.1256138  54.8034389  36.8095866  29.9465019  54.3114659
  37.7497311  29.0010213  55.0284531  33.2850445  26.6400267  55.6457898
  33.8178782  25.8788556  55.4157206  32.7564526  26.3473919  56.3882052
  36.4520140  11.7460333  51.1751540  36.1084409  12.6361975  51.0990650
  36.8199102  11.5561991  50.3121125  24.5205990  24.0693864  43.9940142
  25.3581212  24.4790872  43.7773849  24.6984258  23.1293306  43.9640336
  36.4170422  21.7368944  39.6823975  35.9017046  22.5073549  39.9212362
  36.1447731  21.0634081  40.3057036  34.0017533  16.5818645  44.7409213
  33.1459130  16.1925496  44.5614852  34.4144485  16.6610606  43.8808999
  35.5316680  14.1164988  49.1400773  35.0281476  14.0795124  48.3268578
  35.8247287  15.0257731  49.1997429  31.7759566  14.2003718  48.1466955
  32.6412563  14.0046527  47.7872844  31.8437075  13.9714070  49.0736311
  41.3904697  24.4901299  41.6177148  40.6134139  24.1512459  41.1732310
  42.0696178  24.4953922  40.9432113  36.2056726  19.6096037  41.5083756
  35.9006861  19.9242186  42.3593899  37.1587168  19.6877456  41.5511089
  34.6503157  25.7686260  43.1576710  34.1224519  25.0339019  42.8449947
  34.1490660  26.5460936  42.9116678  39.6296003  23.9635280  48.2743756
  38.9719678  24.6534542  48.3623885  40.4336403  24.3531712  48.6177742
  29.3821885  16.4305926  45.5183321  29.9565637  16.2081108  44.7856514
  29.9692867  16.4994621  46.2711923  38.4401462  22.3179653  46.3247698
  38.9533344  22.9509645  46.8269408  39.0902686  21.7180849  45.9591058
  29.7091472  18.4610387  39.5379207  28.8728784  18.7985074  39.8588481
  29.5696242  18.3259367  38.6006344  31.6844553  13.3047175  44.2458391
  31.0308965  12.9896192  43.6215006  31.6425027  12.6822916  44.9718214
  32.7955758  23.5866470  36.1611683  31.8882819  23.3555724  36.3602832
  33.2926790  22.7904089  36.3485664  35.7023836  32.2963977  39.0808369
  35.0285535  32.5995674  39.6893327  36.0889658  33.0993058  38.7313826
  34.9182293  19.7929109  48.5706038  34.0004854  20.0144056  48.4127726
  35.3342437  19.8675419  47.7117746  35.7017341  21.1920524  43.7008719
  36.4489160  21.7041921  43.3915841  35.9708930  20.8704577  44.5613112
  33.9743991  23.6879065  40.6835673  33.0655210  23.4038098  40.7808143
  34.0039075  24.1078144  39.8238980  39.2063258  27.2985654  44.4526841
  38.7525586  26.4576564  44.5092031  38.5757225  27.9347053  44.7901621
  38.1496178  18.2277641  45.6827508  37.4118935  17.7155027  46.0137751
  38.4022952  17.7878022  44.8710785  37.6496198  29.1362151  45.3876659
  37.9419172  29.6967208  44.6689024  38.1594818  29.4290712  46.1429818
  38.2507805  11.0053893  46.2769277  38.5566682  10.1451256  45.9895192
  38.9760410  11.5971513  46.0768271  24.5432161  21.4084579  44.6650875
  24.3456561  20.8153940  43.9401942  23.9878825  21.1036789  45.3826814
  32.5228885  21.3007686  46.7845468  32.5777495  20.3481522  46.7087945
  31.7120087  21.4567125  47.2686767  33.6720079  25.2287809  38.0223752
  33.2339509  24.5123668  37.5629389  34.4130520  25.4563923  37.4608843
  30.4621245  19.9184745  44.5435847  29.6489111  20.2178916  44.9501039
  30.9580239  19.5240434  45.2610329  32.6129823  29.9142502  46.4770112
  32.5706002  30.1403349  45.5478644  33.5292522  29.6805877  46.6255913
  36.0595457  20.3826570  53.3750741  36.4144844  20.6098043  54.2345207
  36.7067588  20.7144947  52.7527996  41.7893194  23.5045006  44.0800070
  41.6511092  23.6946602  43.1521259  41.4329412  24.2664389  44.5368121
  29.9535320  17.4903101  50.1597082  30.5934699  17.3491860  49.4620045
  29.1212850  17.2037614  49.7835684  41.8162573  25.5721533  49.0911342
  42.2499080  25.4796822  49.9394396  42.5294154  25.5479033  48.4531358
  30.7295624  26.7905531  46.2732075  31.5236222  26.2955851  46.0714650
  30.0187316  26.2623394  45.9099780  35.5490468  29.1723627  50.6244442
  35.6027490  29.7414563  51.3922158  34.6805250  29.3425512  50.2598479
  27.0378387  20.9348613  42.3491827  26.1075975  20.8733069  42.5661789
  27.1335859  20.4124566  41.5528469  26.9563936  17.4603426  44.9370069
  27.2170753  18.3748759  44.8279229  27.7781109  16.9927868  45.0866682
  28.4288862  18.8741183  52.1068893  29.1011915  18.6658545  51.4581542
  27.6018648  18.6763269  51.6674126  42.6778123  25.6145233  51.6244227
  42.8714013  26.5191044  51.8703502  42.5778741  25.1552652  52.4582812
  34.3314434  15.5003124  54.1234554  33.6842349  16.1993074  54.0299031
  35.1015449  15.9339268  54.4910803  37.7393231  25.7651976  57.1985108
  37.5878738  25.5362528  56.2815191  37.7297911  26.7222578  57.2116453
  34.5078568  23.3383889  52.1831374  35.4370628  23.4895048  52.0100341
  34.0869598  23.4267910  51.3280021  33.3066900  27.3634553  49.9529912
  33.1677985  26.9953338  50.8255850  32.5181496  27.8782193  49.7813869
  33.9015052  32.4643650  41.2955448  34.0766807  31.9931693  42.1101071
  33.2147840  33.0909416  41.5236709  34.8572115  26.7416156  47.3418749
  34.5221947  26.7016926  48.2376399  34.3576060  26.0760872  46.8689160
  28.8316359  22.1483786  52.8671331  28.6936157  21.4164025  53.4682870
  29.7421282  22.0592686  52.5855518  37.7931306  24.0872190  37.6155809
  37.1760477  23.3619018  37.5188862  37.3247795  24.8481551  37.2722883
  31.4598659  21.8603745  52.3555010  32.1698278  21.2196938  52.3141629
  31.4167968  22.1116640  53.2781191  39.4485438  28.7971099  55.2761589
  39.3897984  28.1130319  54.6092173  39.8504957  29.5390089  54.8242215
  30.1727593  18.8468963  54.1750650  29.6364950  18.3959702  54.8272246
  29.5844302  18.9814872  53.4321114  28.4676137  35.6133012  48.0695308
  28.7072735  36.2451537  48.7474327  27.6245333  35.2621053  48.3560668
  29.5829852  18.3057615  36.7377113  28.7059319  18.1846415  36.3739360
  30.0587605  17.5143693  36.4856002  39.4502845  26.7610683  53.5075569
  38.5629624  26.4236604  53.6301968  40.0201396  26.0293714  53.7444335
  21.1031993  23.0934774  46.8318621  21.7903032  22.7796504  46.2439636
  20.9480121  23.9976139  46.5585872  25.9066715  17.9824971  51.2603644
  25.8224903  17.3750640  50.5254054  25.0849421  18.4733989  51.2613141
  32.9803999  31.4212135  50.4736812  32.9074170  32.2267106  50.9856117
  32.5381392  31.6204101  49.6484834  32.7693778  30.6583905  43.9839634
  31.9861300  31.2005585  44.0777858  33.4686524  31.1757885  44.3833875
  36.0790429  16.4678534  46.6273839  36.5759128  15.7148497  46.3074910
  35.3077410  16.5042851  46.0617049  43.9320186  22.1718900  48.2692131
  43.9210062  23.0543615  47.8986064  43.0637565  21.8190451  48.0746668
  35.4402682  31.3198969  52.6294971  36.1530655  31.9546434  52.5570872
  34.9492711  31.4162835  51.8134973  37.1620209  25.2250222  44.2012263
  36.2276488  25.3451684  44.0316967  37.3396878  24.3222688  43.9372273
  32.6625397  18.6095917  46.3545524  32.2923185  18.0566958  47.0426429
  33.1584490  18.0054051  45.8020524  40.5492761  21.0667541  44.7362297
  41.0153213  21.8995533  44.6622599  41.0000261  20.6012523  45.4407555
  30.4914596  29.0693412  53.4500542  31.1924055  29.7029895  53.6029936
  30.0209711  29.4108144  52.6896181  38.6168992  27.4111362  41.7348449
  38.8928836  27.2967957  42.6442323  37.7473490  27.0128847  41.6960622
  38.5209423  13.4348128  48.7753198  37.6072503  13.6652355  48.9435405
  38.9502525  13.5186572  49.6267231  38.2915882  21.6238020  51.2753092
  37.6387332  21.8713927  50.6205545  38.6696262  20.8102158  50.9415569
  35.2523056  31.6597713  45.3781262  35.4345450  30.8419369  45.8409015
  36.0756042  31.8765405  44.9406152  35.5865221  30.5865898  42.6396311
  36.1152988  30.0758353  42.0266473  35.8493441  30.2708428  43.5041844
  34.3403455  22.3657831  57.7619129  33.6644092  22.2651960  58.4321504
  35.1631089  22.2097045  58.2255126  26.0882314  28.6029767  50.3831645
  26.6735751  27.8573455  50.5159549  25.8907152  28.9133724  51.2668308
  28.9420969  31.6381015  45.3994087  28.2731344  32.1227143  44.9158127
  28.8033839  31.8850235  46.3137465  20.6799969  21.1735368  49.1036088
  20.7184068  20.6398958  49.8973206  20.1740261  20.6470573  48.4847065
  33.0826238  33.6724758  51.9976745  33.6344546  33.8356380  52.7625830
  33.4232431  34.2629196  51.3256770  28.0590731  16.0199908  52.5998630
  28.1232057  16.8814739  52.1876028  27.9957851  15.4073910  51.8670988
  27.5343003  18.0923041  56.2471664  28.1615042  17.7100118  56.8609189
  26.6770922  17.8737243  56.6127357  37.9337112  28.4986016  57.8525400
  38.4777016  29.1115974  57.3580354  37.3523957  29.0565594  58.3692413
  24.3108546  19.8999470  42.1790019  24.6061987  18.9910148  42.1257073
  23.4096582  19.8787209  41.8571021  36.2194625  31.6206734  48.9840427
  36.0945764  30.8196474  48.4751373  36.8773716  32.1152927  48.4954397
  27.8402793  17.9755466  48.1617568  27.1189379  18.5891434  48.0225041
  28.6296049  18.5113231  48.0834214  38.2829533  29.4215754  50.6119978
  37.3359869  29.3021105  50.5398304  38.6312306  28.5338252  50.6946239
  30.6429107  15.3109893  54.4358219  31.1663509  15.5572189  55.1984529
  30.4241440  16.1429928  54.0161357  26.0396388  17.5813568  42.3029344
  25.7109094  16.7010946  42.1204450  26.3935758  17.5261236  43.1905733
  35.2875967  29.2168470  46.8124330  35.1400929  28.2885178  46.9931900
  36.1129460  29.2388561  46.3281405  29.1538211  17.8686537  42.6704822
  29.4934283  18.3972459  41.9483430  29.6010331  18.2066943  43.4463388
  38.8910089  30.0397029  47.8989203  39.8156636  29.8339890  47.7613654
  38.7225392  29.7913430  48.8078544  31.8481652  16.2523588  52.1207890
  31.5078472  15.4531401  52.5228570  31.1420658  16.5525299  51.5484723
  32.4998124  13.3372900  50.5735213  33.3224193  12.8633379  50.4514103
  32.7436187  14.1163384  51.0733899  31.1406358  16.3661159  40.8698115
  31.8614721  16.7442412  40.3661832  30.5171662  17.0850036  40.9733093
  35.2837481  17.0706308  41.8056447  35.5001095  17.9530946  41.5045275
  34.8031548  16.6792521  41.0762089  30.0236702  20.0292021  48.3827192
  29.8781283  20.3432324  49.2751473  29.5461906  20.6476921  47.8298090
  31.8833085  17.0194569  48.4308081  31.8694654  16.1235662  48.0940379
  32.6005513  17.0265233  49.0646367  33.7359216  17.4531909  50.4761209
  33.4776994  18.3748980  50.4745539  33.2044256  17.0562344  51.1661673
  38.6805405  30.5582696  43.2551294  38.8542282  29.9929119  42.5025146
  39.1734296  31.3583591  43.0730784  24.4982365  22.5697365  51.3214853
  23.9535833  23.3457173  51.4535127  25.3761714  22.9168170  51.1633974
  31.2869981  15.9008949  43.6995651  31.4085892  14.9725596  43.8986539
  30.9972024  15.9147635  42.7873967  34.1561172  13.5863860  46.8362371
  34.1782868  13.6503193  45.8814351  34.5729231  12.7468368  47.0302877
  44.5344796  23.3219119  44.8741594  44.9775942  22.5726445  44.4760717
  43.6571306  23.3129256  44.4915326  39.6680577  29.8749461  40.3548192
  40.3631482  30.4956153  40.5735507  40.0103727  29.0244812  40.6300570
  25.2848386  21.6967262  54.2145010  24.5430122  21.8449897  54.8009640
  24.9641131  21.9575527  53.3511759  41.5672000  27.3249166  41.8835523
  42.0923324  27.6636439  41.1584843  41.4794353  26.3896182  41.6998658
  33.2292049  31.2383240  54.0125400  33.5379175  30.9932387  54.8848099
  34.0267531  31.4429878  53.5244270  33.2512661  33.3921150  46.2430776
  32.8117651  32.8997528  46.9363633  34.0020778  32.8494117  46.0022851
  25.7305000  29.5832690  46.2455404  26.5563020  29.2836462  45.8654048
  25.3799052  28.8140313  46.6945193  30.6986533  28.9359159  48.3153078
  30.0766543  28.2729864  48.0155306  31.3691400  28.9620291  47.6326726
  23.9313605  27.5019017  47.2044338  23.0945513  27.0741191  47.0228339
  23.9037251  27.6951460  48.1415129  30.7711061  17.4140947  57.9085584
  30.8199216  18.2903070  57.5263353  31.3133575  16.8718340  57.3357227
  41.2565906  27.9582070  57.1886721  40.4661450  27.9406209  56.6491220
  41.0199261  28.4970364  57.9435758  41.3763781  24.8074536  54.5019450
  41.4261786  24.6424544  55.4434972  41.2677705  23.9401795  54.1117330
  30.2600040  27.4863082  41.7911538  30.4088161  28.1698546  41.1378211
  31.0666484  27.4668172  42.3060994  38.6667544  20.7905464  55.8178756
  39.5677407  20.6511929  55.5262754  38.7415518  20.9559919  56.7576934
  33.0010349  18.1672319  54.6631943  32.1313659  18.4605885  54.3914531
  33.2369830  18.7512764  55.3839206  42.8781978  27.2271478  54.7461471
  42.5866787  27.5901458  55.5824932  42.2654110  26.5138486  54.5674803
  44.0777661  24.7924358  47.2664041  44.9124552  25.2314162  47.4301602
  44.2136789  24.3163011  46.4472287  41.1269167  22.3504092  53.2141529
  41.6023288  22.5431739  52.4060380  40.2034732  22.4063278  52.9684913
  28.0152673  23.5128260  42.7972607  27.7698715  22.6090590  42.9952817
  28.1848588  23.5145410  41.8552085  35.7049383  14.3851936  52.1797363
  36.2231327  15.1212963  51.8543851  35.3504516  14.6915929  53.0144122
  27.2848321  19.2456617  40.2958769  26.5917566  19.3200972  39.6398805
  27.0400073  18.4816961  40.8180286  35.9561977  10.8052219  47.6998260
  36.2363731  10.1375408  48.3258686  36.7412584  10.9981314  47.1872923
  33.7595446  29.9811212  39.2623286  33.1869413  30.6001400  38.8093758
  34.3328239  30.5310574  39.7963208  39.8270836  19.2269853  51.4469835
  40.7788258  19.3267950  51.4682059  39.6574286  18.4348121  51.9567919
  37.8485215  16.3125436  51.6329236  37.2535147  16.5930449  50.9375724
  37.5634912  16.8019337  52.4045977  36.9792705  30.2648363  40.3931868
  37.9123379  30.1993924  40.5964744  36.8915918  31.1004629  39.9346401
  39.6080722  29.5814233  37.3535816  39.5294354  29.2474097  38.2471574
  40.4290389  30.0736001  37.3527288  42.3058913  22.4475972  50.5612134
  42.2735233  21.5091973  50.7471818  42.9159537  22.5260009  49.8277959
  34.1442244  21.3172025  36.6039338  35.0901349  21.1878233  36.6727756
  33.7656489  20.5786687  37.0808766  42.4553402  19.2387016  50.6070417
  41.9392450  18.4545472  50.4200346  43.3393350  18.9105732  50.7716937
  40.1164129  12.9828031  46.5666230  39.9188950  12.6743119  47.4509562
  40.7263834  13.7089670  46.6964160  48.1235463  23.5091979  49.7018171
  48.8538852  23.2477267  50.2625874  47.5142409  22.7720701  49.7420239
  46.2050760  21.6499842  50.2992622  45.4783924  21.5155807  49.6909114
  45.7898047  21.9576670  51.1049340  34.0280937  25.3689771  58.0639995
  34.9483946  25.5468370  58.2580042  33.9930520  24.4245817  57.9119695
  32.3285161  19.2422002  36.5394224  31.4216617  18.9455114  36.6156937
  32.6061142  18.9451820  35.6728510  23.2463102  20.5628365  46.9893270
  22.9265886  19.7093673  46.6967644  22.6996530  20.7776943  47.7451237
  27.0243009  23.2790806  50.7062776  27.2429019  24.2107914  50.7250810
  27.4368783  22.9198780  51.4917580  33.9447227  13.7858891  42.6938465
  33.1347955  13.4405976  43.0693711  34.6331644  13.4766435  43.2826076
  35.8737775  12.8636938  44.3162761  36.4268814  13.2832392  44.9752785
  36.1107862  11.9372686  44.3585717  31.8970875  18.8524012  60.0965525
  31.7967601  19.8018369  60.0277616  31.6792417  18.5242251  59.2241595
  31.0983946  16.1008937  36.6806203  31.9603110  16.4263835  36.9402020
  31.2834290  15.3140433  36.1679269  23.1151362  24.1831277  48.9586392
  22.4214833  23.7685229  48.4456346  23.8624353  24.2251813  48.3619810
  39.2516582  14.9737463  43.8241426  38.6715251  15.6322267  43.4419478
  38.9852515  14.1514808  43.4128843  37.7020149  14.3742521  46.0262746
  38.2019927  14.4859056  45.2177065  38.3455757  14.0703574  46.6663555
  31.7602145  22.2821151  58.9130587  31.2769226  23.0821511  59.1194476
  31.8463084  22.2929096  57.9598031  25.0288104  24.1149530  46.8352406
  25.0058792  24.2137218  45.8834290  25.3388741  24.9614681  47.1569573
  27.6875482  26.1725685  50.9499021  28.6418736  26.1409628  50.8828952
  27.4888006  25.7116309  51.7649247  28.2774864  24.7426801  53.5169818
  29.0967753  25.2370880  53.5404656  28.5511672  23.8258770  53.4887386
  38.0341460  17.1337554  42.8797774  37.1467315  17.4187204  42.6617969
  38.4495450  16.9731317  42.0325051  41.3855997  17.1584075  46.5952113
  42.1616387  17.6480527  46.8676730  40.6604131  17.5842129  47.0523983
  43.8228555  17.8711694  47.6526054  44.4173046  17.6307430  46.9419362
  43.8955139  17.1518824  48.2799590  26.0425711  31.7145305  47.9669219
  25.9080179  30.9545706  47.4007217  25.6257773  32.4386205  47.4998008
  37.1784674  26.8982228  36.9745794  37.8820524  27.1032231  37.5903450
  36.4547323  27.4658990  37.2394878  38.0082484  22.6492090  43.0948064
  37.9517686  23.1060641  42.2555697  38.5610827  21.8882774  42.9170907
  41.8187290  18.4381821  43.9198184  41.5624224  18.0378457  44.7506391
  41.1940158  19.1525615  43.7948323  46.1299628  21.1777895  46.4269475
  45.5699186  21.2471084  47.2001037  45.5243131  21.0018879  45.7068971
  29.1994837  32.6114622  48.1787661  29.0827221  33.5560054  48.0766352
  28.3787283  32.3088183  48.5673461  39.0871371  27.3364758  39.0244254
  39.9216975  26.9045956  38.8421729  38.9255714  27.1646771  39.9521149
  38.7417263  23.8396871  40.3900593  38.6866067  23.6741142  39.4489037
  38.1163319  24.5472904  40.5462783  23.5309778  19.0764935  54.2162016
  24.1768642  18.5663889  54.7049241  23.3226930  19.8133617  54.7905441
  36.0563171  26.1445783  59.7154156  36.9254330  26.3186435  59.3540791
  35.5769922  26.9640200  59.5929885  32.0513389  13.3404980  39.9685912
  32.0392059  14.2846820  40.1254183  32.9436811  13.1575125  39.6745373
  30.2249351  33.2642884  51.3943590  31.1276598  33.2966494  51.7110085
  29.9986721  32.3343335  51.4089926  31.9802953  32.0173870  48.0553668
  31.0298584  32.0175732  47.9418041  32.2835439  31.2706605  47.5389703
  35.8665508   9.9347757  44.2231849  35.0997904   9.3806243  44.3688531
  36.2776213  10.0069625  45.0846000  27.8707269  16.2232552  58.3137030
  28.7338731  15.8669357  58.5240354  27.2972680  15.8846447  59.0012434
  47.7155646  37.8534409  49.1199431  48.3534056  37.7341156  48.4162771
  47.5976489  38.8015253  49.1787383  44.5245353  37.8061837  49.0560955
  44.1863864  37.6902901  48.1681490  45.3935121  37.4053002  49.0361962
  40.3832168  39.6597313  45.0457846  39.8197034  39.5687250  44.2774134
  40.2684563  38.8397218  45.5260339  37.9296600  41.1548505  47.8842067
  38.7217892  40.8139329  47.4688366  38.1693250  41.2643480  48.8044220
  45.9631727  43.3268281  40.3572311  45.3119707  43.9122361  39.9706325
  46.7576090  43.8574476  40.4167349  39.8887354  40.4157418  40.7559446
  40.6618230  39.8686405  40.6172321  40.2412753  41.2801667  40.9673907
  42.6528604  39.1210649  50.5527705  43.2492176  38.8966671  49.8384668
  42.7103575  38.3795394  51.1553152  42.2253632  36.5750084  38.3877896
  42.4779153  36.0531605  37.6261359  41.2878191  36.4116230  38.4904579
  47.2696915  35.5785863  46.1952639  48.0560004  35.1605286  45.8443056
  47.5335619  36.4831955  46.3634287  47.4406992  41.0158713  40.8941296
  46.8052825  41.0893339  41.6062200  47.1104399  41.6052312  40.2160375
  52.6705342  35.5161096  47.0985617  53.4030514  34.9460313  47.3323447
  51.9144698  35.1282696  47.5392123  41.9449921  38.4778190  40.5902271
  41.8286179  37.8023094  41.2583355  42.0552181  37.9910564  39.7734424
  44.2881462  37.9388337  44.2948960  43.9239669  37.4118958  45.0061881
  45.1448578  37.5486806  44.1215445  50.1930762  29.2282670  51.5580226
  49.8614087  30.0978081  51.3341441  49.5976376  28.9118954  52.2374256
  43.9286949  32.9678237  39.2910308  44.0961351  33.8358473  39.6580779
  43.7384118  33.1305519  38.3671598  46.6862282  41.4295216  50.9576139
  46.3863005  42.3320255  50.8491946  46.3413341  41.1627399  51.8097292
  40.1374763  37.8809013  46.9912843  39.2125260  37.7485227  47.1990535
  40.3859177  38.6603232  47.4882786  50.0859426  33.9477756  48.6373576
  49.1776303  33.8793164  48.3432337  50.0347021  34.4249701  49.4655401
  43.9076170  35.4235894  40.2756975  43.7875795  35.8692945  41.1142455
  43.2128758  35.7721212  39.7170513  37.4983574  37.5242286  47.8256632
  37.6275956  37.7776765  48.7396044  36.8181026  38.1169994  47.5061287
  41.6683062  48.1939536  43.9247106  41.5907091  49.1447361  44.0035587
  41.0644705  47.8485409  44.5822033  51.9521072  32.1494194  50.4151450
  51.3095452  32.4426728  49.7691245  51.4476001  32.0347115  51.2204647
  49.6061236  35.8957368  41.1037309  50.5179092  36.1284754  40.9285007
  49.0970883  36.4794412  40.5412388  48.2130818  40.8783186  48.4950891
  47.5839680  41.0428900  47.7926958  47.8256480  41.2924796  49.2661855
  52.0920050  41.8137624  45.8495254  51.4071088  42.1936525  45.2992288
  52.1763899  42.4232951  46.5827202  46.9497211  32.0715404  49.3527170
  46.0881690  32.3696657  49.6443908  46.9759645  32.2885802  48.4208203
  43.7658780  40.6157594  45.7600976  44.2297125  40.8945297  44.9705598
  43.5015578  39.7141039  45.5774066  40.6582861  40.1629076  48.6980739
  41.2284218  40.5916344  48.0598223  41.2490973  39.8811660  49.3964925
  42.7027666  36.7380747  42.5690541  43.4051709  37.1901790  43.0364467
  42.3708294  36.0964565  43.1970434  41.1508028  35.3292503  56.9441750
  40.5206688  36.0108784  57.1777147  41.0444115  35.2175585  55.9994889
  36.4453000  34.9964299  47.8707674  35.6552054  35.2521828  47.3947785
  36.9364247  35.8112637  47.9759715  38.3967745  35.3608878  44.8291151
  37.5998909  35.4727573  45.3474647  38.1693338  35.6995531  43.9632042
  34.7290703  35.2494790  50.3022665  34.9798741  36.1341800  50.5680241
  35.2650251  35.0699391  49.5297757  58.5522803  38.6808287  46.9697927
  57.7986511  38.1115685  46.8141931  58.6870344  38.6470951  47.9168561
  43.9421431  43.5521689  42.6452646  43.8067105  44.3973225  43.0737494
  44.4831243  43.7540967  41.8818580  40.4288770  29.6313269  59.3067001
  40.0355716  29.0779468  59.9814646  41.2454911  29.9423847  59.6973519
  37.3950828  41.0697127  43.2180571  37.9075349  41.8640377  43.3686136
  38.0473541  40.3723418  43.1514173  39.2045713  44.1862883  45.3003324
  39.3812341  45.1080848  45.1124308  40.0002546  43.8721303  45.7297704
  43.3456731  31.0471148  56.8987258  44.0866445  31.6478301  56.8191720
  43.5774654  30.3048786  56.3405300  38.4898069  36.2327515  55.1765488
  38.3751584  35.3312773  55.4772586  37.6342587  36.4791212  54.8250304
  40.3277028  45.7041057  51.3013667  40.8784453  45.5758121  50.5290661
  39.4888504  46.0035946  50.9508559  47.2913894  27.0752251  51.1751540
  46.9478164  27.9653893  51.0990650  47.6592857  26.8853909  50.3121125
  35.3599745  39.3985781  43.9940142  36.1974967  39.8082790  43.7773849
  35.5378012  38.4585224  43.9640336  47.2564177  37.0660862  39.6823975
  46.7410800  37.8365467  39.9212362  46.9841485  36.3925998  40.3057036
  44.8411288  31.9110563  44.7409213  43.9852884  31.5217413  44.5614852
  45.2538240  31.9902524  43.8808999  46.3710435  29.4456906  49.1400773
  45.8675230  29.4087041  48.3268578  46.6641041  30.3549649  49.1997429
  42.6153320  29.5295636  48.1466955  43.4806317  29.3338445  47.7872844
  42.6830829  29.3005988  49.0736311  52.2298451  39.8193217  41.6177148
  51.4527894  39.4804376  41.1732310  52.9089932  39.8245840  40.9432113
  47.0450480  34.9387954  41.5083756  46.7400616  35.2534103  42.3593899
  47.9980922  35.0169374  41.5511089  45.4896912  41.0978178  43.1576710
  44.9618273  40.3630937  42.8449947  44.9884415  41.8752854  42.9116678
  50.4689758  39.2927198  48.2743756  49.8113432  39.9826459  48.3623885
  51.2730157  39.6823630  48.6177742  40.2215640  31.7597844  45.5183321
  40.7959391  31.5373025  44.7856514  40.8086622  31.8286538  46.2711923
  49.2795217  37.6471571  46.3247698  49.7927098  38.2801563  46.8269408
  49.9296441  37.0472766  45.9591058  40.5485227  33.7902305  39.5379207
  39.7122539  34.1276991  39.8588481  40.4089996  33.6551285  38.6006344
  42.5238307  28.6339093  44.2458391  41.8702720  28.3188110  43.6215006
  42.4818781  28.0114833  44.9718214  43.6349512  38.9158388  36.1611683
  42.7276574  38.6847641  36.3602832  44.1320544  38.1196007  36.3485664
  45.7576048  35.1221026  48.5706038  44.8398609  35.3435973  48.4127726
  46.1736191  35.1967337  47.7117746  46.5411095  36.5212442  43.7008719
  47.2882914  37.0333839  43.3915841  46.8102685  36.1996495  44.5613112
  44.8137746  39.0170983  40.6835673  43.9048965  38.7330015  40.7808143
  44.8432829  39.4370061  39.8238980  48.9889933  33.5569558  45.6827508
  48.2512689  33.0446944  46.0137751  49.2416706  33.1169940  44.8710785
  49.0901560  26.3345810  46.2769277  49.3960437  25.4743174  45.9895192
  49.8154165  26.9263430  46.0768271  35.3825916  36.7376497  44.6650875
  35.1850316  36.1445857  43.9401942  34.8272580  36.4328707  45.3826814
  43.3622640  36.6299603  46.7845468  43.4171249  35.6773440  46.7087945
  42.5513842  36.7859042  47.2686767  44.5113833  40.5579726  38.0223752
  44.0733263  39.8415585  37.5629389  45.2524274  40.7855841  37.4608843
  41.3014999  35.2476663  44.5435847  40.4882865  35.5470834  44.9501039
  41.7973994  34.8532352  45.2610329  43.4523577  45.2434420  46.4770112
  43.4099756  45.4695266  45.5478644  44.3686276  45.0097795  46.6255913
  52.6286948  38.8336923  44.0800070  52.4904847  39.0238519  43.1521259
  52.2723167  39.5956306  44.5368121  40.7929074  32.8195019  50.1597082
  41.4328454  32.6783778  49.4620045  39.9606605  32.5329532  49.7835684
  52.6556328  40.9013450  49.0911342  53.0892834  40.8088739  49.9394396
  53.3687908  40.8770951  48.4531358  41.5689378  42.1197449  46.2732075
  42.3629977  41.6247769  46.0714650  40.8581071  41.5915312  45.9099780
  37.8772142  36.2640531  42.3491827  36.9469730  36.2024986  42.5661789
  37.9729614  35.7416483  41.5528469  37.7957691  32.7895344  44.9370069
  38.0564508  33.7040677  44.8279229  38.6174863  32.3219786  45.0866682
  39.2682616  34.2033101  52.1068893  39.9405669  33.9950463  51.4581542
  38.4412403  34.0055187  51.6674126  45.1708188  30.8295042  54.1234554
  44.5236103  31.5284991  54.0299031  45.9409203  31.2631186  54.4910803
  44.1460654  42.6926471  49.9529912  44.0071740  42.3245255  50.8255850
  43.3575250  43.2074110  49.7813869  44.7408806  47.7935567  41.2955448
  44.9160562  47.3223611  42.1101071  44.0541594  48.4201334  41.5236709
  45.6965869  42.0708074  47.3418749  45.3615702  42.0308844  48.2376399
  45.1969815  41.4052790  46.8689160  39.6710113  37.4775704  52.8671331
  39.5329911  36.7455942  53.4682870  40.5815037  37.3884604  52.5855518
  48.6325061  39.4164108  37.6155809  48.0154232  38.6910936  37.5188862
  48.1641549  40.1773468  37.2722883  42.2992414  37.1895663  52.3555010
  43.0092032  36.5488855  52.3141629  42.2561722  37.4408558  53.2781191
  41.0121348  34.1760881  54.1750650  40.4758705  33.7251619  54.8272246
  40.4238056  34.3106790  53.4321114  40.4223607  33.6349532  36.7377113
  39.5453073  33.5138333  36.3739360  40.8981360  32.8435611  36.4856002
  31.9425747  38.4226692  46.8318621  32.6296787  38.1088422  46.2439636
  31.7873876  39.3268057  46.5585872  36.7460469  33.3116889  51.2603644
  36.6618658  32.7042558  50.5254054  35.9243176  33.8025907  51.2613141
  43.6087533  45.9875823  43.9839634  42.8255055  46.5297503  44.0777858
  44.3080278  46.5049802  44.3833875  46.9184183  31.7970452  46.6273839
  47.4152883  31.0440414  46.3074910  46.1471165  31.8334769  46.0617049
  54.7713940  37.5010818  48.2692131  54.7603817  38.3835533  47.8986064
  53.9031320  37.1482368  48.0746668  48.0013964  40.5542139  44.2012263
  47.0670242  40.6743602  44.0316967  48.1790632  39.6514606  43.9372273
  43.5019152  33.9387835  46.3545524  43.1316939  33.3858875  47.0426429
  43.9978244  33.3345969  45.8020524  51.3886515  36.3959459  44.7362297
  51.8546967  37.2287450  44.6622599  51.8394016  35.9304440  45.4407555
  49.3603178  28.7640046  48.7753198  48.4466258  28.9944272  48.9435405
  49.7896279  28.8478490  49.6267231  36.9276068  43.9321685  50.3831645
  37.5129505  43.1865373  50.5159549  36.7300907  44.2425642  51.2668308
  39.7814724  46.9672933  45.3994087  39.1125099  47.4519060  44.9158127
  39.6427593  47.2142153  46.3137465  31.5193723  36.5027285  49.1036088
  31.5577823  35.9690876  49.8973206  31.0134016  35.9762491  48.4847065
  38.8984485  31.3491826  52.5998630  38.9625812  32.2106657  52.1876028
  38.8351606  30.7365828  51.8670988  38.3736758  33.4214958  56.2471664
  39.0008797  33.0392036  56.8609189  37.5164677  33.2029160  56.6127357
  35.1502301  35.2291388  42.1790019  35.4455742  34.3202066  42.1257073
  34.2490336  35.2079127  41.8571021  38.6796548  33.3047384  48.1617568
  37.9583133  33.9183352  48.0225041  39.4689803  33.8405149  48.0834214
  41.4822861  30.6401811  54.4358219  42.0057263  30.8864107  55.1984529
  41.2635194  31.4721845  54.0161357  36.8790142  32.9105485  42.3029344
  36.5502848  32.0302864  42.1204450  37.2329513  32.8553154  43.1905733
  39.9931965  33.1978455  42.6704822  40.3328038  33.7264376  41.9483430
  40.4404086  33.5358861  43.4463388  42.6875406  31.5815506  52.1207890
  42.3472227  30.7823319  52.5228570  41.9814413  31.8817217  51.5484723
  43.3391878  28.6664818  50.5735213  44.1617947  28.1925296  50.4514103
  43.5829942  29.4455302  51.0733899  41.9800113  31.6953077  40.8698115
  42.7008475  32.0734329  40.3661832  41.3565417  32.4141953  40.9733093
  46.1231235  32.3998226  41.8056447  46.3394850  33.2822863  41.5045275
  45.6425303  32.0084439  41.0762089  40.8630457  35.3583939  48.3827192
  40.7175038  35.6724242  49.2751473  40.3855660  35.9768839  47.8298090
  42.7226840  32.3486487  48.4308081  42.7088408  31.4527580  48.0940379
  43.4399268  32.3557150  49.0646367  44.5752970  32.7823827  50.4761209
  44.3170748  33.7040898  50.4745539  44.0438011  32.3854261  51.1661673
  35.3376119  37.8989283  51.3214853  34.7929587  38.6749091  51.4535127
  36.2155469  38.2460088  51.1633974  42.1263736  31.2300867  43.6995651
  42.2479647  30.3017513  43.8986539  41.8365778  31.2439553  42.7873967
  44.9954926  28.9155777  46.8362371  45.0176623  28.9795111  45.8814351
  45.4122985  28.0760286  47.0302877  55.3738550  38.6511037  44.8741594
  55.8169696  37.9018362  44.4760717  54.4965061  38.6421173  44.4915326
  36.1242141  37.0259179  54.2145010  35.3823877  37.1741815  54.8009640
  35.8034885  37.2867445  53.3511759  36.5698755  44.9124608  46.2455404
  37.3956774  44.6128380  45.8654048  36.2192807  44.1432231  46.6945193
  41.5380288  44.2651076  48.3153078  40.9160297  43.6021781  48.0155306
  42.2085155  44.2912208  47.6326726  34.7707360  42.8310935  47.2044338
  33.9339268  42.4033109  47.0228339  34.7431005  43.0243378  48.1415129
  41.6104815  32.7432864  57.9085584  41.6592971  33.6194987  57.5263353
  42.1527329  32.2010257  57.3357227  41.0993795  42.8155000  41.7911538
  41.2481915  43.4990464  41.1378211  41.9060238  42.7960090  42.3060994
  43.8404104  33.4964237  54.6631943  42.9707413  33.7897803  54.3914531
  44.0763584  34.0804682  55.3839206  54.9171415  40.1216275  47.2664041
  55.7518306  40.5606079  47.4301602  55.0530544  39.6454929  46.4472287
  38.8546428  38.8420177  42.7972607  38.6092470  37.9382507  42.9952817
  39.0242342  38.8437328  41.8552085  46.5443137  29.7143854  52.1797363
  47.0625081  30.4504881  51.8543851  46.1898270  30.0207847  53.0144122
  38.1242075  34.5748535  40.2958769  37.4311320  34.6492890  39.6398805
  37.8793827  33.8108879  40.8180286  46.7955732  26.1344136  47.6998260
  47.0757485  25.4667325  48.3258686  47.5806339  26.3273232  47.1872923
  44.5989200  45.3103130  39.2623286  44.0263167  45.9293317  38.8093758
  45.1721994  45.8602492  39.7963208  48.6878969  31.6417353  51.6329236
  48.0928902  31.9222366  50.9375724  48.4028666  32.1311254  52.4045977
  53.1452668  37.7767890  50.5612134  53.1128988  36.8383891  50.7471818
  53.7553291  37.8551927  49.8277959  44.9835999  36.6463943  36.6039338
  45.9295103  36.5170151  36.6727756  44.6050244  35.9078605  37.0808766
  53.2947156  34.5678933  50.6070417  52.7786205  33.7837390  50.4200346
  54.1787105  34.2397650  50.7716937  50.9557883  28.3119949  46.5666230
  50.7582704  28.0035037  47.4509562  51.5657589  29.0381588  46.6964160
  58.9629218  38.8383897  49.7018171  59.6932606  38.5769185  50.2625874
  58.3536163  38.1012619  49.7420239  57.0444515  36.9791759  50.2992622
  56.3177678  36.8447724  49.6909114  56.6291802  37.2868588  51.1049340
  43.1678916  34.5713919  36.5394224  42.2610371  34.2747032  36.6156937
  43.4454897  34.2743737  35.6728510  34.0856856  35.8920283  46.9893270
  33.7659641  35.0385591  46.6967644  33.5390284  36.1068861  47.7451237
  37.8636764  38.6082724  50.7062776  38.0822774  39.5399832  50.7250810
  38.2762538  38.2490698  51.4917580  44.7840982  29.1150809  42.6938465
  43.9741710  28.7697894  43.0693711  45.4725398  28.8058353  43.2826076
  46.7131530  28.1928856  44.3162761  47.2662568  28.6124309  44.9752785
  46.9501616  27.2664604  44.3585717  42.7364629  34.1815929  60.0965525
  42.6361356  35.1310286  60.0277616  42.5186171  33.8534168  59.2241595
  41.9377700  31.4300855  36.6806203  42.7996864  31.7555753  36.9402020
  42.1228045  30.6432350  36.1679269  33.9545116  39.5123194  48.9586392
  33.2608588  39.0977147  48.4456346  34.7018107  39.5543731  48.3619810
  50.0910337  30.3029381  43.8241426  49.5109006  30.9614185  43.4419478
  49.8246270  29.4806726  43.4128843  48.5413903  29.7034439  46.0262746
  49.0413682  29.8150973  45.2177065  49.1849511  29.3995492  46.6663555
  35.8681859  39.4441448  46.8352406  35.8452547  39.5429135  45.8834290
  36.1782495  40.2906599  47.1569573  38.5269237  41.5017603  50.9499021
  39.4812490  41.4701545  50.8828952  38.3281760  41.0408227  51.7649247
  39.1168619  40.0718719  53.5169818  39.9361508  40.5662798  53.5404656
  39.3905426  39.1550687  53.4887386  48.8735215  32.4629471  42.8797774
  47.9861070  32.7479122  42.6617969  49.2889204  32.3023235  42.0325051
  52.2249751  32.4875992  46.5952113  53.0010141  32.9772445  46.8676730
  51.4997885  32.9134047  47.0523983  54.6622310  33.2003612  47.6526054
  55.2566800  32.9599348  46.9419362  54.7348893  32.4810742  48.2799590
  36.8819465  47.0437223  47.9669219  36.7473933  46.2837623  47.4007217
  36.4651528  47.7678122  47.4998008  48.0178428  42.2274146  36.9745794
  48.7214279  42.4324149  37.5903450  47.2941077  42.7950908  37.2394878
  48.8476239  37.9784007  43.0948064  48.7911440  38.4352559  42.2555697
  49.4004581  37.2174692  42.9170907  52.6581045  33.7673739  43.9198184
  52.4017979  33.3670375  44.7506391  52.0333913  34.4817533  43.7948323
  56.9693382  36.5069812  46.4269475  56.4092940  36.5763002  47.2001037
  56.3636886  36.3310797  45.7068971  40.0388591  47.9406540  48.1787661
  39.9220975  48.8851972  48.0766352  39.2181038  47.6380101  48.5673461
  49.5811018  39.1688789  40.3900593  49.5259822  39.0033060  39.4489037
  48.9557073  39.8764821  40.5462783  34.3703533  34.4056853  54.2162016
  35.0162397  33.8955807  54.7049241  34.1620684  35.1425535  54.7905441
  42.8907143  28.6696898  39.9685912  42.8785813  29.6138737  40.1254183
  43.7830565  28.4867043  39.6745373  42.8196707  47.3465788  48.0553668
  41.8692338  47.3467650  47.9418041  43.1229194  46.5998523  47.5389703
  46.7059263  25.2639674  44.2231849  45.9391659  24.7098161  44.3688531
  47.1169968  25.3361543  45.0846000  38.7101024  31.5524470  58.3137030
  39.5732486  31.1961275  58.5240354  38.1366435  31.2138365  59.0012434
  53.0647387  51.9042002  38.3877896  53.3172907  51.3823523  37.6261359
  52.1271946  51.7408147  38.4904579  54.7680703  48.2970155  39.2910308
  54.9355106  49.1650391  39.6580779  54.5777872  48.4597436  38.3671598
  53.3632062  43.9631010  44.2458391  52.7096474  43.6480028  43.6215006
  53.3212536  43.3406751  44.9718214  59.8283687  48.8861476  45.6827508
  59.0906444  48.3738862  46.0137751  60.0810461  48.4461857  44.8710785
  51.2617361  48.9641450  36.7377113  50.3846828  48.8430251  36.3739360
  51.7375114  48.1727528  36.4856002  56.9624990  47.7290143  41.8056447
  57.1788604  48.6114781  41.5045275  56.4819057  47.3376357  41.0762089
  55.8348681  44.2447695  46.8362371  55.8570377  44.3087028  45.8814351
  56.2516740  43.4052204  47.0302877  54.0072670  49.9005837  36.5394224
  53.1004126  49.6038950  36.6156937  54.2848651  49.6035655  35.6728510
  55.6234736  44.4442727  42.6938465  54.8135464  44.0989812  43.0693711
  56.3119153  44.1350270  43.2826076  57.5525284  43.5220774  44.3162761
  58.1056323  43.9416227  44.9752785  57.7895371  42.5956522  44.3585717
  52.7771455  46.7592772  36.6806203  53.6390619  47.0847671  36.9402020
  52.9621799  45.9724268  36.1679269  60.9304091  45.6321299  43.8241426
  60.3502760  46.2906103  43.4419478  60.6640024  44.8098643  43.4128843
  57.5453017  40.5931592  44.2231849  56.7785413  40.0390079  44.3688531
  57.9563722  40.6653461  45.0846000  59.6084109  71.8132340  47.8842067
  60.4005401  71.4723165  47.4688366  59.8480759  71.9227315  48.8044220
  67.6419236  73.9852116  40.3572311  66.9907216  74.5706197  39.9706325
  68.4363599  74.5158311  40.4167349  61.5674863  71.0741253  40.7559446
  62.3405739  70.5270240  40.6172321  61.9200262  71.9385503  40.9673907
  63.3470571  78.8523372  43.9247106  63.2694600  79.8031197  44.0035587
  62.7432214  78.5069244  44.5822033  73.7707559  72.4721459  45.8495254
  73.0858597  72.8520361  45.2992288  73.8551408  73.0816786  46.5827202
  80.2310312  69.3392122  46.9697927  79.4774020  68.7699520  46.8141931
  80.3657853  69.3054787  47.9168561  65.6208940  74.2105524  42.6452646
  65.4854614  75.0557060  43.0737494  66.1618752  74.4124802  41.8818580
  59.0738337  71.7280963  43.2180571  59.5862858  72.5224213  43.3686136
  59.7261050  71.0307253  43.1514173  60.8833222  74.8446719  45.3003324
  61.0599850  75.7664683  45.1124308  61.6790055  74.5305138  45.7297704
  62.0064537  76.3624893  51.3013667  62.5571962  76.2341956  50.5290661
  61.1676013  76.6619782  50.9508559  68.9701403  57.7336086  51.1751540
  68.6265673  58.6237728  51.0990650  69.3380366  57.5437744  50.3121125
  57.0387254  70.0569617  43.9940142  57.8762476  70.4666625  43.7773849
  57.2165521  69.1169059  43.9640336  68.2205100  78.2839730  39.0808369
  67.5466799  78.5871427  39.6893327  68.6070922  79.0868811  38.7313826
  70.1677461  75.1237904  45.3876659  70.4600436  75.6842961  44.6689024
  70.6776082  75.4166465  46.1429818  65.1311086  75.9018255  46.4770112
  65.0887265  76.1279102  45.5478644  66.0473785  75.6681630  46.6255913
  63.2476887  72.7781284  46.2732075  64.0417486  72.2831604  46.0714650
  62.5368580  72.2499147  45.9099780  68.0671732  75.1599380  50.6244442
  68.1208754  75.7290316  51.3922158  67.1986513  75.3301265  50.2598479
  65.8248163  73.3510306  49.9529912  65.6859249  72.9829091  50.8255850
  65.0362759  73.8657946  49.7813869  66.4196315  78.4519403  41.2955448
  66.5948071  77.9807446  42.1101071  65.7329103  79.0785169  41.5236709
  60.9857400  81.6008766  48.0695308  61.2253999  82.2327290  48.7474327
  60.1426597  81.2496806  48.3560668  53.6213256  69.0810527  46.8318621
  54.3084296  68.7672257  46.2439636  53.4661385  69.9851892  46.5585872
  65.4985262  77.4087888  50.4736812  65.4255434  78.2142859  50.9856117
  65.0562655  77.6079854  49.6484834  65.2875042  76.6459658  43.9839634
  64.5042564  77.1881338  44.0777858  65.9867787  77.1633638  44.3833875
  76.4501449  68.1594653  48.2692131  76.4391326  69.0419368  47.8986064
  75.5818829  67.8066204  48.0746668  67.9583946  77.3074722  52.6294971
  68.6711918  77.9422187  52.5570872  67.4673974  77.4038588  51.8134973
  67.7704319  77.6473466  45.3781262  67.9526714  76.8295122  45.8409015
  68.5937305  77.8641158  44.9406152  68.1046485  76.5741651  42.6396311
  68.6334251  76.0634106  42.0266473  68.3674704  76.2584181  43.5041844
  58.6063577  74.5905521  50.3831645  59.1917014  73.8449208  50.5159549
  58.4088416  74.9009477  51.2668308  61.4602233  77.6256768  45.3994087
  60.7912608  78.1102896  44.9158127  61.3215102  77.8725988  46.3137465
  65.6007501  79.6600511  51.9976745  66.1525809  79.8232133  52.7625830
  65.9413695  80.2504949  51.3256770  68.7375888  77.6082487  48.9840427
  68.6127028  76.8072227  48.4751373  69.3954980  78.1028680  48.4954397
  70.8010797  75.4091507  50.6119978  69.8541132  75.2896858  50.5398304
  71.1493570  74.5214005  50.6946239  67.8057230  75.2044223  46.8124330
  67.6582193  74.2760931  46.9931900  68.6310724  75.2264314  46.3281405
  71.4091352  76.0272782  47.8989203  72.3337899  75.8215643  47.7613654
  71.2406655  75.7789183  48.8078544  71.1986668  76.5458449  43.2551294
  71.3723546  75.9804872  42.5025146  71.6915559  77.3459344  43.0730784
  72.1861841  75.8625214  40.3548192  72.8812745  76.4831907  40.5735507
  72.5284991  75.0120565  40.6300570  74.0853264  73.3124919  41.8835523
  74.6104588  73.6512192  41.1584843  73.9975616  72.3771935  41.6998658
  65.7693925  79.3796903  46.2430776  65.3298915  78.8873281  46.9363633
  66.5202041  78.8369870  46.0022851  58.2486264  75.5708443  46.2455404
  59.0744283  75.2712215  45.8654048  57.8980316  74.8016066  46.6945193
  63.2167797  74.9234912  48.3153078  62.5947806  74.2605617  48.0155306
  63.8872664  74.9496044  47.6326726  56.4494869  73.4894770  47.2044338
  55.6126777  73.0616944  47.0228339  56.4218514  73.6827213  48.1415129
  62.7781304  73.4738835  41.7911538  62.9269424  74.1574299  41.1378211
  63.5847747  73.4543925  42.3060994  76.5958924  70.7800111  47.2664041
  77.4305815  71.2189915  47.4301602  76.7318053  70.3038764  46.4472287
  60.5333937  69.5004013  42.7972607  60.2879979  68.5966343  42.9952817
  60.7029851  69.5021163  41.8552085  66.2776709  75.9686966  39.2623286
  65.7050676  76.5877153  38.8093758  66.8509503  76.5186327  39.7963208
  69.4973969  76.2524116  40.3931868  70.4304642  76.1869677  40.5964744
  69.4097182  77.0880383  39.9346401  80.6416727  69.4967732  49.7018171
  81.3720115  69.2353020  50.2625874  80.0323672  68.7596454  49.7420239
  57.5469368  70.1025283  46.8352406  57.5240056  70.2012971  45.8834290
  57.8570004  70.9490434  47.1569573  58.5606974  77.7021058  47.9669219
  58.4261442  76.9421459  47.4007217  58.1439037  78.4261958  47.4998008
  78.6480891  67.1653648  46.4269475  78.0880449  67.2346837  47.2001037
  78.0424395  66.9894632  45.7068971  61.7176100  78.5990375  48.1787661
  61.6008484  79.5435807  48.0766352  60.8968547  78.2963936  48.5673461
  62.7430614  79.2518637  51.3943590  63.6457861  79.2842247  51.7110085
  62.5167984  78.3219088  51.4089926  64.4984216  78.0049623  48.0553668
  63.5479847  78.0051485  47.9418041  64.8016703  77.2582358  47.5389703
  80.2336910  83.8410162  49.1199431  80.8715320  83.7216909  48.4162771
  80.1157753  84.7891006  49.1787383  77.0426616  83.7937590  49.0560955
  76.7045128  83.6778655  48.1681490  77.9116384  83.3928755  49.0361962
  72.9013432  85.6473066  45.0457846  72.3378297  85.5563003  44.2774134
  72.7865827  84.8272971  45.5260339  70.4477864  87.1424258  47.8842067
  71.2399156  86.8015082  47.4688366  70.6874514  87.2519233  48.8044220
  78.4812991  89.3144034  40.3572311  77.8300970  89.8998114  39.9706325
  79.2757353  89.8450229  40.4167349  72.4068618  86.4033171  40.7559446
  73.1799494  85.8562158  40.6172321  72.7594017  87.2677420  40.9673907
  74.2453660  87.7309553  53.9626345  73.9543526  88.6355184  53.8473011
  74.8810645  87.7726081  54.6770415  75.1709867  85.1086402  50.5527705
  75.7673439  84.8842424  49.8384668  75.2284839  84.3671147  51.1553152
  74.7434896  82.5625837  38.3877896  74.9960416  82.0407358  37.6261359
  73.8059455  82.3991983  38.4904579  79.7878178  81.5661616  46.1952639
  80.5741268  81.1481039  45.8443056  80.0516883  82.4707708  46.3634287
  79.9588256  87.0034466  40.8941296  79.3234089  87.0769092  41.6062200
  79.6285662  87.5928065  40.2160375  85.1886605  81.5036849  47.0985617
  85.9211777  80.9336066  47.3323447  84.4325961  81.1158449  47.5392123
  74.4631184  84.4653943  40.5902271  74.3467442  83.7898847  41.2583355
  74.5733444  83.9786317  39.7734424  76.8062725  83.9264090  44.2948960
  76.4420932  83.3994711  45.0061881  77.6629841  83.5362559  44.1215445
  82.7112026  75.2158423  51.5580226  82.3795351  76.0853834  51.3341441
  82.1157639  74.8994707  52.2374256  76.4468212  78.9553990  39.2910308
  76.6142615  79.8234226  39.6580779  76.2565381  79.1181272  38.3671598
  79.2043545  87.4170969  50.9576139  78.9044268  88.3196008  50.8491946
  78.8594605  87.1503152  51.8097292  72.6556027  83.8684766  46.9912843
  71.7306523  83.7360980  47.1990535  72.9040440  84.6478985  47.4882786
  82.6040689  79.9353509  48.6373576  81.6957566  79.8668917  48.3432337
  82.5528285  80.4125454  49.4655401  76.4257433  81.4111647  40.2756975
  76.3057058  81.8568698  41.1142455  75.7310021  81.7596965  39.7170513
  70.0164838  83.5118039  47.8256632  70.1457219  83.7652518  48.7396044
  69.3362289  84.1045747  47.5061287  74.1864325  94.1815289  43.9247106
  74.1088355  95.1323114  44.0035587  73.5825969  93.8361162  44.5822033
  84.4702336  78.1369947  50.4151450  83.8276716  78.4302481  49.7691245
  83.9657264  78.0222868  51.2204647  82.1242499  81.8833121  41.1037309
  83.0360355  82.1160507  40.9285007  81.6152146  82.4670165  40.5412388
  80.4083267  86.3057748  54.7398602  80.8166623  85.8640159  53.9953234
  79.6860528  85.7310376  54.9932795  80.7312082  86.8658939  48.4950891
  80.1020944  87.0304653  47.7926958  80.3437744  87.2800549  49.2661855
  84.6101313  87.8013377  45.8495254  83.9252352  88.1812278  45.2992288
  84.6945163  88.4108704  46.5827202  79.9113782  78.9034724  53.7713332
  79.6674714  79.6576784  53.2347608  80.1873713  79.2820071  54.6060579
  81.8652245  85.4473336  52.4490598  82.0769140  86.0905096  51.7724979
  81.8181993  84.6135653  51.9812528  79.4678474  78.0591157  49.3527170
  78.6062953  78.3572410  49.6443908  79.4940909  78.2761555  48.4208203
  76.2840043  86.6033347  45.7600976  76.7478389  86.8821050  44.9705598
  76.0196842  85.7016792  45.5774066  73.1764124  86.1504829  48.6980739
  73.7465482  86.5792097  48.0598223  73.7672236  85.8687413  49.3964925
  75.2208929  82.7256500  42.5690541  75.9232973  83.1777543  43.0364467
  74.8889558  82.0840318  43.1970434  68.9634263  80.9840052  47.8707674
  68.1733317  81.2397581  47.3947785  69.4545511  81.7988390  47.9759715
  82.9798073  88.3245291  50.6212955  83.8015517  87.9225479  50.3395637
  82.9760476  88.2213526  51.5729071  70.9149009  81.3484631  44.8291151
  70.1180172  81.4603326  45.3474647  70.6874601  81.6871284  43.9632042
  76.7454676  87.8729335  52.7773666  76.8099109  88.3349742  53.6131838
  76.0365600  87.2426700  52.9055976  67.2471966  81.2370543  50.3022665
  67.4980005  82.1217553  50.5680241  67.7831515  81.0575144  49.5297757
  91.0704066  84.6684040  46.9697927  90.3167774  84.0991438  46.8141931
  91.2051607  84.6346704  47.9168561  76.4602694  89.5397442  42.6452646
  76.3248369  90.3848978  43.0737494  77.0012507  89.7416720  41.8818580
  69.9132091  87.0572880  43.2180571  70.4256612  87.8516130  43.3686136
  70.5654804  86.3599171  43.1514173  71.7226976  90.1738636  45.3003324
  71.8993605  91.0956601  45.1124308  72.5183810  89.8597056  45.7297704
  78.0871170  90.1621009  56.7752988  77.6435025  89.3757387  56.4573893
  78.7488384  90.3500159  56.1096879  72.8458292  91.6916810  51.3013667
  73.3965717  91.5633874  50.5290661  72.0069768  91.9911699  50.9508559
  80.1852409  90.4423809  54.8034389  80.1670884  91.2632690  54.3114659
  81.1072329  90.3177884  55.0284531  76.6425463  87.9567938  55.6457898
  77.1753799  87.1956226  55.4157206  76.1139544  87.6641590  56.3882052
  79.8095158  73.0628004  51.1751540  79.4659427  73.9529646  51.0990650
  80.1774120  72.8729662  50.3121125  67.8781008  85.3861535  43.9940142
  68.7156230  85.7958543  43.7773849  68.0559276  84.4460977  43.9640336
  79.7745440  83.0536615  39.6823975  79.2592064  83.8241220  39.9212362
  79.5022749  82.3801751  40.3057036  77.3592551  77.8986316  44.7409213
  76.5034148  77.5093166  44.5614852  77.7719503  77.9778277  43.8808999
  78.8891698  75.4332659  49.1400773  78.3856494  75.3962794  48.3268578
  79.1822305  76.3425402  49.1997429  75.1334584  75.5171389  48.1466955
  75.9987581  75.3214198  47.7872844  75.2012093  75.2881741  49.0736311
  84.7479714  85.8068970  41.6177148  83.9709157  85.4680129  41.1732310
  85.4271195  85.8121593  40.9432113  79.5631744  80.9263707  41.5083756
  79.2581879  81.2409856  42.3593899  80.5162186  81.0045127  41.5511089
  78.0078175  87.0853931  43.1576710  77.4799537  86.3506690  42.8449947
  77.5065678  87.8628607  42.9116678  82.9871021  85.2802951  48.2743756
  82.3294696  85.9702212  48.3623885  83.7911421  85.6699383  48.6177742
  72.7396903  77.7473597  45.5183321  73.3140655  77.5248778  44.7856514
  73.3267885  77.8162291  46.2711923  81.7976480  83.6347324  46.3247698
  82.3108362  84.2677316  46.8269408  82.4477704  83.0348519  45.9591058
  73.0666490  79.7778058  39.5379207  72.2303802  80.1152744  39.8588481
  72.9271260  79.6427038  38.6006344  75.0419571  74.6214846  44.2458391
  74.3883983  74.3063863  43.6215006  75.0000045  73.9990586  44.9718214
  76.1530776  84.9034141  36.1611683  75.2457837  84.6723394  36.3602832
  76.6501808  84.1071760  36.3485664  79.0598854  93.6131648  39.0808369
  78.3860553  93.9163345  39.6893327  79.4464676  94.4160728  38.7313826
  78.2757311  81.1096779  48.5706038  77.3579872  81.3311726  48.4127726
  78.6917455  81.1843090  47.7117746  79.0592359  82.5088195  43.7008719
  79.8064178  83.0209592  43.3915841  79.3283948  82.1872248  44.5613112
  77.3319009  85.0046736  40.6835673  76.4230228  84.7205769  40.7808143
  77.3614093  85.4245814  39.8238980  82.5638276  88.6153325  44.4526841
  82.1100604  87.7744235  44.5092031  81.9332243  89.2514724  44.7901621
  81.5071196  79.5445311  45.6827508  80.7693953  79.0322697  46.0137751
  81.7597970  79.1045693  44.8710785  81.0071216  90.4529822  45.3876659
  81.2994190  91.0134879  44.6689024  81.5169836  90.7458383  46.1429818
  81.6082823  72.3221563  46.2769277  81.9141700  71.4618927  45.9895192
  82.3335428  72.9139183  46.0768271  67.9007179  82.7252250  44.6650875
  67.7031579  82.1321611  43.9401942  67.3453843  82.4204460  45.3826814
  75.8803903  82.6175356  46.7845468  75.9352513  81.6649193  46.7087945
  75.0695105  82.7734795  47.2686767  77.0295097  86.5455479  38.0223752
  76.5914527  85.8291338  37.5629389  77.7705538  86.7731594  37.4608843
  73.8196263  81.2352416  44.5435847  73.0064129  81.5346587  44.9501039
  74.3155257  80.8408105  45.2610329  75.9704841  91.2310173  46.4770112
  75.9281020  91.4571019  45.5478644  76.8867540  90.9973548  46.6255913
  79.4170475  81.6994241  53.3750741  79.7719862  81.9265714  54.2345207
  80.0642606  82.0312617  52.7527996  85.1468212  84.8212676  44.0800070
  85.0086110  85.0114272  43.1521259  84.7904430  85.5832059  44.5368121
  73.3110338  78.8070772  50.1597082  73.9509717  78.6659531  49.4620045
  72.4787868  78.5205285  49.7835684  85.1737591  86.8889203  49.0911342
  85.6074098  86.7964493  49.9394396  85.8869172  86.8646704  48.4531358
  74.0870642  88.1073202  46.2732075  74.8811240  87.6123522  46.0714650
  73.3762334  87.5791065  45.9099780  78.9065486  90.4891298  50.6244442
  78.9602508  91.0582234  51.3922158  78.0380267  90.6593183  50.2598479
  70.3953405  82.2516284  42.3491827  69.4650993  82.1900739  42.5661789
  70.4910877  81.7292236  41.5528469  70.3138954  78.7771097  44.9370069
  70.5745771  79.6916430  44.8279229  71.1356126  78.3095539  45.0866682
  71.7863879  80.1908854  52.1068893  72.4586933  79.9826216  51.4581542
  70.9593666  79.9930940  51.6674126  86.0353141  86.9312904  51.6244227
  86.2289031  87.8358715  51.8703502  85.9353759  86.4720323  52.4582812
  81.0968249  87.0819647  57.1985108  80.9453756  86.8530199  56.2815191
  81.0872929  88.0390248  57.2116453  77.8653586  84.6551560  52.1831374
  78.7945646  84.8062719  52.0100341  77.4444616  84.7435580  51.3280021
  76.6641918  88.6802224  49.9529912  76.5253003  88.3121008  50.8255850
  75.8756514  89.1949863  49.7813869  77.2590070  93.7811320  41.2955448
  77.4341825  93.3099364  42.1101071  76.5722858  94.4077087  41.5236709
  78.2147133  88.0583827  47.3418749  77.8796965  88.0184597  48.2376399
  77.7151078  87.3928543  46.8689160  72.1891377  83.4651457  52.8671331
  72.0511175  82.7331696  53.4682870  73.0996300  83.3760357  52.5855518
  81.1506324  85.4039861  37.6155809  80.5335495  84.6786689  37.5188862
  80.6822813  86.1649221  37.2722883  82.8060456  90.1138769  55.2761589
  82.7473002  89.4297989  54.6092173  83.2079974  90.8557759  54.8242215
  71.8251155  96.9300683  48.0695308  72.0647753  97.5619207  48.7474327
  70.9820351  96.5788723  48.3560668  72.9404870  79.6225285  36.7377113
  72.0634337  79.5014086  36.3739360  73.4162623  78.8311364  36.4856002
  82.8077863  88.0778353  53.5075569  81.9204642  87.7404275  53.6301968
  83.3776414  87.3461385  53.7444335  64.4607010  84.4102445  46.8318621
  65.1478050  84.0964175  46.2439636  64.3055139  85.3143810  46.5585872
  69.2641733  79.2992642  51.2603644  69.1799921  78.6918311  50.5254054
  68.4424439  79.7901660  51.2613141  76.3379017  92.7379806  50.4736812
  76.2649188  93.5434777  50.9856117  75.8956410  92.9371771  49.6484834
  76.1268796  91.9751576  43.9839634  75.3436318  92.5173256  44.0777858
  76.8261542  92.4925555  44.3833875  79.4365446  77.7846205  46.6273839
  79.9334146  77.0316167  46.3074910  78.6652428  77.8210522  46.0617049
  87.2895204  83.4886571  48.2692131  87.2785080  84.3711286  47.8986064
  86.4212583  83.1358121  48.0746668  78.7977700  92.6366640  52.6294971
  79.5105672  93.2714104  52.5570872  78.3067729  92.7330506  51.8134973
  80.5195227  86.5417892  44.2012263  79.5851506  86.6619355  44.0316967
  80.6971896  85.6390359  43.9372273  76.0200415  79.9263588  46.3545524
  75.6498203  79.3734629  47.0426429  76.5159508  79.3221722  45.8020524
  83.9067779  82.3835212  44.7362297  84.3728231  83.2163203  44.6622599
  84.3575279  81.9180193  45.4407555  73.8489614  90.3861083  53.4500542
  74.5499073  91.0197566  53.6029936  73.3784729  90.7275815  52.6896181
  81.9744010  88.7279033  41.7348449  82.2503854  88.6135628  42.6442323
  81.1048508  88.3296518  41.6960622  81.8784441  74.7515799  48.7753198
  80.9647521  74.9820025  48.9435405  82.3077543  74.8354243  49.6267231
  81.6490900  82.9405691  51.2753092  80.9962350  83.1881598  50.6205545
  82.0271280  82.1269829  50.9415569  78.6098074  92.9765384  45.3781262
  78.7920468  92.1587040  45.8409015  79.4331060  93.1933076  44.9406152
  78.9440239  91.9033569  42.6396311  79.4728006  91.3926023  42.0266473
  79.2068459  91.5876099  43.5041844  69.4457332  89.9197438  50.3831645
  70.0310769  89.1741126  50.5159549  69.2482170  90.2301395  51.2668308
  72.2995987  92.9548686  45.3994087  71.6306362  93.4394813  44.9158127
  72.1608857  93.2017906  46.3137465  64.0374987  82.4903038  49.1036088
  64.0759086  81.9566629  49.8973206  63.5315279  81.9638244  48.4847065
  76.4401256  94.9892429  51.9976745  76.9919564  95.1524051  52.7625830
  76.7807449  95.5796867  51.3256770  81.2912130  89.8153687  57.8525400
  81.8352034  90.4283645  57.3580354  80.7098975  90.3733265  58.3692413
  67.6683564  81.2167141  42.1790019  67.9637005  80.3077819  42.1257073
  66.7671600  81.1954880  41.8571021  79.5769643  92.9374405  48.9840427
  79.4520782  92.1364144  48.4751373  80.2348734  93.4320598  48.4954397
  71.1977811  79.2923137  48.1617568  70.4764397  79.9059105  48.0225041
  71.9871067  79.8280902  48.0834214  81.6404551  90.7383425  50.6119978
  80.6934887  90.6188776  50.5398304  81.9887324  89.8505923  50.6946239
  69.3971406  78.8981238  42.3029344  69.0684112  78.0178617  42.1204450
  69.7510776  78.8428907  43.1905733  78.6450985  90.5336141  46.8124330
  78.4975947  89.6052848  46.9931900  79.4704478  90.5556232  46.3281405
  72.5113229  79.1854208  42.6704822  72.8509301  79.7140129  41.9483430
  72.9585349  79.5234614  43.4463388  82.2485106  91.3564700  47.8989203
  83.1731654  91.1507561  47.7613654  82.0800410  91.1081101  48.8078544
  74.4981376  77.6828830  40.8698115  75.2189739  78.0610082  40.3661832
  73.8746680  78.4017706  40.9733093  78.6412499  78.3873979  41.8056447
  78.8576113  79.2698616  41.5045275  78.1606566  77.9960192  41.0762089
  73.3811720  81.3459692  48.3827192  73.2356301  81.6599995  49.2751473
  72.9036924  81.9644592  47.8298090  75.2408103  78.3362240  48.4308081
  75.2269672  77.4403333  48.0940379  75.9580531  78.3432904  49.0646367
  77.0934234  78.7699580  50.4761209  76.8352012  79.6916651  50.4745539
  76.5619274  78.3730015  51.1661673  82.0380423  91.8750367  43.2551294
  82.2117300  91.3096790  42.5025146  82.5309314  92.6751262  43.0730784
  67.8557382  83.8865036  51.3214853  67.3110851  84.6624844  51.4535127
  68.7336732  84.2335841  51.1633974  74.6444999  77.2176620  43.6995651
  74.7660910  76.2893266  43.8986539  74.3547042  77.2315306  42.7873967
  77.5136190  74.9031531  46.8362371  77.5357886  74.9670864  45.8814351
  77.9304249  74.0636039  47.0302877  87.8919814  84.6386790  44.8741594
  88.3350960  83.8894115  44.4760717  87.0146324  84.6296926  44.4915326
  83.0255595  91.1917132  40.3548192  83.7206500  91.8123824  40.5735507
  83.3678745  90.3412483  40.6300570  68.6423404  83.0134932  54.2145010
  67.9005140  83.1617568  54.8009640  68.3216149  83.2743198  53.3511759
  84.9247018  88.6416837  41.8835523  85.4498342  88.9804110  41.1584843
  84.8369371  87.7063852  41.6998658  76.5867067  92.5550911  54.0125400
  76.8954193  92.3100057  54.8848099  77.3842549  92.7597549  53.5244270
  76.6087679  94.7088820  46.2430776  76.1692669  94.2165199  46.9363633
  77.3595796  94.1661788  46.0022851  69.0880018  90.9000361  46.2455404
  69.9138038  90.6004133  45.8654048  68.7374070  90.1307984  46.6945193
  74.0561551  90.2526829  48.3153078  73.4341560  89.5897534  48.0155306
  74.7266418  90.2787961  47.6326726  67.2888623  88.8186688  47.2044338
  66.4520531  88.3908862  47.0228339  67.2612268  89.0119131  48.1415129
  84.6140924  89.2749741  57.1886721  83.8236468  89.2573880  56.6491220
  84.3774279  89.8138034  57.9435758  84.7338799  86.1242207  54.5019450
  84.7836804  85.9592214  55.4434972  84.6252723  85.2569466  54.1117330
  73.6175058  88.8030753  41.7911538  73.7663178  89.4866217  41.1378211
  74.4241502  88.7835843  42.3060994  82.0242562  82.1073135  55.8178756
  82.9252425  81.9679600  55.5262754  82.0990536  82.2727590  56.7576934
  86.2356996  88.5439149  54.7461471  85.9441805  88.9069129  55.5824932
  85.6229128  87.8306157  54.5674803  87.4352679  86.1092028  47.2664041
  88.2699570  86.5481832  47.4301602  87.5711807  85.6330682  46.4472287
  84.4844184  83.6671763  53.2141529  84.9598306  83.8599410  52.4060380
  83.5609750  83.7230949  52.9684913  71.3727691  84.8295930  42.7972607
  71.1273733  83.9258260  42.9952817  71.5423606  84.8313081  41.8552085
  79.0624401  75.7019607  52.1797363  79.5806345  76.4380634  51.8543851
  78.7079534  76.0083600  53.0144122  70.6423339  80.5624288  40.2958769
  69.9492584  80.6368643  39.6398805  70.3975091  79.7984632  40.8180286
  79.3136995  72.1219889  47.6998260  79.5938749  71.4543078  48.3258686
  80.0987602  72.3148985  47.1872923  77.1170464  91.2978883  39.2623286
  76.5444431  91.9169070  38.8093758  77.6903257  91.8478245  39.7963208
  83.1845853  80.5437523  51.4469835  84.1363276  80.6435621  51.4682059
  83.0149304  79.7515792  51.9567919  81.2060233  77.6293107  51.6329236
  80.6110165  77.9098119  50.9375724  80.9209930  78.1187007  52.4045977
  80.3367723  91.5816033  40.3931868  81.2698397  91.5161595  40.5964744
  80.2490936  92.4172300  39.9346401  82.9655740  90.8981904  37.3535816
  82.8869372  90.5641767  38.2471574  83.7865407  91.3903672  37.3527288
  85.6633931  83.7643643  50.5612134  85.6310251  82.8259644  50.7471818
  86.2734555  83.8427680  49.8277959  77.5017262  82.6339696  36.6039338
  78.4476367  82.5045904  36.6727756  77.1231507  81.8954358  37.0808766
  85.8128420  80.5554686  50.6070417  85.2967468  79.7713143  50.4200346
  86.6968368  80.2273403  50.7716937  83.4739147  74.2995702  46.5666230
  83.2763968  73.9910790  47.4509562  84.0838852  75.0257341  46.6964160
  91.4810481  84.8259650  49.7018171  92.2113870  84.5644938  50.2625874
  90.8717427  84.0888372  49.7420239  89.5625778  82.9667512  50.2992622
  88.8358942  82.8323477  49.6909114  89.1473065  83.2744341  51.1049340
  75.6860179  80.5589672  36.5394224  74.7791635  80.2622785  36.6156937
  75.9636160  80.2619490  35.6728510  66.6038120  81.8796036  46.9893270
  66.2840904  81.0261344  46.6967644  66.0571548  82.0944614  47.7451237
  70.3818027  84.5958477  50.7062776  70.6004037  85.5275585  50.7250810
  70.7943801  84.2366451  51.4917580  77.3022245  75.1026562  42.6938465
  76.4922973  74.7573647  43.0693711  77.9906662  74.7934106  43.2826076
  79.2312793  74.1804609  44.3162761  79.7843832  74.6000062  44.9752785
  79.4682880  73.2540357  44.3585717  66.4726380  85.4998947  48.9586392
  65.7789851  85.0852900  48.4456346  67.2199371  85.5419484  48.3619810
  82.6091600  76.2905134  43.8241426  82.0290269  76.9489938  43.4419478
  82.3427533  75.4682479  43.4128843  81.0595167  75.6910192  46.0262746
  81.5594945  75.8026726  45.2177065  81.7030775  75.3871245  46.6663555
  68.3863122  85.4317201  46.8352406  68.3633810  85.5304888  45.8834290
  68.6963759  86.2782352  47.1569573  71.0450500  87.4893356  50.9499021
  71.9993754  87.4577298  50.8828952  70.8463024  87.0283980  51.7649247
  71.6349882  86.0594472  53.5169818  72.4542771  86.5538551  53.5404656
  71.9086690  85.1426440  53.4887386  81.3916478  78.4505224  42.8797774
  80.5042333  78.7354875  42.6617969  81.8070467  78.2898988  42.0325051
  84.7431015  78.4751745  46.5952113  85.5191405  78.9648198  46.8676730
  84.0179149  78.9009800  47.0523983  87.1803573  79.1879365  47.6526054
  87.7748064  78.9475101  46.9419362  87.2530157  78.4686495  48.2799590
  69.4000729  93.0312976  47.9669219  69.2655197  92.2713376  47.4007217
  68.9832791  93.7553875  47.4998008  80.5359692  88.2149899  36.9745794
  81.2395542  88.4199902  37.5903450  79.8122341  88.7826661  37.2394878
  81.3657502  83.9659760  43.0948064  81.3092704  84.4228312  42.2555697
  81.9185845  83.2050445  42.9170907  85.1762308  79.7549492  43.9198184
  84.9199242  79.3546128  44.7506391  84.5515176  80.4693286  43.7948323
  89.4874646  82.4945565  46.4269475  88.9274204  82.5638755  47.2001037
  88.8818149  82.3186550  45.7068971  72.5569855  93.9282293  48.1787661
  72.4402239  94.8727725  48.0766352  71.7362301  93.6255854  48.5673461
  82.4446389  88.6532428  39.0244254  83.2791993  88.2213627  38.8421729
  82.2830732  88.4814442  39.9521149  82.0992281  85.1564542  40.3900593
  82.0441085  84.9908813  39.4489037  81.4738337  85.8640574  40.5462783
  66.8884796  80.3932606  54.2162016  67.5343660  79.8831560  54.7049241
  66.6801948  81.1301288  54.7905441  79.4138189  87.4613453  59.7154156
  80.2829348  87.6354106  59.3540791  78.9344940  88.2807870  59.5929885
  75.4088407  74.6572651  39.9685912  75.3967077  75.6014491  40.1254183
  76.3011829  74.4742796  39.6745373  73.5824369  94.5810554  51.3943590
  74.4851616  94.6134165  51.7110085  73.3561739  93.6511005  51.4089926
  75.3377971  93.3341541  48.0553668  74.3873602  93.3343403  47.9418041
  75.6410457  92.5874276  47.5389703  91.0730664  99.1702079  49.1199431
  91.7109074  99.0508827  48.4162771  90.9551507 100.1182923  49.1787383
  87.8820371  99.1229507  49.0560955  87.5438882  99.0070572  48.1681490
  88.7510139  98.7220673  49.0361962  83.7407186 100.9764984  45.0457846
  83.1772051 100.8854921  44.2774134  83.6259581 100.1564888  45.5260339
  88.3640154 100.2764359  55.0147161  88.3528794  99.8817157  54.1427665
  88.5260793  99.5430432  55.6080932  81.2871618 102.4716176  47.8842067
  82.0792910 102.1307000  47.4688366  81.5268268 102.5811151  48.8044220
  89.3206745 104.6435952  40.3572311  88.6694725 105.2290032  39.9706325
  90.1151108 105.1742147  40.4167349  83.2462372 101.7325089  40.7559446
  84.0193248 101.1854076  40.6172321  83.5987771 102.5969338  40.9673907
  85.0847415 103.0601471  53.9626345  84.7937281 103.9647102  53.8473011
  85.7204399 103.1017999  54.6770415  86.0103622 100.4378320  50.5527705
  86.6067194 100.2134342  49.8384668  86.0678593  99.6963065  51.1553152
  85.5828650  97.8917755  38.3877896  85.8354171  97.3699276  37.6261359
  84.6453209  97.7283900  38.4904579  90.6271933  96.8953533  46.1952639
  91.4135022  96.4772956  45.8443056  90.8910637  97.7999625  46.3634287
  90.7982010 102.3326384  40.8941296  90.1627843 102.4061010  41.6062200
  90.4679417 102.9219982  40.2160375  96.0280360  96.8328766  47.0985617
  96.7605532  96.2627983  47.3323447  95.2719716  96.4450367  47.5392123
  85.3024939  99.7945861  40.5902271  85.1861197  99.1190764  41.2583355
  85.4127199  99.3078235  39.7734424  87.6456480  99.2556008  44.2948960
  87.2814687  98.7286629  45.0061881  88.5023596  98.8654477  44.1215445
  93.5505780  90.5450341  51.5580226  93.2189105  91.4145752  51.3341441
  92.9551394  90.2286625  52.2374256  87.2861967  94.2845908  39.2910308
  87.4536369  95.1526144  39.6580779  87.0959136  94.4473189  38.3671598
  90.0437300 102.7462887  50.9576139  89.7438023 103.6487925  50.8491946
  89.6988359 102.4795070  51.8097292  83.4949781  99.1976683  46.9912843
  82.5700278  99.0652897  47.1990535  83.7434195  99.9770903  47.4882786
  93.4434444  95.2645427  48.6373576  92.5351321  95.1960835  48.3432337
  93.3922039  95.7417372  49.4655401  87.2651188  96.7403565  40.2756975
  87.1450813  97.1860616  41.1142455  86.5703776  97.0888883  39.7170513
  80.8558592  98.8409957  47.8256632  80.9850974  99.0944436  48.7396044
  80.1756044  99.4337665  47.5061287  85.0258080 109.5107207  43.9247106
  84.9482109 110.4615032  44.0035587  84.4219723 109.1653079  44.5822033
  87.5175309  96.6835072  56.5808473  86.7408643  97.2428992  56.5711338
  88.1565872  97.1691855  57.1023343  95.3096090  93.4661865  50.4151450
  94.6670470  93.7594398  49.7691245  94.8051019  93.3514785  51.2204647
  92.9636254  97.2125038  41.1037309  93.8754110  97.4452425  40.9285007
  92.4545901  97.7962083  40.5412388  85.7721682  99.4920526  56.1426440
  86.5136366 100.0305570  55.8661264  85.0658667 100.1186814  56.2997992
  91.2477021 101.6349666  54.7398602  91.6560377 101.1932077  53.9953234
  90.5254283 101.0602294  54.9932795  87.6008091  96.5722273  52.1132159
  88.4469287  96.9961686  52.2566808  87.5406729  95.9155897  52.8070722
  91.5705836 102.1950857  48.4950891  90.9414698 102.3596571  47.7926958
  91.1831498 102.6092466  49.2661855  95.4495068 103.1305295  45.8495254
  94.7646106 103.5104196  45.2992288  95.5338917 103.7400621  46.5827202
  90.7507537  94.2326641  53.7713332  90.5068469  94.9868702  53.2347608
  91.0267467  94.6111989  54.6060579  92.7046000 100.7765254  52.4490598
  92.9162895 101.4197014  51.7724979  92.6575748  99.9427570  51.9812528
  90.3072228  93.3883074  49.3527170  89.4456708  93.6864328  49.6443908
  90.3334663  93.6053473  48.4208203  87.1233798 101.9325265  45.7600976
  87.5872143 102.2112968  44.9705598  86.8590596 101.0308709  45.5774066
  84.0157879 101.4796746  48.6980739  84.5859236 101.9084015  48.0598223
  84.6065991 101.1979331  49.3964925  86.0602684  98.0548417  42.5690541
  86.7626727  98.5069461  43.0364467  85.7283312  97.4132236  43.1970434
  84.5083045  96.6460174  56.9441750  83.8781706  97.3276455  57.1777147
  84.4019133  96.5343255  55.9994889  79.8028018  96.3131970  47.8707674
  79.0127072  96.5689498  47.3947785  80.2939265  97.1280308  47.9759715
  93.8191827 103.6537209  50.6212955  94.6409271 103.2517396  50.3395637
  93.8154230 103.5505443  51.5729071  81.7542763  96.6776549  44.8291151
  80.9573927  96.7895243  45.3474647  81.5268355  97.0163201  43.9632042
  87.5848431 103.2021252  52.7773666  87.6492863 103.6641660  53.6131838
  86.8759355 102.5718617  52.9055976  78.0865721  96.5662460  50.3022665
  78.3373759  97.4509470  50.5680241  78.6225269  96.3867062  49.5297757
 101.9097821  99.9975958  46.9697927 101.1561529  99.4283356  46.8141931
 102.0445362  99.9638622  47.9168561  87.2996449 104.8689360  42.6452646
  87.1642123 105.7140896  43.0737494  87.8406261 105.0708637  41.8818580
  83.7863788  90.9480940  59.3067001  83.3930734  90.3947138  59.9814646
  84.6029929  91.2591518  59.6973519  80.7525846 102.3864798  43.2180571
  81.2650367 103.1808048  43.3686136  81.4048559 101.6891088  43.1514173
  82.5620731 105.5030554  45.3003324  82.7387359 106.4248519  45.1124308
  83.3577564 105.1888973  45.7297704  86.7031749  92.3638819  56.8987258
  87.4441463  92.9645972  56.8191720  86.9349672  91.6216457  56.3405300
  81.8473087  97.5495186  55.1765488  81.7326602  96.6480443  55.4772586
  80.9917605  97.7958883  54.8250304  88.9264925 105.4912926  56.7752988
  88.4828779 104.7049305  56.4573893  89.5882139 105.6792077  56.1096879
  83.6852046 107.0208728  51.3013667  84.2359471 106.8925791  50.5290661
  82.8463522 107.3203617  50.9508559  91.0246163 105.7715726  54.8034389
  91.0064638 106.5924607  54.3114659  91.9466083 105.6469801  55.0284531
  87.4819217 103.2859856  55.6457898  88.0147554 102.5248144  55.4157206
  86.9533298 102.9933508  56.3882052  90.6488912  88.3919922  51.1751540
  90.3053182  89.2821563  51.0990650  91.0167875  88.2021579  50.3121125
  78.7174763 100.7153452  43.9940142  79.5549985 101.1250461  43.7773849
  78.8953030  99.7752894  43.9640336  90.6139195  98.3828533  39.6823975
  90.0985818  99.1533137  39.9212362  90.3416503  97.7093669  40.3057036
  88.1986306  93.2278234  44.7409213  87.3427902  92.8385084  44.5614852
  88.6113258  93.3070194  43.8808999  89.7285453  90.7624577  49.1400773
  89.2250248  90.7254712  48.3268578  90.0216059  91.6717320  49.1997429
  85.9728338  90.8463307  48.1466955  86.8381335  90.6506115  47.7872844
  86.0405847  90.6173658  49.0736311  95.5873469 101.1360887  41.6177148
  94.8102912 100.7972047  41.1732310  96.2664950 101.1413511  40.9432113
  90.4025498  96.2555625  41.5083756  90.0975634  96.5701774  42.3593899
  91.3555940  96.3337045  41.5511089  88.8471930 102.4145848  43.1576710
  88.3193291 101.6798608  42.8449947  88.3459433 103.1920525  42.9116678
  93.8264776 100.6094869  48.2743756  93.1688450 101.2994130  48.3623885
  94.6305175 100.9991301  48.6177742  83.5790657  93.0765515  45.5183321
  84.1534409  92.8540696  44.7856514  84.1661640  93.1454209  46.2711923
  92.6370235  98.9639241  46.3247698  93.1502116  99.5969233  46.8269408
  93.2871459  98.3640437  45.9591058  83.9060245  95.1069976  39.5379207
  83.0697557  95.4444662  39.8588481  83.7665014  94.9718955  38.6006344
  85.8813325  89.9506763  44.2458391  85.2277738  89.6355781  43.6215006
  85.8393799  89.3282504  44.9718214  86.9924530 100.2326059  36.1611683
  86.0851592 100.0015312  36.3602832  87.4895562  99.4363678  36.3485664
  89.8992609 108.9423566  39.0808369  89.2254308 109.2455262  39.6893327
  90.2858431 109.7452646  38.7313826  89.1151066  96.4388697  48.5706038
  88.1973627  96.6603644  48.4127726  89.5311209  96.5135007  47.7117746
  89.8986113  97.8380113  43.7008719  90.6457932  98.3501510  43.3915841
  90.1677703  97.5164165  44.5613112  88.1712763 100.3338653  40.6835673
  87.2623983 100.0497686  40.7808143  88.2007847 100.7537732  39.8238980
  93.4032031 103.9445243  44.4526841  92.9494358 103.1036153  44.5092031
  92.7725998 104.5806641  44.7901621  92.3464950  94.8737229  45.6827508
  91.6087707  94.3614615  46.0137751  92.5991724  94.4337611  44.8710785
  91.8464970 105.7821740  45.3876659  92.1387945 106.3426797  44.6689024
  92.3563591 106.0750301  46.1429818  92.4476578  87.6513481  46.2769277
  92.7535455  86.7910844  45.9895192  93.1729183  88.2431101  46.0768271
  78.7400934  98.0544167  44.6650875  78.5425334  97.4613528  43.9401942
  78.1847598  97.7496378  45.3826814  86.7197658  97.9467274  46.7845468
  86.7746267  96.9941110  46.7087945  85.9088860  98.1026713  47.2686767
  87.8688851 101.8747397  38.0223752  87.4308281 101.1583256  37.5629389
  88.6099292 102.1023512  37.4608843  84.6590017  96.5644334  44.5435847
  83.8457883  96.8638504  44.9501039  85.1549012  96.1700022  45.2610329
  86.8098595 106.5602091  46.4770112  86.7674774 106.7862937  45.5478644
  87.7261294 106.3265465  46.6255913  90.2564229  97.0286158  53.3750741
  90.6113617  97.2557631  54.2345207  90.9036360  97.3604535  52.7527996
  95.9861966 100.1504594  44.0800070  95.8479865 100.3406190  43.1521259
  95.6298185 100.9123977  44.5368121  84.1504092  94.1362689  50.1597082
  84.7903472  93.9951448  49.4620045  83.3181623  93.8497203  49.7835684
  96.0131346 102.2181121  49.0911342  96.4467852 102.1256410  49.9394396
  96.7262926 102.1938622  48.4531358  84.9264396 103.4365120  46.2732075
  85.7204995 102.9415440  46.0714650  84.2156089 102.9082983  45.9099780
  89.7459241 105.8183215  50.6244442  89.7996263 106.3874152  51.3922158
  88.8774022 105.9885100  50.2598479  81.2347160  97.5808201  42.3491827
  80.3044748  97.5192657  42.5661789  81.3304632  97.0584154  41.5528469
  81.1532709  94.1063014  44.9370069  81.4139526  95.0208347  44.8279229
  81.9749881  93.6387457  45.0866682  82.6257634  95.5200771  52.1068893
  83.2980687  95.3118134  51.4581542  81.7987420  95.3222857  51.6674126
  96.8746895 102.2604822  51.6244227  97.0682785 103.1650632  51.8703502
  96.7747513 101.8012241  52.4582812  88.5283206  92.1462712  54.1234554
  87.8811121  92.8452662  54.0299031  89.2984221  92.5798856  54.4910803
  91.9362004 102.4111564  57.1985108  91.7847510 102.1822116  56.2815191
  91.9266683 103.3682166  57.2116453  88.7047340  99.9843477  52.1831374
  89.6339400 100.1354637  52.0100341  88.2838370 100.0727498  51.3280021
  87.5035672 104.0094142  49.9529912  87.3646758 103.6412926  50.8255850
  86.7150268 104.5241781  49.7813869  88.0983824 109.1103238  41.2955448
  88.2735580 108.6391281  42.1101071  87.4116612 109.7369004  41.5236709
  89.0540887 103.3875744  47.3418749  88.7190720 103.3476514  48.2376399
  88.5544833 102.7220460  46.8689160  83.0285131  98.7943374  52.8671331
  82.8904929  98.0623613  53.4682870  83.9390055  98.7052274  52.5855518
  91.9900079 100.7331779  37.6155809  91.3729250 100.0078607  37.5188862
  91.5216567 101.4941139  37.2722883  85.6567432  98.5063334  52.3555010
  86.3667050  97.8656526  52.3141629  85.6136740  98.7576229  53.2781191
  93.6454211 105.4430687  55.2761589  93.5866757 104.7589907  54.6092173
  94.0473729 106.1849677  54.8242215  84.3696366  95.4928552  54.1750650
  83.8333723  95.0419290  54.8272246  83.7813074  95.6274460  53.4321114
  82.6644909 112.2592601  48.0695308  82.9041508 112.8911125  48.7474327
  81.8214106 111.9080641  48.3560668  83.7798625  94.9517203  36.7377113
  82.9028091  94.8306004  36.3739360  84.2556378  94.1603281  36.4856002
  93.6471618 103.4070271  53.5075569  92.7598397 103.0696193  53.6301968
  94.2170169 102.6753302  53.7444335  75.3000765  99.7394363  46.8318621
  75.9871805  99.4256093  46.2439636  75.1448894 100.6435727  46.5585872
  80.1035487  94.6284559  51.2603644  80.0193676  94.0210229  50.5254054
  79.2818194  95.1193578  51.2613141  87.1772771 108.0671723  50.4736812
  87.1042943 108.8726695  50.9856117  86.7350164 108.2663689  49.6484834
  86.9662551 107.3043493  43.9839634  86.1830073 107.8465174  44.0777858
  87.6655296 107.8217473  44.3833875  90.2759201  93.1138123  46.6273839
  90.7727901  92.3608085  46.3074910  89.5046182  93.1502439  46.0617049
  98.1288958  98.8178488  48.2692131  98.1178835  99.7003204  47.8986064
  97.2606338  98.4650039  48.0746668  89.6371455 107.9658557  52.6294971
  90.3499427 108.6006022  52.5570872  89.1461483 108.0622423  51.8134973
  91.3588982 101.8709810  44.2012263  90.4245260 101.9911272  44.0316967
  91.5365650 100.9682277  43.9372273  86.8594170  95.2555506  46.3545524
  86.4891957  94.7026546  47.0426429  87.3553262  94.6513639  45.8020524
  94.7461533  97.7127129  44.7362297  95.2121985  98.5455121  44.6622599
  95.1969034  97.2472111  45.4407555  84.6883368 105.7153001  53.4500542
  85.3892828 106.3489484  53.6029936  84.2178483 106.0567732  52.6896181
  92.8137764 104.0570951  41.7348449  93.0897608 103.9427545  42.6442323
  91.9442263 103.6588435  41.6960622  92.7178196  90.0807716  48.7753198
  91.8041276  90.3111943  48.9435405  93.1471297  90.1646160  49.6267231
  92.4884654  98.2697608  51.2753092  91.8356104  98.5173516  50.6205545
  92.8665034  97.4561746  50.9415569  89.4491828 108.3057301  45.3781262
  89.6314223 107.4878957  45.8409015  90.2724814 108.5224994  44.9406152
  89.7833994 107.2325487  42.6396311  90.3121760 106.7217941  42.0266473
  90.0462213 106.9168017  43.5041844  88.5372227  99.0117419  57.7619129
  87.8612864  98.9111549  58.4321504  89.3599861  98.8556633  58.2255126
  80.2851086 105.2489356  50.3831645  80.8704523 104.5033044  50.5159549
  80.0875925 105.5593313  51.2668308  83.1389742 108.2840603  45.3994087
  82.4700117 108.7686731  44.9158127  83.0002611 108.5309824  46.3137465
  74.8768741  97.8194956  49.1036088  74.9152841  97.2858547  49.8973206
  74.3709034  97.2930162  48.4847065  87.2795010 110.3184347  51.9976745
  87.8313318 110.4815968  52.7625830  87.6201204 110.9088785  51.3256770
  82.2559503  92.6659497  52.5998630  82.3200830  93.5274327  52.1876028
  82.1926624  92.0533498  51.8670988  81.7311776  94.7382629  56.2471664
  82.3583815  94.3559706  56.8609189  80.8739695  94.5196831  56.6127357
  92.1305884 105.1445604  57.8525400  92.6745788 105.7575563  57.3580354
  91.5492729 105.7025183  58.3692413  78.5077319  96.5459058  42.1790019
  78.8030760  95.6369737  42.1257073  77.6065354  96.5246798  41.8571021
  90.4163397 108.2666322  48.9840427  90.2914537 107.4656062  48.4751373
  91.0742489 108.7612516  48.4954397  82.0371566  94.6215055  48.1617568
  81.3158151  95.2351023  48.0225041  82.8264821  95.1572820  48.0834214
  92.4798306 106.0675342  50.6119978  91.5328641 105.9480694  50.5398304
  92.8281079 105.1797840  50.6946239  84.8397879  91.9569481  54.4358219
  85.3632281  92.2031778  55.1984529  84.6210212  92.7889516  54.0161357
  80.2365160  94.2273156  42.3029344  79.9077866  93.3470535  42.1204450
  80.5904531  94.1720825  43.1905733  89.4844739 105.8628059  46.8124330
  89.3369702 104.9344766  46.9931900  90.3098233 105.8848149  46.3281405
  83.3506983  94.5146126  42.6704822  83.6903056  95.0432047  41.9483430
  83.7979104  94.8526532  43.4463388  93.0878861 106.6856617  47.8989203
  94.0125408 106.4799479  47.7613654  92.9194164 106.4373018  48.8078544
  86.0450424  92.8983176  52.1207890  85.7047245  92.0990989  52.5228570
  85.3389430  93.1984887  51.5484723  86.6966896  89.9832489  50.5735213
  87.5192965  89.5092967  50.4514103  86.9404960  90.7622973  51.0733899
  85.3375131  93.0120747  40.8698115  86.0583493  93.3902000  40.3661832
  84.7140435  93.7309624  40.9733093  89.4806253  93.7165896  41.8056447
  89.6969868  94.5990534  41.5045275  89.0000321  93.3252110  41.0762089
  84.2205475  96.6751609  48.3827192  84.0750056  96.9891913  49.2751473
  83.7430678  97.2936510  47.8298090  86.0801858  93.6654157  48.4308081
  86.0663426  92.7695251  48.0940379  86.7974286  93.6724821  49.0646367
  87.9327988  94.0991498  50.4761209  87.6745766  95.0208568  50.4745539
  87.4013029  93.7021932  51.1661673  92.8774177 107.2042285  43.2551294
  93.0511055 106.6388707  42.5025146  93.3703068 108.0043180  43.0730784
  78.6951137  99.2156954  51.3214853  78.1504605  99.9916762  51.4535127
  79.5730487  99.5627758  51.1633974  85.4838754  92.5468538  43.6995651
  85.6054665  91.6185184  43.8986539  85.1940796  92.5607224  42.7873967
  88.3529944  90.2323448  46.8362371  88.3751641  90.2962781  45.8814351
  88.7698003  89.3927957  47.0302877  98.7313568  99.9678708  44.8741594
  99.1744714  99.2186033  44.4760717  97.8540079  99.9588844  44.4915326
  93.8649350 106.5209049  40.3548192  94.5600254 107.1415742  40.5735507
  94.2072500 105.6704400  40.6300570  79.4817159  98.3426850  54.2145010
  78.7398895  98.4909485  54.8009640  79.1609903  98.6035116  53.3511759
  95.7640773 103.9708755  41.8835523  96.2892097 104.3096027  41.1584843
  95.6763125 103.0355770  41.6998658  87.4260821 107.8842828  54.0125400
  87.7347948 107.6391975  54.8848099  88.2236303 108.0889467  53.5244270
  87.4481434 110.0380738  46.2430776  87.0086424 109.5457117  46.9363633
  88.1989550 109.4953706  46.0022851  79.9273773 106.2292279  46.2455404
  80.7531792 105.9296051  45.8654048  79.5767824 105.4599901  46.6945193
  84.8955306 105.5818747  48.3153078  84.2735315 104.9189452  48.0155306
  85.5660173 105.6079879  47.6326726  78.1282378 104.1478605  47.2044338
  77.2914286 103.7200780  47.0228339  78.1006023 104.3411049  48.1415129
  84.9679833  94.0600535  57.9085584  85.0167989  94.9362658  57.5263353
  85.5102347  93.5177928  57.3357227  95.4534679 104.6041658  57.1886721
  94.6630223 104.5865797  56.6491220  95.2168033 105.1429952  57.9435758
  95.5732554 101.4534125  54.5019450  95.6230559 101.2884132  55.4434972
  95.4646477 100.5861384  54.1117330  84.4568813 104.1322670  41.7911538
  84.6056933 104.8158135  41.1378211  85.2635256 104.1127760  42.3060994
  92.8636316  97.4365053  55.8178756  93.7646179  97.2971518  55.5262754
  92.9384291  97.6019508  56.7576934  87.1979122  94.8131908  54.6631943
  86.3282431  95.1065474  54.3914531  87.4338602  95.3972353  55.3839206
  97.0750751 103.8731066  54.7461471  96.7835559 104.2361047  55.5824932
  96.4622882 103.1598075  54.5674803  98.2746433 101.4383946  47.2664041
  99.1093324 101.8773750  47.4301602  98.4105562 100.9622599  46.4472287
  95.3237939  98.9963681  53.2141529  95.7992061  99.1891327  52.4060380
  94.4003504  99.0522867  52.9684913  82.2121446 100.1587848  42.7972607
  81.9667488  99.2550178  42.9952817  82.3817360 100.1604999  41.8552085
  89.9018155  91.0311524  52.1797363  90.4200099  91.7672551  51.8543851
  89.5473288  91.3375518  53.0144122  81.4817093  95.8916206  40.2958769
  80.7886338  95.9660561  39.6398805  81.2368845  95.1276549  40.8180286
  90.1530750  87.4511807  47.6998260  90.4332503  86.7834996  48.3258686
  90.9381357  87.6440903  47.1872923  87.9564218 106.6270801  39.2623286
  87.3838185 107.2460988  38.8093758  88.5297012 107.1770163  39.7963208
  94.0239608  95.8729441  51.4469835  94.9757031  95.9727539  51.4682059
  93.8543058  95.0807710  51.9567919  92.0453987  92.9585024  51.6329236
  91.4503920  93.2390037  50.9375724  91.7603684  93.4478925  52.4045977
  91.1761478 106.9107951  40.3931868  92.1092151 106.8453513  40.5964744
  91.0884691 107.7464218  39.9346401  93.8049495 106.2273821  37.3535816
  93.7263126 105.8933685  38.2471574  94.6259161 106.7195589  37.3527288
  96.5027686  99.0935561  50.5612134  96.4704006  98.1551561  50.7471818
  97.1128309  99.1719597  49.8277959  88.3411017  97.9631614  36.6039338
  89.2870121  97.8337822  36.6727756  87.9625262  97.2246276  37.0808766
  96.6522174  95.8846604  50.6070417  96.1361223  95.1005061  50.4200346
  97.5362123  95.5565321  50.7716937  94.3132901  89.6287620  46.5666230
  94.1157722  89.3202708  47.4509562  94.9232607  90.3549259  46.6964160
 102.3204236 100.1551567  49.7018171 103.0507624  99.8936856  50.2625874
 101.7111181  99.4180289  49.7420239 100.4019533  98.2959430  50.2992622
  99.6752696  98.1615395  49.6909114  99.9866820  98.6036259  51.1049340
  88.2249709 102.0149360  58.0639995  89.1452719 102.1927959  58.2580042
  88.1899292 101.0705405  57.9119695  86.5253934  95.8881590  36.5394224
  85.6185389  95.5914703  36.6156937  86.8029915  95.5911408  35.6728510
  77.4431874  97.2087953  46.9893270  77.1234658  96.3553262  46.6967644
  76.8965302  97.4236532  47.7451237  81.2211782  99.9250394  50.7062776
  81.4397791 100.8567502  50.7250810  81.6337556  99.5658369  51.4917580
  88.1415999  90.4318480  42.6938465  87.3316728  90.0865565  43.0693711
  88.8300416  90.1226023  43.2826076  90.0706548  89.5096527  44.3162761
  90.6237586  89.9291980  44.9752785  90.3076634  88.5832275  44.3585717
  86.0939647  95.4983600  60.0965525  85.9936374  96.4477957  60.0277616
  85.8761189  95.1701839  59.2241595  85.2952718  92.7468525  36.6806203
  86.1571882  93.0723424  36.9402020  85.4803063  91.9600021  36.1679269
  77.3120134 100.8290865  48.9586392  76.6183606 100.4144818  48.4456346
  78.0593125 100.8711401  48.3619810  93.4485355  91.6197052  43.8241426
  92.8684024  92.2781856  43.4419478  93.1821288  90.7974396  43.4128843
  91.8988921  91.0202109  46.0262746  92.3988700  91.1318644  45.2177065
  92.5424529  90.7163162  46.6663555  85.9570917  98.9280739  58.9130587
  85.4737999  99.7281099  59.1194476  86.0431856  98.9388684  57.9598031
  79.2256877 100.7609119  46.8352406  79.2027565 100.8596806  45.8834290
  79.5357513 101.6074269  47.1569573  81.8844255 102.8185274  50.9499021
  82.8387508 102.7869216  50.8828952  81.6856778 102.3575897  51.7649247
  82.4743637 101.3886390  53.5169818  83.2936526 101.8830468  53.5404656
  82.7480444 100.4718358  53.4887386  92.2310233  93.7797142  42.8797774
  91.3436088  94.0646793  42.6617969  92.6464222  93.6190905  42.0325051
  95.5824769  93.8043663  46.5952113  96.3585159  94.2940116  46.8676730
  94.8572903  94.2301717  47.0523983  98.0197328  94.5171282  47.6526054
  98.6141818  94.2767018  46.9419362  98.0923911  93.7978413  48.2799590
  80.2394483 108.3604893  47.9669219  80.1048951 107.6005294  47.4007217
  79.8226546 109.0845793  47.4998008  91.3753446 103.5441817  36.9745794
  92.0789296 103.7491819  37.5903450  90.6516095 104.1118579  37.2394878
  92.2051257  99.2951678  43.0948064  92.1486458  99.7520229  42.2555697
  92.7579599  98.5342363  42.9170907  96.0156063  95.0841410  43.9198184
  95.7592997  94.6838046  44.7506391  95.3908931  95.7985204  43.7948323
 100.3268400  97.8237483  46.4269475  99.7667958  97.8930672  47.2001037
  99.7211904  97.6478468  45.7068971  83.3963609 109.2574210  48.1787661
  83.2795993 110.2019643  48.0766352  82.5756055 108.9547772  48.5673461
  93.2840144 103.9824346  39.0244254  94.1185748 103.5505544  38.8421729
  93.1224487 103.8106360  39.9521149  92.9386036 100.4856459  40.3900593
  92.8834840 100.3200731  39.4489037  92.3132091 101.1932492  40.5462783
  77.7278551  95.7224524  54.2162016  78.3737415  95.2123478  54.7049241
  77.5195702  96.4593205  54.7905441  90.2531943 102.7905371  59.7154156
  91.1223103 102.9646023  59.3540791  89.7738695 103.6099788  59.5929885
  86.2482161  89.9864568  39.9685912  86.2360831  90.9306408  40.1254183
  87.1405583  89.8034714  39.6745373  84.4218123 109.9102472  51.3943590
  85.3245370 109.9426082  51.7110085  84.1955493 108.9802923  51.4089926
  86.1771725 108.6633459  48.0553668  85.2267356 108.6635320  47.9418041
  86.4804212 107.9166193  47.5389703  90.0634281  86.5807345  44.2231849
  89.2966677  86.0265832  44.3688531  90.4744986  86.6529214  45.0846000
  82.0676042  92.8692141  58.3137030  82.9307503  92.5128946  58.5240354
  81.4941453  92.5306036  59.0012434 101.9124419 114.4993997  49.1199431
 102.5502829 114.3800744  48.4162771 101.7945262 115.4474841  49.1787383
  98.7214125 114.4521425  49.0560955  98.3832637 114.3362490  48.1681490
  99.5903893 114.0512590  49.0361962  94.5800941 116.3056902  45.0457846
  94.0165806 116.2146839  44.2774134  94.4653336 115.4856806  45.5260339
  99.2033908 115.6056277  55.0147161  99.1922549 115.2109075  54.1427665
  99.3654548 114.8722350  55.6080932  92.1265373 117.8008093  47.8842067
  92.9186665 117.4598918  47.4688366  92.3662023 117.9103068  48.8044220
  94.0856127 117.0617006  40.7559446  94.8587003 116.5145994  40.6172321
  94.4381526 117.9261256  40.9673907  95.9241169 118.3893389  53.9626345
  95.6331035 119.2939020  53.8473011  96.5598154 118.4309916  54.6770415
  96.8497376 115.7670237  50.5527705  97.4460948 115.5426260  49.8384668
  96.9072348 115.0254983  51.1553152  96.4222405 113.2209673  38.3877896
  96.6747925 112.6991194  37.6261359  95.4846964 113.0575818  38.4904579
 101.4665687 112.2245451  46.1952639 102.2528777 111.8064874  45.8443056
 101.7304392 113.1291543  46.3634287 106.8674114 112.1620684  47.0985617
 107.5999286 111.5919901  47.3323447 106.1113470 111.7742285  47.5392123
  96.1418693 115.1237779  40.5902271  96.0254951 114.4482682  41.2583355
  96.2520953 114.6370152  39.7734424  98.4850234 114.5847926  44.2948960
  98.1208441 114.0578547  45.0061881  99.3417350 114.1946395  44.1215445
 104.3899535 105.8742258  51.5580226 104.0582860 106.7437669  51.3341441
 103.7945148 105.5578542  52.2374256  98.1255721 109.6137825  39.2910308
  98.2930124 110.4818062  39.6580779  97.9352890 109.7765107  38.3671598
  94.3343536 114.5268601  46.9912843  93.4094032 114.3944815  47.1990535
  94.5827949 115.3062820  47.4882786 104.2828198 110.5937344  48.6373576
 103.3745075 110.5252753  48.3432337 104.2315794 111.0709289  49.4655401
  98.1044942 112.0695483  40.2756975  97.9844567 112.5152534  41.1142455
  97.4097530 112.4180800  39.7170513  91.6952347 114.1701875  47.8256632
  91.8244728 114.4236354  48.7396044  91.0149798 114.7629583  47.5061287
  98.3569064 112.0126990  56.5808473  97.5802398 112.5720910  56.5711338
  98.9959627 112.4983773  57.1023343 106.1489845 108.7953783  50.4151450
 105.5064225 109.0886316  49.7691245 105.6444773 108.6806703  51.2204647
 103.8030008 112.5416956  41.1037309 104.7147864 112.7744343  40.9285007
 103.2939655 113.1254000  40.5412388  96.6115436 114.8212443  56.1426440
  97.3530121 115.3597487  55.8661264  95.9052422 115.4478732  56.2997992
 102.0870776 116.9641584  54.7398602 102.4954132 116.5223994  53.9953234
 101.3648037 116.3894211  54.9932795  98.4401846 111.9014191  52.1132159
  99.2863041 112.3253604  52.2566808  98.3800484 111.2447815  52.8070722
 101.5901291 109.5618559  53.7713332 101.3462223 110.3160619  53.2347608
 101.8661222 109.9403907  54.6060579 101.1465983 108.7174992  49.3527170
 100.2850462 109.0156246  49.6443908 101.1728418 108.9345391  48.4208203
  97.9627552 117.2617183  45.7600976  98.4265898 117.5404886  44.9705598
  97.6984350 116.3600627  45.5774066  94.8551633 116.8088664  48.6980739
  95.4252991 117.2375932  48.0598223  95.4459745 116.5271249  49.3964925
  96.8996438 113.3840335  42.5690541  97.6020482 113.8361379  43.0364467
  96.5677067 112.7424154  43.1970434  95.3476800 111.9752092  56.9441750
  94.7175461 112.6568372  57.1777147  95.2412888 111.8635173  55.9994889
  90.6421772 111.6423888  47.8707674  89.8520826 111.8981416  47.3947785
  91.1333020 112.4572225  47.9759715  92.5936518 112.0068467  44.8291151
  91.7967681 112.1187161  45.3474647  92.3662110 112.3455119  43.9632042
  98.4242185 118.5313170  52.7773666  98.4886618 118.9933577  53.6131838
  97.7153109 117.9010535  52.9055976  88.9259475 111.8954378  50.3022665
  89.1767514 112.7801388  50.5680241  89.4619024 111.7158980  49.5297757
  94.6257543 106.2772857  59.3067001  94.2324488 105.7239056  59.9814646
  95.4423683 106.5883436  59.6973519  91.5919600 117.7156716  43.2180571
  92.1044121 118.5099966  43.3686136  92.2442313 117.0183006  43.1514173
  93.4014485 120.8322472  45.3003324  93.5781113 121.7540437  45.1124308
  94.1971319 120.5180891  45.7297704  97.5425504 107.6930736  56.8987258
  98.2835217 108.2937890  56.8191720  97.7743427 106.9508374  56.3405300
  92.6866842 112.8787104  55.1765488  92.5720357 111.9772361  55.4772586
  91.8311359 113.1250800  54.8250304  94.5245801 122.3500646  51.3013667
  95.0753226 122.2217709  50.5290661  93.6857277 122.6495535  50.9508559
  98.3212972 118.6151773  55.6457898  98.8541308 117.8540062  55.4157206
  97.7927053 118.3225425  56.3882052 101.4882667 103.7211839  51.1751540
 101.1446936 104.6113481  51.0990650 101.8561629 103.5313497  50.3121125
  89.5568517 116.0445370  43.9940142  90.3943739 116.4542378  43.7773849
  89.7346785 115.1044812  43.9640336 101.4532949 113.7120450  39.6823975
 100.9379573 114.4825055  39.9212362 101.1810258 113.0385587  40.3057036
  99.0380060 108.5570151  44.7409213  98.1821657 108.1677002  44.5614852
  99.4507012 108.6362112  43.8808999 100.5679207 106.0916495  49.1400773
 100.0644003 106.0546630  48.3268578 100.8609814 107.0009237  49.1997429
  96.8122093 106.1755224  48.1466955  97.6775090 105.9798033  47.7872844
  96.8799602 105.9465576  49.0736311 101.2419253 111.5847543  41.5083756
 100.9369388 111.8993692  42.3593899 102.1949695 111.6628962  41.5511089
  99.6865684 117.7437766  43.1576710  99.1587046 117.0090525  42.8449947
  99.1853187 118.5212442  42.9116678  94.4184412 108.4057432  45.5183321
  94.9928164 108.1832614  44.7856514  95.0055394 108.4746127  46.2711923
 103.4763989 114.2931159  46.3247698 103.9895871 114.9261151  46.8269408
 104.1265213 113.6932355  45.9591058  94.7453999 110.4361893  39.5379207
  93.9091311 110.7736580  39.8588481  94.6058769 110.3010873  38.6006344
  96.7207080 105.2798681  44.2458391  96.0671492 104.9647698  43.6215006
  96.6787554 104.6574422  44.9718214  97.8318285 115.5617976  36.1611683
  96.9245346 115.3307230  36.3602832  98.3289317 114.7655595  36.3485664
  99.9544820 111.7680615  48.5706038  99.0367381 111.9895562  48.4127726
 100.3704964 111.8426925  47.7117746 100.7379868 113.1672030  43.7008719
 101.4851687 113.6793428  43.3915841 101.0071457 112.8456083  44.5613112
  99.0106518 115.6630571  40.6835673  98.1017737 115.3789604  40.7808143
  99.0401602 116.0829650  39.8238980 103.1858705 110.2029147  45.6827508
 102.4481462 109.6906533  46.0137751 103.4385478 109.7629528  44.8710785
 103.2870332 102.9805399  46.2769277 103.5929209 102.1202762  45.9895192
 104.0122937 103.5723019  46.0768271  89.5794688 113.3836085  44.6650875
  89.3819088 112.7905446  43.9401942  89.0241352 113.0788295  45.3826814
  97.5591412 113.2759192  46.7845468  97.6140022 112.3233028  46.7087945
  96.7482614 113.4318631  47.2686767  98.7082606 117.2039315  38.0223752
  98.2702036 116.4875174  37.5629389  99.4493047 117.4315430  37.4608843
  95.4983772 111.8936251  44.5435847  94.6851637 112.1930422  44.9501039
  95.9942766 111.4991940  45.2610329 101.0957984 112.3578076  53.3750741
 101.4507371 112.5849549  54.2345207 101.7430115 112.6896453  52.7527996
  94.9897847 109.4654607  50.1597082  95.6297226 109.3243366  49.4620045
  94.1575377 109.1789120  49.7835684  95.7658151 118.7657037  46.2732075
  96.5598749 118.2707357  46.0714650  95.0549843 118.2374900  45.9099780
  92.0740914 112.9100119  42.3491827  91.1438502 112.8484575  42.5661789
  92.1698386 112.3876072  41.5528469  91.9926463 109.4354932  44.9370069
  92.2533280 110.3500265  44.8279229  92.8143635 108.9679374  45.0866682
  93.4651388 110.8492689  52.1068893  94.1374442 110.6410051  51.4581542
  92.6381175 110.6514775  51.6674126  99.3676960 107.4754630  54.1234554
  98.7204876 108.1744580  54.0299031 100.1377976 107.9090774  54.4910803
  99.5441095 115.3135395  52.1831374 100.4733155 115.4646555  52.0100341
  99.1232125 115.4019416  51.3280021  98.3429427 119.3386059  49.9529912
  98.2040512 118.9704844  50.8255850  97.5544023 119.8533699  49.7813869
  99.8934642 118.7167662  47.3418749  99.5584474 118.6768432  48.2376399
  99.3938587 118.0512378  46.8689160  93.8678886 114.1235292  52.8671331
  93.7298684 113.3915531  53.4682870  94.7783809 114.0344192  52.5855518
 102.8293833 116.0623696  37.6155809 102.2123004 115.3370525  37.5188862
 102.3610322 116.8233057  37.2722883  96.4961186 113.8355251  52.3555010
  97.2060805 113.1948444  52.3141629  96.4530495 114.0868146  53.2781191
  95.2090120 110.8220469  54.1750650  94.6727477 110.3711208  54.8272246
  94.6206829 110.9566378  53.4321114  94.6192379 110.2809121  36.7377113
  93.7421846 110.1597921  36.3739360  95.0950132 109.4895199  36.4856002
  86.1394519 115.0686280  46.8318621  86.8265559 114.7548010  46.2439636
  85.9842648 115.9727645  46.5585872  90.9429242 109.9576477  51.2603644
  90.8587430 109.3502147  50.5254054  90.1211948 110.4485495  51.2613141
 101.1152955 108.4430040  46.6273839 101.6121655 107.6900003  46.3074910
 100.3439937 108.4794357  46.0617049 102.1982736 117.2001728  44.2012263
 101.2639015 117.3203190  44.0316967 102.3759405 116.2974194  43.9372273
  97.6987924 110.5847423  46.3545524  97.3285712 110.0318464  47.0426429
  98.1947017 109.9805557  45.8020524 105.5855287 113.0419047  44.7362297
 106.0515740 113.8747039  44.6622599 106.0362788 112.5764029  45.4407555
  95.5277123 121.0444918  53.4500542  96.2286582 121.6781401  53.6029936
  95.0572238 121.3859650  52.6896181 103.5571950 105.4099634  48.7753198
 102.6435030 105.6403861  48.9435405 103.9865052 105.4938078  49.6267231
 103.3278409 113.5989526  51.2753092 102.6749859 113.8465433  50.6205545
 103.7058789 112.7853664  50.9415569  99.3765982 114.3409337  57.7619129
  98.7006619 114.2403466  58.4321504 100.1993616 114.1848551  58.2255126
  91.1244841 120.5781274  50.3831645  91.7098278 119.8324961  50.5159549
  90.9269679 120.8885230  51.2668308  85.7162496 113.1486874  49.1036088
  85.7546595 112.6150464  49.8973206  85.2102788 112.6222079  48.4847065
  93.0953258 107.9951414  52.5998630  93.1594584 108.8566245  52.1876028
  93.0320378 107.3825416  51.8670988  92.5705530 110.0674547  56.2471664
  93.1977569 109.6851624  56.8609189  91.7133449 109.8488749  56.6127357
  89.3471073 111.8750976  42.1790019  89.6424514 110.9661654  42.1257073
  88.4459109 111.8538715  41.8571021  92.8765320 109.9506972  48.1617568
  92.1551906 110.5642940  48.0225041  93.6658576 110.4864737  48.0834214
  95.6791634 107.2861399  54.4358219  96.2026035 107.5323696  55.1984529
  95.4603967 108.1181434  54.0161357  91.0758915 109.5565074  42.3029344
  90.7471621 108.6762452  42.1204450  91.4298285 109.5012742  43.1905733
  94.1900738 109.8438043  42.6704822  94.5296810 110.3723965  41.9483430
  94.6372858 110.1818449  43.4463388  96.8844179 108.2275094  52.1207890
  96.5440999 107.4282907  52.5228570  96.1783185 108.5276805  51.5484723
  97.5360651 105.3124406  50.5735213  98.3586720 104.8384885  50.4514103
  97.7798714 106.0914890  51.0733899  96.1768885 108.3412665  40.8698115
  96.8977248 108.7193918  40.3661832  95.5534189 109.0601542  40.9733093
 100.3200008 109.0457814  41.8056447 100.5363622 109.9282452  41.5045275
  99.8394075 108.6544027  41.0762089  95.0599229 112.0043527  48.3827192
  94.9143810 112.3183830  49.2751473  94.5824433 112.6228427  47.8298090
  96.9195612 108.9946075  48.4308081  96.9057181 108.0987168  48.0940379
  97.6368040 109.0016739  49.0646367  98.7721743 109.4283415  50.4761209
  98.5139521 110.3500486  50.4745539  98.2406783 109.0313850  51.1661673
  89.5344891 114.5448872  51.3214853  88.9898360 115.3208680  51.4535127
  90.4124241 114.8919676  51.1633974  96.3232508 107.8760455  43.6995651
  96.4448419 106.9477102  43.8986539  96.0334550 107.8899141  42.7873967
  99.1923699 105.5615366  46.8362371  99.2145395 105.6254699  45.8814351
  99.6091758 104.7219874  47.0302877  90.3210913 113.6718768  54.2145010
  89.5792649 113.8201403  54.8009640  90.0003658 113.9327033  53.3511759
  90.7667527 121.5584197  46.2455404  91.5925547 121.2587968  45.8654048
  90.4161579 120.7891819  46.6945193  95.7349060 120.9110665  48.3153078
  95.1129069 120.2481370  48.0155306  96.4053927 120.9371797  47.6326726
  88.9676132 119.4770523  47.2044338  88.1308040 119.0492697  47.0228339
  88.9399777 119.6702966  48.1415129  95.8073588 109.3892453  57.9085584
  95.8561743 110.2654576  57.5263353  96.3496102 108.8469846  57.3357227
  95.2962567 119.4614588  41.7911538  95.4450687 120.1450052  41.1378211
  96.1029011 119.4419678  42.3060994 103.7030071 112.7656970  55.8178756
 104.6039934 112.6263435  55.5262754 103.7778045 112.9311425  56.7576934
  98.0372876 110.1423825  54.6631943  97.1676186 110.4357391  54.3914531
  98.2732356 110.7264270  55.3839206  93.0515200 115.4879766  42.7972607
  92.8061242 114.5842096  42.9952817  93.2211115 115.4896916  41.8552085
 100.7411910 106.3603442  52.1797363 101.2593854 107.0964469  51.8543851
 100.3867043 106.6667435  53.0144122  92.3210848 111.2208123  40.2958769
  91.6280093 111.2952478  39.6398805  92.0762599 110.4568467  40.8180286
 100.9924504 102.7803725  47.6998260 101.2726258 102.1126914  48.3258686
 101.7775111 102.9732820  47.1872923 104.8633362 111.2021359  51.4469835
 105.8150785 111.3019456  51.4682059 104.6936813 110.4099627  51.9567919
 102.8847742 108.2876942  51.6329236 102.2897674 108.5681955  50.9375724
 102.5997439 108.7770843  52.4045977  99.1804771 113.2923531  36.6039338
 100.1263876 113.1629739  36.6727756  98.8019016 112.5538193  37.0808766
 107.4915929 111.2138522  50.6070417 106.9754977 110.4296978  50.4200346
 108.3755877 110.8857238  50.7716937 105.1526656 104.9579537  46.5666230
 104.9551477 104.6494626  47.4509562 105.7626361 105.6841176  46.6964160
  99.0643464 117.3441277  58.0639995  99.9846473 117.5219876  58.2580042
  99.0293047 116.3997323  57.9119695  97.3647688 111.2173508  36.5394224
  96.4579144 110.9206620  36.6156937  97.6423669 110.9203326  35.6728510
  88.2825629 112.5379871  46.9893270  87.9628413 111.6845179  46.6967644
  87.7359057 112.7528449  47.7451237  92.0605536 115.2542312  50.7062776
  92.2791546 116.1859420  50.7250810  92.4731310 114.8950286  51.4917580
  98.9809754 105.7610397  42.6938465  98.1710482 105.4157482  43.0693711
  99.6694171 105.4517941  43.2826076 100.9100302 104.8388444  44.3162761
 101.4631341 105.2583898  44.9752785 101.1470389 103.9124192  44.3585717
  96.9333401 110.8275518  60.0965525  96.8330128 111.7769875  60.0277616
  96.7154944 110.4993757  59.2241595  96.1346473 108.0760443  36.6806203
  96.9965637 108.4015341  36.9402020  96.3196817 107.2891939  36.1679269
  88.1513889 116.1582783  48.9586392  87.4577360 115.7436735  48.4456346
  88.8986880 116.2003319  48.3619810 104.2879109 106.9488969  43.8241426
 103.7077778 107.6073773  43.4419478 104.0215042 106.1266314  43.4128843
 102.7382676 106.3494027  46.0262746 103.2382454 106.4610562  45.2177065
 103.3818284 106.0455080  46.6663555  96.7964672 114.2572657  58.9130587
  96.3131753 115.0573017  59.1194476  96.8825611 114.2680602  57.9598031
  90.0650631 116.0901036  46.8352406  90.0421319 116.1888724  45.8834290
  90.3751268 116.9366187  47.1569573  92.7238009 118.1477191  50.9499021
  93.6781263 118.1161134  50.8828952  92.5250533 117.6867815  51.7649247
  93.3137391 116.7178307  53.5169818  94.1330280 117.2122386  53.5404656
  93.5874199 115.8010276  53.4887386 103.0703987 109.1089060  42.8797774
 102.1829842 109.3938710  42.6617969 103.4857976 108.9482823  42.0325051
 106.4218524 109.1335581  46.5952113 107.1978914 109.6232033  46.8676730
 105.6966658 109.5593635  47.0523983 108.8591082 109.8463200  47.6526054
 109.4535573 109.6058936  46.9419362 108.9317666 109.1270331  48.2799590
  91.0788238 123.6896811  47.9669219  90.9442706 122.9297212  47.4007217
  90.6620300 124.4137711  47.4998008 103.0445011 114.6243596  43.0948064
 102.9880213 115.0812147  42.2555697 103.5973354 113.8634280  42.9170907
 106.8549817 110.4133328  43.9198184 106.5986751 110.0129963  44.7506391
 106.2302685 111.1277121  43.7948323 103.7779790 115.8148377  40.3900593
 103.7228594 115.6492648  39.4489037 103.1525846 116.5224410  40.5462783
  88.5672305 111.0516441  54.2162016  89.2131169 110.5415395  54.7049241
  88.3589457 111.7885123  54.7905441  97.0875916 105.3156486  39.9685912
  97.0754586 106.2598326  40.1254183  97.9799338 105.1326631  39.6745373
 100.9028035 101.9099263  44.2231849 100.1360431 101.3557749  44.3688531
 101.3138740 101.9821131  45.0846000  92.9069796 108.1984058  58.3137030
  93.7701258 107.8420863  58.5240354  92.3335207 107.8597953  59.0012434
  36.8761893  -0.4695386  35.8444737  37.5140303  -0.5888639  35.1408078
  36.7582736   0.4785458  35.9032690  33.6851599  -0.5167958  35.7806262
  33.3470111  -0.6326894  34.8926797  34.5541368  -0.9176793  35.7607268
  34.1671382   0.6366893  41.7392468  34.1560023   0.2419692  40.8672971
  34.3292022  -0.0967034  42.3326239  27.0902847   2.8318710  34.6087374
  27.8824139   2.4909534  34.1933673  27.3299497   2.9413685  35.5289527
  30.8878644   3.4204005  40.6871652  30.5968510   4.3249636  40.5718318
  31.5235628   3.4620533  41.4015721  31.8134850   0.7980854  37.2773011
  32.4098423   0.5736876  36.5629974  31.8709822   0.0565599  37.8798459
  41.8311589  -2.8068699  33.8230924  42.5636761  -3.3769483  34.0568753
  41.0750944  -3.1947099  34.2637430  35.8468529   3.1065421  37.6821445
  35.5469252   4.0090460  37.5737253  35.5019588   2.8397604  38.5342598
  39.2465672  -4.3752039  35.3618883  38.3382550  -4.4436631  35.0677644
  39.1953268  -3.8980094  36.1900708  30.8289308   9.8709741  30.6492413
  30.7513338  10.8217566  30.7280894  30.2250952   9.5255614  31.3067339
  33.3206538  -2.9562393  43.3053780  32.5439872  -2.3968473  43.2956645
  33.9597101  -2.4705611  43.8268650  41.1127319  -6.1735601  37.1396757
  40.4701699  -5.8803068  36.4936551  40.6082247  -6.2882680  37.9449953
  31.5752911  -0.1476940  42.8671747  32.3167595   0.3908104  42.5906571
  30.8689896   0.4789349  43.0243299  37.0508250   1.9952200  41.4643908
  37.4591606   1.5534611  40.7198541  36.3285512   1.4204828  41.7178101
  33.4039320  -3.0675193  38.8377465  34.2500515  -2.6435779  38.9812114
  33.3437958  -3.7241569  39.5316028  37.3737065   2.5553391  35.2196197
  36.7445927   2.7199105  34.5172265  36.9862727   2.9695001  35.9907161
  41.2526297   3.4907829  32.5740561  40.5677335   3.8706730  32.0237594
  41.3370146   4.1003155  33.3072509  36.5538766  -5.4070825  40.4958639
  36.3099697  -4.6528764  39.9592915  36.8298696  -5.0285477  41.3305886
  38.5077228   1.1367788  39.1735905  38.7194124   1.7799548  38.4970286
  38.4606977   0.3030104  38.7057835  29.8189108   1.8399281  35.4226046
  30.3890465   2.2686549  34.7843530  30.4097220   1.5581865  36.1210231
  39.6223056   4.0139743  37.3458262  40.4440500   3.6119931  37.0640944
  39.6185459   3.9107977  38.2974378  33.3879660   3.5623787  39.5018972
  33.4524092   4.0244194  40.3377144  32.6790584   2.9321151  39.6301282
  47.7129049   0.3578492  33.6943233  46.9592758  -0.2114110  33.5387238
  47.8476591   0.3241156  34.6413868  28.3651959   5.8633088  32.0248631
  28.5418588   6.7851053  31.8369615  29.1608793   5.5491508  32.4543011
  34.7296154   5.8515461  43.4998295  34.2860008   5.0651839  43.1819199
  35.3913367   6.0394611  42.8342186  29.4883275   7.3811262  38.0258973
  30.0390700   7.2528326  37.2535967  28.6494751   7.6806151  37.6753866
  36.8277392   6.1318260  41.5279696  36.8095867   6.9527142  41.0359965
  37.7497312   6.0072336  41.7529837  33.2850446   3.6462390  42.3703204
  33.8178783   2.8850678  42.1402512  32.7564527   3.3536042  43.1127359
  39.6296005   0.9697403  34.9989063  38.9719679   1.6596664  35.0869191
  40.4336404   1.3593835  35.3423049  38.4401464  -0.6758224  33.0493005
  38.9533345  -0.0428233  33.5514714  39.0902687  -1.2757029  32.6836365
  34.9182294  -3.2008769  35.2951345  34.0004856  -2.9793822  35.1373033
  35.3342438  -3.1262458  34.4363052  39.2063260   4.3047777  31.1772147
  38.7525587   3.4638687  31.2337338  38.5757226   4.9409175  31.5146927
  37.6496199   6.1424274  32.1121965  37.9419173   6.7029331  31.3934331
  38.1594820   6.4352835  32.8675124  32.6129824   6.9204625  33.2015419
  32.5706003   7.1465471  32.2723951  33.5292523   6.6867999  33.3501220
  36.0595458  -2.6111308  40.0996048  36.4144846  -2.3839834  40.9590513
  36.7067589  -2.2792931  39.4773303  41.7893195   0.5107128  30.8045377
  41.6511093   0.7008724  29.8766566  41.4329414   1.2726511  31.2613428
  41.8162574   2.5783655  35.8156648  42.2499081   2.4858944  36.6639702
  42.5294155   2.5541156  35.1776664  35.5490469   6.1785749  37.3489749
  35.6027492   6.7476686  38.1167465  34.6805251   6.3487634  36.9843786
  42.6778124   2.6207356  38.3489534  42.8714014   3.5253166  38.5948809
  42.5778742   2.1614775  39.1828119  37.7393233   2.7714099  43.9230414
  37.5878739   2.5424650  43.0060498  37.7297912   3.7284700  43.9361759
  34.5078569   0.3446011  38.9076681  35.4370629   0.4957171  38.7345648
  34.0869599   0.4330032  38.0525327  33.3066901   4.3696676  36.6775218
  33.1677987   4.0015460  37.5501156  32.5181497   4.8844315  36.5059176
  33.9015053   9.4705772  28.0200755  34.0766809   8.9993816  28.8346378
  33.2147841  10.0971539  28.2482016  34.8572116   3.7478279  34.0664056
  34.5221949   3.7079049  34.9621706  34.3576062   3.0822994  33.5934466
  28.8316360  -0.8454091  39.5916637  28.6936158  -1.5773853  40.1928176
  29.7421283  -0.9345191  39.3100825  31.4598661  -1.1334132  39.0800317
  32.1698279  -1.7740940  39.0386935  31.4167969  -0.8821237  40.0026498
  39.4485439   5.8033221  42.0006896  39.3897986   5.1192441  41.3337479
  39.8504958   6.5452211  41.5487522  28.4676138  12.6195135  34.7940615
  28.7072736  13.2513659  35.4719634  27.6245335  12.2683175  35.0805974
  39.4502847   3.7672805  40.2320876  38.5629625   3.4298727  40.3547275
  40.0201398   3.0355836  40.4689641  32.9804000   8.4274258  37.1982119
  32.9074172   9.2329229  37.7101424  32.5381393   8.6266223  36.3730140
  32.7693780   7.6646028  30.7084941  31.9861302   8.2067708  30.8023165
  33.4686525   8.1820007  31.1079182  43.9320187  -0.8218977  34.9937437
  43.9210063   0.0605738  34.6231371  43.0637567  -1.1747427  34.7991974
  35.4402684   8.3261092  39.3540278  36.1530656   8.9608556  39.2816179
  34.9492712   8.4224958  38.5380279  30.4914597   6.0755535  40.1745848
  31.1924057   6.7092018  40.3275243  30.0209712   6.4170267  39.4141488
  38.2915883  -1.3699858  37.9998399  37.6387333  -1.1223950  37.3450852
  38.6696263  -2.1835719  37.6660876  35.2523057   8.6659836  32.1026569
  35.4345451   7.8481492  32.5654321  36.0756043   8.8827528  31.6651459
  35.5865222   7.5928021  29.3641618  36.1152989   7.0820475  28.7511780
  35.8493442   7.2770551  30.2287151  34.3403456  -0.6280046  44.4864436
  33.6644093  -0.7285917  45.1566811  35.1631090  -0.7840833  44.9500433
  26.0882315   5.6091890  37.1076951  26.6735752   4.8635578  37.2404855
  25.8907154   5.9195847  37.9913615  28.9420970   8.6443137  32.1239394
  28.2731346   9.1289265  31.6403434  28.8033840   8.8912358  33.0382772
  33.0826239  10.6786881  38.7222052  33.6344547  10.8418502  39.4871137
  33.4232432  11.2691319  38.0502077  37.9337113   5.5048138  44.5770706
  38.4777017   6.1178097  44.0825661  37.3523958   6.0627717  45.0937719
  36.2194626   8.6268857  35.7085734  36.0945766   7.8258596  35.1996680
  36.8773717   9.1215050  35.2199704  38.2829535   6.4277877  37.3365284
  37.3359870   6.3083228  37.2643611  38.6312308   5.5400375  37.4191546
  35.2875968   6.2230593  33.5369636  35.1400930   5.2947300  33.7177206
  36.1129461   6.2450684  33.0526712  38.8910090   7.0459152  34.6234509
  39.8156637   6.8402013  34.4858960  38.7225393   6.7975553  35.5323851
  38.6805406   7.5644819  29.9796601  38.8542284   6.9991241  29.2270453
  39.1734297   8.3645714  29.7976091  44.5344797   0.3281242  31.5986900
  44.9775943  -0.4211433  31.2006024  43.6571307   0.3191378  31.2160632
  39.6680578   6.8811583  27.0793499  40.3631483   7.5018276  27.2980814
  40.0103729   6.0306935  27.3545877  41.5672002   4.3311289  28.6080830
  42.0923326   4.6698562  27.8830150  41.4794354   3.3958304  28.4243964
  33.2292050   8.2445363  40.7370706  33.5379177   7.9994509  41.6093406
  34.0267532   8.4492001  40.2489577  33.2512662  10.3983272  32.9676083
  32.8117653   9.9059651  33.6608940  34.0020779   9.8556240  32.7268158
  25.7305001   6.5894813  32.9700711  26.5563021   6.2898585  32.5899354
  25.3799053   5.8202436  33.4190500  30.6986534   5.9421281  35.0398385
  30.0766544   5.2791986  34.7400612  31.3691401   5.9682413  34.3572032
  41.2565908   4.9644193  43.9132028  40.4661451   4.9468331  43.3736527
  41.0199262   5.5032486  44.6681064  41.3763783   1.8136659  41.2264756
  41.4261788   1.6486666  42.1680279  41.2677706   0.9463918  40.8362637
  38.6667545  -2.2032413  42.5424063  39.5677408  -2.3425948  42.2508061
  38.7415520  -2.0377958  43.4822240  42.8781980   4.2333600  41.4706778
  42.5866788   4.5963581  42.3070239  42.2654111   3.5200609  41.2920110
  44.0777662   1.7986480  33.9909348  44.9124553   2.2376284  34.1546908
  44.2136791   1.3225133  33.1717594  41.1269168  -0.6433785  39.9386836
  41.6023289  -0.4506139  39.1305687  40.2034733  -0.5874599  39.6930219
  39.8270837  -3.7668025  38.1715141  40.7788260  -3.6669927  38.1927365
  39.6574287  -4.5589756  38.6813226  37.8485216  -6.6812442  38.3574542
  37.2535148  -6.4007429  37.6621031  37.5634913  -6.1918541  39.1291283
  42.3058915  -0.5461905  37.2857441  42.2735235  -1.4845904  37.4717125
  42.9159538  -0.4677868  36.5523266  42.4553403  -3.7550862  37.3315724
  41.9392452  -4.5392405  37.1445653  43.3393352  -4.0832145  37.4962244
  48.1235464   0.5154102  36.4263478  48.8538853   0.2539390  36.9871181
  47.5142410  -0.2217176  36.4665546  46.2050762  -1.3438036  37.0237929
  45.4783925  -1.4782071  36.4154421  45.7898048  -1.0361207  37.8294647
  34.0280938   2.3751894  44.7885302  34.9483947   2.5530493  44.9825348
  33.9930521   1.4307939  44.6365001  27.0243011   0.2852929  37.4308083
  27.2429020   1.2170036  37.4496117  27.4368784  -0.0739097  38.2162887
  31.7602146  -0.7116727  45.6375894  31.2769228   0.0883633  45.8439783
  31.8463085  -0.7008782  44.6843338  27.6875483   3.1787808  37.6744327
  28.6418737   3.1471750  37.6074259  27.4888007   2.7178432  38.4894553
  28.2774865   1.7488924  40.2415125  29.0967754   2.2433003  40.2649962
  28.5511673   0.8320892  40.2132693  43.8228556  -5.1226184  34.3771361
  44.4173047  -5.3630448  33.6664669  43.8955140  -5.8419053  35.0044897
  26.0425712   8.7207427  34.6914525  25.9080180   7.9607828  34.1252523
  25.6257774   9.4448327  34.2243314  46.1299629  -1.8159983  33.1514782
  45.5699187  -1.7466793  33.9246344  45.5243133  -1.9918998  32.4314278
  29.1994838   9.6176744  34.9032968  29.0827222  10.5622177  34.8011658
  28.3787284   9.3150306  35.2918767  36.0563172   3.1507905  46.4399463
  36.9254332   3.3248558  46.0786098  35.5769923   3.9702322  46.3175192
  30.2249352  10.2705006  38.1188896  31.1276599  10.3028617  38.4355391
  29.9986722   9.3405457  38.1335232  31.9802954   9.0235993  34.7798975
  31.0298585   9.0237854  34.6663347  32.2835440   8.2768727  34.2635010
  47.7155648  14.8596531  35.8444737  48.3534058  14.7403279  35.1408078
  47.5976491  15.8077375  35.9032690  44.5245354  14.8123959  35.7806262
  44.1863865  14.6965024  34.8926797  45.3935122  14.4115124  35.7607268
  40.3832170  16.6659436  31.7703153  39.8197035  16.5749373  31.0019441
  40.2684565  15.8459340  32.2505646  45.0065137  15.9658811  41.7392468
  44.9953778  15.5711609  40.8672971  45.1685776  15.2324884  42.3326239
  37.9296602  18.1610627  34.6087374  38.7217893  17.8201452  34.1933673
  38.1693252  18.2705602  35.5289527  45.9631728  20.3330403  27.0817618
  45.3119708  20.9184484  26.6951632  46.7576091  20.8636598  27.1412655
  39.8887355  17.4219541  27.4804752  40.6618231  16.8748528  27.3417628
  40.2412754  18.2863790  27.6919214  41.7272398  18.7495923  40.6871652
  41.4362264  19.6541554  40.5718318  42.3629382  18.7912451  41.4015721
  42.6528605  16.1272771  37.2773011  43.2492177  15.9028794  36.5629974
  42.7103576  15.3857517  37.8798459  42.2253633  13.5812207  25.1123202
  42.4779154  13.0593728  24.3506665  41.2878192  13.4178352  25.2149886
  47.2696916  12.5847985  32.9197945  48.0560005  12.1667408  32.5688362
  47.5335620  13.4894077  33.0879594  47.4406993  18.0220835  27.6186602
  46.8052826  18.0955462  28.3307507  47.1104400  18.6114434  26.9405682
  52.6705343  12.5223218  33.8230924  53.4030515  11.9522435  34.0568753
  51.9144699  12.1344819  34.2637430  41.9449922  15.4840313  27.3147577
  41.8286180  14.8085216  27.9828662  42.0552182  14.9972687  26.4979730
  44.2881463  14.9450460  31.0194266  43.9239670  14.4181081  31.7307188
  45.1448579  14.5548929  30.8460752  50.1930764   6.2344792  38.2825533
  49.8614088   7.1040203  38.0586748  49.5976377   5.9181076  38.9619563
  43.9286950   9.9740360  26.0155615  44.0961352  10.8420596  26.3826086
  43.7384119  10.1367641  25.0916904  46.6862283  18.4357338  37.6821445
  46.3863006  19.3382377  37.5737253  46.3413343  18.1689522  38.5342598
  40.1374765  14.8871135  33.7158150  39.2125261  14.7547349  33.9235842
  40.3859178  15.6665355  34.2128092  50.0859427  10.9539879  35.3618883
  49.1776304  10.8855287  35.0677644  50.0347023  11.4311824  36.1900708
  43.9076171  12.4298017  27.0002282  43.7875796  12.8755068  27.8387762
  43.2128759  12.7783335  26.4415820  37.4983576  14.5304409  34.5501939
  37.6275957  14.7838888  35.4641351  36.8181027  15.1232117  34.2306594
  41.6683063  25.2001659  30.6492413  41.5907093  26.1509484  30.7280894
  41.0644707  24.8547531  31.3067339  44.1600293  12.3729524  43.3053780
  43.3833627  12.9323444  43.2956645  44.7990856  12.8586307  43.8268650
  51.9521073   9.1556317  37.1396757  51.3095454   9.4488850  36.4936551
  51.4476002   9.0409237  37.9449953  49.6061237  12.9019490  27.8282616
  50.5179093  13.1346877  27.6530313  49.0970884  13.4856534  27.2657694
  42.4146665  15.1814978  42.8671747  43.1561349  15.7200022  42.5906571
  41.7083650  15.8081266  43.0243299  47.8902005  17.3244118  41.4643908
  48.2985361  16.8826529  40.7198541  47.1679266  16.7496746  41.7178101
  44.2433075  12.2616725  38.8377465  45.0894270  12.6856138  38.9812114
  44.1831712  11.6050349  39.5316028  48.2130819  17.8845309  35.2196197
  47.5839682  18.0491023  34.5172265  47.8256481  18.2986918  35.9907161
  52.0920051  18.8199746  32.5740561  51.4071089  19.1998648  32.0237594
  52.1763901  19.4295073  33.3072509  47.3932520   9.9221093  40.4958639
  47.1493452  10.6763154  39.9592915  47.6692451  10.3006441  41.3305886
  49.3470983  16.4659706  39.1735905  49.5587878  17.1091465  38.4970286
  49.3000731  15.6322022  38.7057835  46.9497212   9.0777526  36.0772477
  46.0881691   9.3758780  36.3689214  46.9759646   9.2947925  35.1453509
  43.7658781  17.6219717  32.4846282  44.2297127  17.9007420  31.6950905
  43.5015579  16.7203161  32.3019373  40.6582862  17.1691198  35.4226046
  41.2284219  17.5978467  34.7843530  41.2490974  16.8873783  36.1210231
  42.7027667  13.7442869  29.2935848  43.4051711  14.1963913  29.7609774
  42.3708296  13.1026688  29.9215741  41.1508029  12.3354626  43.6687057
  40.5206689  13.0170907  43.9022454  41.0444117  12.2237707  42.7240195
  36.4453001  12.0026422  34.5952981  35.6552055  12.2583950  34.1193092
  36.9364249  12.8174760  34.7005022  50.4616811  19.3431661  37.3458262
  51.2834254  18.9411848  37.0640944  50.4579214  19.2399895  38.2974378
  38.3967747  12.3671001  31.5536458  37.5998910  12.4789695  32.0719953
  38.1693339  12.7057653  30.6877348  44.2273414  18.8915704  39.5018972
  44.2917847  19.3536111  40.3377144  43.5184338  18.2613069  39.6301282
  34.7290704  12.2556912  37.0267972  34.9798743  13.1403922  37.2925548
  35.2650253  12.0761514  36.2543064  58.5522804  15.6870409  33.6943233
  57.7986512  15.1177807  33.5387238  58.6870345  15.6533074  34.6413868
  43.9421432  20.5583812  29.3697953  43.8067107  21.4035347  29.7982801
  44.4831244  20.7603089  28.6063887  40.4288772   6.6375392  46.0312308
  40.0355717   6.0841590  46.7059952  41.2454912   6.9485970  46.4218825
  37.3950829  18.0759250  29.9425878  37.9075350  18.8702500  30.0931443
  38.0473542  17.3785540  29.8759479  39.2045714  21.1925006  32.0248631
  39.3812342  22.1142971  31.8369615  40.0002547  20.8783425  32.4543011
  43.3456732   8.0533271  43.6232565  44.0866446   8.6540424  43.5437027
  43.5774655   7.3110908  43.0650607  38.4898071  13.2389638  41.9010794
  38.3751586  12.3374895  42.2017893  37.6342588  13.4853335  41.5495611
  45.5689908  21.1807378  43.4998295  45.1253762  20.3943757  43.1819199
  46.2307122  21.3686529  42.8342186  40.3277029  22.7103180  38.0258973
  40.8784455  22.5820243  37.2535967  39.4888505  23.0098069  37.6753866
  47.6671146  21.4610178  41.5279696  47.6489622  22.2819059  41.0359965
  48.5891066  21.3364253  41.7529837  44.1244200  18.9754308  42.3703204
  44.6572537  18.2142596  42.1402512  43.5958282  18.6827959  43.1127359
  47.2913895   4.0814374  37.8996846  46.9478165   4.9716015  37.8235957
  47.6592858   3.8916031  37.0366431  35.3599746  16.4047904  30.7185448
  36.1974968  16.8144912  30.5019156  35.5378014  15.4647346  30.6885642
  47.2564178  14.0722985  26.4069281  46.7410802  14.8427589  26.6457669
  46.9841487  13.3988121  27.0302343  44.8411289   8.9172685  31.4654520
  43.9852886   8.5279536  31.2860158  45.2538241   8.9964646  30.6054305
  46.3710436   6.4519029  35.8646079  45.8675231   6.4149164  35.0513885
  46.6641043   7.3611771  35.9242736  42.6153322   6.5357758  34.8712261
  43.4806318   6.3400567  34.5118151  42.6830831   6.3068110  35.7981618
  52.2298452  16.8255339  28.3422455  51.4527895  16.4866499  27.8977617
  52.9089933  16.8307963  27.6677420  47.0450481  11.9450077  28.2329062
  46.7400617  12.2596226  29.0839206  47.9980923  12.0231497  28.2756395
  45.4896913  18.1040300  29.8822016  44.9618275  17.3693060  29.5695254
  44.9884416  18.8814976  29.6361985  50.4689759  16.2989321  34.9989063
  49.8113434  16.9888582  35.0869191  51.2730158  16.6885753  35.3423049
  40.2215641   8.7659966  32.2428628  40.7959393   8.5435148  31.5101821
  40.8086623   8.8348661  32.9957229  49.2795218  14.6533693  33.0493005
  49.7927100  15.2863685  33.5514714  49.9296442  14.0534889  32.6836365
  40.5485228  10.7964427  26.2624513  39.7122540  11.1339114  26.5833788
  40.4089998  10.6613407  25.3251650  42.5238308   5.6401215  30.9703697
  41.8702721   5.3250232  30.3460312  42.4818783   5.0176956  31.6963520
  43.6349513  15.9220510  22.8856989  42.7276575  15.6909764  23.0848138
  44.1320545  15.1258130  23.0730971  46.5417592  24.6318018  25.8053676
  45.8679291  24.9349714  26.4138633  46.9283414  25.4347098  25.4559133
  45.7576049  12.1283149  35.2951345  44.8398610  12.3498096  35.1373033
  46.1736192  12.2029459  34.4363052  46.5411097  13.5274565  30.4254025
  47.2882916  14.0395962  30.1161147  46.8102686  13.2058617  31.2858419
  44.8137747  16.0233105  27.4080980  43.9048966  15.7392138  27.5053449
  44.8432831  16.4432184  26.5484286  50.0457014  19.6339695  31.1772147
  49.5919341  18.7930605  31.2337338  49.4150981  20.2701093  31.5146927
  48.9889934  10.5631681  32.4072815  48.2512691  10.0509067  32.7383057
  49.2416707  10.1232062  31.5956091  48.4889953  21.4716191  32.1121965
  48.7812928  22.0321249  31.3934331  48.9988574  21.7644752  32.8675124
  49.0901561   3.3407933  33.0014584  49.3960438   2.4805296  32.7140499
  49.8154166   3.9325553  32.8013578  35.3825917  13.7438619  31.3896182
  35.1850317  13.1507980  30.6647248  34.8272581  13.4390830  32.1072121
  43.3622641  13.6361726  33.5090775  43.4171251  12.6835562  33.4333252
  42.5513843  13.7921165  33.9932073  44.5113835  17.5641849  24.7469058
  44.0733265  16.8477708  24.2874696  45.2524275  17.7917964  24.1854150
  41.3015001  12.2538786  31.2681154  40.4882866  12.5532956  31.6746346
  41.7973995  11.8594474  31.9855636  43.4523579  22.2496543  33.2015419
  43.4099757  22.4757389  32.2723951  44.3686278  22.0159917  33.3501220
  46.8989212  12.7180610  40.0996048  47.2538600  12.9452083  40.9590513
  47.5461344  13.0498987  39.4773303  52.6286949  15.8399046  30.8045377
  52.4904848  16.0300642  29.8766566  52.2723168  16.6018429  31.2613428
  40.7929076   9.8257141  36.8842389  41.4328455   9.6845900  36.1865352
  39.9606606   9.5391655  36.5080991  52.6556329  17.9075573  35.8156648
  53.0892836  17.8150862  36.6639702  53.3687910  17.8833073  35.1776664
  41.5689379  19.1259572  32.9977381  42.3629978  18.6309892  32.7959956
  40.8581072  18.5977435  32.6345087  46.3884224  21.5077667  37.3489749
  46.4421246  22.0768603  38.1167465  45.5199005  21.6779552  36.9843786
  37.8772143  13.2702653  29.0737134  36.9469731  13.2087109  29.2907096
  37.9729615  12.7478606  28.2773775  37.7957692   9.7957466  31.6615376
  38.0564509  10.7102799  31.5524536  38.6174864   9.3281909  31.8111988
  39.2682617  11.2095223  38.8314200  39.9405671  11.0012585  38.1826849
  38.4412404  11.0117309  38.3919432  53.5171879  17.9499274  38.3489534
  53.7107769  18.8545084  38.5948809  53.4172497  17.4906693  39.1828119
  45.1708189   7.8357164  40.8479861  44.5236104   8.5347114  40.7544337
  45.9409205   8.2693308  41.2156109  48.5786987  18.1006016  43.9230414
  48.4272494  17.8716568  43.0060498  48.5691667  19.0576618  43.9361759
  45.3472324  15.6737929  38.9076681  46.2764384  15.8249089  38.7345648
  44.9263354  15.7621950  38.0525327  44.1460655  19.6988594  36.6775218
  44.0071741  19.3307378  37.5501156  43.3575252  20.2136233  36.5059176
  44.7408807  24.7997690  28.0200755  44.9160563  24.3285733  28.8346378
  44.0541595  25.4263456  28.2482016  45.6965871  19.0770196  34.0664056
  45.3615703  19.0370966  34.9621706  45.1969816  18.4114912  33.5934466
  39.6710115  14.4837826  39.5916637  39.5329912  13.7518065  40.1928176
  40.5815038  14.3946726  39.3100825  48.6325062  16.4226231  24.3401116
  48.0154233  15.6973059  24.2434168  48.1641551  17.1835591  23.9968190
  42.2992415  14.1957786  39.0800317  43.0092034  13.5550978  39.0386935
  42.2561723  14.4470680  40.0026498  50.2879194  21.1325139  42.0006896
  50.2291740  20.4484359  41.3337479  50.6898712  21.8744129  41.5487522
  41.0121349  11.1823003  40.8995956  40.4758706  10.7313742  41.5517553
  40.4238058  11.3168912  40.1566421  39.3069893  27.9487053  34.7940615
  39.5466491  28.5805577  35.4719634  38.4639089  27.5975093  35.0805974
  50.2896601  19.0964723  40.2320876  49.4023380  18.7590645  40.3547275
  50.8595152  18.3647754  40.4689641  31.9425748  15.4288815  33.5563927
  32.6296788  15.1150545  32.9684942  31.7873877  16.3330179  33.2831179
  36.7460470  10.3179011  37.9848951  36.6618659   9.7104681  37.2499361
  35.9243177  10.8088029  37.9858447  43.8197755  23.7566175  37.1982119
  43.7467926  24.5621147  37.7101424  43.3775148  23.9558141  36.3730140
  43.6087534  22.9937945  30.7084941  42.8255056  23.5359625  30.8023165
  44.3080279  23.5111925  31.1079182  46.9184184   8.8032575  33.3519146
  47.4152884   8.0502537  33.0320216  46.1471166   8.8396891  32.7862355
  54.7713942  14.5072940  34.9937437  54.7603818  15.3897656  34.6231371
  53.9031321  14.1544491  34.7991974  46.2796438  23.6553009  39.3540278
  46.9924410  24.2900474  39.2816179  45.7886467  23.7516875  38.5380279
  48.0013965  17.5604262  30.9257569  47.0670244  17.6805724  30.7562274
  48.1790633  16.6576729  30.6617579  43.5019153  10.9449958  33.0790831
  43.1316941  10.3920998  33.7671736  43.9978245  10.3408091  32.5265831
  51.3886516  13.4021581  31.4607603  51.8546969  14.2349573  31.3867906
  51.8394017  12.9366563  32.1652862  41.3308352  21.4047453  40.1745848
  42.0317811  22.0383936  40.3275243  40.8603467  21.7462184  39.4141488
  49.4562747  19.7465402  28.4593756  49.7322591  19.6321997  29.3687630
  48.5867246  19.3482887  28.4205929  49.3603179   5.7702168  35.4998505
  48.4466259   6.0006395  35.6680712  49.7896281   5.8540612  36.3512537
  49.1309638  13.9592060  37.9998399  48.4781088  14.2067968  37.3450852
  49.5090017  13.1456198  37.6660876  46.0916811  23.9951753  32.1026569
  46.2739206  23.1773409  32.5654321  46.9149797  24.2119446  31.6651459
  46.4258977  22.9219938  29.3641618  46.9546743  22.4112393  28.7511780
  46.6887197  22.6062469  30.2287151  45.1797211  14.7011871  44.4864436
  44.5037848  14.6006001  45.1566811  46.0024844  14.5451085  44.9500433
  36.9276070  20.9383808  37.1076951  37.5129506  20.1927496  37.2404855
  36.7300908  21.2487764  37.9913615  39.7814725  23.9735055  32.1239394
  39.1125100  24.4581183  31.6403434  39.6427595  24.2204276  33.0382772
  31.5193724  13.5089408  35.8281394  31.5577824  12.9752999  36.6218512
  31.0134017  12.9824613  35.2092371  43.9219993  26.0078799  38.7222052
  44.4738301  26.1710420  39.4871137  44.2626187  26.5983236  38.0502077
  38.8984487   8.3553948  39.3243937  38.9625813   9.2168779  38.9121334
  38.8351607   7.7427950  38.5916295  38.3736759  10.4277081  42.9716971
  39.0008798  10.0454158  43.5854495  37.5164678  10.2091283  43.3372663
  48.7730868  20.8340056  44.5770706  49.3170772  21.4470014  44.0825661
  48.1917713  21.3919635  45.0937719  35.1502302  12.2353510  28.9035326
  35.4455743  11.3264189  28.8502379  34.2490338  12.2141250  28.5816328
  47.0588381  23.9560774  35.7085734  46.9339520  23.1550514  35.1996680
  47.7167472  24.4506968  35.2199704  38.6796549  10.3109507  34.8862874
  37.9583135  10.9245474  34.7470348  39.4689805  10.8467272  34.8079520
  49.1223289  21.7569794  37.3365284  48.1753625  21.6375145  37.2643611
  49.4706062  20.8692292  37.4191546  41.4822862   7.6463933  41.1603526
  42.0057264   7.8926230  41.9229835  41.2635196   8.4783968  40.7406663
  36.8790144   9.9167608  29.0274651  36.5502850   9.0364987  28.8449757
  37.2329514   9.8615276  29.9151040  46.1269722  21.5522510  33.5369636
  45.9794685  20.6239218  33.7177206  46.9523216  21.5742601  33.0526712
  39.9931967  10.2040578  29.3950129  40.3328039  10.7326499  28.6728737
  40.4404087  10.5420984  30.1708695  49.7303844  22.3751069  34.6234509
  50.6550392  22.1693931  34.4858960  49.5619148  22.1267470  35.5323851
  42.6875408   8.5877628  38.8453197  42.3472228   7.7885441  39.2473876
  41.9814414   8.8879339  38.2730030  43.3391879   5.6726941  37.2980520
  44.1617949   5.1987419  37.1759410  43.5829943   6.4517424  37.7979206
  41.9800114   8.7015199  27.5943421  42.7008476   9.0796452  27.0907138
  41.3565418   9.4204076  27.6978399  46.1231237   9.4060348  28.5301754
  46.3394851  10.2884986  28.2290582  45.6425304   9.0146562  27.8007396
  40.8630458  12.3646061  35.1072498  40.7175039  12.6786364  35.9996780
  40.3855662  12.9830962  34.5543397  42.7226841   9.3548609  35.1553388
  42.7088410   8.4589703  34.8185686  43.4399269   9.3619273  35.7891674
  44.5752972   9.7885950  37.2006515  44.3170750  10.7103020  37.1990846
  44.0438012   9.3916384  37.8906979  49.5199160  22.8936737  29.9796601
  49.6936038  22.3283159  29.2270453  50.0128052  23.6937632  29.7976091
  35.3376120  14.9051406  38.0460159  34.7929588  15.6811214  38.1780434
  36.2155470  15.2522210  37.8879281  42.1263737   8.2362990  30.4240958
  42.2479648   7.3079636  30.6231845  41.8365779   8.2501676  29.5119273
  44.9954927   5.9217900  33.5607678  45.0176624   5.9857233  32.6059657
  45.4122986   5.0822409  33.7548184  55.3738552  15.6573160  31.5986900
  55.8169698  14.9080485  31.2006024  54.4965062  15.6483296  31.2160632
  50.5074333  22.2103501  27.0793499  51.2025238  22.8310194  27.2980814
  50.8497483  21.3598852  27.3545877  36.1242142  14.0321302  40.9390316
  35.3823878  14.1803937  41.5254947  35.8034886  14.2929568  40.0757066
  52.4065756  19.6603207  28.6080830  52.9317080  19.9990479  27.8830150
  52.3188109  18.7250222  28.4243964  44.0685805  23.5737280  40.7370706
  44.3772931  23.3286427  41.6093406  44.8661287  23.7783919  40.2489577
  44.0906417  25.7275190  32.9676083  43.6511407  25.2351569  33.6608940
  44.8414534  25.1848158  32.7268158  36.5698756  21.9186731  32.9700711
  37.3956776  21.6190503  32.5899354  36.2192808  21.1494353  33.4190500
  41.5380289  21.2713199  35.0398385  40.9160298  20.6083904  34.7400612
  42.2085156  21.2974331  34.3572032  34.7707361  19.8373057  33.9289645
  33.9339269  19.4095232  33.7473646  34.7431006  20.0305501  34.8660436
  41.6104816   9.7494987  44.6330891  41.6592972  10.6257110  44.2508660
  42.1527331   9.2072380  44.0602534  52.0959662  20.2936110  43.9132028
  51.3055206  20.2760249  43.3736527  51.8593017  20.8324404  44.6681064
  52.2157537  17.1428577  41.2264756  52.2655542  16.9778584  42.1680279
  52.1071461  16.2755836  40.8362637  41.0993796  19.8217122  28.5156845
  41.2481916  20.5052587  27.8623518  41.9060239  19.8022212  29.0306301
  49.5061300  13.1259505  42.5424063  50.4071162  12.9865970  42.2508061
  49.5809274  13.2913959  43.4822240  43.8404105  10.5026359  41.3877249
  42.9707414  10.7959925  41.1159838  44.0763585  11.0866804  42.1084513
  53.7175734  19.5625518  41.4706778  53.4260542  19.9255499  42.3070239
  53.1047865  18.8492526  41.2920110  54.9171416  17.1278398  33.9909348
  55.7518308  17.5668202  34.1546908  55.0530545  16.6517051  33.1717594
  51.9662922  14.6858133  39.9386836  52.4417044  14.8785779  39.1305687
  51.0428488  14.7417319  39.6930219  38.8546429  15.8482300  29.5217914
  38.6092471  14.9444630  29.7198124  39.0242343  15.8499450  28.5797392
  46.5443139   6.7205976  38.9042670  47.0625083   7.4567003  38.5789158
  46.1898272   7.0269970  39.7389429  38.1242076  11.5810658  27.0204075
  37.4311321  11.6555013  26.3644111  37.8793828  10.8171001  27.5425592
  46.7955733   3.1406259  34.4243566  47.0757487   2.4729448  35.0503993
  47.5806340   3.3335354  33.9118230  44.5989201  22.3165253  25.9868592
  44.0263168  22.9355440  25.5339064  45.1721995  22.8664614  26.5208514
  50.6664591  11.5623893  38.1715141  51.6182014  11.6621991  38.1927365
  50.4968042  10.7702161  38.6813226  48.6878971   8.6479476  38.3574542
  48.0928903   8.9284489  37.6621031  48.4028667   9.1373377  39.1291283
  47.8186461  22.6002403  27.1177175  48.7517134  22.5347965  27.3210050
  47.7309674  23.4358670  26.6591707  50.4474478  21.9168273  24.0781122
  50.3688109  21.5828137  24.9716880  51.2684145  22.4090041  24.0772595
  53.1452669  14.7830013  37.2857441  53.1128989  13.8446013  37.4717125
  53.7553293  14.8614049  36.5523266  44.9836000  13.6526066  23.3284645
  45.9295105  13.5232274  23.3973063  44.6050245  12.9140727  23.8054073
  53.2947158  11.5741056  37.3315724  52.7786206  10.7899513  37.1445653
  54.1787106  11.2459773  37.4962244  50.9557884   5.3182072  33.2911537
  50.7582706   5.0097160  34.1754869  51.5657590   6.0443710  33.4209467
  58.9629219  15.8446019  36.4263478  59.6932607  15.5831308  36.9871181
  58.3536164  15.1074741  36.4665546  57.0444516  13.9853882  37.0237929
  56.3177680  13.8509847  36.4154421  56.6291803  14.2930711  37.8294647
  44.8674692  17.7043812  44.7885302  45.7877702  17.8822411  44.9825348
  44.8324275  16.7599857  44.6365001  34.0856857  12.8982405  33.7138577
  33.7659642  12.0447714  33.4212951  33.5390286  13.1130983  34.4696544
  37.8636765  15.6144846  37.4308083  38.0822775  16.5461954  37.4496117
  38.2762539  15.2552821  38.2162887  44.7840983   6.1212932  29.4183771
  43.9741711   5.7760017  29.7939018  45.4725400   5.8120475  30.0071383
  46.7131531   5.1990978  31.0408068  47.2662570   5.6186432  31.6998091
  46.9501617   4.2726727  31.0831024  42.7364630  11.1878052  46.8210832
  42.6361357  12.1372409  46.7522923  42.5186172  10.8596291  45.9486902
  33.9545117  16.5185317  35.6831698  33.2608589  16.1039270  35.1701653
  34.7018108  16.5605853  35.0865117  50.0910338   7.3091504  30.5486732
  49.5109007   7.9676308  30.1664785  49.8246271   6.4868848  30.1374150
  48.5413905   6.7096561  32.7508053  49.0413683   6.8213096  31.9422372
  49.1849512   6.4057614  33.3908861  42.5995900  14.6175191  45.6375894
  42.1162982  15.4175551  45.8439783  42.6856839  14.6283136  44.6843338
  35.8681860  16.4503571  33.5597713  35.8452548  16.5491258  32.6079596
  36.1782496  17.2968721  33.8814879  38.5269238  18.5079726  37.6744327
  39.4812491  18.4763668  37.6074259  38.3281761  18.0470349  38.4894553
  39.1168620  17.0780842  40.2415125  39.9361509  17.5724920  40.2649962
  39.3905428  16.1612810  40.2132693  48.8735216   9.4691594  29.6043081
  47.9861071   9.7541245  29.3863275  49.2889205   9.3085357  28.7570358
  52.2249752   9.4938115  33.3197420  53.0010142   9.9834567  33.5922037
  51.4997886   9.9196169  33.7769289  54.6622311  10.2065734  34.3771361
  55.2566802   9.9661470  33.6664669  54.7348895   9.4872865  35.0044897
  36.8819467  24.0499345  34.6914525  36.7473935  23.2899746  34.1252523
  36.4651529  24.7740245  34.2243314  48.0178430  19.2336269  23.6991101
  48.7214280  19.4386271  24.3148756  47.2941078  19.8013031  23.9640184
  48.8476240  14.9846130  29.8193371  48.7911441  15.4414681  28.9801003
  49.4004582  14.2236814  29.6416214  52.6581046  10.7735862  30.6443490
  52.4017980  10.3732497  31.4751698  52.0333914  11.4879656  30.5193629
  56.9693384  13.5131935  33.1514782  56.4092942  13.5825124  33.9246344
  56.3636887  13.3372920  32.4314278  40.0388593  24.9468662  34.9032968
  39.9220977  25.8914095  34.8011658  39.2181039  24.6442224  35.2918767
  49.9265127  19.6718798  25.7489561  50.7610731  19.2399996  25.5667035
  49.7649470  19.5000812  26.6766455  49.5811019  16.1750911  27.1145900
  49.5259823  16.0095183  26.1734344  48.9557075  16.8826944  27.2708090
  34.3703534  11.4118976  40.9407322  35.0162398  10.9017930  41.4294547
  34.1620685  12.1487657  41.5150747  46.8956926  18.4799823  46.4399463
  47.7648086  18.6540475  46.0786098  46.4163678  19.2994240  46.3175192
  42.8907145   5.6759020  26.6931218  42.8785815   6.6200860  26.8499489
  43.7830567   5.4929166  26.3990680  41.0643107  25.5996924  38.1188896
  41.9670353  25.6320534  38.4355391  40.8380477  24.6697375  38.1335232
  42.8196709  24.3527911  34.7798975  41.8692340  24.3529772  34.6663347
  43.1229195  23.6060645  34.2635010  46.7059264   2.2701797  30.9477155
  45.9391660   1.7160283  31.0933838  47.1169969   2.3423666  31.8091307
  38.7101025   8.5586593  45.0382336  39.5732487   8.2023397  45.2485661
  38.1366436   8.2200487  45.7257741  58.5549402  30.1888449  35.8444737
  59.1927812  30.0695196  35.1408078  58.4370245  31.1369293  35.9032690
  55.3639108  30.1415877  35.7806262  55.0257620  30.0256942  34.8926797
  56.2328877  29.7407042  35.7607268  51.2225924  31.9951353  31.7703153
  50.6590789  31.9041290  31.0019441  51.1078319  31.1751258  32.2505646
  55.8458891  31.2950729  41.7392468  55.8347532  30.9003527  40.8672971
  56.0079531  30.5616801  42.3326239  48.7690356  33.4902545  34.6087374
  49.5611648  33.1493370  34.1933673  49.0087006  33.5997520  35.5289527
  56.8025483  35.6622321  27.0817618  56.1513463  36.2476402  26.6951632
  57.5969846  36.1928516  27.1412655  50.7281110  32.7511458  27.4804752
  51.5011986  32.2040445  27.3417628  51.0806509  33.6155708  27.6919214
  52.5666153  34.0787841  40.6871652  52.2756019  34.9833471  40.5718318
  53.2023137  34.1204368  41.4015721  53.4922359  31.4564689  37.2773011
  54.0885932  31.2320712  36.5629974  53.5497331  30.7149435  37.8798459
  53.0647388  28.9104124  25.1123202  53.3172908  28.3885646  24.3506665
  52.1271947  28.7470270  25.2149886  58.1090671  27.9139903  32.9197945
  58.8953760  27.4959326  32.5688362  58.3729375  28.8185995  33.0879594
  58.2800748  33.3512753  27.6186602  57.6446581  33.4247380  28.3307507
  57.9498154  33.9406352  26.9405682  63.5099098  27.8515136  33.8230924
  64.2424270  27.2814353  34.0568753  62.7538453  27.4636736  34.2637430
  52.7843677  30.8132230  27.3147577  52.6679935  30.1377134  27.9828662
  52.8945936  30.3264604  26.4979730  55.1275217  30.2742377  31.0194266
  54.7633425  29.7472998  31.7307188  55.9842333  29.8840847  30.8460752
  61.0324518  21.5636710  38.2825533  60.7007843  22.4332121  38.0586748
  60.4370131  21.2472994  38.9619563  54.7680704  25.3032277  26.0155615
  54.9355107  26.1712514  26.3826086  54.5777874  25.4659559  25.0916904
  57.5256038  33.7649256  37.6821445  57.2256761  34.6674295  37.5737253
  57.1807097  33.4981439  38.5342598  50.9768519  30.2163053  33.7158150
  50.0519016  30.0839267  33.9235842  51.2252932  30.9957272  34.2128092
  60.9253181  26.2831796  35.3618883  60.0170059  26.2147205  35.0677644
  60.8740777  26.7603741  36.1900708  54.7469925  27.7589935  27.0002282
  54.6269551  28.2046985  27.8387762  54.0522514  28.1075252  26.4415820
  48.3377330  29.8596326  34.5501939  48.4669711  30.1130805  35.4641351
  47.6574781  30.4524034  34.2306594  52.5076817  40.5293576  30.6492413
  52.4300847  41.4801402  30.7280894  51.9038461  40.1839449  31.3067339
  54.9994047  27.7021442  43.3053780  54.2227381  28.2615362  43.2956645
  55.6384610  28.1878225  43.8268650  62.7914828  24.4848235  37.1396757
  62.1489208  24.7780768  36.4936551  62.2869756  24.3701155  37.9449953
  60.4454991  28.2311408  27.8282616  61.3572848  28.4638795  27.6530313
  59.9364639  28.8148452  27.2657694  53.2540420  30.5106895  42.8671747
  53.9955104  31.0491939  42.5906571  52.5477405  31.1373184  43.0243299
  58.7295759  32.6536036  41.4643908  59.1379115  32.2118446  40.7198541
  58.0073021  32.0788663  41.7178101  55.0826829  27.5908642  38.8377465
  55.9288024  28.0148056  38.9812114  55.0225467  26.9342267  39.5316028
  59.0524574  33.2137226  35.2196197  58.4233436  33.3782940  34.5172265
  58.6650236  33.6278836  35.9907161  62.9313806  34.1491664  32.5740561
  62.2464844  34.5290566  32.0237594  63.0157655  34.7586991  33.3072509
  58.2326275  25.2513011  40.4958639  57.9887206  26.0055071  39.9592915
  58.5086205  25.6298358  41.3305886  60.1864737  31.7951623  39.1735905
  60.3981633  32.4383383  38.4970286  60.1394486  30.9613940  38.7057835
  57.7890966  24.4069444  36.0772477  56.9275445  24.7050697  36.3689214
  57.8153401  24.6239843  35.1453509  54.6052536  32.9511634  32.4846282
  55.0690881  33.2299337  31.6950905  54.3409334  32.0495079  32.3019373
  51.4976617  32.4983116  35.4226046  52.0677974  32.9270384  34.7843530
  52.0884729  32.2165701  36.1210231  53.5421422  29.0734787  29.2935848
  54.2445465  29.5255830  29.7609774  53.2102050  28.4318606  29.9215741
  51.9901783  27.6646543  43.6687057  51.3600444  28.3462824  43.9022454
  51.8837871  27.5529625  42.7240195  47.2846756  27.3318339  34.5952981
  46.4945810  27.5875868  34.1193092  47.7758003  28.1466677  34.7005022
  61.3010565  34.6723579  37.3458262  62.1228009  34.2703766  37.0640944
  61.2972968  34.5691813  38.2974378  49.2361501  27.6962919  31.5536458
  48.4392664  27.8081613  32.0719953  49.0087093  28.0349571  30.6877348
  55.0667169  34.2207622  39.5018972  55.1311601  34.6828029  40.3377144
  54.3578093  33.5904987  39.6301282  45.5684459  27.5848830  37.0267972
  45.8192497  28.4695840  37.2925548  46.1044007  27.4053431  36.2543064
  69.3916558  31.0162327  33.6943233  68.6380267  30.4469725  33.5387238
  69.5264100  30.9824992  34.6413868  54.7815186  35.8875729  29.3697953
  54.6460861  36.7327265  29.7982801  55.3224999  36.0895007  28.6063887
  51.2682526  21.9667309  46.0312308  50.8749472  21.4133508  46.7059952
  52.0848666  22.2777888  46.4218825  48.2344584  33.4051167  29.9425878
  48.7469104  34.1994418  30.0931443  48.8867297  32.7077458  29.8759479
  50.0439468  36.5216924  32.0248631  50.2206097  37.4434888  31.8369615
  50.8396302  36.2075343  32.4543011  54.1850487  23.3825188  43.6232565
  54.9260200  23.9832341  43.5437027  54.4168410  22.6402826  43.0650607
  49.3291825  28.5681556  41.9010794  49.2145340  27.6666813  42.2017893
  48.4736343  28.8145252  41.5495611  56.4083663  36.5099296  43.4998295
  55.9647517  35.7235674  43.1819199  57.0700876  36.6978446  42.8342186
  51.1670784  38.0395098  38.0258973  51.7178209  37.9112161  37.2535967
  50.3282260  38.3389987  37.6753866  58.5064901  36.7902096  41.5279696
  58.4883376  37.6110977  41.0359965  59.4284821  36.6656171  41.7529837
  54.9637955  34.3046225  42.3703204  55.4966292  33.5434514  42.1402512
  54.4352036  34.0119877  43.1127359  58.1307650  19.4106291  37.8996846
  57.7871919  20.3007933  37.8235957  58.4986613  19.2207949  37.0366431
  46.1993501  31.7339822  30.7185448  47.0368723  32.1436830  30.5019156
  46.3771768  30.7939264  30.6885642  58.0957933  29.4014902  26.4069281
  57.5804556  30.1719507  26.6457669  57.8235241  28.7280039  27.0302343
  55.6805044  24.2464603  31.4654520  54.8246640  23.8571454  31.2860158
  56.0931995  24.3256564  30.6054305  57.2104190  21.7810946  35.8646079
  56.7068986  21.7441082  35.0513885  57.5034797  22.6903689  35.9242736
  53.4547076  21.8649676  34.8712261  54.3200073  21.6692485  34.5118151
  53.5224585  21.6360028  35.7981618  63.0692207  32.1547257  28.3422455
  62.2921650  31.8158417  27.8977617  63.7483688  32.1599880  27.6677420
  57.8844236  27.2741994  28.2329062  57.5794371  27.5888144  29.0839206
  58.8374678  27.3523414  28.2756395  56.3290668  33.4332218  29.8822016
  55.8012029  32.6984977  29.5695254  55.8278170  34.2106894  29.6361985
  61.3083514  31.6281238  34.9989063  60.6507188  32.3180500  35.0869191
  62.1123913  32.0177670  35.3423049  51.0609395  24.0951884  32.2428628
  51.6353147  23.8727066  31.5101821  51.6480378  24.1640579  32.9957229
  60.1188972  29.9825611  33.0493005  60.6320854  30.6155603  33.5514714
  60.7690196  29.3826806  32.6836365  51.3878982  26.1256345  26.2624513
  50.5516295  26.4631032  26.5833788  51.2483752  25.9905325  25.3251650
  53.3632063  20.9693133  30.9703697  52.7096475  20.6542150  30.3460312
  53.3212537  20.3468873  31.6963520  54.4743268  31.2512428  22.8856989
  53.5670330  31.0201682  23.0848138  54.9714300  30.4550047  23.0730971
  57.3811347  39.9609935  25.8053676  56.7073045  40.2641632  26.4138633
  57.7677169  40.7639016  25.4559133  56.5969803  27.4575067  35.2951345
  55.6792365  27.6790014  35.1373033  57.0129947  27.5321377  34.4363052
  57.3804851  28.8566482  30.4254025  58.1276670  29.3687879  30.1161147
  57.6496441  28.5350535  31.2858419  55.6531501  31.3525023  27.4080980
  54.7442721  31.0684056  27.5053449  55.6826585  31.7724101  26.5484286
  60.8850769  34.9631612  31.1772147  60.4313096  34.1222522  31.2337338
  60.2544735  35.5993011  31.5146927  59.8283688  25.8923598  32.4072815
  59.0906445  25.3800985  32.7383057  60.0810462  25.4523980  31.5956091
  59.3283708  36.8008109  32.1121965  59.6206682  37.3613166  31.3934331
  59.8382329  37.0936670  32.8675124  59.9295316  18.6699850  33.0014584
  60.2354192  17.8097214  32.7140499  60.6547920  19.2617471  32.8013578
  46.2219672  29.0730537  31.3896182  46.0244071  28.4799898  30.6647248
  45.6666336  28.7682747  32.1072121  54.2016395  28.9653644  33.5090775
  54.2565005  28.0127480  33.4333252  53.3907597  29.1213083  33.9932073
  55.3507589  32.8933767  24.7469058  54.9127019  32.1769626  24.2874696
  56.0918030  33.1209881  24.1854150  52.1408755  27.5830703  31.2681154
  51.3276621  27.8824874  31.6746346  52.6367749  27.1886392  31.9855636
  54.2917333  37.5788460  33.2015419  54.2493512  37.8049307  32.2723951
  55.2080032  37.3451835  33.3501220  57.7382967  28.0472528  40.0996048
  58.0932355  28.2744001  40.9590513  58.3855098  28.3790905  39.4773303
  63.4680704  31.1690964  30.8045377  63.3298602  31.3592560  29.8766566
  63.1116923  31.9310346  31.2613428  51.6322830  25.1549059  36.8842389
  52.2722209  25.0137818  36.1865352  50.8000361  24.8683572  36.5080991
  63.4950083  33.2367491  35.8156648  63.9286590  33.1442780  36.6639702
  64.2081664  33.2124991  35.1776664  52.4083134  34.4551489  32.9977381
  53.2023732  33.9601809  32.7959956  51.6974826  33.9269352  32.6345087
  57.2277978  36.8369585  37.3489749  57.2815001  37.4060521  38.1167465
  56.3592760  37.0071470  36.9843786  48.7165897  28.5994571  29.0737134
  47.7863485  28.5379026  29.2907096  48.8123369  28.0770524  28.2773775
  48.6351446  25.1249384  31.6615376  48.8958264  26.0394717  31.5524536
  49.4568619  24.6573826  31.8111988  50.1076372  26.5387141  38.8314200
  50.7799425  26.3304503  38.1826849  49.2806158  26.3409227  38.3919432
  64.3565633  33.2791191  38.3489534  64.5501523  34.1837002  38.5948809
  64.2566251  32.8198610  39.1828119  56.0101944  23.1649082  40.8479861
  55.3629859  23.8639032  40.7544337  56.7802959  23.5985226  41.2156109
  59.4180742  33.4297934  43.9230414  59.2666248  33.2008486  43.0060498
  59.4085421  34.3868535  43.9361759  56.1866078  31.0029847  38.9076681
  57.1158138  31.1541006  38.7345648  55.7657108  31.0913868  38.0525327
  54.9854410  35.0280511  36.6775218  54.8465496  34.6599296  37.5501156
  54.1969006  35.5428151  36.5059176  55.5802562  40.1289608  28.0200755
  55.7554318  39.6577651  28.8346378  54.8935350  40.7555374  28.2482016
  56.5359625  34.4062114  34.0664056  56.2009458  34.3662884  34.9621706
  56.0363571  33.7406830  33.5934466  50.5103869  29.8129744  39.5916637
  50.3723667  29.0809983  40.1928176  51.4208792  29.7238644  39.3100825
  59.4718817  31.7518148  24.3401116  58.8547987  31.0264976  24.2434168
  59.0035305  32.5127509  23.9968190  53.1386170  29.5249703  39.0800317
  53.8485788  28.8842895  39.0386935  53.0955478  29.7762598  40.0026498
  61.1272948  36.4617057  42.0006896  61.0685495  35.7776277  41.3337479
  61.5292467  37.2036047  41.5487522  51.8515104  26.5114921  40.8995956
  51.3152461  26.0605660  41.5517553  51.2631812  26.6460830  40.1566421
  50.1463647  43.2778970  34.7940615  50.3860245  43.9097495  35.4719634
  49.3032844  42.9267010  35.0805974  51.2617363  25.9703573  23.4622420
  50.3846829  25.8492373  23.0984667  51.7375116  25.1789651  23.2101309
  61.1290356  34.4256641  40.2320876  60.2417134  34.0882562  40.3547275
  61.6988907  33.6939672  40.4689641  42.7819503  30.7580732  33.5563927
  43.4690543  30.4442462  32.9684942  42.6267631  31.6622097  33.2831179
  47.5854225  25.6470929  37.9848951  47.5012414  25.0396598  37.2499361
  46.7636931  26.1379947  37.9858447  54.6591509  39.0858093  37.1982119
  54.5861681  39.8913064  37.7101424  54.2168902  39.2850059  36.3730140
  54.4481289  38.3229863  30.7084941  53.6648811  38.8651543  30.8023165
  55.1474034  38.8403843  31.1079182  57.7577939  24.1324492  33.3519146
  58.2546638  23.3794455  33.0320216  56.9864920  24.1688809  32.7862355
  65.6107696  29.8364858  34.9937437  65.5997572  30.7189573  34.6231371
  64.7425076  29.4836409  34.7991974  57.1190193  38.9844927  39.3540278
  57.8318165  39.6192392  39.2816179  56.6280221  39.0808793  38.5380279
  58.8407719  32.8896180  30.9257569  57.9063998  33.0097642  30.7562274
  59.0184388  31.9868646  30.6617579  54.3412908  26.2741875  33.0790831
  53.9710695  25.7212916  33.7671736  54.8372000  25.6700009  32.5265831
  62.2280271  28.7313499  31.4607603  62.6940723  29.5641490  31.3867906
  62.6787771  28.2658480  32.1652862  52.1702106  36.7339370  40.1745848
  52.8711566  37.3675853  40.3275243  51.6997221  37.0754102  39.4141488
  60.2956502  35.0757320  28.4593756  60.5716346  34.9613915  29.3687630
  59.4261001  34.6774805  28.4205929  60.1996934  21.0994086  35.4998505
  59.2860013  21.3298313  35.6680712  60.6290035  21.1832530  36.3512537
  59.9703392  29.2883978  37.9998399  59.3174842  29.5359885  37.3450852
  60.3483772  28.4748116  37.6660876  56.9310566  39.3243671  32.1026569
  57.1132960  38.5065327  32.5654321  57.7543552  39.5411363  31.6651459
  57.2652731  38.2511856  29.3641618  57.7940498  37.7404311  28.7511780
  57.5280951  37.9354386  30.2287151  56.0190965  30.0303789  44.4864436
  55.3431602  29.9297918  45.1566811  56.8418599  29.8743003  44.9500433
  47.7669824  36.2675725  37.1076951  48.3523261  35.5219413  37.2404855
  47.5694663  36.5779682  37.9913615  50.6208479  39.3026973  32.1239394
  49.9518855  39.7873100  31.6403434  50.4821349  39.5496193  33.0382772
  42.3587479  28.8381326  35.8281394  42.3971578  28.3044916  36.6218512
  41.8527772  28.3116531  35.2092371  54.7613748  41.3370716  38.7222052
  55.3132056  41.5002338  39.4871137  55.1019941  41.9275154  38.0502077
  49.7378241  23.6845866  39.3243937  49.8019568  24.5460697  38.9121334
  49.6745361  23.0719868  38.5916295  49.2130514  25.7568999  42.9716971
  49.8402553  25.3746076  43.5854495  48.3558433  25.5383201  43.3372663
  59.6124622  36.1631974  44.5770706  60.1564526  36.7761932  44.0825661
  59.0311467  36.7211552  45.0937719  45.9896056  27.5645428  28.9035326
  46.2849498  26.6556106  28.8502379  45.0884092  27.5433167  28.5816328
  57.8982135  39.2852692  35.7085734  57.7733275  38.4842432  35.1996680
  58.5561226  39.7798885  35.2199704  49.5190303  25.6401424  34.8862874
  48.7976889  26.2537392  34.7470348  50.3083559  26.1759189  34.8079520
  59.9617044  37.0861712  37.3365284  59.0147379  36.9667063  37.2643611
  60.3099817  36.1984210  37.4191546  52.3216617  22.9755851  41.1603526
  52.8451019  23.2218147  41.9229835  52.1028950  23.8075886  40.7406663
  47.7183898  25.2459525  29.0274651  47.3896604  24.3656904  28.8449757
  48.0723269  25.1907194  29.9151040  56.9663477  36.8814428  33.5369636
  56.8188439  35.9531136  33.7177206  57.7916970  36.9034519  33.0526712
  50.8325721  25.5332495  29.3950129  51.1721794  26.0618417  28.6728737
  51.2797842  25.8712901  30.1708695  60.5697599  37.7042987  34.6234509
  61.4944146  37.4985848  34.4858960  60.4012902  37.4559388  35.5323851
  53.5269162  23.9169546  38.8453197  53.1865982  23.1177359  39.2473876
  52.8208168  24.2171257  38.2730030  54.1785634  21.0018858  37.2980520
  55.0011703  20.5279337  37.1759410  54.4223697  21.7809342  37.7979206
  52.8193868  24.0307117  27.5943421  53.5402231  24.4088370  27.0907138
  52.1959172  24.7495994  27.6978399  56.9624991  24.7352266  28.5301754
  57.1788606  25.6176904  28.2290582  56.4819058  24.3438479  27.8007396
  51.7024213  27.6937979  35.1072498  51.5568793  28.0078282  35.9996780
  51.2249416  28.3122879  34.5543397  53.5620595  24.6840527  35.1553388
  53.5482164  23.7881620  34.8185686  54.2793024  24.6911191  35.7891674
  55.4146726  25.1177867  37.2006515  55.1564504  26.0394938  37.1990846
  54.8831767  24.7208302  37.8906979  60.3592915  38.2228654  29.9796601
  60.5329792  37.6575077  29.2270453  60.8521806  39.0229549  29.7976091
  46.1769875  30.2343323  38.0460159  45.6323343  31.0103131  38.1780434
  47.0549225  30.5814128  37.8879281  52.9657491  23.5654907  30.4240958
  53.0873403  22.6371553  30.6231845  52.6759534  23.5793593  29.5119273
  55.8348682  21.2509818  33.5607678  55.8570379  21.3149151  32.6059657
  56.2516741  20.4114326  33.7548184  66.2132306  30.9865077  31.5986900
  66.6563452  30.2372402  31.2006024  65.3358816  30.9775214  31.2160632
  61.3468087  37.5395419  27.0793499  62.0418992  38.1602111  27.2980814
  61.6891238  36.6890770  27.3545877  46.9635897  29.3613220  40.9390316
  46.2217633  29.5095855  41.5254947  46.6428641  29.6221485  40.0757066
  63.2459511  34.9895124  28.6080830  63.7710835  35.3282397  27.8830150
  63.1581863  34.0542140  28.4243964  54.9079559  38.9029198  40.7370706
  55.2166686  38.6578345  41.6093406  55.7055041  39.1075836  40.2489577
  54.9300171  41.0567108  32.9676083  54.4905162  40.5643486  33.6608940
  55.6808288  40.5140075  32.7268158  47.4092510  37.2478648  32.9700711
  48.2350530  36.9482420  32.5899354  47.0586562  36.4786271  33.4190500
  52.3774043  36.6005117  35.0398385  51.7554053  35.9375822  34.7400612
  53.0478910  36.6266249  34.3572032  45.6101115  35.1664975  33.9289645
  44.7733024  34.7387149  33.7473646  45.5824761  35.3597418  34.8660436
  52.4498571  25.0786905  44.6330891  52.4986726  25.9549027  44.2508660
  52.9921085  24.5364298  44.0602534  62.9353417  35.6228028  43.9132028
  62.1448960  35.6052167  43.3736527  62.6986771  36.1616322  44.6681064
  63.0551292  32.4720494  41.2264756  63.1049297  32.3070502  42.1680279
  62.9465215  31.6047753  40.8362637  51.9387550  35.1509040  28.5156845
  52.0875671  35.8344504  27.8623518  52.7453994  35.1314130  29.0306301
  60.3455054  28.4551422  42.5424063  61.2464917  28.3157887  42.2508061
  60.4203029  28.6205877  43.4822240  54.6797859  25.8318277  41.3877249
  53.8101169  26.1251843  41.1159838  54.9157340  26.4158722  42.1084513
  64.5569489  34.8917436  41.4706778  64.2654297  35.2547416  42.3070239
  63.9441620  34.1784444  41.2920110  65.7565171  32.4570316  33.9909348
  66.5912062  32.8960120  34.1546908  65.8924300  31.9808969  33.1717594
  62.8056677  30.0150050  39.9386836  63.2810798  30.2077697  39.1305687
  61.8822242  30.0709236  39.6930219  49.6940183  31.1774218  29.5217914
  49.4486225  30.2736548  29.7198124  49.8636098  31.1791368  28.5797392
  57.3836893  22.0497894  38.9042670  57.9018837  22.7858921  38.5789158
  57.0292026  22.3561887  39.7389429  48.9635831  26.9102575  27.0204075
  48.2705076  26.9846930  26.3644111  48.7187583  26.1462919  27.5425592
  57.6349487  18.4698177  34.4243566  57.9151241  17.8021366  35.0503993
  58.4200094  18.6627272  33.9118230  55.4382956  37.6457170  25.9868592
  54.8656923  38.2647358  25.5339064  56.0115750  38.1956532  26.5208514
  61.5058346  26.8915811  38.1715141  62.4575769  26.9913908  38.1927365
  61.3361796  26.0994079  38.6813226  59.5272725  23.9771394  38.3574542
  58.9322657  24.2576406  37.6621031  59.2422422  24.4665295  39.1291283
  58.6580216  37.9294321  27.1177175  59.5910889  37.8639882  27.3210050
  58.5703429  38.7650587  26.6591707  61.2868232  37.2460191  24.0781122
  61.2081864  36.9120055  24.9716880  62.1077899  37.7381959  24.0772595
  63.9846424  30.1121930  37.2857441  63.9522744  29.1737931  37.4717125
  64.5947047  30.1905967  36.5523266  55.8229754  28.9817983  23.3284645
  56.7688859  28.8524191  23.3973063  55.4443999  28.2432645  23.8054073
  64.1340912  26.9032974  37.3315724  63.6179961  26.1191430  37.1445653
  65.0180861  26.5751690  37.4962244  61.7951639  20.6473989  33.2911537
  61.5976460  20.3389077  34.1754869  62.4051345  21.3735628  33.4209467
  69.8022973  31.1737937  36.4263478  70.5326362  30.9123225  36.9871181
  69.1929919  30.4366659  36.4665546  67.8838271  29.3145800  37.0237929
  67.1571434  29.1801765  36.4154421  67.4685557  29.6222628  37.8294647
  55.7068447  33.0335729  44.7885302  56.6271456  33.2114328  44.9825348
  55.6718030  32.0891775  44.6365001  54.0072672  26.9067960  23.2639530
  53.1004127  26.6101072  23.3402244  54.2848653  26.6097778  22.3973816
  44.9250612  28.2274323  33.7138577  44.6053396  27.3739631  33.4212951
  44.3784040  28.4422901  34.4696544  48.7030519  30.9436764  37.4308083
  48.9216529  31.8753872  37.4496117  49.1156293  30.5844738  38.2162887
  55.6234737  21.4504849  29.4183771  54.8135466  21.1051934  29.7939018
  56.3119154  21.1412393  30.0071383  57.5525286  20.5282896  31.0408068
  58.1056324  20.9478350  31.6998091  57.7895372  19.6018644  31.0831024
  53.5758385  26.5169970  46.8210832  53.4755112  27.4664327  46.7522923
  53.3579927  26.1888209  45.9486902  52.7771456  23.7654895  23.4051509
  53.6390620  24.0909793  23.6647327  52.9621800  22.9786391  22.8924575
  44.7938872  31.8477234  35.6831698  44.1002343  31.4331187  35.1701653
  45.5411863  31.8897771  35.0865117  60.9304093  22.6383421  30.5486732
  60.3502762  23.2968225  30.1664785  60.6640025  21.8160766  30.1374150
  59.3807659  22.0388479  32.7508053  59.8807437  22.1505013  31.9422372
  60.0243267  21.7349532  33.3908861  53.4389655  29.9467109  45.6375894
  52.9556737  30.7467469  45.8439783  53.5250594  29.9575053  44.6843338
  46.7075614  31.7795488  33.5597713  46.6846303  31.8783176  32.6079596
  47.0176251  32.6260639  33.8814879  49.3662992  33.8371643  37.6744327
  50.3206246  33.8055586  37.6074259  49.1675516  33.3762267  38.4894553
  49.9562374  32.4072759  40.2415125  50.7755263  32.9016838  40.2649962
  50.2299182  31.4904727  40.2132693  59.7128971  24.7983512  29.6043081
  58.8254826  25.0833162  29.3863275  60.1282960  24.6377275  28.7570358
  63.0643507  24.8230033  33.3197420  63.8403897  25.3126485  33.5922037
  62.3391641  25.2488087  33.7769289  65.5016065  25.5357652  34.3771361
  66.0960556  25.2953388  33.6664669  65.5742649  24.8164782  35.0044897
  47.7213221  39.3791263  34.6914525  47.5867689  38.6191664  34.1252523
  47.3045283  40.1032163  34.2243314  58.8572184  34.5628186  23.6991101
  59.5608034  34.7678189  24.3148756  58.1334833  35.1304948  23.9640184
  59.6869994  30.3138048  29.8193371  59.6305196  30.7706599  28.9801003
  60.2398337  29.5528732  29.6416214  63.4974800  26.1027779  30.6443490
  63.2411735  25.7024415  31.4751698  62.8727668  26.8171573  30.5193629
  67.8087138  28.8423853  33.1514782  67.2486696  28.9117042  33.9246344
  67.2030642  28.6664837  32.4314278  50.8782347  40.2760580  34.9032968
  50.7614731  41.2206012  34.8011658  50.0574793  39.9734141  35.2918767
  60.7658882  35.0010716  25.7489561  61.6004485  34.5691914  25.5667035
  60.6043224  34.8292729  26.6766455  60.4204774  31.5042829  27.1145900
  60.3653578  31.3387100  26.1734344  59.7950829  32.2118862  27.2708090
  45.2097289  26.7410893  40.9407322  45.8556152  26.2309847  41.4294547
  45.0014440  27.4779575  41.5150747  57.7350681  33.8091741  46.4399463
  58.6041841  33.9832393  46.0786098  57.2557432  34.6286158  46.3175192
  53.7300899  21.0050938  26.6931218  53.7179569  21.9492778  26.8499489
  54.6224321  20.8221083  26.3990680  51.9036861  40.9288842  38.1188896
  52.8064108  40.9612452  38.4355391  51.6774231  39.9989293  38.1335232
  53.6590463  39.6819828  34.7798975  52.7086094  39.6821690  34.6663347
  53.9622949  38.9352563  34.2635010  57.5453019  17.5993714  30.9477155
  56.7785414  17.0452201  31.0933838  57.9563724  17.6715583  31.8091307
  49.5494780  23.8878510  45.0382336  50.4126241  23.5315315  45.2485661
  48.9760190  23.5492405  45.7257741  62.1076280  37.2959227  46.0312308
  61.7143226  36.7425425  46.7059952  62.9242421  37.6069805  46.4218825
  60.1685579  43.8973473  41.9010794  60.0539095  42.9958731  42.2017893
  59.3130097  44.1437170  41.5495611  57.0387255  47.0631739  30.7185448
  57.8762477  47.4728748  30.5019156  57.2165523  46.1231182  30.6885642
  64.2940831  37.1941594  34.8712261  65.1593827  36.9984403  34.5118151
  64.3618340  36.9651946  35.7981618  61.9003150  39.4243802  32.2428628
  62.4746902  39.2018983  31.5101821  62.4874132  39.4932496  32.9957229
  64.2025817  36.2985051  30.9703697  63.5490230  35.9834068  30.3460312
  64.1606292  35.6760791  31.6963520  65.3137022  46.5804346  22.8856989
  64.4064084  46.3493599  23.0848138  65.8108054  45.7841965  23.0730971
  70.7689070  33.9991768  33.0014584  71.0747947  33.1389132  32.7140499
  71.4941675  34.5909388  32.8013578  57.0613426  44.4022455  31.3896182
  56.8637826  43.8091815  30.6647248  56.5060090  44.0974665  32.1072121
  59.5559652  43.9286489  29.0737134  58.6257240  43.8670944  29.2907096
  59.6517124  43.4062441  28.2773775  59.4745201  40.4541301  31.6615376
  59.7352018  41.3686635  31.5524536  60.2962373  39.9865744  31.8111988
  62.1011117  41.2995490  23.4622420  61.2240583  41.1784291  23.0984667
  62.5768870  40.5081569  23.2101309  53.6213257  46.0872650  33.5563927
  54.3084297  45.7734380  32.9684942  53.4661386  46.9914015  33.2831179
  53.1981233  44.1673243  35.8281394  53.2365333  43.6336834  36.6218512
  52.6921526  43.6408449  35.2092371  60.5771996  39.0137784  39.3243937
  60.6413322  39.8752615  38.9121334  60.5139116  38.4011785  38.5916295
  60.0524268  41.0860916  42.9716971  60.6796307  40.7037994  43.5854495
  59.1952187  40.8675118  43.3372663  56.8289811  42.8937345  28.9035326
  57.1243252  41.9848024  28.8502379  55.9277847  42.8725085  28.5816328
  63.1610371  38.3047769  41.1603526  63.6844773  38.5510065  41.9229835
  62.9422705  39.1367803  40.7406663  58.5577653  40.5751443  29.0274651
  58.2290359  39.6948822  28.8449757  58.9117023  40.5199112  29.9151040
  66.6742436  36.5801735  33.5607678  66.6964133  36.6441069  32.6059657
  67.0910495  35.7406244  33.7548184  57.8029651  44.6905137  40.9390316
  57.0611387  44.8387773  41.5254947  57.4822395  44.9513403  40.0757066
  59.8029585  42.2394493  27.0204075  59.1098830  42.3138848  26.3644111
  59.5581337  41.4754837  27.5425592  68.4743242  33.7990094  34.4243566
  68.7544996  33.1313283  35.0503993  69.2593849  33.9919190  33.9118230
  66.6623509  44.3109901  23.3284645  67.6082614  44.1816109  23.3973063
  66.2837754  43.5724563  23.8054073  55.7644366  43.5566241  33.7138577
  55.4447151  42.7031549  33.4212951  55.2177795  43.7714819  34.4696544
  66.4628492  36.7796767  29.4183771  65.6529220  36.4343852  29.7939018
  67.1512909  36.4704311  30.0071383  68.3919040  35.8574814  31.0408068
  68.9450079  36.2770267  31.6998091  68.6289126  34.9310562  31.0831024
  63.6165211  39.0946812  23.4051509  64.4784375  39.4201711  23.6647327
  63.8015555  38.3078308  22.8924575  55.6332626  47.1769152  35.6831698
  54.9396098  46.7623105  35.1701653  56.3805617  47.2189689  35.0865117
  57.5469369  47.1087406  33.5597713  57.5240057  47.2075093  32.6079596
  57.8570005  47.9552557  33.8814879  56.0491043  42.0702811  40.9407322
  56.6949907  41.5601765  41.4294547  55.8408194  42.8071493  41.5150747
  64.5694654  36.3342856  26.6931218  64.5573324  37.2784695  26.8499489
  65.4618076  36.1513001  26.3990680  68.3846773  32.9285632  30.9477155
  67.6179169  32.3744119  31.0933838  68.7957478  33.0007501  31.8091307
  60.3888534  39.2170428  45.0382336  61.2519996  38.8607233  45.2485661
  59.8153945  38.8784323  45.7257741  78.4812992  66.3206157  27.0817618
  77.8300972  66.9060237  26.6951632  79.2757355  66.8512351  27.1412655
  79.9588257  64.0096588  27.6186602  79.3234090  64.0831215  28.3307507
  79.6285663  64.5990187  26.9405682  85.1886607  58.5098971  33.8230924
  85.9211779  57.9398188  34.0568753  84.4325962  58.1220572  34.2637430
  74.1864326  71.1877412  30.6492413  74.1088356  72.1385237  30.7280894
  73.5825970  70.8423284  31.3067339  82.1242500  58.8895243  27.8282616
  83.0360357  59.1222630  27.6530313  81.6152148  59.4732287  27.2657694
  91.0704067  61.6746162  33.6943233  90.3167776  61.1053561  33.5387238
  91.2051608  61.6408827  34.6413868  76.4602695  66.5459565  29.3697953
  76.3248370  67.3911100  29.7982801  77.0012508  66.7478842  28.6063887
  79.7745442  60.0598738  26.4069281  79.2592065  60.8303342  26.6457669
  79.5022750  59.3863874  27.0302343  84.7479716  62.8131092  28.3422455
  83.9709159  62.4742252  27.8977617  85.4271197  62.8183716  27.6677420
  76.1530777  61.9096263  22.8856989  75.2457839  61.6785517  23.0848138
  76.6501809  61.1133883  23.0730971  79.0598856  70.6193771  25.8053676
  78.3860554  70.9225467  26.4138633  79.4464678  71.4222851  25.4559133
  77.0295098  63.5517602  24.7469058  76.5914528  62.8353461  24.2874696
  77.7705539  63.7793717  24.1854150  75.9704842  68.2372296  33.2015419
  75.9281021  68.4633142  32.2723951  76.8867541  68.0035670  33.3501220
  85.1468213  61.8274799  30.8045377  85.0086111  62.0176395  29.8766566
  84.7904432  62.5894182  31.2613428  77.2590071  70.7873443  28.0200755
  77.4341827  70.3161486  28.8346378  76.5722859  71.4139209  28.2482016
  81.1506326  62.4101984  24.3401116  80.5335496  61.6848812  24.2434168
  80.6822814  63.1711344  23.9968190  76.3379018  69.7441928  37.1982119
  76.2649189  70.5496900  37.7101424  75.8956411  69.9433894  36.3730140
  76.1268798  68.9813698  30.7084941  75.3436320  69.5235378  30.8023165
  76.8261543  69.4987678  31.1079182  87.2895205  60.4948693  34.9937437
  87.2785081  61.3773409  34.6231371  86.4212585  60.1420244  34.7991974
  83.9067780  59.3897334  31.4607603  84.3728232  60.2225326  31.3867906
  84.3575280  58.9242316  32.1652862  81.9744011  65.7341156  28.4593756
  82.2503855  65.6197750  29.3687630  81.1048510  65.3358640  28.4205929
  76.4401257  71.9954552  38.7222052  76.9919565  72.1586173  39.4871137
  76.7807450  72.5858990  38.0502077  81.2912131  66.8215809  44.5770706
  81.8352035  67.4345767  44.0825661  80.7098976  67.3795388  45.0937719
  87.8919815  61.6448913  31.5986900  88.3350961  60.8956238  31.2006024
  87.0146325  61.6359049  31.2160632  83.0255596  68.1979254  27.0793499
  83.7206501  68.8185947  27.2980814  83.3678747  67.3474605  27.3545877
  84.9247020  65.6478960  28.6080830  85.4498344  65.9866232  27.8830150
  84.8369372  64.7125975  28.4243964  76.6087680  71.7150943  32.9676083
  76.1692671  71.2227322  33.6608940  77.3595797  71.1723911  32.7268158
  84.6140926  66.2811863  43.9132028  83.8236469  66.2636002  43.3736527
  84.3774280  66.8200157  44.6681064  86.2356997  65.5501271  41.4706778
  85.9441806  65.9131252  42.3070239  85.6229129  64.8368279  41.2920110
  87.4352680  63.1154151  33.9909348  88.2699571  63.5543955  34.1546908
  87.5711809  62.6392804  33.1717594  77.1170465  68.3041006  25.9868592
  76.5444432  68.9231193  25.5339064  77.6903259  68.8540367  26.5208514
  80.3367725  68.5878156  27.1177175  81.2698398  68.5223718  27.3210050
  80.2490937  69.4234423  26.6591707  82.9655741  67.9044026  24.0781122
  82.8869373  67.5703890  24.9716880  83.7865408  68.3965794  24.0772595
  77.5017263  59.6401819  23.3284645  78.4476368  59.5108027  23.3973063
  77.1231508  58.9016480  23.8054073  91.4810482  61.8321772  36.4263478
  92.2113871  61.5707061  36.9871181  90.8717428  61.0950494  36.4665546
  89.5625779  59.9729635  37.0237929  88.8358943  59.8385600  36.4154421
  89.1473066  60.2806464  37.8294647  87.1803574  56.1941487  34.3771361
  87.7748065  55.9537223  33.6664669  87.2530158  55.4748618  35.0044897
  80.5359693  65.2212022  23.6991101  81.2395543  65.4262024  24.3148756
  79.8122342  65.7888784  23.9640184  81.3657503  60.9721883  29.8193371
  81.3092705  61.4290434  28.9801003  81.9185846  60.2112568  29.6416214
  85.1762309  56.7611615  30.6443490  84.9199244  56.3608250  31.4751698
  84.5515177  57.4755409  30.5193629  89.4874647  59.5007688  33.1514782
  88.9274205  59.5700877  33.9246344  88.8818151  59.3248673  32.4314278
  82.4446391  65.6594551  25.7489561  83.2791994  65.2275749  25.5667035
  82.2830733  65.4876565  26.6766455  82.0992283  62.1626664  27.1145900
  82.0441086  61.9970936  26.1734344  81.4738338  62.8702697  27.2708090
  79.4138190  64.4675576  46.4399463  80.2829350  64.6416228  46.0786098
  78.9344941  65.2869993  46.3175192  91.0730666  76.1764202  35.8444737
  91.7109076  76.0570949  35.1408078  90.9551509  77.1245046  35.9032690
  87.8820372  76.1291630  35.7806262  87.5438883  76.0132695  34.8926797
  88.7510140  75.7282795  35.7607268  83.7407188  77.9827106  31.7703153
  83.1772053  77.8917043  31.0019441  83.6259583  77.1627011  32.2505646
  88.3640155  77.2826482  41.7392468  88.3528796  76.8879280  40.8672971
  88.5260794  76.5492554  42.3326239  81.2871620  79.4778298  34.6087374
  82.0792911  79.1369123  34.1933673  81.5268270  79.5873273  35.5289527
  89.3206746  81.6498074  27.0817618  88.6694726  82.2352155  26.6951632
  90.1151109  82.1804269  27.1412655  83.2462373  78.7387211  27.4804752
  84.0193249  78.1916198  27.3417628  83.5987772  79.6031461  27.6919214
  85.0847416  80.0663594  40.6871652  84.7937282  80.9709224  40.5718318
  85.7204400  80.1080121  41.4015721  86.0103623  77.4440442  37.2773011
  86.6067195  77.2196465  36.5629974  86.0678594  76.7025188  37.8798459
  85.5828651  74.8979877  25.1123202  85.8354172  74.3761399  24.3506665
  84.6453210  74.7346023  25.2149886  90.6271934  73.9015656  32.9197945
  91.4135023  73.4835079  32.5688362  90.8910638  74.8061748  33.0879594
  90.7982011  79.3388506  27.6186602  90.1627844  79.4123133  28.3307507
  90.4679418  79.9282105  26.9405682  96.0280361  73.8390889  33.8230924
  96.7605533  73.2690106  34.0568753  95.2719717  73.4512489  34.2637430
  85.3024940  76.8007983  27.3147577  85.1861198  76.1252887  27.9828662
  85.4127200  76.3140357  26.4979730  87.6456481  76.2618131  31.0194266
  87.2814688  75.7348751  31.7307188  88.5023597  75.8716600  30.8460752
  93.5505782  67.5512463  38.2825533  93.2189106  68.4207874  38.0586748
  92.9551395  67.2348747  38.9619563  87.2861968  71.2908030  26.0155615
  87.4536370  72.1588267  26.3826086  87.0959137  71.4535312  25.0916904
  90.0437301  79.7525009  37.6821445  89.7438024  80.6550048  37.5737253
  89.6988361  79.4857192  38.5342598  83.4949783  76.2038806  33.7158150
  82.5700279  76.0715020  33.9235842  83.7434196  76.9833025  34.2128092
  93.4434445  72.2707549  35.3618883  92.5351322  72.2022958  35.0677644
  93.3922041  72.7479494  36.1900708  87.2651189  73.7465688  27.0002282
  87.1450814  74.1922738  27.8387762  86.5703777  74.0951005  26.4415820
  80.8558594  75.8472080  34.5501939  80.9850975  76.1006558  35.4641351
  80.1756045  76.4399788  34.2306594  85.0258081  86.5169329  30.6492413
  84.9482111  87.4677155  30.7280894  84.4219725  86.1715202  31.3067339
  87.5175311  73.6897195  43.3053780  86.7408645  74.2491115  43.2956645
  88.1565874  74.1753978  43.8268650  95.3096091  70.4723988  37.1396757
  94.6670472  70.7656521  36.4936551  94.8051020  70.3576908  37.9449953
  92.9636255  74.2187161  27.8282616  93.8754111  74.4514548  27.6530313
  92.4545902  74.8024205  27.2657694  85.7721683  76.4982648  42.8671747
  86.5136367  77.0367692  42.5906571  85.0658668  77.1248937  43.0243299
  91.2477023  78.6411789  41.4643908  91.6560379  78.1994199  40.7198541
  90.5254284  78.0664416  41.7178101  87.6008093  73.5784395  38.8377465
  88.4469288  74.0023809  38.9812114  87.5406730  72.9218020  39.5316028
  91.5705837  79.2012979  35.2196197  90.9414700  79.3658693  34.5172265
  91.1831499  79.6154589  35.9907161  95.4495069  80.1367417  32.5740561
  94.7646107  80.5166319  32.0237594  95.5338918  80.7462744  33.3072509
  90.7507538  71.2388764  40.4958639  90.5068470  71.9930824  39.9592915
  91.0267469  71.6174111  41.3305886  92.7046001  77.7827376  39.1735905
  92.9162896  78.4259136  38.4970286  92.6575749  76.9489693  38.7057835
  90.3072230  70.3945197  36.0772477  89.4456709  70.6926450  36.3689214
  90.3334664  70.6115596  35.1453509  87.1233799  78.9387387  32.4846282
  87.5872145  79.2175090  31.6950905  86.8590597  78.0370832  32.3019373
  84.0157880  78.4858869  35.4226046  84.5859237  78.9146137  34.7843530
  84.6065992  78.2041454  36.1210231  86.0602685  75.0610540  29.2935848
  86.7626729  75.5131583  29.7609774  85.7283314  74.4194359  29.9215741
  84.5083047  73.6522296  43.6687057  83.8781707  74.3338577  43.9022454
  84.4019135  73.5405378  42.7240195  79.8028019  73.3194092  34.5952981
  79.0127073  73.5751621  34.1193092  80.2939267  74.1342430  34.7005022
  93.8191829  80.6599332  37.3458262  94.6409272  80.2579519  37.0640944
  93.8154232  80.5567566  38.2974378  81.7542765  73.6838672  31.5536458
  80.9573928  73.7957366  32.0719953  81.5268357  74.0225324  30.6877348
  87.5848432  80.2083375  39.5018972  87.6492865  80.6703782  40.3377144
  86.8759356  79.5780740  39.6301282  78.0865722  73.5724583  37.0267972
  78.3373761  74.4571593  37.2925548  78.6225271  73.3929184  36.2543064
 101.9097822  77.0038080  33.6943233 101.1561530  76.4345478  33.5387238
 102.0445363  76.9700745  34.6413868  87.2996450  81.8751482  29.3697953
  87.1642125  82.7203018  29.7982801  87.8406262  82.0770760  28.6063887
  83.7863789  67.9543062  46.0312308  83.3930735  67.4009261  46.7059952
  84.6029930  68.2653641  46.4218825  80.7525847  79.3926920  29.9425878
  81.2650368  80.1870171  30.0931443  81.4048560  78.6953211  29.8759479
  82.5620732  82.5092677  32.0248631  82.7387360  83.4310641  31.8369615
  83.3577565  82.1951096  32.4543011  86.7031750  69.3700941  43.6232565
  87.4441464  69.9708095  43.5437027  86.9349673  68.6278579  43.0650607
  81.8473088  74.5557309  41.9010794  81.7326604  73.6542566  42.2017893
  80.9917606  74.8021005  41.5495611  88.9264926  82.4975049  43.4998295
  88.4828780  81.7111428  43.1819199  89.5882140  82.6854199  42.8342186
  83.6852047  84.0270851  38.0258973  84.2359473  83.8987914  37.2535967
  82.8463523  84.3265740  37.6753866  91.0246164  82.7777849  41.5279696
  91.0064640  83.5986730  41.0359965  91.9466084  82.6531924  41.7529837
  87.4819218  80.2921978  42.3703204  88.0147555  79.5310267  42.1402512
  86.9533300  79.9995630  43.1127359  90.6488913  65.3982044  37.8996846
  90.3053183  66.2883686  37.8235957  91.0167876  65.2083702  37.0366431
  78.7174764  77.7215575  30.7185448  79.5549986  78.1312583  30.5019156
  78.8953032  76.7815017  30.6885642  90.6139196  75.3890655  26.4069281
  90.0985820  76.1595260  26.6457669  90.3416505  74.7155792  27.0302343
  88.1986307  70.2340356  31.4654520  87.3427903  69.8447207  31.2860158
  88.6113259  70.3132317  30.6054305  89.7285454  67.7686699  35.8646079
  89.2250249  67.7316835  35.0513885  90.0216061  68.6779442  35.9242736
  85.9728340  67.8525429  34.8712261  86.8381336  67.6568238  34.5118151
  86.0405849  67.6235781  35.7981618  95.5873470  78.1423010  28.3422455
  94.8102913  77.8034170  27.8977617  96.2664951  78.1475633  27.6677420
  90.4025499  73.2617748  28.2329062  90.0975635  73.5763897  29.0839206
  91.3555941  73.3399167  28.2756395  88.8471931  79.4207971  29.8822016
  88.3193293  78.6860730  29.5695254  88.3459434  80.1982647  29.6361985
  93.8264777  77.6156991  34.9989063  93.1688452  78.3056253  35.0869191
  94.6305176  78.0053423  35.3423049  83.5790659  70.0827637  32.2428628
  84.1534411  69.8602819  31.5101821  84.1661641  70.1516332  32.9957229
  92.6370236  75.9701364  33.0493005  93.1502118  76.6031356  33.5514714
  93.2871460  75.3702560  32.6836365  83.9060246  72.1132098  26.2624513
  83.0697558  72.4506785  26.5833788  83.7665015  71.9781078  25.3251650
  85.8813326  66.9568886  30.9703697  85.2277739  66.6417903  30.3460312
  85.8393801  66.3344626  31.6963520  86.9924531  77.2388181  22.8856989
  86.0851593  77.0077435  23.0848138  87.4895563  76.4425800  23.0730971
  89.8992610  85.9485688  25.8053676  89.2254309  86.2517385  26.4138633
  90.2858432  86.7514769  25.4559133  89.1151067  73.4450820  35.2951345
  88.1973628  73.6665767  35.1373033  89.5311210  73.5197130  34.4363052
  89.8986115  74.8442235  30.4254025  90.6457934  75.3563632  30.1161147
  90.1677704  74.5226288  31.2858419  88.1712765  77.3400776  27.4080980
  87.2623984  77.0559809  27.5053449  88.2007849  77.7599855  26.5484286
  93.4032032  80.9507365  31.1772147  92.9494359  80.1098275  31.2337338
  92.7725999  81.5868764  31.5146927  92.3464952  71.8799351  32.4072815
  91.6087709  71.3676738  32.7383057  92.5991725  71.4399733  31.5956091
  91.8464971  82.7883862  32.1121965  92.1387946  83.3488919  31.3934331
  92.3563592  83.0812423  32.8675124  92.4476579  64.6575604  33.0014584
  92.7535456  63.7972967  32.7140499  93.1729184  65.2493224  32.8013578
  78.7400935  75.0606290  31.3896182  78.5425335  74.4675651  30.6647248
  78.1847599  74.7558500  32.1072121  86.7197659  74.9529397  33.5090775
  86.7746269  74.0003233  33.4333252  85.9088861  75.1088836  33.9932073
  87.8688853  78.8809520  24.7469058  87.4308282  78.1645379  24.2874696
  88.6099293  79.1085634  24.1854150  84.6590019  73.5706456  31.2681154
  83.8457884  73.8700627  31.6746346  85.1549013  73.1762145  31.9855636
  86.8098597  83.5664213  33.2015419  86.7674775  83.7925060  32.2723951
  87.7261295  83.3327588  33.3501220  90.2564230  74.0348281  40.0996048
  90.6113618  74.2619754  40.9590513  90.9036362  74.3666658  39.4773303
  95.9861967  77.1566717  30.8045377  95.8479866  77.3468313  29.8766566
  95.6298186  77.9186099  31.2613428  84.1504093  71.1424812  36.8842389
  84.7903473  71.0013571  36.1865352  83.3181624  70.8559325  36.5080991
  96.0131347  79.2243244  35.8156648  96.4467854  79.1318533  36.6639702
  96.7262928  79.2000744  35.1776664  84.9264397  80.4427242  32.9977381
  85.7204996  79.9477562  32.7959956  84.2156090  79.9145105  32.6345087
  89.7459242  82.8245338  37.3489749  89.7996264  83.3936274  38.1167465
  88.8774023  82.9947223  36.9843786  81.2347161  74.5870324  29.0737134
  80.3044749  74.5254779  29.2907096  81.3304633  74.0646277  28.2773775
  82.6257635  72.5262894  38.8314200  83.2980689  72.3180256  38.1826849
  81.7987422  72.3284980  38.3919432  96.8746897  79.2666944  38.3489534
  97.0682787  80.1712755  38.5948809  96.7747515  78.8074363  39.1828119
  88.5283207  69.1524835  40.8479861  87.8811122  69.8514785  40.7544337
  89.2984223  69.5860979  41.2156109  91.9362005  79.4173687  43.9230414
  91.7847512  79.1884239  43.0060498  91.9266685  80.3744289  43.9361759
  88.7047342  76.9905600  38.9076681  89.6339402  77.1416759  38.7345648
  88.2838372  77.0789621  38.0525327  87.5035673  81.0156264  36.6775218
  87.3646759  80.6475049  37.5501156  86.7150270  81.5303904  36.5059176
  88.0983825  86.1165361  28.0200755  88.2735581  85.6453404  28.8346378
  87.4116613  86.7431127  28.2482016  89.0540889  80.3937867  34.0664056
  88.7190721  80.3538637  34.9621706  88.5544834  79.7282583  33.5934466
  83.0285132  75.8005497  39.5916637  82.8904930  75.0685736  40.1928176
  83.9390056  75.7114397  39.3100825  91.9900080  77.7393901  24.3401116
  91.3729251  77.0140729  24.2434168  91.5216569  78.5003262  23.9968190
  85.6567433  75.5125456  39.0800317  86.3667052  74.8718648  39.0386935
  85.6136741  75.7638351  40.0026498  93.6454212  82.4492810  42.0006896
  93.5866758  81.7652030  41.3337479  94.0473730  83.1911800  41.5487522
  84.3696367  72.4990674  40.8995956  83.8333724  72.0481413  41.5517553
  83.7813076  72.6336583  40.1566421  82.6644911  89.2654723  34.7940615
  82.9041509  89.8973248  35.4719634  81.8214107  88.9142763  35.0805974
  83.7798626  71.9579326  23.4622420  82.9028092  71.8368126  23.0984667
  84.2556379  71.1665404  23.2101309  93.6471619  80.4132394  40.2320876
  92.7598398  80.0758315  40.3547275  94.2170170  79.6815425  40.4689641
  87.1772772  85.0733846  37.1982119  87.1042944  85.8788817  37.7101424
  86.7350166  85.2725812  36.3730140  86.9662552  84.3105616  30.7084941
  86.1830074  84.8527296  30.8023165  87.6655297  84.8279596  31.1079182
  90.2759202  70.1200245  33.3519146  90.7727902  69.3670208  33.0320216
  89.5046184  70.1564562  32.7862355  98.1288960  75.8240611  34.9937437
  98.1178836  76.7065326  34.6231371  97.2606339  75.4712162  34.7991974
  89.6371456  84.9720680  39.3540278  90.3499428  85.6068145  39.2816179
  89.1461485  85.0684546  38.5380279  91.3588983  78.8771933  30.9257569
  90.4245262  78.9973395  30.7562274  91.5365651  77.9744399  30.6617579
  86.8594171  72.2617628  33.0790831  86.4891959  71.7088669  33.7671736
  87.3553263  71.6575762  32.5265831  94.7461534  74.7189252  31.4607603
  95.2121986  75.5517243  31.3867906  95.1969035  74.2534233  32.1652862
  84.6883370  82.7215123  40.1745848  85.3892829  83.3551606  40.3275243
  84.2178485  83.0629855  39.4141488  92.8137765  81.0633073  28.4593756
  93.0897609  80.9489668  29.3687630  91.9442264  80.6650558  28.4205929
  92.7178197  67.0869839  35.4998505  91.8041277  67.3174066  35.6680712
  93.1471298  67.1708283  36.3512537  92.4884656  75.2759731  37.9998399
  91.8356106  75.5235638  37.3450852  92.8665035  74.4623869  37.6660876
  89.4491829  85.3119424  32.1026569  89.6314224  84.4941080  32.5654321
  90.2724815  85.5287116  31.6651459  89.7833995  84.2387609  29.3641618
  90.3121761  83.7280064  28.7511780  90.0462214  83.9230139  30.2287151
  88.5372229  76.0179542  44.4864436  87.8612866  75.9173671  45.1566811
  89.3599862  75.8618756  44.9500433  80.2851088  82.2551478  37.1076951
  80.8704524  81.5095166  37.2404855  80.0875926  82.5655435  37.9913615
  83.1389743  85.2902726  32.1239394  82.4700118  85.7748853  31.6403434
  83.0002613  85.5371946  33.0382772  87.2795011  87.3246469  38.7222052
  87.8313319  87.4878091  39.4871137  87.6201205  87.9150907  38.0502077
  81.7311777  71.7444752  42.9716971  82.3583816  71.3621829  43.5854495
  80.8739696  71.5258954  43.3372663  92.1305886  82.1507727  44.5770706
  92.6745790  82.7637685  44.0825661  91.5492731  82.7087305  45.0937719
  78.5077320  73.5521181  28.9035326  78.8030761  72.6431859  28.8502379
  77.6065356  73.5308920  28.5816328  90.4163399  85.2728445  35.7085734
  90.2914538  84.4718185  35.1996680  91.0742490  85.7674638  35.2199704
  82.0371567  71.6277177  34.8862874  81.3158153  72.2413145  34.7470348
  82.8264823  72.1634942  34.8079520  92.4798307  83.0737465  37.3365284
  91.5328643  82.9542816  37.2643611  92.8281080  82.1859963  37.4191546
  84.8397880  68.9631604  41.1603526  85.3632282  69.2093900  41.9229835
  84.6210214  69.7951639  40.7406663  80.2365162  71.2335278  29.0274651
  79.9077868  70.3532657  28.8449757  80.5904532  71.1782947  29.9151040
  89.4844740  82.8690181  33.5369636  89.3369703  81.9406889  33.7177206
  90.3098234  82.8910272  33.0526712  83.3506985  71.5208248  29.3950129
  83.6903057  72.0494170  28.6728737  83.7979105  71.8588654  30.1708695
  93.0878862  83.6918740  34.6234509  94.0125410  83.4861601  34.4858960
  92.9194166  83.4435141  35.5323851  86.0450425  69.9045299  38.8453197
  85.7047246  69.1053112  39.2473876  85.3389432  70.2047010  38.2730030
  86.6966897  66.9894611  37.2980520  87.5192967  66.5155090  37.1759410
  86.9404961  67.7685095  37.7979206  85.3375132  70.0182870  27.5943421
  86.0583494  70.3964123  27.0907138  84.7140436  70.7371747  27.6978399
  89.4806255  70.7228019  28.5301754  89.6969869  71.6052657  28.2290582
  89.0000322  70.3314232  27.8007396  84.2205476  73.6813732  35.1072498
  84.0750057  73.9954035  35.9996780  83.7430680  74.2998632  34.5543397
  86.0801859  70.6716280  35.1553388  86.0663428  69.7757373  34.8185686
  86.7974287  70.6786944  35.7891674  87.9327990  71.1053620  37.2006515
  87.6745767  72.0270691  37.1990846  87.4013030  70.7084055  37.8906979
  92.8774178  84.2104407  29.9796601  93.0511056  83.6450830  29.2270453
  93.3703070  85.0105302  29.7976091  78.6951138  76.2219076  38.0460159
  78.1504606  76.9978884  38.1780434  79.5730488  76.5689881  37.8879281
  85.4838755  69.5530660  30.4240958  85.6054666  68.6247307  30.6231845
  85.1940797  69.5669346  29.5119273  88.3529945  67.2385571  33.5607678
  88.3751642  67.3024904  32.6059657  88.7698004  66.3990079  33.7548184
  98.7313570  76.9740830  31.5986900  99.1744716  76.2248156  31.2006024
  97.8540080  76.9650967  31.2160632  93.8649351  83.5271172  27.0793499
  94.5600256  84.1477864  27.2980814  94.2072501  82.6766523  27.3545877
  79.4817160  75.3488973  40.9390316  78.7398896  75.4971608  41.5254947
  79.1609904  75.6097238  40.0757066  95.7640774  80.9770877  28.6080830
  96.2892098  81.3158150  27.8830150  95.6763127  80.0417893  28.4243964
  87.4260823  84.8904951  40.7370706  87.7347949  84.6454098  41.6093406
  88.2236305  85.0951589  40.2489577  87.4481435  87.0442861  32.9676083
  87.0086425  86.5519239  33.6608940  88.1989552  86.5015828  32.7268158
  79.9273774  83.2354401  32.9700711  80.7531794  82.9358173  32.5899354
  79.5767826  82.4662024  33.4190500  84.8955307  82.5880870  35.0398385
  84.2735316  81.9251575  34.7400612  85.5660174  82.6142002  34.3572032
  78.1282379  81.1540728  33.9289645  77.2914287  80.7262902  33.7473646
  78.1006024  81.3473171  34.8660436  84.9679834  71.0662658  44.6330891
  85.0167990  71.9424781  44.2508660  85.5102349  70.5240051  44.0602534
  95.4534680  81.6103781  43.9132028  94.6630224  81.5927920  43.3736527
  95.2168035  82.1492075  44.6681064  95.5732555  78.4596247  41.2264756
  95.6230560  78.2946255  42.1680279  95.4646478  77.5923506  40.8362637
  84.4568814  81.1384793  28.5156845  84.6056934  81.8220257  27.8623518
  85.2635257  81.1189883  29.0306301  92.8636318  74.4427175  42.5424063
  93.7646180  74.3033640  42.2508061  92.9384292  74.6081630  43.4822240
  87.1979123  71.8194030  41.3877249  86.3282432  72.1127596  41.1159838
  87.4338603  72.4034475  42.1084513  97.0750752  80.8793189  41.4706778
  96.7835560  81.2423169  42.3070239  96.4622883  80.1660197  41.2920110
  98.2746434  78.4446069  33.9909348  99.1093326  78.8835873  34.1546908
  98.4105563  77.9684722  33.1717594  95.3237940  76.0025803  39.9386836
  95.7992062  76.1953450  39.1305687  94.4003506  76.0584989  39.6930219
  82.2121447  77.1649971  29.5217914  81.9667489  76.2612301  29.7198124
  82.3817361  77.1667121  28.5797392  89.9018157  68.0373647  38.9042670
  90.4200101  68.7734674  38.5789158  89.5473289  68.3437640  39.7389429
  81.4817094  72.8978328  27.0204075  80.7886339  72.9722683  26.3644111
  81.2368846  72.1338672  27.5425592  90.1530751  64.4573930  34.4243566
  90.4332505  63.7897119  35.0503993  90.9381358  64.6503025  33.9118230
  87.9564219  83.6332923  25.9868592  87.3838186  84.2523111  25.5339064
  88.5297013  84.1832285  26.5208514  94.0239609  72.8791564  38.1715141
  94.9757032  72.9789661  38.1927365  93.8543060  72.0869832  38.6813226
  92.0453989  69.9647147  38.3574542  91.4503921  70.2452159  37.6621031
  91.7603685  70.4541048  39.1291283  91.1761479  83.9170074  27.1177175
  92.1092152  83.8515635  27.3210050  91.0884692  84.7526340  26.6591707
  93.8049496  83.2335944  24.0781122  93.7263127  82.8995808  24.9716880
  94.6259163  83.7257712  24.0772595  96.5027687  76.0997683  37.2857441
  96.4704007  75.1613684  37.4717125  97.1128311  76.1781720  36.5523266
  88.3411018  74.9693736  23.3284645  89.2870123  74.8399944  23.3973063
  87.9625263  74.2308398  23.8054073  96.6522175  72.8908727  37.3315724
  96.1361224  72.1067183  37.1445653  97.5362124  72.5627443  37.4962244
  94.3132902  66.6349742  33.2911537  94.1157724  66.3264830  34.1754869
  94.9232608  67.3611381  33.4209467 102.3204237  77.1613690  36.4263478
 103.0507625  76.8998978  36.9871181 101.7111182  76.4242412  36.4665546
 100.4019534  75.3021553  37.0237929  99.6752698  75.1677518  36.4154421
  99.9866821  75.6098381  37.8294647  88.2249710  79.0211482  44.7885302
  89.1452720  79.1990081  44.9825348  88.1899293  78.0767528  44.6365001
  86.5253935  72.8943713  23.2639530  85.6185390  72.5976825  23.3402244
  86.8029916  72.5973531  22.3973816  81.2211783  76.9312517  37.4308083
  81.4397793  77.8629625  37.4496117  81.6337557  76.5720491  38.2162887
  88.1416001  67.4380602  29.4183771  87.3316729  67.0927687  29.7939018
  88.8300418  67.1288146  30.0071383  90.0706549  66.5158649  31.0408068
  90.6237588  66.9354103  31.6998091  90.3076635  65.5894397  31.0831024
  86.0939648  72.5045723  46.8210832  85.9936375  73.4540080  46.7522923
  85.8761190  72.1763962  45.9486902  85.2952720  69.7530648  23.4051509
  86.1571884  70.0785546  23.6647327  85.4803064  68.9662144  22.8924575
  93.4485356  68.6259174  30.5486732  92.8684025  69.2843978  30.1664785
  93.1821289  67.8036519  30.1374150  91.8988922  68.0264232  32.7508053
  92.3988701  68.1380767  31.9422372  92.5424530  67.7225285  33.3908861
  85.9570918  75.9342862  45.6375894  85.4738000  76.7343222  45.8439783
  86.0431857  75.9450806  44.6843338  79.2256878  77.7671241  33.5597713
  79.2027566  77.8658929  32.6079596  79.5357514  78.6136392  33.8814879
  81.8844256  79.8247396  37.6744327  82.8387509  79.7931339  37.6074259
  81.6856779  79.3638020  38.4894553  82.4743638  78.3948512  40.2415125
  83.2936527  78.8892591  40.2649962  82.7480446  77.4780481  40.2132693
  92.2310234  70.7859265  29.6043081  91.3436089  71.0708915  29.3863275
  92.6464223  70.6253028  28.7570358  95.5824770  70.8105786  33.3197420
  96.3585160  71.3002238  33.5922037  94.8572904  71.2363840  33.7769289
  98.0197329  71.5233405  34.3771361  98.6141820  71.2829141  33.6664669
  98.0923913  70.8040535  35.0044897  80.2394485  85.3667016  34.6914525
  80.1048953  84.6067417  34.1252523  79.8226547  86.0907916  34.2243314
  91.3753448  80.5503939  23.6991101  92.0789298  80.7553942  24.3148756
  90.6516096  81.1180701  23.9640184  92.2051258  76.3013801  29.8193371
  92.1486459  76.7582352  28.9801003  92.7579600  75.5404485  29.6416214
  96.0156064  72.0903532  30.6443490  95.7592998  71.6900168  31.4751698
  95.3908932  72.8047326  30.5193629 100.3268402  74.8299606  33.1514782
  99.7667960  74.8992795  33.9246344  99.7211905  74.6540590  32.4314278
  83.3963610  86.2636333  34.9032968  83.2795995  87.2081765  34.8011658
  82.5756057  85.9609894  35.2918767  93.2840145  80.9886469  25.7489561
  94.1185749  80.5567667  25.5667035  93.1224488  80.8168482  26.6766455
  92.9386037  77.4918582  27.1145900  92.8834841  77.3262853  26.1734344
  92.3132092  78.1994615  27.2708090  77.7278552  72.7286646  40.9407322
  78.3737416  72.2185600  41.4294547  77.5195703  73.4655328  41.5150747
  90.2531944  79.7967494  46.4399463  91.1223104  79.9708146  46.0786098
  89.7738696  80.6161911  46.3175192  86.2482163  66.9926691  26.6931218
  86.2360832  67.9368531  26.8499489  87.1405585  66.8096836  26.3990680
  84.4218125  86.9164595  38.1188896  85.3245371  86.9488205  38.4355391
  84.1955495  85.9865046  38.1335232  86.1771727  85.6695581  34.7798975
  85.2267358  85.6697443  34.6663347  86.4804213  84.9228316  34.2635010
  90.0634282  63.5869467  30.9477155  89.2966678  63.0327954  31.0933838
  90.4744987  63.6591336  31.8091307  82.0676043  69.8754263  45.0382336
  82.9307505  69.5191068  45.2485661  81.4941454  69.5368158  45.7257741
 101.9124420  91.5056120  35.8444737 102.5502830  91.3862867  35.1408078
 101.7945263  92.4536964  35.9032690  98.7214126  91.4583548  35.7806262
  98.3832638  91.3424612  34.8926797  99.5903895  91.0574713  35.7607268
  94.5800942  93.3119024  31.7703153  94.0165807  93.2208961  31.0019441
  94.4653337  92.4918929  32.2505646  99.2033909  92.6118399  41.7392468
  99.1922550  92.2171198  40.8672971  99.3654549  91.8784472  42.3326239
  92.1265374  94.8070216  34.6087374  92.9186666  94.4661040  34.1933673
  92.3662024  94.9165191  35.5289527 100.1600501  96.9789992  27.0817618
  99.5088481  97.5644072  26.6951632 100.9544864  97.5096187  27.1412655
  94.0856128  94.0679129  27.4804752  94.8587004  93.5208116  27.3417628
  94.4381527  94.9323378  27.6919214  95.9241171  95.3955511  40.6871652
  95.6331036  96.3001142  40.5718318  96.5598155  95.4372039  41.4015721
  96.8497377  92.7732360  37.2773011  97.4460950  92.5488382  36.5629974
  96.9072349  92.0317105  37.8798459  96.4222406  90.2271795  25.1123202
  96.6747926  89.7053316  24.3506665  95.4846965  90.0637941  25.2149886
 101.4665689  89.2307574  32.9197945 102.2528778  88.8126997  32.5688362
 101.7304393  90.1353666  33.0879594 101.6375766  94.6680424  27.6186602
 101.0021599  94.7415050  28.3307507 101.3073172  95.2574023  26.9405682
 106.8674116  89.1682807  33.8230924 107.5999288  88.5982024  34.0568753
 106.1113471  88.7804407  34.2637430  96.1418695  92.1299901  27.3147577
  96.0254953  91.4544804  27.9828662  96.2520954  91.6432275  26.4979730
  98.4850235  91.5910048  31.0194266  98.1208443  91.0640669  31.7307188
  99.3417351  91.2008517  30.8460752 104.3899536  82.8804381  38.2825533
 104.0582861  83.7499792  38.0586748 103.7945149  82.5640665  38.9619563
  98.1255722  86.6199948  26.0155615  98.2930125  87.4880184  26.3826086
  97.9352891  86.7827230  25.0916904 100.8831056  95.0816927  37.6821445
 100.5831779  95.9841966  37.5737253 100.5382115  94.8149110  38.5342598
  94.3343537  91.5330724  33.7158150  93.4094034  91.4006938  33.9235842
  94.5827950  92.3124943  34.2128092 104.2828199  87.5999467  35.3618883
 103.3745077  87.5314875  35.0677644 104.2315795  88.0771412  36.1900708
  98.1044943  89.0757605  27.0002282  97.9844568  89.5214656  27.8387762
  97.4097532  89.4242923  26.4415820  91.6952348  91.1763997  34.5501939
  91.8244729  91.4298476  35.4641351  91.0149799  91.7691705  34.2306594
  95.8651835 101.8461247  30.6492413  95.7875865 102.7969072  30.7280894
  95.2613479 101.5007120  31.3067339  98.3569065  89.0189113  43.3053780
  97.5802399  89.5783033  43.2956645  98.9959628  89.5045896  43.8268650
 106.1489846  85.8015905  37.1396757 105.5064226  86.0948439  36.4936551
 105.6444774  85.6868826  37.9449953 103.8030009  89.5479079  27.8282616
 104.7147866  89.7806465  27.6530313 103.2939657  90.1316123  27.2657694
  96.6115437  91.8274566  42.8671747  97.3530122  92.3659610  42.5906571
  95.9052423  92.4540855  43.0243299 102.0870777  93.9703706  41.4643908
 102.4954133  93.5286117  40.7198541 101.3648039  93.3956334  41.7178101
  98.4401847  88.9076313  38.8377465  99.2863042  89.3315727  38.9812114
  98.3800485  88.2509937  39.5316028 102.4099592  94.5304897  35.2196197
 101.7808454  94.6950611  34.5172265 102.0225254  94.9446507  35.9907161
 106.2888824  95.4659335  32.5740561 105.6039862  95.8458236  32.0237594
 106.3732673  96.0754662  33.3072509 101.5901292  86.5680682  40.4958639
 101.3462224  87.3222742  39.9592915 101.8661223  86.9466029  41.3305886
 103.5439755  93.1119294  39.1735905 103.7556651  93.7551054  38.4970286
 103.4969504  92.2781610  38.7057835 101.1465984  85.7237115  36.0772477
 100.2850463  86.0218368  36.3689214 101.1728419  85.9407513  35.1453509
  97.9627554  94.2679305  32.4846282  98.4265899  94.5467008  31.6950905
  97.6984352  93.3662750  32.3019373  94.8551635  93.8150787  35.4226046
  95.4252992  94.2438055  34.7843530  95.4459747  93.5333371  36.1210231
  96.8996440  90.3902457  29.2935848  97.6020483  90.8423501  29.7609774
  96.5677068  89.7486276  29.9215741  95.3476801  88.9814214  43.6687057
  94.7175462  89.6630495  43.9022454  95.2412889  88.8697296  42.7240195
  90.6421774  88.6486010  34.5952981  89.8520828  88.9043539  34.1193092
  91.1333021  89.4634348  34.7005022 104.6585583  95.9891249  37.3458262
 105.4803027  95.5871437  37.0640944 104.6547986  95.8859483  38.2974378
  92.5936519  89.0130589  31.5536458  91.7967682  89.1249284  32.0719953
  92.3662111  89.3517242  30.6877348  98.4242187  95.5375293  39.5018972
  98.4886619  95.9995700  40.3377144  97.7153111  94.9072658  39.6301282
  88.9259477  88.9016501  37.0267972  89.1767515  89.7863511  37.2925548
  89.4619025  88.7221102  36.2543064 112.7491576  92.3329998  33.6943233
 111.9955285  91.7637396  33.5387238 112.8839117  92.2992662  34.6413868
  98.1390204  97.2043400  29.3697953  98.0035879  98.0494936  29.7982801
  98.6800017  97.4062678  28.6063887  94.6257544  83.2834980  46.0312308
  94.2324490  82.7301179  46.7059952  95.4423684  83.5945558  46.4218825
  91.5919602  94.7218838  29.9425878  92.1044122  95.5162088  30.0931443
  92.2442315  94.0245129  29.8759479  93.4014486  97.8384594  32.0248631
  93.5781115  98.7602559  31.8369615  94.1971320  97.5243014  32.4543011
  97.5425505  84.6992859  43.6232565  98.2835218  85.3000012  43.5437027
  97.7743428  83.9570497  43.0650607  92.6866843  89.8849226  41.9010794
  92.5720358  88.9834484  42.2017893  91.8311361  90.1312923  41.5495611
  99.7658681  97.8266967  43.4998295  99.3222535  97.0403345  43.1819199
 100.4275894  98.0146117  42.8342186  94.5245802  99.3562768  38.0258973
  95.0753227  99.2279832  37.2535967  93.6857278  99.6557657  37.6753866
 101.8639919  98.1069767  41.5279696 101.8458394  98.9278648  41.0359965
 102.7859839  97.9823842  41.7529837  98.3212973  95.6213896  42.3703204
  98.8541310  94.8602184  42.1402512  97.7927054  95.3287548  43.1127359
 101.4882668  80.7273962  37.8996846 101.1446937  81.6175604  37.8235957
 101.8561630  80.5375620  37.0366431  89.5568518  93.0507492  30.7185448
  90.3943740  93.4604501  30.5019156  89.7346786  92.1106935  30.6885642
 101.4532951  90.7182573  26.4069281 100.9379574  91.4887178  26.6457669
 101.1810259  90.0447709  27.0302343  99.0380062  85.5632274  31.4654520
  98.1821658  85.1739124  31.2860158  99.4507013  85.6424235  30.6054305
 100.5679208  83.0978617  35.8646079 100.0644004  83.0608752  35.0513885
 100.8609815  84.0071360  35.9242736  96.8122094  83.1817347  34.8712261
  97.6775091  82.9860156  34.5118151  96.8799603  82.9527699  35.7981618
 106.4267225  93.4714928  28.3422455 105.6496668  93.1326087  27.8977617
 107.1058706  93.4767551  27.6677420 101.2419254  88.5909665  28.2329062
 100.9369389  88.9055814  29.0839206 102.1949696  88.6691085  28.2756395
  99.6865686  94.7499889  29.8822016  99.1587047  94.0152648  29.5695254
  99.1853188  95.5274565  29.6361985 104.6658532  92.9448909  34.9989063
 104.0082206  93.6348170  35.0869191 105.4698931  93.3345341  35.3423049
  94.4184413  85.4119555  32.2428628  94.9928165  85.1894736  31.5101821
  95.0055396  85.4808249  32.9957229 103.4763990  91.2993282  33.0493005
 103.9895872  91.9323274  33.5514714 104.1265214  90.6994477  32.6836365
  94.7454000  87.4424016  26.2624513  93.9091313  87.7798702  26.5833788
  94.6058770  87.3072996  25.3251650  96.7207081  82.2860804  30.9703697
  96.0671493  81.9709821  30.3460312  96.6787555  81.6636544  31.6963520
  97.8318286  92.5680099  22.8856989  96.9245348  92.3369352  23.0848138
  98.3289318  91.7717718  23.0730971  99.9544821  88.7742737  35.2951345
  99.0367383  88.9957684  35.1373033 100.3704965  88.8489048  34.4363052
 100.7379869  90.1734153  30.4254025 101.4851688  90.6855550  30.1161147
 101.0071459  89.8518206  31.2858419  99.0106519  92.6692694  27.4080980
  98.1017739  92.3851726  27.5053449  99.0401603  93.0891772  26.5484286
 104.2425787  96.2799283  31.1772147 103.7888114  95.4390193  31.2337338
 103.6119753  96.9160682  31.5146927 103.1858706  87.2091269  32.4072815
 102.4481463  86.6968655  32.7383057 103.4385480  86.7691651  31.5956091
 102.6858726  98.1175780  32.1121965 102.9781700  98.6780837  31.3934331
 103.1957346  98.4104341  32.8675124 103.2870334  79.9867521  33.0014584
 103.5929210  79.1264885  32.7140499 104.0122938  80.5785141  32.8013578
  89.5794690  90.3898208  31.3896182  89.3819089  89.7967568  30.6647248
  89.0241354  90.0850418  32.1072121  97.5591413  90.2821314  33.5090775
  97.6140023  89.3295151  33.4333252  96.7482615  90.4380753  33.9932073
  98.7082607  94.2101437  24.7469058  98.2702037  93.4937296  24.2874696
  99.4493048  94.4377552  24.1854150  95.4983773  88.8998374  31.2681154
  94.6851639  89.1992545  31.6746346  95.9942767  88.5054063  31.9855636
  97.6492351  98.8956131  33.2015419  97.6068530  99.1216977  32.2723951
  98.5655050  98.6619506  33.3501220 101.0957985  89.3640198  40.0996048
 101.4507373  89.5911672  40.9590513 101.7430116  89.6958575  39.4773303
 106.8255722  92.4858634  30.8045377 106.6873620  92.6760230  29.8766566
 106.4691941  93.2478017  31.2613428  94.9897848  86.4716730  36.8842389
  95.6297227  86.3305489  36.1865352  94.1575379  86.1851243  36.5080991
 106.8525101  94.5535161  35.8156648 107.2861608  94.4610450  36.6639702
 107.5656682  94.5292662  35.1776664  95.7658152  95.7719160  32.9977381
  96.5598750  95.2769480  32.7959956  95.0549844  95.2437023  32.6345087
 100.5852996  98.1537255  37.3489749 100.6390019  98.7228192  38.1167465
  99.7167778  98.3239141  36.9843786  92.0740915  89.9162242  29.0737134
  91.1438503  89.8546697  29.2907096  92.1698387  89.3938194  28.2773775
  91.9926464  86.4417055  31.6615376  92.2533282  87.3562388  31.5524536
  92.8143637  85.9741497  31.8111988  93.4651390  87.8554812  38.8314200
  94.1374443  87.6472174  38.1826849  92.6381176  87.6576898  38.3919432
 107.7140651  94.5958862  38.3489534 107.9076541  95.5004673  38.5948809
 107.6141269  94.1366281  39.1828119  99.3676962  84.4816753  40.8479861
  98.7204877  85.1806702  40.7544337 100.1377977  84.9152897  41.2156109
 102.7755760  94.7465605  43.9230414 102.6241266  94.5176156  43.0060498
 102.7660439  95.7036206  43.9361759  99.5441096  92.3197518  38.9076681
 100.4733156  92.4708677  38.7345648  99.1232126  92.4081538  38.0525327
  98.3429428  96.3448182  36.6775218  98.2040514  95.9766966  37.5501156
  97.5544024  96.8595821  36.5059176  98.9377580 101.4457278  28.0200755
  99.1129336 100.9745322  28.8346378  98.2510368 102.0723045  28.2482016
  99.8934643  95.7229785  34.0664056  99.5584476  95.6830555  34.9621706
  99.3938589  95.0574501  33.5934466  93.8678887  91.1297415  39.5916637
  93.7298685  90.3977653  40.1928176  94.7783810  91.0406315  39.3100825
 102.8293835  93.0685819  24.3401116 102.2123005  92.3432647  24.2434168
 102.3610323  93.8295179  23.9968190  96.4961188  90.8417374  39.0800317
  97.2060806  90.2010566  39.0386935  96.4530496  91.0930269  40.0026498
 104.4847966  97.7784727  42.0006896 104.4260512  97.0943947  41.3337479
 104.8867485  98.5203717  41.5487522  95.2090122  87.8282592  40.8995956
  94.6727479  87.3773330  41.5517553  94.6206830  87.9628501  40.1566421
  93.5038665 104.5946641  34.7940615  93.7435263 105.2265165  35.4719634
  92.6607862 104.2434681  35.0805974  94.6192381  87.2871243  23.4622420
  93.7421847  87.1660044  23.0984667  95.0950134  86.4957322  23.2101309
 104.4865374  95.7424311  40.2320876 103.5992152  95.4050233  40.3547275
 105.0563925  95.0107342  40.4689641  86.1394521  92.0748403  33.5563927
  86.8265561  91.7610133  32.9684942  85.9842649  92.9789768  33.2831179
  90.9429243  86.9638600  37.9848951  90.8587432  86.3564269  37.2499361
  90.1211949  87.4547618  37.9858447  98.0166527 100.4025764  37.1982119
  97.9436698 101.2080735  37.7101424  97.5743920 100.6017729  36.3730140
  97.8056307  99.6397534  30.7084941  97.0223828 100.1819214  30.8023165
  98.5049052 100.1571513  31.1079182 101.1152957  85.4492163  33.3519146
 101.6121656  84.6962125  33.0320216 100.3439938  85.4856480  32.7862355
 108.9682714  91.1532529  34.9937437 108.9572590  92.0357244  34.6231371
 108.1000094  90.8004079  34.7991974 100.4765211 100.3012598  39.3540278
 101.1893183 100.9360062  39.2816179  99.9855239 100.3976464  38.5380279
 102.1982737  94.2063850  30.9257569 101.2639016  94.3265313  30.7562274
 102.3759406  93.3036317  30.6617579  97.6987925  87.5909546  33.0790831
  97.3285713  87.0380586  33.7671736  98.1947018  86.9867680  32.5265831
 105.5855289  90.0481170  31.4607603 106.0515741  90.8809161  31.3867906
 106.0362789  89.5826151  32.1652862  95.5277124  98.0507041  40.1745848
  96.2286584  98.6843524  40.3275243  95.0572239  98.3921773  39.4141488
 103.6531520  96.3924991  28.4593756 103.9291364  96.2781585  29.3687630
 102.7836019  95.9942476  28.4205929 103.5571952  82.4161757  35.4998505
 102.6435031  82.6465983  35.6680712 103.9865053  82.5000201  36.3512537
 103.3278410  90.6051649  37.9998399 102.6749860  90.8527556  37.3450852
 103.7058790  89.7915787  37.6660876 100.2885584 100.6411342  32.1026569
 100.4707978  99.8232998  32.5654321 101.1118570 100.8579034  31.6651459
 100.6227749  99.5679527  29.3641618 101.1515516  99.0571981  28.7511780
 100.8855969  99.2522057  30.2287151  99.3765983  91.3471460  44.4864436
  98.7006620  91.2465589  45.1566811 100.1993617  91.1910673  44.9500433
  91.1244842  97.5843396  37.1076951  91.7098279  96.8387084  37.2404855
  90.9269681  97.8947353  37.9913615  93.9783497 100.6194644  32.1239394
  93.3093873 101.1040771  31.6403434  93.8396367 100.8663864  33.0382772
  85.7162497  90.1548996  35.8281394  85.7546596  89.6212587  36.6218512
  85.2102790  89.6284202  35.2092371  98.1188766 102.6538387  38.7222052
  98.6707074 102.8170009  39.4871137  98.4594959 103.2442825  38.0502077
  93.0953259  85.0013537  39.3243937  93.1594586  85.8628368  38.9121334
  93.0320379  84.3887539  38.5916295  92.5705532  87.0736669  42.9716971
  93.1977570  86.6913747  43.5854495  91.7133451  86.8550871  43.3372663
 102.9699640  97.4799645  44.5770706 103.5139544  98.0929603  44.0825661
 102.3886485  98.0379223  45.0937719  89.3471074  88.8813099  28.9035326
  89.6424515  87.9723777  28.8502379  88.4459110  88.8600838  28.5816328
 101.2557153 100.6020363  35.7085734 101.1308293  99.8010102  35.1996680
 101.9136244 101.0966556  35.2199704  92.8765321  86.9569095  34.8862874
  92.1551907  87.5705063  34.7470348  93.6658577  87.4926860  34.8079520
 103.3192062  98.4029383  37.3365284 102.3722397  98.2834734  37.2643611
 103.6674835  97.5151881  37.4191546  95.6791635  84.2923522  41.1603526
  96.2026037  84.5385818  41.9229835  95.4603968  85.1243556  40.7406663
  91.0758916  86.5627196  29.0274651  90.7471622  85.6824575  28.8449757
  91.4298287  86.5074865  29.9151040 100.3238495  98.1982099  33.5369636
 100.1763457  97.2698806  33.7177206 101.1491988  98.2202190  33.0526712
  94.1900739  86.8500166  29.3950129  94.5296812  87.3786087  28.6728737
  94.6372860  87.1880572  30.1708695 103.9272617  99.0210658  34.6234509
 104.8519164  98.8153519  34.4858960 103.7587920  98.7727059  35.5323851
  96.8844180  85.2337217  38.8453197  96.5441000  84.4345030  39.2473876
  96.1783186  85.5338928  38.2730030  97.5360652  82.3186529  37.2980520
  98.3586721  81.8447007  37.1759410  97.7798715  83.0977013  37.7979206
  96.1768886  85.3474788  27.5943421  96.8977249  85.7256040  27.0907138
  95.5534190  86.0663664  27.6978399 100.3200009  86.0519937  28.5301754
 100.5363624  86.9344574  28.2290582  99.8394076  85.6606150  27.8007396
  95.0599231  89.0105650  35.1072498  94.9143811  89.3245953  35.9996780
  94.5824434  89.6290550  34.5543397  96.9195613  86.0008198  35.1553388
  96.9057182  85.1049291  34.8185686  97.6368042  86.0078861  35.7891674
  98.7721744  86.4345538  37.2006515  98.5139522  87.3562609  37.1990846
  98.2406785  86.0375972  37.8906979 103.7167933  99.5396325  29.9796601
 103.8904810  98.9742748  29.2270453 104.2096824 100.3397220  29.7976091
  89.5344893  91.5510994  38.0460159  88.9898361  92.3270802  38.1780434
  90.4124243  91.8981799  37.8879281  96.3232509  84.8822578  30.4240958
  96.4448421  83.9539224  30.6231845  96.0334552  84.8961264  29.5119273
  99.1923700  82.5677488  33.5607678  99.2145397  82.6316822  32.6059657
  99.6091759  81.7281997  33.7548184 109.5707324  92.3032748  31.5986900
 110.0138470  91.5540073  31.2006024 108.6933834  92.2942884  31.2160632
 104.7043105  98.8563089  27.0793499 105.3994010  99.4769782  27.2980814
 105.0466256  98.0058441  27.3545877  90.3210915  90.6780890  40.9390316
  89.5792651  90.8263526  41.5254947  90.0003659  90.9389156  40.0757066
 106.6034529  96.3062795  28.6080830 107.1285853  96.6450068  27.8830150
 106.5156881  95.3709810  28.4243964  98.2654577 100.2196869  40.7370706
  98.5741704  99.9746015  41.6093406  99.0630059 100.4243507  40.2489577
  98.2875189 102.3734778  32.9676083  97.8480180 101.8811157  33.6608940
  99.0383306 101.8307746  32.7268158  90.7667528  98.5646319  32.9700711
  91.5925548  98.2650091  32.5899354  90.4161580  97.7953942  33.4190500
  95.7349061  97.9172787  35.0398385  95.1129071  97.2543492  34.7400612
  96.4053928  97.9433919  34.3572032  88.9676133  96.4832646  33.9289645
  88.1308042  96.0554820  33.7473646  88.9399779  96.6765089  34.8660436
  95.8073589  86.3954575  44.6330891  95.8561744  87.2716698  44.2508660
  96.3496103  85.8531968  44.0602534 106.2928435  96.9395699  43.9132028
 105.5023978  96.9219837  43.3736527 106.0561789  97.4783992  44.6681064
 106.4126310  93.7888165  41.2264756 106.4624315  93.6238172  42.1680279
 106.3040233  92.9215424  40.8362637  95.2962568  96.4676711  28.5156845
  95.4450689  97.1512175  27.8623518  96.1029012  96.4481801  29.0306301
 103.7030072  89.7719093  42.5424063 104.6039935  89.6325558  42.2508061
 103.7778047  89.9373548  43.4822240  98.0372877  87.1485948  41.3877249
  97.1676187  87.4419514  41.1159838  98.2732358  87.7326393  42.1084513
 107.9144506  96.2085107  41.4706778 107.6229315  96.5715087  42.3070239
 107.3016638  95.4952115  41.2920110 109.1140189  93.7737986  33.9909348
 109.9487080  94.2127790  34.1546908 109.2499318  93.2976640  33.1717594
 106.1631695  91.3317721  39.9386836 106.6385816  91.5245367  39.1305687
 105.2397260  91.3876907  39.6930219  93.0515201  92.4941888  29.5217914
  92.8061243  91.5904218  29.7198124  93.2211116  92.4959039  28.5797392
 100.7411911  83.3665565  38.9042670 101.2593855  84.1026592  38.5789158
 100.3867044  83.6729558  39.7389429  92.3210849  88.2270246  27.0204075
  91.6280094  88.3014601  26.3644111  92.0762601  87.4630590  27.5425592
 100.9924505  79.7865847  34.4243566 101.2726259  79.1189036  35.0503993
 101.7775112  79.9794943  33.9118230  98.7957974  98.9624841  25.9868592
  98.2231941  99.5815028  25.5339064  99.3690768  99.5124203  26.5208514
 104.8633364  88.2083481  38.1715141 105.8150787  88.3081579  38.1927365
 104.6936814  87.4161750  38.6813226 102.8847743  85.2939064  38.3574542
 102.2897675  85.5744077  37.6621031 102.5997440  85.7832965  39.1291283
 102.0155234  99.2461991  27.1177175 102.9485907  99.1807553  27.3210050
 101.9278446 100.0818258  26.6591707 107.3421441  91.4289601  37.2857441
 107.3097762  90.4905602  37.4717125 107.9522065  91.5073638  36.5523266
  99.1804772  90.2985654  23.3284645 100.1263877  90.1691862  23.3973063
  98.8019017  89.5600316  23.8054073 107.4915930  88.2200644  37.3315724
 106.9754979  87.4359101  37.1445653 108.3755879  87.8919361  37.4962244
 105.1526657  81.9641660  33.2911537 104.9551478  81.6556748  34.1754869
 105.7626362  82.6903299  33.4209467 113.1597991  92.4905608  36.4263478
 113.8901380  92.2290896  36.9871181 112.5504937  91.7534330  36.4665546
 111.2413288  90.6313470  37.0237929 110.5146452  90.4969435  36.4154421
 110.8260575  90.9390299  37.8294647  99.0643465  94.3503400  44.7885302
  99.9846474  94.5281999  44.9825348  99.0293048  93.4059445  44.6365001
  97.3647690  88.2235630  23.2639530  96.4579145  87.9268743  23.3402244
  97.6423671  87.9265448  22.3973816  88.2825630  89.5441994  33.7138577
  87.9628414  88.6907302  33.4212951  87.7359058  89.7590572  34.4696544
  92.0605537  92.2604435  37.4308083  92.2791547  93.1921543  37.4496117
  92.4731311  91.9012409  38.2162887  98.9809755  82.7672520  29.4183771
  98.1710484  82.4219605  29.7939018  99.6694172  82.4580064  30.0071383
 100.9100304  81.8450567  31.0408068 101.4631342  82.2646020  31.6998091
 101.1470390  80.9186315  31.0831024  96.9333403  87.8337640  46.8210832
  96.8330130  88.7831997  46.7522923  96.7154945  87.5055879  45.9486902
  96.1346474  85.0822566  23.4051509  96.9965638  85.4077464  23.6647327
  96.3196818  84.2954061  22.8924575  88.1513890  93.1644905  35.6831698
  87.4577361  92.7498858  35.1701653  88.8986881  93.2065442  35.0865117
 104.2879111  83.9551092  30.5486732 103.7077780  84.6135896  30.1664785
 104.0215043  83.1328437  30.1374150 102.7382677  83.3556150  32.7508053
 103.2382455  83.4672684  31.9422372 103.3818285  83.0517203  33.3908861
  96.7964673  91.2634779  45.6375894  96.3131755  92.0635139  45.8439783
  96.8825612  91.2742724  44.6843338  90.0650632  93.0963159  33.5597713
  90.0421321  93.1950846  32.6079596  90.3751269  93.9428310  33.8814879
  92.7238010  95.1539314  37.6744327  93.6781264  95.1223256  37.6074259
  92.5250534  94.6929938  38.4894553  93.3137392  93.7240430  40.2415125
  94.1330281  94.2184509  40.2649962  93.5874200  92.8072398  40.2132693
 103.0703989  86.1151182  29.6043081 102.1829844  86.4000833  29.3863275
 103.4857978  85.9544946  28.7570358 106.4218525  86.1397703  33.3197420
 107.1978915  86.6294156  33.5922037 105.6966659  86.5655758  33.7769289
 108.8591083  86.8525323  34.3771361 109.4535574  86.6121059  33.6664669
 108.9317667  86.1332453  35.0044897  91.0788239 100.6958933  34.6914525
  90.9442707  99.9359334  34.1252523  90.6620301 101.4199833  34.2243314
 103.0445012  91.6305718  29.8193371 102.9880214  92.0874270  28.9801003
 103.5973355  90.8696403  29.6416214 106.8549818  87.4195450  30.6443490
 106.5986753  87.0192086  31.4751698 106.2302686  88.1339244  30.5193629
 111.1662156  90.1591523  33.1514782 110.6061714  90.2284713  33.9246344
 110.5605660  89.9832508  32.4314278  94.2357365 101.5928251  34.9032968
  94.1189749 102.5373683  34.8011658  93.4149811 101.2901812  35.2918767
 104.1233900  96.3178386  25.7489561 104.9579503  95.8859585  25.5667035
 103.9618242  96.1460400  26.6766455 103.7779792  92.8210500  27.1145900
 103.7228595  92.6554771  26.1734344 103.1525847  93.5286532  27.2708090
  88.5672307  88.0578564  40.9407322  89.2131170  87.5477518  41.4294547
  88.3589458  88.7947246  41.5150747 101.0925699  95.1259411  46.4399463
 101.9616858  95.3000064  46.0786098 100.6132450  95.9453828  46.3175192
  97.0875917  82.3218609  26.6931218  97.0754587  83.2660448  26.8499489
  97.9799339  82.1388754  26.3990680  95.2611879 102.2456512  38.1188896
  96.1639126 102.2780123  38.4355391  95.0349249 101.3156963  38.1335232
  97.0165481 100.9987499  34.7798975  96.0661112 100.9989361  34.6663347
  97.3197967 100.2520234  34.2635010 100.9028037  78.9161385  30.9477155
 100.1360432  78.3619872  31.0933838 101.3138742  78.9883254  31.8091307
  92.9069798  85.2046181  45.0382336  93.7701259  84.8482986  45.2485661
  92.3335208  84.8660076  45.7257741 112.7518175 106.8348037  35.8444737
 113.3896585 106.7154785  35.1408078 112.6339017 107.7828881  35.9032690
 109.5607881 106.7875465  35.7806262 109.2226392 106.6716530  34.8926797
 110.4297649 106.3866631  35.7607268 110.0427664 107.9410317  41.7392468
 110.0316305 107.5463115  40.8672971 110.2048303 107.2076390  42.3326239
 102.9659129 110.1362133  34.6087374 103.7580420 109.7952958  34.1933673
 103.2055779 110.2457108  35.5289527 106.7634925 110.7247429  40.6871652
 106.4724791 111.6293060  40.5718318 107.3991909 110.7663957  41.4015721
 107.6891132 108.1024277  37.2773011 108.2854704 107.8780300  36.5629974
 107.7466103 107.3609023  37.8798459 115.2293291  98.2096298  38.2825533
 114.8976615  99.0791709  38.0586748 114.6338904  97.8932582  38.9619563
 105.1737292 106.8622641  33.7158150 104.2487788 106.7298855  33.9235842
 105.4221705 107.6416861  34.2128092 115.1221954 102.9291385  35.3618883
 114.2138831 102.8606793  35.0677644 115.0709550 103.4063330  36.1900708
 102.5346103 106.5055915  34.5501939 102.6638484 106.7590394  35.4641351
 101.8543554 107.0983623  34.2306594 109.1962820 104.3481030  43.3053780
 108.4196154 104.9074950  43.2956645 109.8353383 104.8337813  43.8268650
 116.9883600 101.1307823  37.1396757 116.3457981 101.4240356  36.4936551
 116.4838529 101.0160743  37.9449953 107.4509192 107.1566484  42.8671747
 108.1923876 107.6951528  42.5906571 106.7446177 107.7832772  43.0243299
 112.9264532 109.2995624  41.4643908 113.3347888 108.8578035  40.7198541
 112.2041793 108.7248252  41.7178101 109.2795602 104.2368231  38.8377465
 110.1256797 104.6607644  38.9812114 109.2194239 103.5801855  39.5316028
 112.4295047 101.8972599  40.4958639 112.1855979 102.6514660  39.9592915
 112.7054977 102.2757947  41.3305886 111.9859739 101.0529032  36.0772477
 111.1244218 101.3510286  36.3689214 112.0122173 101.2699431  35.1453509
 105.6945389 109.1442704  35.4226046 106.2646746 109.5729973  34.7843530
 106.2853501 108.8625289  36.1210231 106.1870556 104.3106132  43.6687057
 105.5569216 104.9922413  43.9022454 106.0806644 104.1989213  42.7240195
 101.4815528 103.9777928  34.5952981 100.6914582 104.2335456  34.1193092
 101.9726776 104.7926266  34.7005022 103.4330274 104.3422507  31.5536458
 102.6361437 104.4541201  32.0719953 103.2055866 104.6809159  30.6877348
 109.2635941 110.8667210  39.5018972 109.3280374 111.3287618  40.3377144
 108.5546865 110.2364575  39.6301282  99.7653231 104.2308418  37.0267972
 100.0161270 105.1155428  37.2925548 100.3012780 104.0513020  36.2543064
 105.4651298  98.6126898  46.0312308 105.0718244  98.0593096  46.7059952
 106.2817439  98.9237476  46.4218825 108.3819259 100.0284777  43.6232565
 109.1228973 100.6291930  43.5437027 108.6137182  99.2862415  43.0650607
 103.5260597 105.2141144  41.9010794 103.4114113 104.3126401  42.2017893
 102.6705115 105.4604841  41.5495611 105.3639556 114.6854686  38.0258973
 105.9146981 114.5571749  37.2535967 104.5251032 114.9849575  37.6753866
 109.1606727 110.9505814  42.3703204 109.6935064 110.1894102  42.1402512
 108.6320809 110.6579466  43.1127359 112.3276422  96.0565880  37.8996846
 111.9840692  96.9467521  37.8235957 112.6955385  95.8667537  37.0366431
 109.8773816 100.8924192  31.4654520 109.0215412 100.5031042  31.2860158
 110.2900768 100.9716152  30.6054305 111.4072963  98.4270535  35.8646079
 110.9037758  98.3900670  35.0513885 111.7003570  99.3363278  35.9242736
 107.6515849  98.5109265  34.8712261 108.5168845  98.3152073  34.5118151
 107.7193358  98.2819616  35.7981618 105.2578168 100.7411472  32.2428628
 105.8321920 100.5186654  31.5101821 105.8449150 100.8100167  32.9957229
 107.5600835  97.6152721  30.9703697 106.9065248  97.3001739  30.3460312
 107.5181310  96.9928462  31.6963520 110.7938576 104.1034655  35.2951345
 109.8761137 104.3249602  35.1373033 111.2098719 104.1780965  34.4363052
 114.1264088  95.3159439  33.0014584 114.4322965  94.4556802  32.7140499
 114.8516693  95.9077059  32.8013578 100.4188444 105.7190125  31.3896182
 100.2212844 105.1259486  30.6647248  99.8635108 105.4142336  32.1072121
 108.3985168 105.6113232  33.5090775 108.4533778 104.6587068  33.4333252
 107.5876370 105.7672671  33.9932073 106.3377528 104.2290292  31.2681154
 105.5245393 104.5284462  31.6746346 106.8336522 103.8345980  31.9855636
 111.9351739 104.6932116  40.0996048 112.2901127 104.9203589  40.9590513
 112.5823871 105.0250493  39.4773303 105.8291602 101.8008647  36.8842389
 106.4690982 101.6597406  36.1865352 104.9969133 101.5143161  36.5080991
 102.8320219 101.7708972  31.6615376 103.0927036 102.6854305  31.5524536
 103.6537391 101.3033415  31.8111988 104.3045144 103.1846729  38.8314200
 104.9768198 102.9764091  38.1826849 103.4774931 102.9868815  38.3919432
 110.2070716  99.8108670  40.8479861 109.5598631 100.5098620  40.7544337
 110.9771732 100.2444814  41.2156109 110.3834851 107.6489435  38.9076681
 111.3126911 107.8000595  38.7345648 109.9625881 107.7373456  38.0525327
 109.1823182 111.6740100  36.6775218 109.0434268 111.3058884  37.5501156
 108.3937779 112.1887739  36.5059176 104.7072641 106.4589332  39.5916637
 104.5692439 105.7269571  40.1928176 105.6177565 106.3698232  39.3100825
 107.3354942 106.1709292  39.0800317 108.0454561 105.5302484  39.0386935
 107.2924250 106.4222186  40.0026498 106.0483876 103.1574510  40.8995956
 105.5121233 102.7065248  41.5517553 105.4600585 103.2920418  40.1566421
  96.9788275 107.4040321  33.5563927  97.6659315 107.0902051  32.9684942
  96.8236404 108.3081685  33.2831179 101.7822997 102.2930517  37.9848951
 101.6981186 101.6856187  37.2499361 100.9605704 102.7839536  37.9858447
 111.9546711 100.7784081  33.3519146 112.4515411 100.0254043  33.0320216
 111.1833693 100.8148397  32.7862355 108.5381680 102.9201464  33.0790831
 108.1679467 102.3672504  33.7671736 109.0340772 102.3159597  32.5265831
 106.3670879 113.3798959  40.1745848 107.0680338 114.0135442  40.3275243
 105.8965994 113.7213690  39.4141488 114.3965706  97.7453674  35.4998505
 113.4828786  97.9757901  35.6680712 114.8258807  97.8292118  36.3512537
 114.1672164 105.9343566  37.9998399 113.5143615 106.1819474  37.3450852
 114.5452544 105.1207704  37.6660876 110.2159738 106.6763377  44.4864436
 109.5400375 106.5757507  45.1566811 111.0387371 106.5202591  44.9500433
 101.9638597 112.9135314  37.1076951 102.5492033 112.1679002  37.2404855
 101.7663435 113.2239271  37.9913615  96.5556251 105.4840914  35.8281394
  96.5940351 104.9504505  36.6218512  96.0496544 104.9576120  35.2092371
 103.9347014 100.3305455  39.3243937 103.9988340 101.1920285  38.9121334
 103.8714134  99.7179456  38.5916295 103.4099286 102.4028587  42.9716971
 104.0371325 102.0205664  43.5854495 102.5527205 102.1842789  43.3372663
 100.1864829 104.2105016  28.9035326 100.4818270 103.3015695  28.8502379
  99.2852865 104.1892756  28.5816328 103.7159076 102.2861013  34.8862874
 102.9945662 102.8996980  34.7470348 104.5052332 102.8218778  34.8079520
 106.5185389  99.6215439  41.1603526 107.0419791  99.8677736  41.9229835
 106.2997723 100.4535474  40.7406663 101.9152670 101.8919114  29.0274651
 101.5865377 101.0116493  28.8449757 102.2692041 101.8366783  29.9151040
 107.7237934 100.5629134  38.8453197 107.3834755  99.7636947  39.2473876
 107.0176941 100.8630845  38.2730030 108.3754406  97.6478447  37.2980520
 109.1980476  97.1738925  37.1759410 108.6192470  98.4268931  37.7979206
 105.8992985 104.3397567  35.1072498 105.7537566 104.6537870  35.9996780
 105.4218189 104.9582468  34.5543397 107.7589368 101.3300115  35.1553388
 107.7450937 100.4341209  34.8185686 108.4761796 101.3370779  35.7891674
 109.6115499 101.7637456  37.2006515 109.3533276 102.6854526  37.1990846
 109.0800539 101.3667890  37.8906979 100.3738647 106.8802912  38.0460159
  99.8292115 107.6562720  38.1780434 101.2517997 107.2273716  37.8879281
 107.1626264 100.2114496  30.4240958 107.2842175  99.2831142  30.6231845
 106.8728306 100.2253182  29.5119273 110.0317454  97.8969406  33.5607678
 110.0539151  97.9608739  32.6059657 110.4485513  97.0573915  33.7548184
 101.1604669 106.0072808  40.9390316 100.4186405 106.1555443  41.5254947
 100.8397413 106.2681074  40.0757066  99.8069888 111.8124563  33.9289645
  98.9701796 111.3846738  33.7473646  99.7793533 112.0057007  34.8660436
 106.6467343 101.7246493  44.6330891 106.6955499 102.6008616  44.2508660
 107.1889858 101.1823886  44.0602534 114.5423827 105.1011011  42.5424063
 115.4433689 104.9617476  42.2508061 114.6171801 105.2665466  43.4822240
 108.8766632 102.4777865  41.3877249 108.0069941 102.7711432  41.1159838
 109.1126112 103.0618310  42.1084513 111.5805666  98.6957482  38.9042670
 112.0987610  99.4318509  38.5789158 111.2260798  99.0021476  39.7389429
 111.8318260  95.1157765  34.4243566 112.1120014  94.4480954  35.0503993
 112.6168867  95.3086861  33.9118230 115.7027118 103.5375399  38.1715141
 116.6544541 103.6373497  38.1927365 115.5330569 102.7453667  38.6813226
 113.7241498 100.6230982  38.3574542 113.1291430 100.9035995  37.6621031
 113.4391194 101.1124883  39.1291283 118.3309684 103.5492562  37.3315724
 117.8148733 102.7651019  37.1445653 119.2149633 103.2211279  37.4962244
 115.9920411  97.2933578  33.2911537 115.7945233  96.9848666  34.1754869
 116.6020117  98.0195217  33.4209467 109.9037219 109.6795318  44.7885302
 110.8240229 109.8573917  44.9825348 109.8686802 108.7351363  44.6365001
  99.1219384 104.8733911  33.7138577  98.8022169 104.0199220  33.4212951
  98.5752813 105.0882490  34.4696544 102.8999292 107.5896352  37.4308083
 103.1185302 108.5213460  37.4496117 103.3125066 107.2304327  38.2162887
 109.8203510  98.0964438  29.4183771 109.0104238  97.7511523  29.7939018
 110.5087927  97.7871981  30.0071383 111.7494058  97.1742484  31.0408068
 112.3025097  97.5937938  31.6998091 111.9864144  96.2478233  31.0831024
 107.7727157 103.1629558  46.8210832 107.6723884 104.1123915  46.7522923
 107.5548699 102.8347797  45.9486902  98.9907644 108.4936823  35.6831698
  98.2971116 108.0790776  35.1701653  99.7380635 108.5357359  35.0865117
 113.5776431  98.6848067  32.7508053 114.0776210  98.7964602  31.9422372
 114.2212039  98.3809120  33.3908861 107.6358427 106.5926697  45.6375894
 107.1525509 107.3927057  45.8439783 107.7219366 106.6034642  44.6843338
 100.9044387 108.4255077  33.5597713 100.8815075 108.5242764  32.6079596
 101.2145023 109.2720227  33.8814879 103.5631765 110.4831232  37.6744327
 104.5175018 110.4515174  37.6074259 103.3644288 110.0221855  38.4894553
 104.1531147 109.0532348  40.2415125 104.9724036 109.5476426  40.2649962
 104.4267955 108.1364316  40.2132693  99.4066061 103.3870482  40.9407322
 100.0524925 102.8769436  41.4294547  99.1983212 104.1239163  41.5150747
 111.7421791  94.2453303  30.9477155 110.9754187  93.6911790  31.0933838
 112.1532496  94.3175172  31.8091307 103.7463552 100.5338099  45.0382336
 104.6095014 100.1774904  45.2485661 103.1728963 100.1951993  45.7257741
  50.2879195  -1.8612738  28.7252203  50.2291741  -2.5453518  28.0582786
  50.6898714  -1.1193748  28.2732829  48.7730869  -2.1597821  31.3016013
  49.3170773  -1.5467863  30.8070968  48.1917714  -1.6018243  31.8183026
  52.0959663  -2.7001767  30.6377334  51.3055207  -2.7177628  30.0981834
  51.8593018  -2.1613473  31.3926371  53.7175735  -3.4312359  28.1952084
  53.4260544  -3.0682379  29.0315545  53.1047867  -4.1445351  28.0165416
  46.8956928  -4.5138054  33.1644769  47.7648087  -4.3397402  32.8031404
  46.4163679  -3.6943638  33.0420499  58.5549403   7.1950572  22.5690044
  59.1927813   7.0757319  21.8653384  58.4370246   8.1431416  22.6277996
  55.3639110   7.1478000  22.5051569  55.0257621   7.0319064  21.6172104
  56.2328878   6.7469165  22.4852575  55.8458893   8.3012851  28.4637774
  55.8347533   7.9065650  27.5918278  56.0079532   7.5678924  29.0571546
  48.7690357  10.4964668  21.3332680  49.5611649  10.1555492  20.9178979
  49.0087007  10.6059643  22.2534833  52.5666154  11.0849963  27.4116958
  52.2756020  11.9895594  27.2963625  53.2023138  11.1266491  28.1261028
  53.4922361   8.4626812  24.0018318  54.0885933   8.2382834  23.2875281
  53.5497332   7.7211557  24.6043766  63.5099099   4.8577259  20.5476231
  64.2424271   4.2876475  20.7814060  62.7538455   4.4698859  20.9882736
  61.0324519  -1.4301167  25.0070839  60.7007844  -0.5605756  24.7832054
  60.4370133  -1.7464883  25.6864870  57.5256039  10.7711379  24.4066752
  57.2256762  11.6736418  24.2982559  57.1807098  10.5043562  25.2587905
  60.9253183   3.2893919  22.0864189  60.0170060   3.2209327  21.7922950
  60.8740778   3.7665864  22.9146015  52.5076819  17.5355699  17.3737720
  52.4300848  18.4863524  17.4526200  51.9038462  17.1901572  18.0312646
  54.9994048   4.7083564  30.0299087  54.2227383   5.2677485  30.0201951
  55.6384612   5.1940347  30.5513957  62.7914829   1.4910357  23.8642063
  62.1489209   1.7842890  23.2181858  62.2869758   1.3763278  24.6695260
  53.2540421   7.5169018  29.5917054  53.9955105   8.0554062  29.3151877
  52.5477406   8.1435307  29.7488605  58.7295760   9.6598158  28.1889215
  59.1379116   9.2180569  27.4443847  58.0073022   9.0850786  28.4423408
  55.0826830   4.5970765  25.5622772  55.9288026   5.0210179  25.7057421
  55.0225468   3.9404389  26.2561335  59.0524575  10.2199349  21.9441504
  58.4233438  10.3845063  21.2417572  58.6650237  10.6340958  22.7152468
  62.9313807  11.1553787  19.2985868  62.2464845  11.5352688  18.7482901
  63.0157656  11.7649113  20.0317815  58.2326276   2.2575133  27.2203946
  57.9887208   3.0117194  26.6838221  58.5086206   2.6360481  28.0551193
  60.1864739   8.8013746  25.8981211  60.3981634   9.4445506  25.2215592
  60.1394487   7.9676062  25.4303141  51.4976618   9.5045239  22.1471352
  52.0677975   9.9332507  21.5088837  52.0884730   9.2227823  22.8455538
  51.9901785   4.6708666  30.3932364  51.3600445   5.3524947  30.6267760
  51.8837872   4.5591748  29.4485502  61.3010567  11.6785701  24.0703569
  62.1228010  11.2765888  23.7886250  61.2972969  11.5753935  25.0219684
  55.0667170  11.2269745  26.2264279  55.1311602  11.6890152  27.0622451
  54.3578094  10.5967109  26.3546589  69.3916560   8.0224450  20.4188540
  68.6380268   7.4531848  20.2632544  69.5264101   7.9887114  21.3659175
  51.2682527  -1.0270568  32.7557615  50.8749473  -1.5804370  33.4305259
  52.0848668  -0.7159990  33.1464132  50.0439470  13.5279046  18.7493938
  50.2206098  14.4497011  18.5614922  50.8396303  13.2137466  19.1788317
  54.1850488   0.3887311  30.3477871  54.9260202   0.9894464  30.2682334
  54.4168411  -0.3535051  29.7895914  49.3291826   5.5743678  28.6256101
  49.2145341   4.6728935  28.9263200  48.4736344   5.8207375  28.2740917
  56.4083664  13.5161419  30.2243601  55.9647518  12.7297797  29.9064506
  57.0700878  13.7040569  29.5587492  51.1670785  15.0457220  24.7504280
  51.7178210  14.9174283  23.9781274  50.3282261  15.3452109  24.3999173
  58.5064902  13.7964218  28.2525003  58.4883377  14.6173099  27.7605272
  59.4284822  13.6718294  28.4775144  54.9637956  11.3108348  29.0948511
  55.4966293  10.5496636  28.8647819  54.4352037  11.0182000  29.8372666
  61.3083515   8.6343361  21.7234369  60.6507189   9.3242622  21.8114498
  62.1123914   9.0239793  22.0668356  60.1188974   6.9887734  19.7738311
  60.6320855   7.6217725  20.2760021  60.7690198   6.3888929  19.4081671
  56.5969805   4.4637189  22.0196652  55.6792366   4.6852136  21.8618340
  57.0129948   4.5383500  21.1608359  60.8850770  11.9693735  17.9017454
  60.4313097  11.1284645  17.9582644  60.2544737  12.6055133  18.2392234
  59.3283709  13.8070232  18.8367272  59.6206684  14.3675289  18.1179638
  59.8382330  14.0998793  19.5920431  54.2917334  14.5850583  19.9260725
  54.2493513  14.8111429  18.9969257  55.2080033  14.3513957  20.0746526
  57.7382968   5.0534650  26.8241354  58.0932356   5.2806123  27.6835820
  58.3855099   5.3853027  26.2018610  63.4680705   8.1753086  17.5290683
  63.3298604   8.3654682  16.6011873  63.1116924   8.9372469  17.9858735
  63.4950085  10.2429613  22.5401955  63.9286591  10.1504902  23.3885009
  64.2081665  10.2187114  21.9021971  57.2277980  13.8431707  24.0735055
  57.2815002  14.4122644  24.8412771  56.3592761  14.0133592  23.7089093
  50.1076373   3.5449264  25.5559507  50.7799426   3.3366626  24.9072156
  49.2806160   3.3471350  25.1164739  64.3565634  10.2853314  25.0734840
  64.5501524  11.1899124  25.3194115  64.2566252   9.8260733  25.9073425
  56.0101945   0.1711204  27.5725168  55.3629860   0.8701154  27.4789644
  56.7802960   0.6047348  27.9401416  59.4180743  10.4360057  30.6475721
  59.2666249  10.2070608  29.7305805  59.4085422  11.3930658  30.6607066
  56.1866079   8.0091969  25.6321987  57.1158139   8.1603129  25.4590955
  55.7657109   8.0975990  24.7770634  54.9854411  12.0342634  23.4020525
  54.8465497  11.6661418  24.2746463  54.1969007  12.5490273  23.2304483
  55.5802563  17.1351730  14.7446061  55.7554319  16.6639773  15.5591684
  54.8935351  17.7617496  14.9727322  56.5359626  11.4124236  20.7909363
  56.2009459  11.3725006  21.6867013  56.0363572  10.7468952  20.3179773
  50.5103870   6.8191867  26.3161944  50.3723668   6.0872105  26.9173483
  51.4208794   6.7300767  26.0346132  53.1386171   6.5311826  25.8045624
  53.8485789   5.8905018  25.7632242  53.0955479   6.7824721  26.7271804
  61.1272950  13.4679179  28.7252203  61.0685496  12.7838399  28.0582786
  61.5292468  14.2098169  28.2732829  51.8515105   3.5177044  27.6241263
  51.3152462   3.0667782  28.2762859  51.2631813   3.6522953  26.8811727
  50.1463648  20.2841093  21.5185922  50.3860247  20.9159617  22.1964940
  49.3032845  19.9329133  21.8051281  61.1290357  11.4318763  26.9566182
  60.2417136  11.0944685  27.0792581  61.6988908  10.7001794  27.1934948
  54.6591510  16.0920215  23.9227426  54.5861682  16.8975187  24.4346730
  54.2168903  16.2912181  23.0975447  54.4481290  15.3291986  17.4330247
  53.6648812  15.8713666  17.5268472  55.1474035  15.8465965  17.8324488
  65.6107697   6.8426980  21.7182744  65.5997574   7.7251696  21.3476677
  64.7425077   6.4898531  21.5237281  57.1190194  15.9907050  26.0785584
  57.8318166  16.6254514  26.0061486  56.6280222  16.0870916  25.2625586
  52.1702107  13.7401493  26.8991155  52.8711567  14.3737976  27.0520549
  51.6997222  14.0816225  26.1386794  59.9703393   6.2946100  24.7243705
  59.3174844   6.5422008  24.0696158  60.3483773   5.4810239  24.3906183
  56.9310567  16.3305794  18.8271876  57.1132962  15.5127450  19.2899628
  57.7543553  16.5473486  18.3896766  57.2652733  15.2573979  16.0886924
  57.7940499  14.7466433  15.4757086  57.5280952  14.9416509  16.9532457
  56.0190966   7.0365911  31.2109743  55.3431603   6.9360041  31.8812118
  56.8418600   6.8805125  31.6745740  47.7669825  13.2737848  23.8322258
  48.3523262  12.5281536  23.9650162  47.5694664  13.5841805  24.7158922
  50.6208481  16.3089095  18.8484700  49.9518856  16.7935223  18.3648740
  50.4821350  16.5558316  19.7628079  54.7613749  18.3432839  25.4467359
  55.3132057  18.5064460  26.2116444  55.1019943  18.9337277  24.7747383
  49.2130515   2.7631121  29.6962278  49.8402554   2.3808199  30.3099802
  48.3558434   2.5445323  30.0617970  59.6124624  13.1694096  31.3016013
  60.1564528  13.7824055  30.8070968  59.0311468  13.7273675  31.8183026
  57.8982136  16.2914814  22.4331041  57.7733276  15.4904554  21.9241986
  58.5561228  16.7861008  21.9445011  59.9617045  14.0923835  24.0610591
  59.0147380  13.9729186  23.9888918  60.3099818  13.2046333  24.1436852
  52.3216618  -0.0182027  27.8848833  52.8451020   0.2280270  28.6475142
  52.1028952   0.8138008  27.4651970  56.9663478  13.8876551  20.2614943
  56.8188441  12.9593258  20.4422513  57.7916972  13.9096641  19.7772018
  60.5697600  14.7105109  21.3479816  61.4944147  14.5047971  21.2104267
  60.4012903  14.4621511  22.2569157  53.5269163   0.9231669  25.5698503
  53.1865984   0.1239482  25.9719183  52.8208170   1.2233379  24.9975336
  55.4146727   2.1239990  23.9251822  55.1564505   3.0457060  23.9236152
  54.8831768   1.7270424  24.6152286  60.3592916  15.2290777  16.7041907
  60.5329794  14.6637199  15.9515760  60.8521807  16.0291672  16.5221397
  46.1769876   7.2405446  24.7705466  45.6323344   8.0165254  24.9025740
  47.0549226   7.5876251  24.6124587  66.2132307   7.9927200  18.3232207
  66.6563453   7.2434525  17.9251330  65.3358818   7.9837336  17.9405939
  61.3468089  14.5457541  13.8038806  62.0418993  15.1664234  14.0226120
  61.6891239  13.6952893  14.0791183  46.9635898   6.3675342  27.6635623
  46.2217634   6.5157978  28.2500253  46.6428642   6.6283608  26.8002372
  63.2459512  11.9957247  15.3326136  63.7710836  12.3344520  14.6075456
  63.1581864  11.0604262  15.1489271  54.9079561  15.9091321  27.4616013
  55.2166687  15.6640467  28.3338712  55.7055043  16.1137959  26.9734883
  54.9300173  18.0629230  19.6921389  54.4905163  17.5705609  20.3854246
  55.6808290  17.5202198  19.4513465  47.4092512  14.2540771  19.6946018
  48.2350531  13.9544543  19.3144661  47.0586564  13.4848393  20.1435806
  52.3774045  13.6067239  21.7643691  51.7554054  12.9437944  21.4645919
  53.0478912  13.6328371  21.0817339  52.4498572   2.0849027  31.3576197
  52.4986728   2.9611150  30.9753967  52.9921086   1.5426420  30.7847840
  62.9353418  12.6290151  30.6377334  62.1448962  12.6114289  30.0981834
  62.6986772  13.1678444  31.3926371  63.0551293   9.4782617  27.9510063
  63.1049298   9.3132624  28.8925586  62.9465216   8.6109876  27.5607944
  60.3455055   5.4613545  29.2669369  61.2464918   5.3220010  28.9753367
  60.4203030   5.6268000  30.2067547  54.6797861   2.8380400  28.1122556
  53.8101170   3.1313966  27.8405144  54.9157341   3.4220845  28.8329819
  64.5569490  11.8979558  28.1952084  64.2654298  12.2609539  29.0315545
  63.9441621  11.1846567  28.0165416  65.7565172   9.4632438  20.7154655
  66.5912063   9.9022242  20.8792215  65.8924301   8.9871091  19.8962900
  62.8056678   7.0212173  26.6632142  63.2810800   7.2139819  25.8550994
  61.8822243   7.0771359  26.4175526  57.3836894  -0.9439983  25.6287976
  57.9018838  -0.2078956  25.3034465  57.0292027  -0.6375990  26.4634735
  61.5058347   3.8977933  24.8960448  62.4575770   3.9976031  24.9172672
  61.3361797   3.1056202  25.4058532  59.5272726   0.9833516  25.0819849
  58.9322659   1.2638529  24.3866337  59.2422423   1.4727417  25.8536590
  63.9846425   7.1184053  24.0102748  63.9522745   6.1800054  24.1962431
  64.5947048   7.1968090  23.2768572  64.1340913   3.9095096  24.0561031
  63.6179962   3.1253553  23.8690960  65.0180862   3.5813813  24.2207550
  69.8022975   8.1800060  23.1508784  70.5326363   7.9185348  23.7116488
  69.1929920   7.4428782  23.1910852  67.8838272   6.3207922  23.7483236
  67.1571435   6.1863887  23.1399727  67.4685559   6.6284751  24.5539954
  55.7068448  10.0397852  31.5130609  56.6271458  10.2176451  31.7070655
  55.6718031   9.0953897  31.3610308  48.7030521   7.9498887  24.1553390
  48.9216531   8.8815994  24.1741424  49.1156295   7.5906861  24.9408194
  53.5758386   3.5232092  33.5456139  53.4755113   4.4726449  33.4768230
  53.3579928   3.1950331  32.6732209  53.4389656   6.9529231  32.3621200
  52.9556738   7.7529591  32.5685089  53.5250595   6.9637176  31.4088644
  49.3662994  10.8433766  24.3989634  50.3206247  10.8117708  24.3319566
  49.1675517  10.3824390  25.2139860  49.9562376   9.4134882  26.9660432
  50.7755265   9.9078961  26.9895269  50.2299183   8.4966850  26.9377999
  65.5016067   2.5419774  21.1016667  66.0960557   2.3015510  20.3909975
  65.5742650   1.8226905  21.7290203  47.7213222  16.3853385  21.4159832
  47.5867690  15.6253786  20.8497830  47.3045285  17.1094285  20.9488621
  67.8087139   5.8485975  19.8760088  67.2486697   5.9179165  20.6491650
  67.2030643   5.6726960  19.1559585  50.8782348  17.2822702  21.6278275
  50.7614732  18.2268135  21.5256965  50.0574795  16.9796264  22.0164074
  45.2097290   3.7473016  27.6652629  45.8556154   3.2371970  28.1539854
  45.0014441   4.4841697  28.2396054  57.7350682  10.8153863  33.1644769
  58.6041842  10.9894516  32.8031404  57.2557434  11.6348280  33.0420499
  51.9036862  17.9350964  24.8434203  52.8064109  17.9674575  25.1600698
  51.6774232  17.0051415  24.8580539  53.6590464  16.6881951  21.5044282
  52.7086095  16.6883812  21.3908654  53.9622951  15.9414685  20.9880316
  49.5494781   0.8940633  31.7627643  50.4126243   0.5377438  31.9730968
  48.9760192   0.5554528  32.4503047  69.3943158  22.5242489  22.5690044
  70.0321568  22.4049237  21.8653384  69.2764001  23.4723333  22.6277996
  66.2032864  22.4769917  22.5051569  65.8651376  22.3610982  21.6172104
  67.0722632  22.0761082  22.4852575  62.0619680  24.3305394  18.4948460
  61.4984545  24.2395331  17.7264747  61.9472075  23.5105298  18.9750952
  66.6852647  23.6304769  28.4637774  66.6741288  23.2357567  27.5918278
  66.8473287  22.8970842  29.0571546  59.6084112  25.8256585  21.3332680
  60.4005404  25.4847410  20.9178979  59.8480762  25.9351560  22.2534833
  67.6419239  27.9976361  13.8062925  66.9907218  28.5830442  13.4196938
  68.4363601  28.5282556  13.8657962  61.5674866  25.0865499  14.2050059
  62.3405742  24.5394486  14.0662935  61.9200265  25.9509748  14.4164520
  63.4059908  26.4141881  27.4116958  63.1149774  27.3187512  27.2963625
  64.0416893  26.4558408  28.1261028  64.3316115  23.7918729  24.0018318
  64.9279687  23.5674752  23.2875281  64.3891087  23.0503475  24.6043766
  63.9041144  21.2458165  11.8368509  64.1566664  20.7239686  11.0751972
  62.9665703  21.0824310  11.9395192  68.9484426  20.2493943  19.6443252
  69.7347516  19.8313366  19.2933669  69.2123131  21.1540035  19.8124900
  69.1194504  25.6866793  14.3431909  68.4840337  25.7601420  15.0552814
  68.7891910  26.2760392  13.6650988  74.3492854  20.1869176  20.5476231
  75.0818025  19.6168393  20.7814060  73.5932209  19.7990777  20.9882736
  63.6237432  23.1486271  14.0392884  63.5073690  22.4731174  14.7073968
  63.7339692  22.6618645  13.2225037  65.9668973  22.6096418  17.7439573
  65.6027180  22.0827039  18.4552495  66.8236089  22.2194887  17.5706058
  71.8718274  13.8990750  25.0070839  71.5401599  14.7686161  24.7832054
  71.2763887  13.5827034  25.6864870  65.6074460  17.6386317  12.7400922
  65.7748863  18.5066554  13.1071393  65.4171629  17.8013599  11.8162211
  68.3649793  26.1003296  24.4066752  68.0650516  27.0028335  24.2982559
  68.0200853  25.8335480  25.2587905  61.8162275  22.5517093  20.4403456
  60.8912771  22.4193307  20.6481148  62.0646688  23.3311312  20.9373399
  71.7646937  18.6185837  22.0864189  70.8563815  18.5501245  21.7922950
  71.7134533  19.0957781  22.9146015  65.5863681  20.0943975  13.7247588
  65.4663306  20.5401026  14.5633069  64.8916269  20.4429293  13.1661127
  59.1771086  22.1950367  21.2747245  59.3063467  22.4484846  22.1886657
  58.4968537  22.7878075  20.9551901  63.3470573  32.8647617  17.3737720
  63.2694603  33.8155442  17.4526200  62.7432217  32.5193489  18.0312646
  65.8387803  20.0375482  30.0299087  65.0621137  20.5969402  30.0201951
  66.4778366  20.5232265  30.5513957  73.6308584  16.8202275  23.8642063
  72.9882964  17.1134808  23.2181858  73.1263512  16.7055195  24.6695260
  71.2848747  20.5665448  14.5527922  72.1966603  20.7992835  14.3775620
  70.7758394  21.1502492  13.9903001  64.0934175  22.8460936  29.5917054
  64.8348860  23.3845979  29.3151877  63.3871161  23.4727224  29.7488605
  69.5689515  24.9890076  28.1889215  69.9772871  24.5472486  27.4443847
  68.8466776  24.4142703  28.4423408  65.9220585  19.9262683  25.5622772
  66.7681780  20.3502096  25.7057421  65.8619223  19.2696307  26.2561335
  69.8918330  25.5491267  21.9441504  69.2627192  25.7136981  21.2417572
  69.5043992  25.9632876  22.7152468  73.7707561  26.4845704  19.2985868
  73.0858600  26.8644606  18.7482901  73.8551411  27.0941031  20.0317815
  69.0720030  17.5867051  27.2203946  68.8280962  18.3409112  26.6838221
  69.3479961  17.9652399  28.0551193  71.0258493  24.1305663  25.8981211
  71.2375388  24.7737423  25.2215592  70.9788241  23.2967980  25.4303141
  68.6284722  16.7423484  22.8017783  67.7669201  17.0404738  23.0934521
  68.6547157  16.9593883  21.8698816  65.4446291  25.2865675  19.2091589
  65.9084637  25.5653378  18.4196212  65.1803090  24.3849119  19.0264680
  62.3370372  24.8337156  22.1471352  62.9071730  25.2624425  21.5088837
  62.9278484  24.5519741  22.8455538  64.3815177  21.4088827  16.0181154
  65.0839221  21.8609871  16.4855081  64.0495806  20.7672646  16.6461047
  62.8295539  20.0000584  30.3932364  62.1994200  20.6816865  30.6267760
  62.7231627  19.8883665  29.4485502  58.1240511  19.6672380  21.3198288
  57.3339565  19.9229908  20.8438398  58.6151759  20.4820718  21.4250328
  72.1404321  27.0077619  24.0703569  72.9621765  26.6057806  23.7886250
  72.1366724  26.9045853  25.0219684  60.0755257  20.0316959  18.2781764
  59.2786420  20.1435653  18.7965260  59.8480849  20.3703611  17.4122655
  65.9060924  26.5561662  26.2264279  65.9705357  27.0182069  27.0622451
  65.1971848  25.9259027  26.3546589  56.4078214  19.9202870  23.7513279
  56.6586253  20.8049880  24.0170854  56.9437763  19.7407472  22.9788370
  80.2310314  23.3516367  20.4188540  79.4774022  22.7823765  20.2632544
  80.3657855  23.3179032  21.3659175  65.6208942  28.2229770  16.0943259
  65.4854617  29.0681305  16.5228107  66.1618755  28.4249047  15.3309193
  62.1076282  14.3021350  32.7557615  61.7143227  13.7487548  33.4305259
  62.9242422  14.6131928  33.1464132  59.0738339  25.7405208  16.6671184
  59.5862860  26.5348458  16.8176749  59.7261052  25.0431498  16.6004786
  60.8833224  28.8570964  18.7493938  61.0599853  29.7788929  18.5614922
  61.6790058  28.5429383  19.1788317  65.0244243  15.7179229  30.3477871
  65.7653956  16.3186382  30.2682334  65.2562166  14.9756866  29.7895914
  60.1685581  20.9035596  28.6256101  60.0539096  20.0020853  28.9263200
  59.3130098  21.1499293  28.2740917  67.2477418  28.8453336  30.2243601
  66.8041273  28.0589715  29.9064506  67.9094632  29.0332487  29.5587492
  62.0064540  30.3749138  24.7504280  62.5571965  30.2466201  23.9781274
  61.1676016  30.6744027  24.3999173  69.3458657  29.1256136  28.2525003
  69.3277132  29.9465017  27.7605272  70.2678577  29.0010211  28.4775144
  65.8031711  26.6400266  29.0948511  66.3360048  25.8788554  28.8647819
  65.2745792  26.3473917  29.8372666  68.9701406  11.7460332  24.6242153
  68.6265675  12.6361973  24.5481263  69.3380368  11.5561989  23.7611738
  57.0387256  24.0693862  17.4430755  57.8762478  24.4790870  17.2264463
  57.2165524  23.1293304  17.4130949  68.9351688  21.7368943  13.1314588
  68.4198312  22.5073547  13.3702975  68.6628997  21.0634079  13.7547649
  66.5198799  16.5818643  18.1899826  65.6640396  16.1925494  18.0105465
  66.9325751  16.6610604  17.3299612  68.0497946  14.1164987  22.5891386
  67.5462742  14.0795122  21.7759191  68.3428553  15.0257729  22.6488043
  64.2940832  14.2003716  21.5957568  65.1593829  14.0046525  21.2363457
  64.3618341  13.9714068  22.5226925  73.9085963  24.4901297  15.0667761
  73.1315405  24.1512457  14.6222924  74.5877444  24.4953920  14.3922726
  68.7237992  19.6096035  14.9574369  68.4188127  19.9242184  15.8084512
  69.6768434  19.6877455  15.0001702  67.1684423  25.7686258  16.6067323
  66.6405785  25.0339018  16.2940561  66.6671926  26.5460934  16.3607291
  72.1477269  23.9635279  21.7234369  71.4900944  24.6534540  21.8114498
  72.9517669  24.3531711  22.0668356  61.9003151  16.4305924  18.9673935
  62.4746903  16.2081106  18.2347128  62.4874133  16.4994619  19.7202536
  70.9582728  22.3179651  19.7738311  71.4714610  22.9509643  20.2760021
  71.6083952  21.7180847  19.4081671  62.2272738  18.4610385  12.9869820
  61.3910050  18.7985072  13.3079095  62.0877508  18.3259365  12.0496957
  64.2025819  13.3047173  17.6949004  63.5490231  12.9896190  17.0705619
  64.1606293  12.6822914  18.4208827  65.3137024  23.5866468   9.6102296
  64.4064085  23.3555722   9.8093445  65.8108056  22.7904088   9.7976278
  68.2205102  32.2963976  12.5298982  67.5466801  32.5995672  13.1383940
  68.6070924  33.0993056  12.1804439  67.4363559  19.7929107  22.0196652
  66.5186120  20.0144054  21.8618340  67.8523703  19.8675417  21.1608359
  68.2198607  21.1920522  17.1499332  68.9670426  21.7041920  16.8406454
  68.4890196  20.8704575  18.0103726  66.4925257  23.6879063  14.1326286
  65.5836476  23.4038096  14.2298756  66.5220341  24.1078142  13.2729593
  71.7244524  27.2985653  17.9017454  71.2706852  26.4576563  17.9582644
  71.0938491  27.9347051  18.2392234  70.6677444  18.2277639  19.1318121
  69.9300201  17.7155025  19.4628364  70.9204218  17.7878020  18.3201398
  70.1677464  29.1362149  18.8367272  70.4600438  29.6967207  18.1179638
  70.6776084  29.4290710  19.5920431  70.7689071  11.0053891  19.7259891
  71.0747948  10.1451254  19.4385806  71.4941676  11.5971511  19.5258884
  57.0613427  21.4084577  18.1141488  56.8637827  20.8153938  17.3892555
  56.5060091  21.1036788  18.8317427  65.0410151  21.3007684  20.2336082
  65.0958761  20.3481520  20.1578558  64.2301353  21.4567123  20.7177380
  66.1901345  25.2287807  11.4714365  65.7520775  24.5123666  11.0120002
  66.9311786  25.4563922  10.9099456  62.9802511  19.9184744  17.9926460
  62.1670377  20.2178914  18.3991653  63.4761505  19.5240432  18.7100943
  65.1311089  29.9142500  19.9260725  65.0887268  30.1403347  18.9969257
  66.0473788  29.6805875  20.0746526  68.5776723  20.3826568  26.8241354
  68.9326110  20.6098041  27.6835820  69.2248854  20.7144945  26.2018610
  74.3074460  23.5045004  17.5290683  74.1692358  23.6946600  16.6011873
  73.9510678  24.2664387  17.9858735  62.4716586  17.4903099  23.6087695
  63.1115965  17.3491858  22.9110659  61.6394116  17.2037612  23.2326297
  74.3343839  25.5721531  22.5401955  74.7680346  25.4796820  23.3885009
  75.0475420  25.5479031  21.9021971  63.2476890  26.7905529  19.7222688
  64.0417488  26.2955850  19.5205263  62.5368582  26.2623393  19.3590393
  68.0671734  29.1723625  24.0735055  68.1208756  29.7414561  24.8412771
  67.1986515  29.3425510  23.7089093  59.5559653  20.9348611  15.7982441
  58.6257241  20.8733067  16.0152403  59.6517125  20.4124564  15.0019082
  59.4745202  17.4603424  18.3860682  59.7352019  18.3748757  18.2769843
  60.2962374  16.9927867  18.5357295  60.9470128  18.8741181  25.5559507
  61.6193181  18.6658543  24.9072156  60.1199914  18.6763267  25.1164739
  75.1959389  25.6145232  25.0734840  75.3895279  26.5191042  25.3194115
  75.0960007  25.1552651  25.9073425  66.8495700  15.5003122  27.5725168
  66.2023615  16.1993072  27.4789644  67.6196715  15.9339266  27.9401416
  70.2574497  25.7651974  30.6475721  70.1060004  25.5362526  29.7305805
  70.2479177  26.7222576  30.6607066  67.0259834  23.3383887  25.6321987
  67.9551894  23.4895047  25.4590955  66.6050864  23.4267908  24.7770634
  65.8248166  27.3634551  23.4020525  65.6859251  26.9953336  24.2746463
  65.0362762  27.8782191  23.2304483  66.4196318  32.4643648  14.7446061
  66.5948073  31.9931691  15.5591684  65.7329106  33.0909414  14.9727322
  67.3753381  26.7416154  20.7909363  67.0403213  26.7016924  21.6867013
  66.8757326  26.0760870  20.3179773  61.3497625  22.1483784  26.3161944
  61.2117423  21.4164023  26.9173483  62.2602548  22.0592684  26.0346132
  70.3112572  24.0872189  11.0646422  69.6941743  23.3619017  10.9679475
  69.8429061  24.8481549  10.7213497  63.9779925  21.8603744  25.8045624
  64.6879544  21.2196936  25.7632242  63.9349234  22.1116638  26.7271804
  71.9666704  28.7971097  28.7252203  71.9079250  28.1130317  28.0582786
  72.3686222  29.5390087  28.2732829  62.6908859  18.8468961  27.6241263
  62.1546216  18.3959700  28.2762859  62.1025568  18.9814870  26.8811727
  60.9857403  35.6133011  21.5185922  61.2254001  36.2451535  22.1964940
  60.1426599  35.2621051  21.8051281  71.9684111  26.7610681  26.9566182
  71.0810890  26.4236603  27.0792581  72.5382662  26.0293712  27.1934948
  53.6213258  23.0934773  20.2809234  54.3084298  22.7796503  19.6930249
  53.4661387  23.9976137  20.0076485  58.4247981  17.9824969  24.7094258
  58.3406169  17.3750639  23.9744667  57.6030687  18.4733987  24.7103754
  65.4985265  31.4212133  23.9227426  65.4255436  32.2267105  24.4346730
  65.0562658  31.6204099  23.0975447  65.2875044  30.6583903  17.4330247
  64.5042566  31.2005583  17.5268472  65.9867790  31.1757883  17.8324488
  68.5971695  16.4678533  20.0764453  69.0940394  15.7148495  19.7565523
  67.8258676  16.5042849  19.5107662  76.4501452  22.1718898  21.7182744
  76.4391328  23.0543614  21.3476677  75.5818831  21.8190449  21.5237281
  67.9583948  31.3198967  26.0785584  68.6711920  31.9546432  26.0061486
  67.4673977  31.4162833  25.2625586  69.6801475  25.2250220  17.6502876
  68.7457754  25.3451682  17.4807580  69.8578144  24.3222687  17.3862886
  65.1806663  18.6095916  19.8036137  64.8104451  18.0566956  20.4917043
  65.6765756  18.0054049  19.2511137  73.0674027  21.0667539  18.1852910
  73.5334479  21.8995531  18.1113213  73.5181527  20.6012521  18.8898169
  63.0095862  29.0693411  26.8991155  63.7105321  29.7029894  27.0520549
  62.5390977  29.4108142  26.1386794  71.1350258  27.4111360  15.1839062
  71.4110102  27.2967955  16.0932936  70.2654756  27.0128845  15.1451235
  71.0390689  13.4348126  22.2243811  70.1253769  13.6652353  22.3926018
  71.4683791  13.5186570  23.0757844  70.8097148  21.6238018  24.7243705
  70.1568598  21.8713926  24.0696158  71.1877528  20.8102156  24.3906183
  67.7704322  31.6597711  18.8271876  67.9526716  30.8419367  19.2899628
  68.5937308  31.8765404  18.3896766  68.1046487  30.5865896  16.0886924
  68.6334254  30.0758351  15.4757086  68.3674707  30.2708427  16.9532457
  66.8584721  22.3657829  31.2109743  66.1825358  22.2651958  31.8812118
  67.6812355  22.2097043  31.6745740  58.6063580  28.6029766  23.8322258
  59.1917017  27.8573454  23.9650162  58.4088418  28.9133722  24.7158922
  61.4602235  31.6381013  18.8484700  60.7912610  32.1227141  18.3648740
  61.3215105  31.8850234  19.7628079  53.1981235  21.1735366  22.5526701
  53.2365334  20.6398957  23.3463819  52.6921527  20.6470571  21.9337678
  65.6007504  33.6724757  25.4467359  66.1525812  33.8356378  26.2116444
  65.9413697  34.2629194  24.7747383  60.5771997  16.0199906  26.0489243
  60.6413323  16.8814737  25.6366641  60.5139117  15.4073908  25.3161602
  60.0524269  18.0923039  29.6962278  60.6796308  17.7100116  30.3099802
  59.1952188  17.8737241  30.0617970  70.4518378  28.4986014  31.3016013
  70.9958282  29.1115972  30.8070968  69.8705223  29.0565593  31.8183026
  56.8289812  19.8999468  15.6280632  57.1243253  18.9910146  15.5747686
  55.9277848  19.8787208  15.3061635  68.7375891  31.6206732  22.4331041
  68.6127030  30.8196472  21.9241986  69.3954982  32.1152926  21.9445011
  60.3584059  17.9755465  21.6108181  59.6370645  18.5891432  21.4715654
  61.1477315  18.5113229  21.5324827  70.8010799  29.4215752  24.0610591
  69.8541135  29.3021103  23.9888918  71.1493572  28.5338250  24.1436852
  63.1610373  15.3109891  27.8848833  63.6844775  15.5572188  28.6475142
  62.9422706  16.1429926  27.4651970  58.5577654  17.5813566  15.7519957
  58.2290360  16.7010945  15.5695063  58.9117024  17.5261234  16.6396347
  67.8057233  29.2168468  20.2614943  67.6582195  28.2885176  20.4422513
  68.6310726  29.2388559  19.7772018  61.6719477  17.8686536  16.1195435
  62.0115549  18.3972457  15.3974044  62.1191597  18.2066942  16.8954002
  71.4091354  30.0397027  21.3479816  72.3337902  29.8339889  21.2104267
  71.2406658  29.7913428  22.2569157  64.3662918  16.2523586  25.5698503
  64.0259738  15.4531399  25.9719183  63.6601924  16.5525297  24.9975336
  65.0179390  13.3372899  24.0225826  65.8405459  12.8633377  23.9004717
  65.2617453  14.1163382  24.5224513  63.6587624  16.3661157  14.3188728
  64.3795987  16.7442410  13.8152445  63.0352928  17.0850034  14.4223706
  67.8018747  17.0706306  15.2547060  68.0182361  17.9530944  14.9535888
  67.3212814  16.6792519  14.5252702  62.5417968  20.0292019  21.8317805
  62.3962549  20.3432322  22.7242086  62.0643172  20.6476920  21.2788703
  64.4014351  17.0194567  21.8798694  64.3875920  16.1235661  21.5430992
  65.1186779  17.0265231  22.5136980  66.2540482  17.4531908  23.9251822
  65.9958260  18.3748978  23.9236152  65.7225522  17.0562342  24.6152286
  71.1986671  30.5582695  16.7041907  71.3723548  29.9929117  15.9515760
  71.6915562  31.3583590  16.5221397  57.0163631  22.5697364  24.7705466
  56.4717099  23.3457172  24.9025740  57.8942980  22.9168168  24.6124587
  63.8051247  15.9008948  17.1486265  63.9267158  14.9725594  17.3477152
  63.5153290  15.9147634  16.2364580  66.6742438  13.5863858  20.2852984
  66.6964134  13.6503191  19.3304964  67.0910497  12.7468367  20.4793491
  77.0526062  23.3219118  18.3232207  77.4957208  22.5726443  17.9251330
  76.1752572  23.3129254  17.9405939  72.1861843  29.8749459  13.8038806
  72.8812748  30.4956152  14.0226120  72.5284993  29.0244810  14.0791183
  57.8029652  21.6967260  27.6635623  57.0611388  21.8449895  28.2500253
  57.4822397  21.9575526  26.8002372  74.0853266  27.3249165  15.3326136
  74.6104590  27.6636437  14.6075456  73.9975619  26.3896180  15.1489271
  65.7473315  31.2383238  27.4616013  66.0560441  30.9932385  28.3338712
  66.5448797  31.4429877  26.9734883  65.7693927  33.3921148  19.6921389
  65.3298917  32.8997527  20.3854246  66.5202044  32.8494116  19.4513465
  58.2486266  29.5832689  19.6946018  59.0744286  29.2836461  19.3144661
  57.8980318  28.8140311  20.1435806  63.2167799  28.9359157  21.7643691
  62.5947808  28.2729862  21.4645919  63.8872666  28.9620289  21.0817339
  56.4494871  27.5019015  20.6534951  55.6126779  27.0741190  20.4718952
  56.4218517  27.6951458  21.5905742  63.2892327  17.4140945  31.3576197
  63.3380482  18.2903068  30.9753967  63.8314841  16.8718338  30.7847840
  73.7747172  27.9582068  30.6377334  72.9842716  27.9406207  30.0981834
  73.5380527  28.4970362  31.3926371  73.8945047  24.8074535  27.9510063
  73.9443052  24.6424542  28.8925586  73.7858971  23.9401794  27.5607944
  62.7781306  27.4863080  15.2402152  62.9269426  28.1698545  14.5868824
  63.5847750  27.4668170  15.7551607  71.1848810  20.7905463  29.2669369
  72.0858673  20.6511927  28.9753367  71.2596784  20.9559917  30.2067547
  65.5191615  18.1672317  28.1122556  64.6494925  18.4605883  27.8405144
  65.7551096  18.7512762  28.8329819  75.3963244  27.2271476  28.1952084
  75.1048053  27.5901457  29.0315545  74.7835376  26.5138484  28.0165416
  76.5958927  24.7924356  20.7154655  77.4305818  25.2314160  20.8792215
  76.7318055  24.3163009  19.8962900  73.6450433  22.3504091  26.6632142
  74.1204554  22.5431737  25.8550994  72.7215998  22.4063277  26.4175526
  60.5333939  23.5128258  16.2463221  60.2879981  22.6090588  16.4443431
  60.7029854  23.5145408  15.3042699  68.2230649  14.3851934  25.6287976
  68.7412593  15.1212961  25.3034465  67.8685782  14.6915928  26.4634735
  59.8029587  19.2456615  13.7449382  59.1098832  19.3200970  13.0889418
  59.5581339  18.4816959  14.2670899  68.4743243  10.8052217  21.1488873
  68.7544997  10.1375406  21.7749299  69.2593850  10.9981312  20.6363537
  66.2776712  29.9811211  12.7113899  65.7050679  30.6001398  12.2584371
  66.8509505  30.5310572  13.2453821  72.3452101  19.2269851  24.8960448
  73.2969524  19.3267948  24.9172672  72.1755552  18.4348119  25.4058532
  70.3666481  16.3125434  25.0819849  69.7716413  16.5930447  24.3866337
  70.0816178  16.8019335  25.8536590  69.4973971  30.2648361  13.8422481
  70.4304645  30.1993923  14.0455357  69.4097184  31.1004628  13.3837014
  72.1261988  29.5814231  10.8026429  72.0475620  29.2474095  11.6962187
  72.9471655  30.0735999  10.8017901  74.8240179  22.4475970  24.0102748
  74.7916499  21.5091971  24.1962431  75.4340803  22.5260007  23.2768572
  66.6623510  21.3172023  10.0529952  67.6082615  21.1878232  10.1218370
  66.2837755  20.5786685  10.5299380  74.9734668  19.2387014  24.0561031
  74.4573716  18.4545471  23.8690960  75.8574616  18.9105731  24.2207550
  72.6345395  12.9828029  20.0156843  72.4370216  12.6743118  20.9000175
  73.2445100  13.7089668  20.1454773  80.6416729  23.5091977  23.1508784
  81.3720118  23.2477265  23.7116488  80.0323675  22.7720699  23.1910852
  78.7232026  21.6499840  23.7483236  77.9965190  21.5155805  23.1399727
  78.3079313  21.9576669  24.5539954  66.5462203  25.3689770  31.5130609
  67.4665212  25.5468369  31.7070655  66.5111786  24.4245815  31.3610308
  55.7644368  20.5628363  20.4383883  55.4447152  19.7093671  20.1458257
  55.2177796  20.7776941  21.1941851  59.5424275  23.2790804  24.1553390
  59.7610285  24.2107912  24.1741424  59.9550049  22.9198779  24.9408194
  66.4628493  13.7858890  16.1429078  65.6529221  13.4405975  16.5184324
  67.1512910  13.4766433  16.7316690  68.3919041  12.8636936  17.7653375
  68.9450080  13.2832390  18.4243398  68.6289128  11.9372684  17.8076331
  64.4152141  18.8524010  33.5456139  64.3148867  19.8018367  33.4768230
  64.1973683  18.5242249  32.6732209  55.6332628  24.1831275  22.4077005
  54.9396099  23.7685228  21.8946959  56.3805619  24.2251811  21.8110424
  71.7697848  14.9737462  17.2732039  71.1896517  15.6322266  16.8910091
  71.5033781  14.1514806  16.8619457  70.2201415  14.3742519  19.4753359
  70.7201193  14.4859054  18.6667678  70.8637023  14.0703572  20.1154168
  64.2783411  22.2821149  32.3621200  63.7950492  23.0821509  32.5685089
  64.3644350  22.2929094  31.4088644  57.5469370  24.1149529  20.2843020
  57.5240058  24.2137216  19.3324903  57.8570007  24.9614679  20.6060186
  60.2056748  26.1725684  24.3989634  61.1600002  26.1409626  24.3319566
  60.0069272  25.7116307  25.2139860  60.7956130  24.7426800  26.9660432
  61.6149019  25.2370878  26.9895269  61.0692938  23.8258768  26.9377999
  70.5522726  17.1337552  16.3288387  69.6648581  17.4187203  16.1108582
  70.9676715  16.9731315  15.4815664  73.9037263  17.1584073  20.0442727
  74.6797653  17.6480525  20.3167343  73.1785397  17.5842127  20.5014596
  76.3409821  17.8711692  21.1016667  76.9354312  17.6307428  20.3909975
  76.4136405  17.1518823  21.7290203  58.5606977  31.7145303  21.4159832
  58.4261445  30.9545704  20.8497830  58.1439039  32.4386203  20.9488621
  69.6965940  26.8982227  10.4236407  70.4001790  27.1032229  11.0394063
  68.9728589  27.4658988  10.6885491  70.5263750  22.6492088  16.5438677
  70.4698952  23.1060639  15.7046310  71.0792093  21.8882772  16.3661520
  74.3368556  18.4381820  17.3688797  74.0805490  18.0378455  18.1997005
  73.7121424  19.1525614  17.2438936  78.6480894  21.1777893  19.8760088
  78.0880452  21.2471082  20.6491650  78.0424397  21.0018878  19.1559585
  61.7176103  32.6114620  21.6278275  61.6008487  33.5560053  21.5256965
  60.8968549  32.3088182  22.0164074  71.6052637  27.3364756  12.4734867
  72.4398241  26.9045954  12.2912342  71.4436980  27.1646769  13.4011762
  71.2598529  23.8396869  13.8391207  71.2047333  23.6741141  12.8979651
  70.6344585  24.5472902  13.9953396  56.0491044  19.0764933  27.6652629
  56.6949908  18.5663887  28.1539854  55.8408196  19.8133615  28.2396054
  68.5744437  26.1445781  33.1644769  69.4435596  26.3186433  32.8031404
  68.0951188  26.9640198  33.0420499  64.5694655  13.3404978  13.4176525
  64.5573325  14.2846818  13.5744796  65.4618077  13.1575124  13.1235986
  62.7430617  33.2642882  24.8434203  63.6457864  33.2966492  25.1600698
  62.5167987  32.3343333  24.8580539  64.4984219  32.0173869  21.5044282
  63.5479850  32.0175730  21.3908654  64.8016705  31.2706603  20.9880316
  68.3846774   9.9347755  17.6722462  67.6179170   9.3806241  17.8179144
  68.7957479  10.0069624  18.5336613  60.3888535  16.2232551  31.7627643
  61.2519997  15.8669355  31.9730968  59.8153946  15.8846445  32.4503047
  80.2336912  37.8534407  22.5690044  80.8715322  37.7341154  21.8653384
  80.1157755  38.8015251  22.6277996  77.0426619  37.8061835  22.5051569
  76.7045130  37.6902900  21.6172104  77.9116387  37.4053000  22.4852575
  72.9013434  39.6597311  18.4948460  72.3378299  39.5687248  17.7264747
  72.7865829  38.8397216  18.9750952  70.4477866  41.1548503  21.3332680
  71.2399158  40.8139328  20.9178979  70.6874516  41.2643478  22.2534833
  78.4812993  43.3268279  13.8062925  77.8300973  43.9122360  13.4196938
  79.2757356  43.8574474  13.8657962  72.4068620  40.4157416  14.2050059
  73.1799496  39.8686403  14.0662935  72.7594019  41.2801666  14.4164520
  75.1709870  39.1210647  24.0018318  75.7673442  38.8966669  23.2875281
  75.2284841  38.3795393  24.6043766  74.7434898  36.5750082  11.8368509
  74.9960419  36.0531604  11.0751972  73.8059457  36.4116228  11.9395192
  79.7878181  35.5785861  19.6443252  80.5741270  35.1605284  19.2933669
  80.0516885  36.4831953  19.8124900  79.9588258  41.0158711  14.3431909
  79.3234091  41.0893338  15.0552814  79.6285665  41.6052310  13.6650988
  85.1886608  35.5161094  20.5476231  85.9211780  34.9460311  20.7814060
  84.4325964  35.1282694  20.9882736  74.4631187  38.4778188  14.0392884
  74.3467445  37.8023092  14.7073968  74.5733447  37.9910562  13.2225037
  76.8062728  37.9388335  17.7439573  76.4420935  37.4118956  18.4552495
  77.6629844  37.5486805  17.5706058  82.7112028  29.2282668  25.0070839
  82.3795353  30.0978079  24.7832054  82.1157642  28.9118952  25.6864870
  76.4468215  32.9678235  12.7400922  76.6142617  33.8358472  13.1071393
  76.2565384  33.1305517  11.8162211  79.2043548  41.4295214  24.4066752
  78.9044271  42.3320253  24.2982559  78.8594607  41.1627397  25.2587905
  72.6556029  37.8809011  20.4403456  71.7306526  37.7485225  20.6481148
  72.9040443  38.6603230  20.9373399  82.6040692  33.9477754  22.0864189
  81.6957569  33.8793163  21.7922950  82.5528287  34.4249699  22.9146015
  76.4257436  35.4235893  13.7247588  76.3057061  35.8692943  14.5633069
  75.7310024  35.7721210  13.1661127  70.0164840  37.5242284  21.2747245
  70.1457222  37.7776763  22.1886657  69.3362292  38.1169992  20.9551901
  74.1864328  48.1939534  17.3737720  74.1088357  49.1447359  17.4526200
  73.5825971  47.8485407  18.0312646  84.4702338  32.1494193  23.8642063
  83.8276718  32.4426726  23.2181858  83.9657267  32.0347113  24.6695260
  82.1242502  35.8957366  14.5527922  83.0360358  36.1284753  14.3775620
  81.6152149  36.4794410  13.9903001  74.9327930  38.1752853  29.5917054
  75.6742614  38.7137897  29.3151877  74.2264915  38.8019142  29.7488605
  76.7614339  35.2554600  25.5622772  77.6075535  35.6794014  25.7057421
  76.7012977  34.5988225  26.2561335  80.7312084  40.8783184  21.9441504
  80.1020946  41.0428898  21.2417572  80.3437746  41.2924794  22.7152468
  84.6101316  41.8137622  19.2985868  83.9252354  42.1936523  18.7482901
  84.6945165  42.4232949  20.0317815  79.9113785  32.9158969  27.2203946
  79.6674717  33.6701029  26.6838221  80.1873715  33.2944316  28.0551193
  81.8652248  39.4597581  25.8981211  82.0769143  40.1029341  25.2215592
  81.8181996  38.6259898  25.4303141  79.4678477  32.0715402  22.8017783
  78.6062956  32.3696655  23.0934521  79.4940911  32.2885801  21.8698816
  76.2840046  40.6157592  19.2091589  76.7478391  40.8945295  18.4196212
  76.0196844  39.7141037  19.0264680  73.1764127  40.1629074  22.1471352
  73.7465484  40.5916342  21.5088837  73.7672239  39.8811659  22.8455538
  75.2208932  36.7380745  16.0181154  75.9232975  37.1901788  16.4855081
  74.8889560  36.0964564  16.6461047  73.6689294  35.3292501  30.3932364
  73.0387954  36.0108782  30.6267760  73.5625381  35.2175583  29.4485502
  68.9634266  34.9964297  21.3198288  68.1733320  35.2521826  20.8438398
  69.4545513  35.8112635  21.4250328  82.9798075  42.3369537  24.0703569
  83.8015519  41.9349724  23.7886250  82.9760478  42.2337771  25.0219684
  70.9149011  35.3608877  18.2781764  70.1180175  35.4727571  18.7965260
  70.6874604  35.6995529  17.4122655  67.2471969  35.2494788  23.7513279
  67.4980007  36.1341798  24.0170854  67.7831517  35.0699389  22.9788370
  91.0704069  38.6808285  20.4188540  90.3167777  38.1115683  20.2632544
  91.2051610  38.6470950  21.3659175  76.4602697  43.5521687  16.0943259
  76.3248371  44.3973223  16.5228107  77.0012509  43.7540965  15.3309193
  72.9470036  29.6313267  32.7557615  72.5536982  29.0779466  33.4305259
  73.7636177  29.9423846  33.1464132  69.9132094  41.0697125  16.6671184
  70.4256615  41.8640376  16.8176749  70.5654807  40.3723416  16.6004786
  71.7226979  44.1862882  18.7493938  71.8993607  45.1080846  18.5614922
  72.5183812  43.8721301  19.1788317  71.0079335  36.2327514  28.6256101
  70.8932850  35.3312771  28.9263200  70.1523853  36.4791210  28.2740917
  79.8095160  27.0752249  24.6242153  79.4659430  27.9653891  24.5481263
  80.1774123  26.8853907  23.7611738  67.8781011  39.3985780  17.4430755
  68.7156233  39.8082788  17.2264463  68.0559278  38.4585222  17.4130949
  79.7745443  37.0660860  13.1314588  79.2592066  37.8365465  13.3702975
  79.5022751  36.3925996  13.7547649  77.3592554  31.9110561  18.1899826
  76.5034150  31.5217412  18.0105465  77.7719506  31.9902522  17.3299612
  78.8891701  29.4456904  22.5891386  78.3856496  29.4087040  21.7759191
  79.1822307  30.3549647  22.6488043  75.1334586  29.5295634  21.5957568
  75.9987583  29.3338443  21.2363457  75.2012095  29.3005986  22.5226925
  84.7479717  39.8193215  15.0667761  83.9709160  39.4804374  14.6222924
  85.4271198  39.8245838  14.3922726  79.5631746  34.9387952  14.9574369
  79.2581882  35.2534102  15.8084512  80.5162188  35.0169372  15.0001702
  78.0078178  41.0978176  16.6067323  77.4799539  40.3630935  16.2940561
  77.5065681  41.8752852  16.3607291  82.9871024  39.2927196  21.7234369
  82.3294698  39.9826458  21.8114498  83.7911423  39.6823628  22.0668356
  72.7396906  31.7597842  18.9673935  73.3140657  31.5373024  18.2347128
  73.3267888  31.8286537  19.7202536  81.7976483  37.6471569  19.7738311
  82.3108364  38.2801561  20.2760021  82.4477707  37.0472764  19.4081671
  73.0666493  33.7902303  12.9869820  72.2303805  34.1276990  13.3079095
  72.9271262  33.6551283  12.0496957  75.0419573  28.6339091  17.6949004
  74.3883986  28.3188108  17.0705619  75.0000047  28.0114831  18.4208827
  76.1530778  38.9158386   9.6102296  75.2457840  38.6847639   9.8093445
  76.6501810  38.1196005   9.7976278  79.0598857  47.6255893  12.5298982
  78.3860556  47.9287590  13.1383940  79.4464679  48.4284974  12.1804439
  78.2757314  35.1221024  22.0196652  77.3579875  35.3435971  21.8618340
  78.6917457  35.1967335  21.1608359  79.0592361  36.5212440  17.1499332
  79.8064180  37.0333837  16.8406454  79.3283951  36.1996493  18.0103726
  77.3319012  39.0170981  14.1326286  76.4230231  38.7330014  14.2298756
  77.3614095  39.4370059  13.2729593  82.5638279  42.6277570  17.9017454
  82.1100606  41.7868480  17.9582644  81.9332246  43.2638969  18.2392234
  81.5071198  33.5569556  19.1318121  80.7693955  33.0446943  19.4628364
  81.7597972  33.1169938  18.3201398  81.0071218  44.4654067  18.8367272
  81.2994193  45.0259124  18.1179638  81.5169839  44.7582628  19.5920431
  81.6082826  26.3345808  19.7259891  81.9141703  25.4743172  19.4385806
  82.3335431  26.9263429  19.5258884  67.9007182  36.7376495  18.1141488
  67.7031582  36.1445856  17.3892555  67.3453846  36.4328705  18.8317427
  75.8803906  36.6299601  20.2336082  75.9352515  35.6773438  20.1578558
  75.0695108  36.7859041  20.7177380  77.0295099  40.5579725  11.4714365
  76.5914529  39.8415583  11.0120002  77.7705540  40.7855839  10.9099456
  73.8196265  35.2476661  17.9926460  73.0064131  35.5470832  18.3991653
  74.3155260  34.8532350  18.7100943  75.9704843  45.2434418  19.9260725
  75.9281022  45.4695264  18.9969257  76.8867542  45.0097793  20.0746526
  79.4170477  35.7118486  26.8241354  79.7719865  35.9389959  27.6835820
  80.0642608  36.0436862  26.2018610  85.1468214  38.8336922  17.5290683
  85.0086113  39.0238518  16.6011873  84.7904433  39.5956304  17.9858735
  73.3110340  32.8195017  23.6087695  73.9509720  32.6783776  22.9110659
  72.4787871  32.5329530  23.2326297  85.1737594  40.9013449  22.5401955
  85.6074100  40.8088738  23.3885009  85.8869174  40.8770949  21.9021971
  74.0870644  42.1197447  19.7222688  74.8811243  41.6247767  19.5205263
  73.3762337  41.5915310  19.3590393  70.3953408  36.2640529  15.7982441
  69.4650996  36.2024984  16.0152403  70.4910880  35.7416482  15.0019082
  70.3138957  32.7895342  18.3860682  70.5745774  33.7040675  18.2769843
  71.1356129  32.3219784  18.5357295  71.7863882  34.2033099  25.5559507
  72.4586935  33.9950461  24.9072156  70.9593669  34.0055185  25.1164739
  86.0353143  40.9437149  25.0734840  86.2289033  41.8482960  25.3194115
  85.9353761  40.4844568  25.9073425  77.8653588  38.6675805  25.6321987
  78.7945648  38.8186964  25.4590955  77.4444618  38.7559826  24.7770634
  76.6641920  42.6926469  23.4020525  76.5253006  42.3245254  24.2746463
  75.8756516  43.2074109  23.2304483  77.2590072  47.7935566  14.7446061
  77.4341828  47.3223609  15.5591684  76.5722860  48.4201332  14.9727322
  78.2147135  42.0708072  20.7909363  77.8796968  42.0308842  21.6867013
  77.7151081  41.4052788  20.3179773  72.1891379  37.4775702  26.3161944
  72.0511177  36.7455941  26.9173483  73.0996303  37.3884602  26.0346132
  81.1506327  39.4164106  11.0646422  80.5335498  38.6910934  10.9679475
  80.6822815  40.1773466  10.7213497  74.8173680  37.1895661  25.8045624
  75.5273298  36.5488853  25.7632242  74.7742988  37.4408556  26.7271804
  82.8060459  44.1263015  28.7252203  82.7473005  43.4422235  28.0582786
  83.2079977  44.8682005  28.2732829  73.5302614  34.1760879  27.6241263
  72.9939971  33.7251618  28.2762859  72.9419322  34.3106788  26.8811727
  72.9404873  33.6349531  10.1867727  72.0634339  33.5138331   9.8229973
  73.4162626  32.8435609   9.9346615  82.8077866  42.0902598  26.9566182
  81.9204645  41.7528520  27.0792581  83.3776417  41.3585630  27.1934948
  64.4607013  38.4226690  20.2809234  65.1478053  38.1088420  19.6930249
  64.3055142  39.3268055  20.0076485  69.2641735  33.3116887  24.7094258
  69.1799924  32.7042556  23.9744667  68.4424442  33.8025905  24.7103754
  76.1268799  45.9875821  17.4330247  75.3436321  46.5297501  17.5268472
  76.8261544  46.5049801  17.8324488  79.4365449  31.7970450  20.0764453
  79.9334149  31.0440413  19.7565523  78.6652430  31.8334767  19.5107662
  87.2895206  37.5010816  21.7182744  87.2785083  38.3835531  21.3476677
  86.4212586  37.1482367  21.5237281  80.5195230  40.5542138  17.6502876
  79.5851508  40.6743600  17.4807580  80.6971898  39.6514604  17.3862886
  76.0200418  33.9387833  19.8036137  75.6498205  33.3858874  20.4917043
  76.5159510  33.3345967  19.2511137  83.9067781  36.3959457  18.1852910
  84.3728233  37.2287448  18.1113213  84.3575282  35.9304438  18.8898169
  81.9744012  42.7403278  15.1839062  82.2503856  42.6259873  16.0932936
  81.1048511  42.3420763  15.1451235  81.8784444  28.7640044  22.2243811
  80.9647524  28.9944271  22.3926018  82.3077545  28.8478488  23.0757844
  81.6490902  36.9529936  24.7243705  80.9962353  37.2005843  24.0696158
  82.0271282  36.1394074  24.3906183  78.6098076  46.9889629  18.8271876
  78.7920471  46.1711285  19.2899628  79.4331062  47.2057321  18.3896766
  78.9440242  45.9157814  16.0886924  79.4728008  45.4050269  15.4757086
  79.2068461  45.6000344  16.9532457  69.4457334  43.9321683  23.8322258
  70.0310771  43.1865371  23.9650162  69.2482173  44.2425640  24.7158922
  72.2995990  46.9672931  18.8484700  71.6306365  47.4519058  18.3648740
  72.1608859  47.2142151  19.7628079  64.0374989  36.5027284  22.5526701
  64.0759089  35.9690874  23.3463819  63.5315282  35.9762489  21.9337678
  71.4165751  31.3491824  26.0489243  71.4807078  32.2106655  25.6366641
  71.3532872  30.7365826  25.3161602  70.8918024  33.4214957  29.6962278
  71.5190063  33.0392034  30.3099802  70.0345943  33.2029159  30.0617970
  67.6683567  35.2291386  15.6280632  67.9637008  34.3202064  15.5747686
  66.7671602  35.2079125  15.3061635  79.5769645  46.9498650  22.4331041
  79.4520785  46.1488390  21.9241986  80.2348737  47.4444843  21.9445011
  71.1977814  33.3047382  21.6108181  70.4764399  33.9183350  21.4715654
  71.9871069  33.8405147  21.5324827  81.6404554  44.7507670  24.0610591
  80.6934889  44.6313021  23.9888918  81.9887327  43.8630168  24.1436852
  74.0004127  30.6401809  27.8848833  74.5238529  30.8864105  28.6475142
  73.7816460  31.4721844  27.4651970  69.3971408  32.9105483  15.7519957
  69.0684114  32.0302862  15.5695063  69.7510779  32.8553152  16.6396347
  78.6450987  44.5460386  20.2614943  78.4975950  43.6177094  20.4422513
  79.4704481  44.5680477  19.7772018  72.5113231  33.1978453  16.1195435
  72.8509304  33.7264374  15.3974044  72.9585352  33.5358859  16.8954002
  82.2485109  45.3688945  21.3479816  83.1731656  45.1631806  21.2104267
  82.0800412  45.1205346  22.2569157  75.2056672  31.5815504  25.5698503
  74.8653493  30.7823317  25.9719183  74.4995679  31.8817215  24.9975336
  75.8573144  28.6664816  24.0225826  76.6799213  28.1925295  23.9004717
  76.1011208  29.4455300  24.5224513  74.4981379  31.6953075  14.3188728
  75.2189741  32.0734328  13.8152445  73.8746683  32.4141952  14.4223706
  78.6412501  32.3998224  15.2547060  78.8576116  33.2822862  14.9535888
  78.1606569  32.0084437  14.5252702  73.3811723  35.3583937  21.8317805
  73.2356304  35.6724240  22.7242086  72.9036926  35.9768837  21.2788703
  75.2408106  32.3486485  21.8798694  75.2269674  31.4527578  21.5430992
  75.9580534  32.3557149  22.5136980  77.0934236  32.7823825  23.9251822
  76.8352014  33.7040896  23.9236152  76.5619277  32.3854260  24.6152286
  82.0380425  45.8874612  16.7041907  82.2117303  45.3221035  15.9515760
  82.5309316  46.6875507  16.5221397  67.8557385  37.8989281  24.7705466
  67.3110853  38.6749089  24.9025740  68.7336735  38.2460086  24.6124587
  74.6445002  31.2300865  17.1486265  74.7660913  30.3017511  17.3477152
  74.3547044  31.2439551  16.2364580  77.5136192  28.9155776  20.2852984
  77.5357889  28.9795109  19.3304964  77.9304251  28.0760284  20.4793491
  87.8919816  38.6511035  18.3232207  88.3350962  37.9018360  17.9251330
  87.0146327  38.6421172  17.9405939  83.0255598  45.2041377  13.8038806
  83.7206502  45.8248069  14.0226120  83.3678748  44.3536728  14.0791183
  68.6423407  37.0259178  27.6635623  67.9005143  37.1741813  28.2500253
  68.3216151  37.2867443  26.8002372  84.9247021  42.6541082  15.3326136
  85.4498345  42.9928355  14.6075456  84.8369373  41.7188098  15.1489271
  76.6087682  48.7213066  19.6921389  76.1692672  48.2289444  20.3854246
  77.3595799  48.1786033  19.4513465  69.0880021  44.9124606  19.6946018
  69.9138040  44.6128378  19.3144661  68.7374073  44.1432229  20.1435806
  74.0561554  44.2651075  21.7643691  73.4341563  43.6021780  21.4645919
  74.7266421  44.2912206  21.0817339  67.2888626  42.8310933  20.6534951
  66.4520534  42.4033107  20.4718952  67.2612271  43.0243376  21.5905742
  84.7338802  40.1366452  27.9510063  84.7836807  39.9716460  28.8925586
  84.6252725  39.2693711  27.5607944  73.6175061  42.8154998  15.2402152
  73.7663181  43.4990462  14.5868824  74.4241504  42.7960088  15.7551607
  87.4352681  40.1216274  20.7154655  88.2699572  40.5606078  20.8792215
  87.5711810  39.6454927  19.8962900  84.4844187  37.6796008  26.6632142
  84.9598309  37.8723655  25.8550994  83.5609752  37.7355194  26.4175526
  71.3727694  38.8420176  16.2463221  71.1273736  37.9382506  16.4443431
  71.5423608  38.8437326  15.3042699  79.0624403  29.7143852  25.6287976
  79.5806347  30.4504879  25.3034465  78.7079536  30.0207845  26.4634735
  70.6423341  34.5748533  13.7449382  69.9492586  34.6492888  13.0889418
  70.3975093  33.8108877  14.2670899  79.3136998  26.1344134  21.1488873
  79.5938751  25.4667324  21.7749299  80.0987605  26.3273230  20.6363537
  77.1170466  45.3103128  12.7113899  76.5444433  45.9293316  12.2584371
  77.6903260  45.8602490  13.2453821  83.1845856  34.5561768  24.8960448
  84.1363279  34.6559866  24.9172672  83.0149306  33.7640037  25.4058532
  81.2060235  31.6417352  25.0819849  80.6110168  31.9222364  24.3866337
  80.9209932  32.1311253  25.8536590  80.3367726  45.5940279  13.8422481
  81.2698399  45.5285840  14.0455357  80.2490939  46.4296545  13.3837014
  82.9655743  44.9106149  10.8026429  82.8869374  44.5766012  11.6962187
  83.7865409  45.4027917  10.8017901  85.6633934  37.7767888  24.0102748
  85.6310254  36.8383889  24.1962431  86.2734557  37.8551925  23.2768572
  77.5017265  36.6463941  10.0529952  78.4476369  36.5170149  10.1218370
  77.1231510  35.9078603  10.5299380  85.8128422  34.5678932  24.0561031
  85.2967471  33.7837388  23.8690960  86.6968371  34.2397648  24.2207550
  83.4739149  28.3119947  20.0156843  83.2763970  28.0035035  20.9000175
  84.0838855  29.0381586  20.1454773  91.4810484  38.8383895  23.1508784
  92.2113872  38.5769183  23.7116488  90.8717429  38.1012617  23.1910852
  89.5625781  36.9791758  23.7483236  88.8358944  36.8447723  23.1399727
  89.1473068  37.2868586  24.5539954  75.6860182  34.5713918   9.9884837
  74.7791637  34.2747030  10.0647550  75.9636163  34.2743736   9.1219123
  66.6038122  35.8920281  20.4383883  66.2840907  35.0385589  20.1458257
  66.0571550  36.1068859  21.1941851  70.3818030  38.6082722  24.1553390
  70.6004039  39.5399830  24.1741424  70.7943804  38.2490696  24.9408194
  77.3022248  29.1150807  16.1429078  76.4922976  28.7697892  16.5184324
  77.9906664  28.8058351  16.7316690  79.2312796  28.1928854  17.7653375
  79.7843834  28.6124307  18.4243398  79.4682882  27.2664602  17.8076331
  74.4558966  31.4300853  10.1296816  75.3178130  31.7555751  10.3892633
  74.6409311  30.6432349   9.6169882  66.4726382  39.5123192  22.4077005
  65.7789854  39.0977145  21.8946959  67.2199373  39.5543729  21.8110424
  82.6091603  30.3029379  17.2732039  82.0290272  30.9614183  16.8910091
  82.3427536  29.4806724  16.8619457  81.0595169  29.7034437  19.4753359
  81.5594948  29.8150971  18.6667678  81.7030777  29.3995490  20.1154168
  68.3863125  39.4441446  20.2843020  68.3633813  39.5429133  19.3324903
  68.6963761  40.2906597  20.6060186  81.3916481  32.4629470  16.3288387
  80.5042336  32.7479120  16.1108582  81.8070470  32.3023233  15.4815664
  84.7431017  32.4875991  20.0442727  85.5191407  32.9772443  20.3167343
  84.0179151  32.9134045  20.5014596  87.1803576  33.2003610  21.1016667
  87.7748066  32.9599346  20.3909975  87.2530159  32.4810740  21.7290203
  69.4000731  47.0437221  21.4159832  69.2655199  46.2837622  20.8497830
  68.9832794  47.7678121  20.9488621  80.5359694  42.2274144  10.4236407
  81.2395544  42.4324147  11.0394063  79.8122343  42.7950906  10.6885491
  81.3657505  37.9784006  16.5438677  81.3092706  38.4352557  15.7046310
  81.9185847  37.2174690  16.3661520  85.1762311  33.7673737  17.3688797
  84.9199245  33.3670373  18.1997005  84.5515179  34.4817531  17.2438936
  89.4874648  36.5069811  19.8760088  88.9274206  36.5763000  20.6491650
  88.8818152  36.3310795  19.1559585  82.4446392  42.6656673  12.4734867
  83.2791996  42.2337872  12.2912342  82.2830735  42.4938687  13.4011762
  82.0992284  39.1688787  13.8391207  82.0441088  39.0033058  12.8979651
  81.4738339  39.8764820  13.9953396  66.8884799  34.4056851  27.6652629
  67.5343663  33.8955805  28.1539854  66.6801950  35.1425533  28.2396054
  75.4088409  28.6696896  13.4176525  75.3967079  29.6138736  13.5744796
  76.3011831  28.4867041  13.1235986  75.3377973  47.3465786  21.5044282
  74.3873604  47.3467648  21.3908654  75.6410460  46.5998521  20.9880316
  79.2240529  25.2639672  17.6722462  78.4572925  24.7098159  17.8179144
  79.6351234  25.3361541  18.5336613  71.2282290  31.5524468  31.7627643
  72.0913752  31.1961273  31.9730968  70.6547701  31.2138363  32.4503047
  91.0730667  53.1826325  22.5690044  91.7109077  53.0633072  21.8653384
  90.9551510  54.1307169  22.6277996  87.8820373  53.1353753  22.5051569
  87.5438885  53.0194817  21.6172104  88.7510141  52.7344918  22.4852575
  83.7407189  54.9889229  18.4948460  83.1772054  54.8979166  17.7264747
  83.6259584  54.1689134  18.9750952  88.3640156  54.2888604  28.4637774
  88.3528797  53.8941403  27.5918278  88.5260796  53.5554677  29.0571546
  81.2871621  56.4840421  21.3332680  82.0792913  56.1431245  20.9178979
  81.5268271  56.5935396  22.2534833  89.3206748  58.6560197  13.8062925
  88.6694727  59.2414277  13.4196938  90.1151110  59.1866392  13.8657962
  83.2462375  55.7449334  14.2050059  84.0193251  55.1978321  14.0662935
  83.5987774  56.6093583  14.4164520  85.0847417  57.0725716  27.4116958
  84.7937283  57.9771347  27.2963625  85.7204402  57.1142244  28.1261028
  86.0103624  54.4502565  24.0018318  86.6067196  54.2258587  23.2875281
  86.0678596  53.7087310  24.6043766  85.5828653  51.9042000  11.8368509
  85.8354173  51.3823521  11.0751972  84.6453212  51.7408146  11.9395192
  90.6271935  50.9077778  19.6443252  91.4135025  50.4897202  19.2933669
  90.8910640  51.8123871  19.8124900  90.7982013  56.3450629  14.3431909
  90.1627846  56.4185255  15.0552814  90.4679419  56.9344228  13.6650988
  96.0280362  50.8453012  20.5476231  96.7605534  50.2752228  20.7814060
  95.2719718  50.4574612  20.9882736  85.3024941  53.8070106  14.0392884
  85.1861199  53.1315009  14.7073968  85.4127201  53.3202480  13.2225037
  87.6456482  53.2680253  17.7439573  87.2814689  52.7410874  18.4552495
  88.5023598  52.8778722  17.5706058  93.5505783  44.5574586  25.0070839
  93.2189108  45.4269997  24.7832054  92.9551396  44.2410870  25.6864870
  87.2861969  48.2970153  12.7400922  87.4536372  49.1650389  13.1071393
  87.0959138  48.4597435  11.8162211  90.0437302  56.7587132  24.4066752
  89.7438025  57.6612171  24.2982559  89.6988362  56.4919315  25.2587905
  83.4949784  53.2100929  20.4403456  82.5700280  53.0777143  20.6481148
  83.7434197  53.9895148  20.9373399  93.4434446  49.2769672  22.0864189
  92.5351323  49.2085080  21.7922950  93.3922042  49.7541617  22.9146015
  87.2651190  50.7527810  13.7247588  87.1450815  51.1984861  14.5633069
  86.5703778  51.1013128  13.1661127  80.8558595  52.8534202  21.2747245
  80.9850976  53.1068681  22.1886657  80.1756046  53.4461910  20.9551901
  85.0258082  63.5231452  17.3737720  84.9482112  64.4739277  17.4526200
  84.4219726  63.1777325  18.0312646  87.5175312  50.6959317  30.0299087
  86.7408646  51.2553238  30.0201951  88.1565875  51.1816100  30.5513957
  95.3096093  47.4786110  23.8642063  94.6670473  47.7718643  23.2181858
  94.8051021  47.3639031  24.6695260  92.9636256  51.2249284  14.5527922
  93.8754112  51.4576670  14.3775620  92.4545903  51.8086328  13.9903001
  85.7721684  53.5044771  29.5917054  86.5136369  54.0429815  29.3151877
  85.0658670  54.1311060  29.7488605  91.2477024  55.6473911  28.1889215
  91.6560380  55.2056322  27.4443847  90.5254285  55.0726539  28.4423408
  87.6008094  50.5846518  25.5622772  88.4469289  51.0085932  25.7057421
  87.5406732  49.9280142  26.2561335  91.5705839  56.2075102  21.9441504
  90.9414701  56.3720816  21.2417572  91.1831501  56.6216712  22.7152468
  95.4495070  57.1429540  19.2985868  94.7646109  57.5228441  18.7482901
  95.5338920  57.7524866  20.0317815  90.7507539  48.2450886  27.2203946
  90.5068471  48.9992947  26.6838221  91.0267470  48.6236234  28.0551193
  92.7046002  54.7889499  25.8981211  92.9162897  55.4321259  25.2215592
  92.6575750  53.9551815  25.4303141  90.3072231  47.4007319  22.8017783
  89.4456710  47.6988573  23.0934521  90.3334666  47.6177718  21.8698816
  87.1233800  55.9449510  19.2091589  87.5872146  56.2237213  18.4196212
  86.8590599  55.0432955  19.0264680  84.0157881  55.4920992  22.1471352
  84.5859239  55.9208260  21.5088837  84.6065993  55.2103576  22.8455538
  86.0602686  52.0672662  16.0181154  86.7626730  52.5193706  16.4855081
  85.7283315  51.4256481  16.6461047  84.5083048  50.6584419  30.3932364
  83.8781709  51.3400700  30.6267760  84.4019136  50.5467501  29.4485502
  79.8028020  50.3256215  21.3198288  79.0127074  50.5813744  20.8438398
  80.2939268  51.1404553  21.4250328  93.8191830  57.6661454  24.0703569
  94.6409274  57.2641642  23.7886250  93.8154233  57.5629688  25.0219684
  81.7542766  50.6900794  18.2781764  80.9573929  50.8019489  18.7965260
  81.5268358  51.0287447  17.4122655  87.5848433  57.2145498  26.2264279
  87.6492866  57.6765905  27.0622451  86.8759357  56.5842862  26.3546589
 101.9097823  54.0100203  20.4188540 101.1561531  53.4407601  20.2632544
 102.0445364  53.9762867  21.3659175  87.2996451  58.8813605  16.0943259
  87.1642126  59.7265141  16.5228107  87.8406264  59.0832883  15.3309193
  83.7863791  44.9605185  32.7557615  83.3930736  44.4071383  33.4305259
  84.6029931  45.2715763  33.1464132  80.7525848  56.3989043  16.6671184
  81.2650369  57.1932293  16.8176749  81.4048561  55.7015334  16.6004786
  82.5620733  59.5154799  18.7493938  82.7387362  60.4372764  18.5614922
  83.3577567  59.2013219  19.1788317  88.9264927  59.5037172  30.2243601
  88.4828782  58.7173550  29.9064506  89.5882141  59.6916322  29.5587492
  83.6852049  61.0332973  24.7504280  84.2359474  60.9050036  23.9781274
  82.8463525  61.3327862  24.3999173  91.0246166  59.7839971  28.2525003
  91.0064641  60.6048853  27.7605272  91.9466086  59.6594047  28.4775144
  87.4819220  57.2984101  29.0948511  88.0147556  56.5372389  28.8647819
  86.9533301  57.0057753  29.8372666  90.6488915  42.4044167  24.6242153
  90.3053184  43.2945809  24.5481263  91.0167877  42.2145825  23.7611738
  78.7174765  54.7277697  17.4430755  79.5549987  55.1374706  17.2264463
  78.8953033  53.7877140  17.4130949  90.6139197  52.3952778  13.1314588
  90.0985821  53.1657383  13.3702975  90.3416506  51.7217914  13.7547649
  88.1986308  47.2402479  18.1899826  87.3427905  46.8509329  18.0105465
  88.6113260  47.3194440  17.3299612  89.7285455  44.7748822  22.5891386
  89.2250251  44.7378957  21.7759191  90.0216062  45.6841565  22.6488043
  85.9728341  44.8587552  21.5957568  86.8381338  44.6630360  21.2363457
  86.0405850  44.6297904  22.5226925  95.5873472  55.1485133  15.0667761
  94.8102914  54.8096292  14.6222924  96.2664952  55.1537756  14.3922726
  90.4025501  50.2679870  14.9574369  90.0975636  50.5826019  15.8084512
  91.3555943  50.3461290  15.0001702  88.8471932  56.4270093  16.6067323
  88.3193294  55.6922853  16.2940561  88.3459435  57.2044770  16.3607291
  93.8264778  54.6219114  21.7234369  93.1688453  55.3118375  21.8114498
  94.6305178  55.0115546  22.0668356  83.5790660  47.0889760  18.9673935
  84.1534412  46.8664941  18.2347128  84.1661642  47.1578454  19.7202536
  92.6370237  52.9763487  19.7738311  93.1502119  53.6093478  20.2760021
  93.2871461  52.3764682  19.4081671  83.9060247  49.1194221  12.9869820
  83.0697559  49.4568907  13.3079095  83.7665017  48.9843201  12.0496957
  85.8813328  43.9631009  17.6949004  85.2277740  43.6480026  17.0705619
  85.8393802  43.3406749  18.4208827  86.9924533  54.2450304   9.6102296
  86.0851594  54.0139557   9.8093445  87.4895565  53.4487923   9.7976278
  89.8992611  62.9547811  12.5298982  89.2254310  63.2579508  13.1383940
  90.2858433  63.7576891  12.1804439  89.1151068  50.4512942  22.0196652
  88.1973629  50.6727889  21.8618340  89.5311212  50.5259253  21.1608359
  89.8986116  51.8504358  17.1499332  90.6457935  52.3625755  16.8406454
  90.1677705  51.5288411  18.0103726  88.1712766  54.3462899  14.1326286
  87.2623985  54.0621931  14.2298756  88.2007850  54.7661977  13.2729593
  93.4032033  57.9569488  17.9017454  92.9494361  57.1160398  17.9582644
  92.7726000  58.5930886  18.2392234  92.3464953  48.8861474  19.1318121
  91.6087710  48.3738860  19.4628364  92.5991727  48.4461856  18.3201398
  91.8464973  59.7945985  18.8367272  92.1387947  60.3551042  18.1179638
  92.3563593  60.0874546  19.5920431  92.4476580  41.6637726  19.7259891
  92.7535457  40.8035090  19.4385806  93.1729185  42.2555346  19.5258884
  78.7400936  52.0668413  18.1141488  78.5425336  51.4737773  17.3892555
  78.1847600  51.7620623  18.8317427  86.7197660  51.9591519  20.2336082
  86.7746270  51.0065356  20.1578558  85.9088862  52.1150958  20.7177380
  87.8688854  55.8871642  11.4714365  87.4308284  55.1707501  11.0120002
  88.6099295  56.1147757  10.9099456  84.6590020  50.5768579  17.9926460
  83.8457886  50.8762749  18.3991653  85.1549014  50.1824268  18.7100943
  86.8098598  60.5726336  19.9260725  86.7674777  60.7987182  18.9969257
  87.7261297  60.3389710  20.0746526  90.2564232  51.0410403  26.8241354
  90.6113619  51.2681877  27.6835820  90.9036363  51.3728780  26.2018610
  95.9861969  54.1628839  17.5290683  95.8479867  54.3530435  16.6011873
  95.6298187  54.9248222  17.9858735  84.1504095  48.1486934  23.6087695
  84.7903474  48.0075694  22.9110659  83.3181625  47.8621448  23.2326297
  96.0131348  56.2305366  22.5401955  96.4467855  56.1380655  23.3885009
  96.7262929  56.2062867  21.9021971  84.9264399  57.4489365  19.7222688
  85.7204997  56.9539685  19.5205263  84.2156091  56.9207228  19.3590393
  89.7459243  59.8307460  24.0735055  89.7996265  60.3998397  24.8412771
  88.8774024  60.0009345  23.7089093  81.2347162  51.5932447  15.7982441
  80.3044750  51.5316902  16.0152403  81.3304634  51.0708399  15.0019082
  81.1532711  48.1187259  18.3860682  81.4139528  49.0332593  18.2769843
  81.9749883  47.6511702  18.5357295  82.6257636  49.5325017  25.5559507
  83.2980690  49.3242379  24.9072156  81.7987423  49.3347103  25.1164739
  96.8746898  56.2729067  25.0734840  97.0682788  57.1774877  25.3194115
  96.7747516  55.8136486  25.9073425  88.5283208  46.1586958  27.5725168
  87.8811124  46.8576907  27.4789644  89.2984224  46.5923101  27.9401416
  91.9362006  56.4235810  30.6475721  91.7847513  56.1946361  29.7305805
  91.9266686  57.3806411  30.6607066  88.7047343  53.9967722  25.6321987
  89.6339403  54.1478882  25.4590955  88.2838373  54.0851743  24.7770634
  87.5035675  58.0218387  23.4020525  87.3646760  57.6537171  24.2746463
  86.7150271  58.5366026  23.2304483  88.0983827  63.1227483  14.7446061
  88.2735582  62.6515526  15.5591684  87.4116615  63.7493250  14.9727322
  89.0540890  57.3999990  20.7909363  88.7190722  57.3600760  21.6867013
  88.5544835  56.7344705  20.3179773  83.0285134  52.8067620  26.3161944
  82.8904932  52.0747858  26.9173483  83.9390057  52.7176520  26.0346132
  91.9900081  54.7456024  11.0646422  91.3729252  54.0202852  10.9679475
  91.5216570  55.5065384  10.7213497  85.6567434  52.5187579  25.8045624
  86.3667053  51.8780771  25.7632242  85.6136743  52.7700474  26.7271804
  93.6454213  59.4554932  28.7252203  93.5866759  58.7714152  28.0582786
  94.0473731  60.1973922  28.2732829  84.3696368  49.5052797  27.6241263
  83.8333725  49.0543535  28.2762859  83.7813077  49.6398706  26.8811727
  82.6644912  66.2716846  21.5185922  82.9041510  66.9035370  22.1964940
  81.8214108  65.9204886  21.8051281  83.7798627  48.9641448  10.1867727
  82.9028094  48.8430249   9.8229973  84.2556380  48.1727526   9.9346615
  93.6471620  57.4194516  26.9566182  92.7598399  57.0820438  27.0792581
  94.2170171  56.6877547  27.1934948  75.3000767  53.7518608  20.2809234
  75.9871807  53.4380338  19.6930249  75.1448896  54.6559973  20.0076485
  87.1772774  62.0795969  23.9227426  87.1042945  62.8850940  24.4346730
  86.7350167  62.2787934  23.0975447  86.9662553  61.3167739  17.4330247
  86.1830075  61.8589419  17.5268472  87.6655299  61.8341718  17.8324488
  90.2759203  47.1262368  20.0764453  90.7727903  46.3732330  19.7565523
  89.5046185  47.1626685  19.5107662  98.1288961  52.8302734  21.7182744
  98.1178837  53.7127449  21.3476677  97.2606340  52.4774284  21.5237281
  89.6371457  61.9782803  26.0785584  90.3499429  62.6130267  26.0061486
  89.1461486  62.0746669  25.2625586  91.3588984  55.8834055  17.6502876
  90.4245263  56.0035518  17.4807580  91.5365653  54.9806522  17.3862886
  86.8594172  49.2679751  19.8036137  86.4891960  48.7150791  20.4917043
  87.3553265  48.6637884  19.2511137  94.7461536  51.7251375  18.1852910
  95.2121988  52.5579366  18.1113213  95.1969036  51.2596356  18.8898169
  84.6883371  59.7277246  26.8991155  85.3892830  60.3613729  27.0520549
  84.2178486  60.0691978  26.1386794  92.8137767  58.0695196  15.1839062
  93.0897611  57.9551790  16.0932936  91.9442265  57.6712681  15.1451235
  92.7178198  44.0931961  22.2243811  91.8041278  44.3236188  22.3926018
  93.1471300  44.1770406  23.0757844  92.4884657  52.2821853  24.7243705
  91.8356107  52.5297761  24.0696158  92.8665037  51.4685992  24.3906183
  89.4491831  62.3181547  18.8271876  89.6314225  61.5003203  19.2899628
  90.2724817  62.5349239  18.3896766  89.7833996  61.2449732  16.0886924
  90.3121763  60.7342186  15.4757086  90.0462216  60.9292262  16.9532457
  88.5372230  53.0241665  31.2109743  87.8612867  52.9235794  31.8812118
  89.3599864  52.8680878  31.6745740  80.2851089  59.2613601  23.8322258
  80.8704526  58.5157289  23.9650162  80.0875927  59.5717558  24.7158922
  83.1389744  62.2964848  18.8484700  82.4700119  62.7810976  18.3648740
  83.0002614  62.5434069  19.7628079  74.8768744  51.8319201  22.5526701
  74.9152843  51.2982792  23.3463819  74.3709036  51.3054407  21.9337678
  87.2795013  64.3308592  25.4467359  87.8313321  64.4940213  26.2116444
  87.6201206  64.9213030  24.7747383  82.2559506  46.6783742  26.0489243
  82.3200832  47.5398573  25.6366641  82.1926626  46.0657743  25.3161602
  92.1305887  59.1569849  31.3016013  92.6745791  59.7699808  30.8070968
  91.5492732  59.7149428  31.8183026  78.5077321  50.5583303  15.6280632
  78.8030762  49.6493982  15.5747686  77.6065357  50.5371043  15.3061635
  90.4163400  62.2790567  22.4331041  90.2914539  61.4780307  21.9241986
  91.0742491  62.7736761  21.9445011  82.0371568  48.6339300  21.6108181
  81.3158154  49.2475268  21.4715654  82.8264824  49.1697065  21.5324827
  92.4798308  60.0799588  24.0610591  91.5328644  59.9604939  23.9888918
  92.8281081  59.1922086  24.1436852  84.8397882  45.9693726  27.8848833
  85.3632284  46.2156023  28.6475142  84.6210215  46.8013761  27.4651970
  80.2365163  48.2397401  15.7519957  79.9077869  47.3594780  15.5695063
  80.5904533  48.1845070  16.6396347  89.4844742  59.8752304  20.2614943
  89.3369704  58.9469011  20.4422513  90.3098235  59.8972395  19.7772018
  83.3506986  48.5270371  16.1195435  83.6903058  49.0556292  15.3974044
  83.7979106  48.8650777  16.8954002  93.0878863  60.6980863  21.3479816
  94.0125411  60.4923724  21.2104267  92.9194167  60.4497264  22.2569157
  86.0450427  46.9107422  25.5698503  85.7047247  46.1115235  25.9719183
  85.3389433  47.2109132  24.9975336  86.6966899  43.9956734  24.0225826
  87.5192968  43.5217212  23.9004717  86.9404962  44.7747218  24.5224513
  85.3375133  47.0244992  14.3188728  86.0583496  47.4026245  13.8152445
  84.7140437  47.7433869  14.4223706  89.4806256  47.7290141  15.2547060
  89.6969870  48.6114779  14.9535888  89.0000323  47.3376355  14.5252702
  84.2205477  50.6875855  21.8317805  84.0750058  51.0016158  22.7242086
  83.7430681  51.3060755  21.2788703  86.0801860  47.6778403  21.8798694
  86.0663429  46.7819496  21.5430992  86.7974288  47.6849066  22.5136980
  87.9327991  48.1115743  23.9251822  87.6745769  49.0332814  23.9236152
  87.4013031  47.7146177  24.6152286  92.8774180  61.2166530  16.7041907
  93.0511057  60.6512952  15.9515760  93.3703071  62.0167425  16.5221397
  85.4838756  46.5592783  17.1486265  85.6054667  45.6309429  17.3477152
  85.1940799  46.5731469  16.2364580  88.3529947  44.2447693  20.2852984
  88.3751643  44.3087026  19.3304964  88.7698006  43.4052202  20.4793491
  98.7313571  53.9802953  18.3232207  99.1744717  53.2310278  17.9251330
  97.8540081  53.9713089  17.9405939  93.8649352  60.5333294  13.8038806
  94.5600257  61.1539987  14.0226120  94.2072502  59.6828646  14.0791183
  95.7640775  57.9833000  15.3326136  96.2892099  58.3220273  14.6075456
  95.6763128  57.0480015  15.1489271  87.4260824  61.8967074  27.4616013
  87.7347950  61.6516220  28.3338712  88.2236306  62.1013712  26.9734883
  87.4481436  64.0504983  19.6921389  87.0086426  63.5581362  20.3854246
  88.1989553  63.5077951  19.4513465  79.9273775  60.2416524  19.6946018
  80.7531795  59.9420296  19.3144661  79.5767827  59.4724146  20.1435806
  84.8955308  59.5942992  21.7643691  84.2735317  58.9313697  21.4645919
  85.5660175  59.6204124  21.0817339  78.1282380  58.1602851  20.6534951
  77.2914288  57.7325025  20.4718952  78.1006025  58.3535294  21.5905742
  84.9679836  48.0724780  31.3576197  85.0167991  48.9486903  30.9753967
  85.5102350  47.5302173  30.7847840  95.4534681  58.6165904  30.6377334
  94.6630225  58.5990042  30.0981834  95.2168036  59.1554197  31.3926371
  95.5732556  55.4658370  27.9510063  95.6230561  55.3008377  28.8925586
  95.4646480  54.5985629  27.5607944  84.4568815  58.1446916  15.2402152
  84.6056935  58.8282380  14.5868824  85.2635259  58.1252006  15.7551607
  92.8636319  51.4489298  29.2669369  93.7646182  51.3095763  28.9753367
  92.9384293  51.6143753  30.2067547  87.1979124  48.8256153  28.1122556
  86.3282434  49.1189719  27.8405144  87.4338604  49.4096598  28.8329819
  97.0750753  57.8855311  28.1952084  96.7835562  58.2485292  29.0315545
  96.4622885  57.1722320  28.0165416  98.2746436  55.4508191  20.7154655
  99.1093327  55.8897995  20.8792215  98.4105564  54.9746844  19.8962900
  95.3237941  53.0087926  26.6632142  95.7992063  53.2015572  25.8550994
  94.4003507  53.0647112  26.4175526  82.2121448  54.1712093  16.2463221
  81.9667490  53.2674423  16.4443431  82.3817363  54.1729244  15.3042699
  89.9018158  45.0435770  25.6287976  90.4200102  45.7796797  25.3034465
  89.5473291  45.3499763  26.4634735  81.4817096  49.9040451  13.7449382
  80.7886341  49.9784806  13.0889418  81.2368848  49.1400794  14.2670899
  90.1530752  41.4636052  21.1488873  90.4332506  40.7959241  21.7749299
  90.9381359  41.6565148  20.6363537  87.9564221  60.6395046  12.7113899
  87.3838188  61.2585233  12.2584371  88.5297014  61.1894408  13.2453821
  94.0239610  49.8853686  24.8960448  94.9757033  49.9851784  24.9172672
  93.8543061  49.0931955  25.4058532  92.0453990  46.9709269  25.0819849
  91.4503922  47.2514282  24.3866337  91.7603687  47.4603170  25.8536590
  91.1761480  60.9232196  13.8422481  92.1092154  60.8577758  14.0455357
  91.0884693  61.7588463  13.3837014  93.8049497  60.2398067  10.8026429
  93.7263129  59.9057930  11.6962187  94.6259164  60.7319834  10.8017901
  96.5027688  53.1059806  24.0102748  96.4704008  52.1675807  24.1962431
  97.1128312  53.1843843  23.2768572  88.3411019  51.9755859  10.0529952
  89.2870124  51.8462067  10.1218370  87.9625264  51.2370521  10.5299380
  96.6522177  49.8970849  24.0561031  96.1361225  49.1129306  23.8690960
  97.5362125  49.5689566  24.2207550  94.3132904  43.6411865  20.0156843
  94.1157725  43.3326953  20.9000175  94.9232609  44.3673504  20.1454773
 102.3204238  54.1675813  23.1508784 103.0507627  53.9061101  23.7116488
 101.7111184  53.4304535  23.1910852 100.4019535  52.3083675  23.7483236
  99.6752699  52.1739640  23.1399727  99.9866822  52.6160504  24.5539954
  88.2249712  56.0273605  31.5130609  89.1452721  56.2052204  31.7070655
  88.1899295  55.0829650  31.3610308  86.5253936  49.9005835   9.9884837
  85.6185392  49.6038948  10.0647550  86.8029917  49.6035653   9.1219123
  77.4431877  51.2212199  20.4383883  77.1234661  50.3677507  20.1458257
  76.8965305  51.4360777  21.1941851  88.1416002  44.4442725  16.1429078
  87.3316730  44.0989810  16.5184324  88.8300419  44.1350269  16.7316690
  90.0706550  43.5220772  17.7653375  90.6237589  43.9416225  18.4243398
  90.3076637  42.5956520  17.8076331  86.0939650  49.5107845  33.5456139
  85.9936376  50.4602202  33.4768230  85.8761192  49.1826084  32.6732209
  85.2952721  46.7592770  10.1296816  86.1571885  47.0847669  10.3892633
  85.4803065  45.9724266   9.6169882  77.3120137  54.8415110  22.4077005
  76.6183608  54.4269063  21.8946959  78.0593128  54.8835647  21.8110424
  93.4485357  45.6321297  17.2732039  92.8684026  46.2906101  16.8910091
  93.1821290  44.8098641  16.8619457  91.8988924  45.0326355  19.4753359
  92.3988702  45.1442889  18.6667678  92.5424532  44.7287407  20.1154168
  79.2256879  54.7733364  20.2843020  79.2027567  54.8721051  19.3324903
  79.5357516  55.6198515  20.6060186  81.8844257  56.8309519  24.3989634
  82.8387511  56.7993461  24.3319566  81.6856781  56.3700143  25.2139860
  92.2310235  47.7921387  16.3288387  91.3436090  48.0771038  16.1108582
  92.6464224  47.6315151  15.4815664  95.5824772  47.8167908  20.0442727
  96.3585162  48.3064361  20.3167343  94.8572906  48.2425962  20.5014596
  98.0197330  48.5295527  21.1016667  98.6141821  48.2891263  20.3909975
  98.0923914  47.8102658  21.7290203  80.2394486  62.3729138  21.4159832
  80.1048954  61.6129539  20.8497830  79.8226548  63.0970038  20.9488621
  91.3753449  57.5566062  10.4236407  92.0789299  57.7616064  11.0394063
  90.6516098  58.1242824  10.6885491  92.2051259  53.3075923  16.5438677
  92.1486461  53.7644475  15.7046310  92.7579602  52.5466608  16.3661520
  96.0156065  49.0965655  17.3688797  95.7592999  48.6962291  18.1997005
  95.3908933  49.8109449  17.2438936 100.3268403  51.8361728  19.8760088
  99.7667961  51.9054918  20.6491650  99.7211906  51.6602713  19.1559585
  83.3963612  63.2698455  21.6278275  83.2795996  64.2143888  21.5256965
  82.5756058  62.9672017  22.0164074  93.2840146  57.9948591  12.4734867
  94.1185750  57.5629790  12.2912342  93.1224489  57.8230605  13.4011762
  92.9386038  54.4980704  13.8391207  92.8834842  54.3324976  12.8979651
  92.3132094  55.2056737  13.9953396  90.2531946  56.8029616  33.1644769
  91.1223105  56.9770269  32.8031404  89.7738697  57.6224033  33.0420499
  86.2482164  43.9988813  13.4176525  86.2360834  44.9430653  13.5744796
  87.1405586  43.8158959  13.1235986  84.4218126  63.9226717  24.8434203
  85.3245373  63.9550328  25.1600698  84.1955496  62.9927168  24.8580539
  86.1771728  62.6757704  21.5044282  85.2267359  62.6759565  21.3908654
  86.4804214  61.9290438  20.9880316  90.0634283  40.5931590  17.6722462
  89.2966679  40.0390077  17.8179144  90.4744988  40.6653459  18.5336613
 101.9124421  68.5118242  22.5690044 102.5502831  68.3924990  21.8653384
 101.7945264  69.4599086  22.6277996  98.7214128  68.4645670  22.5051569
  98.3832639  68.3486735  21.6172104  99.5903896  68.0636835  22.4852575
  94.5800943  70.3181147  18.4948460  94.0165808  70.2271084  17.7264747
  94.4653338  69.4981051  18.9750952  99.2033911  69.6180522  28.4637774
  99.1922551  69.2233320  27.5918278  99.3654550  68.8846595  29.0571546
  92.1265375  71.8132338  21.3332680  92.9186667  71.4723163  20.9178979
  92.3662025  71.9227313  22.2534833 100.1600502  73.9852114  13.8062925
  99.5088482  74.5706195  13.4196938 100.9544865  74.5158309  13.8657962
  94.0856129  71.0741252  14.2050059  94.8587005  70.5270239  14.0662935
  94.4381528  71.9385501  14.4164520  95.9241172  72.4017634  27.4116958
  95.6331038  73.3063265  27.2963625  96.5598156  72.4434161  28.1261028
  96.8497379  69.7794482  24.0018318  97.4460951  69.5550505  23.2875281
  96.9072350  69.0379228  24.6043766  96.4222407  67.2333918  11.8368509
  96.6747928  66.7115439  11.0751972  95.4846966  67.0700063  11.9395192
 101.4665690  66.2369696  19.6443252 102.2528779  65.8189119  19.2933669
 101.7304394  67.1415788  19.8124900 101.6375767  71.6742546  14.3431909
 101.0021600  71.7477173  15.0552814 101.3073174  72.2636145  13.6650988
 106.8674117  66.1744929  20.5476231 107.5999289  65.6044146  20.7814060
 106.1113473  65.7866530  20.9882736  96.1418696  69.1362024  14.0392884
  96.0254954  68.4606927  14.7073968  96.2520956  68.6494398  13.2225037
  98.4850237  68.5972171  17.7439573  98.1208444  68.0702792  18.4552495
  99.3417353  68.2070640  17.5706058 104.3899537  59.8866503  25.0070839
 104.0582862  60.7561914  24.7832054 103.7945151  59.5702787  25.6864870
  98.1255724  63.6262070  12.7400922  98.2930126  64.4942307  13.1071393
  97.9352893  63.7889352  11.8162211 100.8831057  72.0879049  24.4066752
 100.5831780  72.9904088  24.2982559 100.5382116  71.8211233  25.2587905
  94.3343538  68.5392846  20.4403456  93.4094035  68.4069060  20.6481148
  94.5827952  69.3187065  20.9373399 104.2828201  64.6061590  22.0864189
 103.3745078  64.5376998  21.7922950 104.2315796  65.0833535  22.9146015
  98.1044945  66.0819728  13.7247588  97.9844570  66.5276779  14.5633069
  97.4097533  66.4305046  13.1661127  91.6952349  68.1826120  21.2747245
  91.8244731  68.4360599  22.1886657  91.0149801  68.7753828  20.9551901
  95.8651837  78.8523370  17.3737720  95.7875866  79.8031195  17.4526200
  95.2613480  78.5069242  18.0312646  98.3569066  66.0251235  30.0299087
  97.5802400  66.5845155  30.0201951  98.9959629  66.5108018  30.5513957
 106.1489847  62.8078028  23.8642063 105.5064227  63.1010561  23.2181858
 105.6444776  62.6930948  24.6695260 103.8030011  66.5541201  14.5527922
 104.7147867  66.7868588  14.3775620 103.2939658  67.1378245  13.9903001
  96.6115439  68.8336689  29.5917054  97.3530123  69.3721733  29.3151877
  95.9052424  69.4602977  29.7488605 102.0870778  70.9765829  28.1889215
 102.4954134  70.5348240  27.4443847 101.3648040  70.4018457  28.4423408
  98.4401848  65.9138436  25.5622772  99.2863044  66.3377849  25.7057421
  98.3800486  65.2572060  26.2561335 102.4099593  71.5367020  21.9441504
 101.7808455  71.7012734  21.2417572 102.0225255  71.9508629  22.7152468
 106.2888825  72.4721457  19.2985868 105.6039863  72.8520359  18.7482901
 106.3732674  73.0816784  20.0317815 101.5901294  63.5742804  27.2203946
 101.3462226  64.3284865  26.6838221 101.8661224  63.9528152  28.0551193
 103.5439757  70.1181416  25.8981211 103.7556652  70.7613176  25.2215592
 103.4969505  69.2843733  25.4303141 101.1465985  62.7299237  22.8017783
 100.2850465  63.0280491  23.0934521 101.1728420  62.9469636  21.8698816
  97.9627555  71.2741428  19.2091589  98.4265900  71.5529131  18.4196212
  97.6984353  70.3724872  19.0264680  94.8551636  70.8212909  22.1471352
  95.4252993  71.2500178  21.5088837  95.4459748  70.5395494  22.8455538
  96.8996441  67.3964580  16.0181154  97.6020484  67.8485624  16.4855081
  96.5677069  66.7548399  16.6461047  95.3476802  65.9876337  30.3932364
  94.7175463  66.6692618  30.6267760  95.2412890  65.8759418  29.4485502
  90.6421775  65.6548133  21.3198288  89.8520829  65.9105661  20.8438398
  91.1333022  66.4696471  21.4250328 104.6585584  72.9953372  24.0703569
 105.4803028  72.5933559  23.7886250 104.6547987  72.8921606  25.0219684
  92.5936520  66.0192712  18.2781764  91.7967684  66.1311406  18.7965260
  92.3662112  66.3579364  17.4122655  98.4242188  72.5437415  26.2264279
  98.4886620  73.0057822  27.0622451  97.7153112  71.9134780  26.3546589
  88.9259478  65.9078623  23.7513279  89.1767516  66.7925633  24.0170854
  89.4619026  65.7283225  22.9788370 112.7491578  69.3392120  20.4188540
 111.9955286  68.7699518  20.2632544 112.8839119  69.3054785  21.3659175
  98.1390206  74.2105523  16.0943259  98.0035880  75.0557058  16.5228107
  98.6800018  74.4124800  15.3309193  94.6257545  60.2897103  32.7557615
  94.2324491  59.7363301  33.4305259  95.4423686  60.6007681  33.1464132
  91.5919603  71.7280961  16.6671184  92.1044124  72.5224211  16.8176749
  92.2442316  71.0307251  16.6004786  93.4014488  74.8446717  18.7493938
  93.5781116  75.7664682  18.5614922  94.1971321  74.5305136  19.1788317
  97.5425506  61.7054982  30.3477871  98.2835220  62.3062135  30.2682334
  97.7743429  60.9632619  29.7895914  92.6866844  66.8911349  28.6256101
  92.5720359  65.9896606  28.9263200  91.8311362  67.1375046  28.2740917
  99.7658682  74.8329089  30.2243601  99.3222536  74.0465468  29.9064506
 100.4275896  75.0208240  29.5587492  94.5245803  76.3624891  24.7504280
  95.0753228  76.2341954  23.9781274  93.6857279  76.6619780  24.3999173
 101.8639920  75.1131889  28.2525003 101.8458395  75.9340770  27.7605272
 102.7859840  74.9885964  28.4775144  98.3212974  72.6276019  29.0948511
  98.8541311  71.8664307  28.8647819  97.7927055  72.3349670  29.8372666
 101.4882669  57.7336085  24.6242153 101.1446939  58.6237726  24.5481263
 101.8561632  57.5437742  23.7611738  89.5568520  70.0569615  17.4430755
  90.3943742  70.4666623  17.2264463  89.7346787  69.1169057  17.4130949
 101.4532952  67.7244696  13.1314588 100.9379575  68.4949300  13.3702975
 101.1810260  67.0509832  13.7547649  99.0380063  62.5694396  18.1899826
  98.1821659  62.1801247  18.0105465  99.4507015  62.6486357  17.3299612
 100.5679210  60.1040740  22.5891386 100.0644005  60.0670875  21.7759191
 100.8609816  61.0133482  22.6488043  96.8122095  60.1879469  21.5957568
  97.6775092  59.9922278  21.2363457  96.8799604  59.9589821  22.5226925
 106.4267226  70.4777050  15.0667761 105.6496669  70.1388210  14.6222924
 107.1058707  70.4829674  14.3922726 101.2419255  65.5971788  14.9574369
 100.9369391  65.9117937  15.8084512 102.1949697  65.6753208  15.0001702
  99.6865687  71.7562011  16.6067323  99.1587048  71.0214771  16.2940561
  99.1853190  72.5336687  16.3607291 104.6658533  69.9511032  21.7234369
 104.0082207  70.6410293  21.8114498 105.4698932  70.3407464  22.0668356
  94.4184414  62.4181677  18.9673935  94.9928166  62.1956859  18.2347128
  95.0055397  62.4870372  19.7202536 103.4763992  68.3055404  19.7738311
 103.9895873  68.9385396  20.2760021 104.1265216  67.7056600  19.4081671
  94.7454002  64.4486138  12.9869820  93.9091314  64.7860825  13.3079095
  94.6058771  64.3135118  12.0496957  96.7207082  59.2922926  17.6949004
  96.0671495  58.9771943  17.0705619  96.6787556  58.6698667  18.4208827
  97.8318287  69.5742221   9.6102296  96.9245349  69.3431475   9.8093445
  98.3289319  68.7779841   9.7976278  99.9544823  65.7804860  22.0196652
  99.0367384  66.0019807  21.8618340 100.3704966  65.8551170  21.1608359
 100.7379870  67.1796276  17.1499332 101.4851689  67.6917673  16.8406454
 101.0071460  66.8580328  18.0103726  99.0106520  69.6754816  14.1326286
  98.1017740  69.3913849  14.2298756  99.0401604  70.0953895  13.2729593
 104.2425788  73.2861406  17.9017454 103.7888115  72.4452316  17.9582644
 103.6119755  73.9222804  18.2392234 103.1858707  64.2153392  19.1318121
 102.4481464  63.7030778  19.4628364 103.4385481  63.7753773  18.3201398
 102.6858727  75.1237902  18.8367272 102.9781702  75.6842960  18.1179638
 103.1957348  75.4166463  19.5920431 103.2870335  56.9929644  19.7259891
 103.5929212  56.1327007  19.4385806 104.0122940  57.5847264  19.5258884
  89.5794691  67.3960330  18.1141488  89.3819091  66.8029691  17.3892555
  89.0241355  67.0912541  18.8317427  97.5591415  67.2883437  20.2336082
  97.6140024  66.3357273  20.1578558  96.7482617  67.4442876  20.7177380
  98.7082608  71.2163560  11.4714365  98.2702038  70.4999419  11.0120002
  99.4493049  71.4439675  10.9099456  95.4983774  65.9060497  17.9926460
  94.6851640  66.2054667  18.3991653  95.9942769  65.5116185  18.7100943
  97.6492352  75.9018254  19.9260725  97.6068531  76.1279100  18.9969257
  98.5655051  75.6681628  20.0746526 101.0957986  66.3702321  26.8241354
 101.4507374  66.5973794  27.6835820 101.7430117  66.7020698  26.2018610
 106.8255723  69.4920757  17.5290683 106.6873622  69.6822353  16.6011873
 106.4691942  70.2540140  17.9858735  94.9897849  63.4778852  23.6087695
  95.6297229  63.3367611  22.9110659  94.1575380  63.1913365  23.2326297
 106.8525103  71.5597284  22.5401955 107.2861609  71.4672573  23.3885009
 107.5656683  71.5354784  21.9021971  95.7658153  72.7781283  19.7222688
  96.5598752  72.2831603  19.5205263  95.0549846  72.2499146  19.3590393
 100.5852998  75.1599378  24.0735055 100.6390020  75.7290314  24.8412771
  99.7167779  75.3301263  23.7089093  92.0740917  66.9224364  15.7982441
  91.1438505  66.8608820  16.0152403  92.1698389  66.4000317  15.0019082
  91.9926466  63.4479177  18.3860682  92.2533283  64.3624510  18.2769843
  92.8143638  62.9803620  18.5357295  93.4651391  64.8616934  25.5559507
  94.1374444  64.6534296  24.9072156  92.6381177  64.6639020  25.1164739
 107.7140652  71.6020985  25.0734840 107.9076542  72.5066795  25.3194115
 107.6141270  71.1428404  25.9073425  99.3676963  61.4878875  27.5725168
  98.7204878  62.1868825  27.4789644 100.1377978  61.9215019  27.9401416
 102.7755761  71.7527727  30.6475721 102.6241267  71.5238279  29.7305805
 102.7660440  72.7098329  30.6607066  99.5441097  69.3259640  25.6321987
 100.4733157  69.4770800  25.4590955  99.1232127  69.4143661  24.7770634
  98.3429429  73.3510305  23.4020525  98.2040515  72.9829089  24.2746463
  97.5544025  73.8657944  23.2304483  98.9377581  78.4519401  14.7446061
  99.1129337  77.9807444  15.5591684  98.2510369  79.0785167  14.9727322
  99.8934644  72.7291907  20.7909363  99.5584477  72.6892677  21.6867013
  99.3938590  72.0636623  20.3179773  93.8678888  68.1359537  26.3161944
  93.7298686  67.4039776  26.9173483  94.7783812  68.0468437  26.0346132
 102.8293836  70.0747942  11.0646422 102.2123007  69.3494770  10.9679475
 102.3610324  70.8357302  10.7213497  96.4961189  67.8479497  25.8045624
  97.2060807  67.2072689  25.7632242  96.4530497  68.0992391  26.7271804
 104.4847968  74.7846850  28.7252203 104.4260514  74.1006070  28.0582786
 104.8867486  75.5265840  28.2732829  95.2090123  64.8344714  27.6241263
  94.6727480  64.3835453  28.2762859  94.6206831  64.9690623  26.8811727
  93.5038666  81.6008764  21.5185922  93.7435265  82.2327288  22.1964940
  92.6607863  81.2496804  21.8051281  94.6192382  64.2933366  10.1867727
  93.7421848  64.1722167   9.8229973  95.0950135  63.5019444   9.9346615
 104.4865375  72.7486434  26.9566182 103.5992154  72.4112356  27.0792581
 105.0563926  72.0169465  27.1934948  86.1394522  69.0810526  20.2809234
  86.8265562  68.7672256  19.6930249  85.9842651  69.9851890  20.0076485
  90.9429244  63.9700722  24.7094258  90.8587433  63.3626392  23.9744667
  90.1211951  64.4609740  24.7103754  98.0166528  77.4087886  23.9227426
  97.9436700  78.2142858  24.4346730  97.5743921  77.6079852  23.0975447
  97.8056308  76.6459656  17.4330247  97.0223830  77.1881336  17.5268472
  98.5049053  77.1633636  17.8324488 101.1152958  62.4554286  20.0764453
 101.6121658  61.7024248  19.7565523 100.3439939  62.4918602  19.5107662
 108.9682715  68.1594651  21.7182744 108.9572592  69.0419367  21.3476677
 108.1000095  67.8066202  21.5237281 100.4765212  77.3074720  26.0785584
 101.1893184  77.9422185  26.0061486  99.9855240  77.4038586  25.2625586
 102.1982739  71.2125973  17.6502876 101.2639017  71.3327435  17.4807580
 102.3759407  70.3098440  17.3862886  97.6987927  64.5971669  19.8036137
  97.3285714  64.0442709  20.4917043  98.1947019  63.9929802  19.2511137
 105.5855290  67.0543292  18.1852910 106.0515742  67.8871284  18.1113213
 106.0362791  66.5888274  18.8898169  95.5277125  75.0569164  26.8991155
  96.2286585  75.6905647  27.0520549  95.0572240  75.3983895  26.1386794
 103.6531521  73.3987113  15.1839062 103.9291365  73.2843708  16.0932936
 102.7836020  73.0004598  15.1451235 103.5571953  59.4223879  22.2243811
 102.6435033  59.6528106  22.3926018 103.9865054  59.5062323  23.0757844
 103.3278411  67.6113771  24.7243705 102.6749861  67.8589679  24.0696158
 103.7058791  66.7977909  24.3906183 100.2885585  77.6473464  18.8271876
 100.4707980  76.8295120  19.2899628 101.1118571  77.8641157  18.3896766
 100.6227751  76.5741649  16.0886924 101.1515517  76.0634104  15.4757086
 100.8855970  76.2584180  16.9532457  99.3765984  68.3533582  31.2109743
  98.7006621  68.2527712  31.8812118 100.1993618  68.1972796  31.6745740
  91.1244843  74.5905519  23.8322258  91.7098280  73.8449207  23.9650162
  90.9269682  74.9009475  24.7158922  93.9783499  77.6256766  18.8484700
  93.3093874  78.1102894  18.3648740  93.8396368  77.8725987  19.7628079
  85.7162498  67.1611119  22.5526701  85.7546598  66.6274710  23.3463819
  85.2102791  66.6346324  21.9337678  98.1188767  79.6600510  25.4467359
  98.6707075  79.8232131  26.2116444  98.4594961  80.2504947  24.7747383
  93.0953260  62.0075659  26.0489243  93.1594587  62.8690490  25.6366641
  93.0320381  61.3949661  25.3161602  92.5705533  64.0798792  29.6962278
  93.1977572  63.6975869  30.3099802  91.7133452  63.8612994  30.0617970
 102.9699641  74.4861767  31.3016013 103.5139545  75.0991725  30.8070968
 102.3886486  75.0441346  31.8183026  89.3471076  65.8875221  15.6280632
  89.6424517  64.9785900  15.5747686  88.4459111  65.8662961  15.3061635
 101.2557154  77.6082485  22.4331041 101.1308294  76.8072225  21.9241986
 101.9136246  78.1028679  21.9445011  92.8765323  63.9631218  21.6108181
  92.1551908  64.5767185  21.4715654  93.6658578  64.4988982  21.5324827
 103.3192063  75.4091505  24.0610591 102.3722398  75.2896856  23.9888918
 103.6674836  74.5214003  24.1436852  95.6791636  61.2985644  27.8848833
  96.2026038  61.5447941  28.6475142  95.4603969  62.1305679  27.4651970
  91.0758917  63.5689319  15.7519957  90.7471623  62.6886698  15.5695063
  91.4298288  63.5136987  16.6396347 100.3238496  75.2044221  20.2614943
 100.1763459  74.2760929  20.4422513 101.1491990  75.2264312  19.7772018
  94.1900740  63.8562289  16.1195435  94.5296813  64.3848210  15.3974044
  94.6372861  64.1942695  16.8954002 103.9272618  76.0272780  21.3479816
 104.8519165  75.8215642  21.2104267 103.7587921  75.7789181  22.2569157
  96.8844181  62.2399339  25.5698503  96.5441002  61.4407152  25.9719183
  96.1783188  62.5401050  24.9975336  97.5360653  59.3248652  24.0225826
  98.3586722  58.8509130  23.9004717  97.7798717  60.1039135  24.5224513
  96.1768888  62.3536910  14.3188728  96.8977250  62.7318163  13.8152445
  95.5534192  63.0725787  14.4223706 100.3200010  63.0582059  15.2547060
 100.5363625  63.9406697  14.9535888  99.8394078  62.6668273  14.5252702
  95.0599232  66.0167772  21.8317805  94.9143813  66.3308075  22.7242086
  94.5824435  66.6352673  21.2788703  96.9195615  63.0070320  21.8798694
  96.9057183  62.1111414  21.5430992  97.6368043  63.0140984  22.5136980
  98.7721745  63.4407661  23.9251822  98.5139523  64.3624731  23.9236152
  98.2406786  63.0438095  24.6152286 103.7167934  76.5458448  16.7041907
 103.8904812  75.9804870  15.9515760 104.2096825  77.3459343  16.5221397
  89.5344894  68.5573117  24.7705466  88.9898362  69.3332925  24.9025740
  90.4124244  68.9043921  24.6124587  96.3232511  61.8884701  17.1486265
  96.4448422  60.9601347  17.3477152  96.0334553  61.9023387  16.2364580
  99.1923701  59.5739611  20.2852984  99.2145398  59.6378944  19.3304964
  99.6091760  58.7344120  20.4793491 109.5707325  69.3094871  18.3232207
 110.0138471  68.5602196  17.9251330 108.6933836  69.3005007  17.9405939
 104.7043107  75.8625212  13.8038806 105.3994011  76.4831905  14.0226120
 105.0466257  75.0120563  14.0791183  90.3210916  67.6843013  27.6635623
  89.5792652  67.8325648  28.2500253  90.0003660  67.9451279  26.8002372
 106.6034530  73.3124918  15.3326136 107.1285854  73.6512190  14.6075456
 106.5156882  72.3771933  15.1489271  98.2654578  77.2258991  27.4616013
  98.5741705  76.9808138  28.3338712  99.0630061  77.4305630  26.9734883
  98.2875191  79.3796901  19.6921389  97.8480181  78.8873280  20.3854246
  99.0383307  78.8369869  19.4513465  90.7667530  75.5708442  19.6946018
  91.5925549  75.2712214  19.3144661  90.4161582  74.8016064  20.1435806
  95.7349063  74.9234910  21.7643691  95.1129072  74.2605615  21.4645919
  96.4053930  74.9496042  21.0817339  88.9676135  73.4894768  20.6534951
  88.1308043  73.0616943  20.4718952  88.9399780  73.6827212  21.5905742
  95.8073590  63.4016698  31.3576197  95.8561746  64.2778821  30.9753967
  96.3496104  62.8594091  30.7847840 106.2928436  73.9457821  30.6377334
 105.5023980  73.9281960  30.0981834 106.0561790  74.4846115  31.3926371
 106.4126311  70.7950288  27.9510063 106.4624316  70.6300295  28.8925586
 106.3040234  69.9277547  27.5607944  95.2962570  73.4738833  15.2402152
  95.4450690  74.1574298  14.5868824  96.1029013  73.4543923  15.7551607
 103.7030073  66.7781216  29.2669369 104.6039936  66.6387680  28.9753367
 103.7778048  66.9435670  30.2067547  98.0372879  64.1548070  28.1122556
  97.1676188  64.4481636  27.8405144  98.2732359  64.7388515  28.8329819
 107.9144508  73.2147229  28.1952084 107.6229316  73.5777210  29.0315545
 107.3016639  72.5014237  28.0165416 109.1140190  70.7800109  20.7154655
 109.9487081  71.2189913  20.8792215 109.2499319  70.3038762  19.8962900
 106.1631696  68.3379844  26.6632142 106.6385818  68.5307490  25.8550994
 105.2397261  68.3939030  26.4175526  93.0515203  69.5004011  16.2463221
  92.8061245  68.5966341  16.4443431  93.2211117  69.5021161  15.3042699
 100.7411912  60.3727687  25.6287976 101.2593856  61.1088714  25.3034465
 100.3867045  60.6791681  26.4634735  92.3210850  65.2332369  13.7449382
  91.6280095  65.3076723  13.0889418  92.0762602  64.4692712  14.2670899
 100.9924507  56.7927970  21.1488873 101.2726260  56.1251159  21.7749299
 101.7775114  56.9857065  20.6363537  98.7957975  75.9686964  12.7113899
  98.2231942  76.5877151  12.2584371  99.3690769  76.5186325  13.2453821
 104.8633365  65.2145604  24.8960448 105.8150788  65.3143701  24.9172672
 104.6936815  64.4223872  25.4058532 102.8847744  62.3001187  25.0819849
 102.2897677  62.5806200  24.3866337 102.5997441  62.7895088  25.8536590
 102.0155235  76.2524114  13.8422481 102.9485908  76.1869676  14.0455357
 101.9278448  77.0880381  13.3837014 107.3421443  68.4351724  24.0102748
 107.3097763  67.4967724  24.1962431 107.9522066  68.5135760  23.2768572
  99.1804774  67.3047777  10.0529952 100.1263878  67.1753985  10.1218370
  98.8019019  66.5662438  10.5299380 107.4915931  65.2262767  24.0561031
 106.9754980  64.4421224  23.8690960 108.3755880  64.8981484  24.2207550
 105.1526658  58.9703783  20.0156843 104.9551479  58.6618871  20.9000175
 105.7626364  59.6965421  20.1454773 113.1597993  69.4967730  23.1508784
 113.8901381  69.2353018  23.7116488 112.5504938  68.7596452  23.1910852
 111.2413290  67.6375593  23.7483236 110.5146453  67.5031558  23.1399727
 110.8260577  67.9452422  24.5539954  99.0643466  71.3565523  31.5130609
  99.9846476  71.5344122  31.7070655  99.0293049  70.4121568  31.3610308
  97.3647691  65.2297753   9.9884837  96.4579146  64.9330866  10.0647550
  97.6423672  64.9327571   9.1219123  88.2825631  66.5504116  20.4383883
  87.9628415  65.6969424  20.1458257  87.7359059  66.7652694  21.1941851
  92.0605539  69.2666557  24.1553390  92.2791548  70.1983665  24.1741424
  92.4731313  68.9074532  24.9408194  98.9809756  59.7734643  16.1429078
  98.1710485  59.4281728  16.5184324  99.6694173  59.4642186  16.7316690
 100.9100305  58.8512689  17.7653375 101.4631343  59.2708143  18.4243398
 101.1470391  57.9248438  17.8076331  96.9333404  64.8399763  33.5456139
  96.8330131  65.7894120  33.4768230  96.7154946  64.5118002  32.6732209
  96.1346475  62.0884688  10.1296816  96.9965639  62.4139586  10.3892633
  96.3196820  61.3016184   9.6169882  88.1513891  70.1707028  22.4077005
  87.4577363  69.7560981  21.8946959  88.8986882  70.2127564  21.8110424
 104.2879112  60.9613215  17.2732039 103.7077781  61.6198019  16.8910091
 104.0215045  60.1390559  16.8619457 102.7382678  60.3618272  19.4753359
 103.2382457  60.4734807  18.6667678 103.3818286  60.0579325  20.1154168
  96.7964674  68.2696902  32.3621200  96.3131756  69.0697262  32.5685089
  96.8825613  68.2804847  31.4088644  90.0650634  70.1025282  20.2843020
  90.0421322  70.2012969  19.3324903  90.3751270  70.9490432  20.6060186
  92.7238012  72.1601437  24.3989634  93.6781265  72.1285379  24.3319566
  92.5250535  71.6992060  25.2139860  93.3137394  70.7302553  26.9660432
  94.1330283  71.2246631  26.9895269  93.5874201  69.8134521  26.9377999
 103.0703990  63.1213305  16.3288387 102.1829845  63.4062956  16.1108582
 103.4857979  62.9607068  15.4815664 106.4218526  63.1459826  20.0442727
 107.1978916  63.6356278  20.3167343 105.6966660  63.5717880  20.5014596
 108.8591085  63.8587445  21.1016667 109.4535575  63.6183181  20.3909975
 108.9317668  63.1394576  21.7290203  91.0788240  77.7021056  21.4159832
  90.9442708  76.9421457  20.8497830  90.6620303  78.4261956  20.9488621
 103.0445014  68.6367841  16.5438677 102.9880215  69.0936392  15.7046310
 103.5973356  67.8758525  16.3661520 106.8549820  64.4257573  17.3688797
 106.5986754  64.0254208  18.1997005 106.2302688  65.1401367  17.2438936
 111.1662157  67.1653646  19.8760088 110.6061715  67.2346835  20.6491650
 110.5605661  66.9894631  19.1559585  94.2357366  78.5990373  21.6278275
  94.1189750  79.5435806  21.5256965  93.4149812  78.2963935  22.0164074
 104.1233901  73.3240509  12.4734867 104.9579505  72.8921707  12.2912342
 103.9618244  73.1522523  13.4011762 103.7779793  69.8272622  13.8391207
 103.7228597  69.6616894  12.8979651 103.1525848  70.5348655  13.9953396
  88.5672308  65.0640687  27.6652629  89.2131172  64.5539640  28.1539854
  88.3589459  65.8009368  28.2396054 101.0925700  72.1321534  33.1644769
 101.9616860  72.3062186  32.8031404 100.6132452  72.9515951  33.0420499
  97.0875918  59.3280731  13.4176525  97.0754588  60.2722571  13.5744796
  97.9799340  59.1450877  13.1235986  95.2611880  79.2518635  24.8434203
  96.1639127  79.2842245  25.1600698  95.0349250  78.3219086  24.8580539
  97.0165482  78.0049622  21.5044282  96.0661113  78.0051483  21.3908654
  97.3197969  77.2582356  20.9880316 100.9028038  55.9223508  17.6722462
 100.1360434  55.3681994  17.8179144 101.3138743  55.9945377  18.5336613
  92.9069799  62.2108304  31.7627643  93.7701260  61.8545108  31.9730968
  92.3335210  61.8722198  32.4503047 112.7518176  83.8410160  22.5690044
 113.3896586  83.7216907  21.8653384 112.6339019  84.7891004  22.6277996
 109.5607882  83.7937588  22.5051569 109.2226394  83.6778653  21.6172104
 110.4297650  83.3928753  22.4852575 110.0427665  84.9472440  28.4637774
 110.0316306  84.5525238  27.5918278 110.2048305  84.2138512  29.0571546
 102.9659130  87.1424256  21.3332680 103.7580422  86.8015081  20.9178979
 103.2055780  87.2519231  22.2534833 106.7634926  87.7309552  27.4116958
 106.4724792  88.6355182  27.2963625 107.3991911  87.7726079  28.1261028
 107.6891133  85.1086400  24.0018318 108.2854705  84.8842422  23.2875281
 107.7466105  84.3671146  24.6043766 115.2293292  75.2158421  25.0070839
 114.8976617  76.0853832  24.7832054 114.6338905  74.8994705  25.6864870
 111.7224811  87.4170967  24.4066752 111.4225534  88.3196006  24.2982559
 111.3775871  87.1503150  25.2587905 105.1737293  83.8684764  20.4403456
 104.2487789  83.7360978  20.6481148 105.4221706  84.6478983  20.9373399
 115.1221955  79.9353507  22.0864189 114.2138832  79.8668916  21.7922950
 115.0709551  80.4125452  22.9146015 102.5346104  83.5118037  21.2747245
 102.6638485  83.7652516  22.1886657 101.8543555  84.1045745  20.9551901
 109.1962821  81.3543153  30.0299087 108.4196155  81.9137073  30.0201951
 109.8353384  81.8399936  30.5513957 116.9883602  78.1369946  23.8642063
 116.3457982  78.4302479  23.2181858 116.4838530  78.0222866  24.6695260
 107.4509193  84.1628606  29.5917054 108.1923878  84.7013650  29.3151877
 106.7446179  84.7894895  29.7488605 112.9264533  86.3057747  28.1889215
 113.3347889  85.8640157  27.4443847 112.2041794  85.7310374  28.4423408
 109.2795603  81.2430353  25.5622772 110.1256798  81.6669767  25.7057421
 109.2194241  80.5863978  26.2561335 112.4295048  78.9034722  27.2203946
 112.1855980  79.6576782  26.6838221 112.7054979  79.2820069  28.0551193
 114.3833511  85.4473334  25.8981211 114.5950406  86.0905094  25.2215592
 114.3363259  84.6135651  25.4303141 111.9859740  78.0591155  22.8017783
 111.1244219  78.3572408  23.0934521 112.0122175  78.2761554  21.8698816
 105.6945390  86.1504827  22.1471352 106.2646748  86.5792095  21.5088837
 106.2853502  85.8687412  22.8455538 106.1870557  81.3168254  30.3932364
 105.5569218  81.9984535  30.6267760 106.0806645  81.2051336  29.4485502
 101.4815529  80.9840050  21.3198288 100.6914583  81.2397579  20.8438398
 101.9726777  81.7988388  21.4250328 103.4330275  81.3484630  18.2781764
 102.6361438  81.4603324  18.7965260 103.2055867  81.6871282  17.4122655
 109.2635942  87.8729333  26.2264279 109.3280375  88.3349740  27.0622451
 108.5546866  87.2426698  26.3546589  99.7653232  81.2370541  23.7513279
 100.0161271  82.1217551  24.0170854 100.3012781  81.0575142  22.9788370
 105.4651300  75.6189020  32.7557615 105.0718245  75.0655219  33.4305259
 106.2817440  75.9299599  33.1464132 108.3819261  77.0346899  30.3477871
 109.1228974  77.6354052  30.2682334 108.6137184  76.2924537  29.7895914
 103.5260599  82.2203267  28.6256101 103.4114114  81.3188524  28.9263200
 102.6705116  82.4666963  28.2740917 110.6052436  90.1621007  30.2243601
 110.1616291  89.3757385  29.9064506 111.2669650  90.3500157  29.5587492
 105.3639558  91.6916808  24.7504280 105.9146983  91.5633872  23.9781274
 104.5251034  91.9911698  24.3999173 112.7033675  90.4423807  28.2525003
 112.6852150  91.2632688  27.7605272 113.6253595  90.3177882  28.4775144
 109.1606729  87.9567936  29.0948511 109.6935065  87.1956224  28.8647819
 108.6320810  87.6641588  29.8372666 112.3276424  73.0628002  24.6242153
 111.9840693  73.9529644  24.5481263 112.6955386  72.8729660  23.7611738
 109.8773817  77.8986314  18.1899826 109.0215414  77.5093165  18.0105465
 110.2900769  77.9778275  17.3299612 111.4072964  75.4332657  22.5891386
 110.9037760  75.3962793  21.7759191 111.7003571  76.3425400  22.6488043
 107.6515850  75.5171387  21.5957568 108.5168847  75.3214196  21.2363457
 107.7193359  75.2881739  22.5226925 105.2578169  77.7473595  18.9673935
 105.8321921  77.5248777  18.2347128 105.8449151  77.8162290  19.7202536
 107.5600837  74.6214844  17.6949004 106.9065249  74.3063861  17.0705619
 107.5181311  73.9990584  18.4208827 110.7938577  81.1096778  22.0196652
 109.8761138  81.3311725  21.8618340 111.2098721  81.1843088  21.1608359
 114.1264089  72.3221561  19.7259891 114.4322966  71.4618925  19.4385806
 114.8516694  72.9139182  19.5258884 100.4188445  82.7252248  18.1141488
 100.2212845  82.1321609  17.3892555  99.8635109  82.4204458  18.8317427
 108.3985169  82.6175355  20.2336082 108.4533779  81.6649191  20.1578558
 107.5876371  82.7734794  20.7177380 106.3377529  81.2352414  17.9926460
 105.5245394  81.5346585  18.3991653 106.8336523  80.8408103  18.7100943
 111.9351741  81.6994239  26.8241354 112.2901128  81.9265712  27.6835820
 112.5823872  82.0312616  26.2018610 105.8291604  78.8070770  23.6087695
 106.4690983  78.6659529  22.9110659 104.9969134  78.5205283  23.2326297
 102.8320220  78.7771095  18.3860682 103.0927037  79.6916428  18.2769843
 103.6537392  78.3095537  18.5357295 104.3045145  80.1908852  25.5559507
 104.9768199  79.9826214  24.9072156 103.4774932  79.9930938  25.1164739
 110.2070717  76.8170793  27.5725168 109.5598633  77.5160743  27.4789644
 110.9771733  77.2506937  27.9401416 113.6149515  87.0819645  30.6475721
 113.4635022  86.8530197  29.7305805 113.6054195  88.0390246  30.6607066
 110.3834852  84.6551558  25.6321987 111.3126912  84.8062717  25.4590955
 109.9625882  84.7435579  24.7770634 109.1823184  88.6802222  23.4020525
 109.0434269  88.3121007  24.2746463 108.3937780  89.1949862  23.2304483
 104.7072643  83.4651455  26.3161944 104.5692441  82.7331694  26.9173483
 105.6177566  83.3760355  26.0346132 107.3354943  83.1771414  25.8045624
 108.0454562  82.5364606  25.7632242 107.2924252  83.4284309  26.7271804
 115.3241722  90.1138768  28.7252203 115.2654268  89.4297988  28.0582786
 115.7261240  90.8557758  28.2732829 106.0483877  80.1636632  27.6241263
 105.5121234  79.7127371  28.2762859 105.4600586  80.2982541  26.8811727
 115.3259129  88.0778352  26.9566182 114.4385908  87.7404273  27.0792581
 115.8957680  87.3461383  27.1934948  96.9788276  84.4102443  20.2809234
  97.6659316  84.0964173  19.6930249  96.8236405  85.3143808  20.0076485
 101.7822999  79.2992640  24.7094258 101.6981187  78.6918309  23.9744667
 100.9605705  79.7901658  24.7103754 111.9546712  77.7846203  20.0764453
 112.4515412  77.0316166  19.7565523 111.1833694  77.8210520  19.5107662
 108.5381681  79.9263586  19.8036137 108.1679469  79.3734627  20.4917043
 109.0340774  79.3221720  19.2511137 106.3670880  90.3861081  26.8991155
 107.0680339  91.0197564  27.0520549 105.8965995  90.7275813  26.1386794
 114.3965707  74.7515797  22.2243811 113.4828787  74.9820024  22.3926018
 114.8258809  74.8354241  23.0757844 114.1672166  82.9405689  24.7243705
 113.5143616  83.1881596  24.0696158 114.5452546  82.1269827  24.3906183
 110.2159739  83.6825500  31.2109743 109.5400376  83.5819629  31.8812118
 111.0387373  83.5264714  31.6745740 101.9638598  89.9197436  23.8322258
 102.5492035  89.1741124  23.9650162 101.7663436  90.2301393  24.7158922
  96.5556253  82.4903037  22.5526701  96.5940352  81.9566627  23.3463819
  96.0496545  81.9638242  21.9337678 103.9347015  77.3367577  26.0489243
 103.9988341  78.1982408  25.6366641 103.8714135  76.7241579  25.3161602
 103.4099287  79.4090710  29.6962278 104.0371326  79.0267787  30.3099802
 102.5527206  79.1904912  30.0617970 113.8093396  89.8153685  31.3016013
 114.3533300  90.4283643  30.8070968 113.2280241  90.3733263  31.8183026
 100.1864830  81.2167139  15.6280632 100.4818271  80.3077817  15.5747686
  99.2852866  81.1954878  15.3061635 103.7159077  79.2923135  21.6108181
 102.9945663  79.9059103  21.4715654 104.5052333  79.8280900  21.5324827
 106.5185391  76.6277562  27.8848833 107.0419792  76.8739858  28.6475142
 106.2997724  77.4597597  27.4651970 101.9152672  78.8981236  15.7519957
 101.5865378  78.0178615  15.5695063 102.2692042  78.8428905  16.6396347
 107.7237936  77.5691257  25.5698503 107.3834756  76.7699070  25.9719183
 107.0176942  77.8692968  24.9975336 108.3754408  74.6540569  24.0225826
 109.1980477  74.1801048  23.9004717 108.6192471  75.4331053  24.5224513
 105.8992986  81.3459690  21.8317805 105.7537567  81.6599993  22.7242086
 105.4218190  81.9644590  21.2788703 107.7589369  78.3362238  21.8798694
 107.7450938  77.4403331  21.5430992 108.4761797  78.3432902  22.5136980
 109.6115500  78.7699578  23.9251822 109.3533278  79.6916649  23.9236152
 109.0800540  78.3730013  24.6152286 100.3738648  83.8865034  24.7705466
  99.8292117  84.6624842  24.9025740 101.2517998  84.2335839  24.6124587
 107.1626265  77.2176618  17.1486265 107.2842176  76.2893264  17.3477152
 106.8728307  77.2315304  16.2364580 110.0317456  74.9031529  20.2852984
 110.0539152  74.9670862  19.3304964 110.4485515  74.0636037  20.4793491
 101.1604670  83.0134931  27.6635623 100.4186406  83.1617566  28.2500253
 100.8397415  83.2743196  26.8002372 109.1048333  92.5550909  27.4616013
 109.4135459  92.3100056  28.3338712 109.9023815  92.7597547  26.9734883
  99.8069889  88.8186686  20.6534951  98.9701797  88.3908860  20.4718952
  99.7793534  89.0119129  21.5905742 106.6467345  78.7308616  31.3576197
 106.6955500  79.6070738  30.9753967 107.1889859  78.1886009  30.7847840
 117.1322190  89.2749739  30.6377334 116.3417734  89.2573878  30.0981834
 116.8955545  89.8138033  31.3926371 117.2520065  86.1242205  27.9510063
 117.3018070  85.9592213  28.8925586 117.1433989  85.2569464  27.5607944
 114.5423828  82.1073133  29.2669369 115.4433691  81.9679598  28.9753367
 114.6171802  82.2727588  30.2067547 108.8766633  79.4839988  28.1122556
 108.0069943  79.7773554  27.8405144 109.1126113  80.0680433  28.8329819
 118.7538262  88.5439147  28.1952084 118.4623071  88.9069127  29.0315545
 118.1410393  87.8306155  28.0165416 117.0025450  83.6671761  26.6632142
 117.4779572  83.8599408  25.8550994 116.0791016  83.7230947  26.4175526
 111.5805667  75.7019605  25.6287976 112.0987611  76.4380632  25.3034465
 111.2260800  76.0083598  26.4634735 111.8318261  72.1219888  21.1488873
 112.1120015  71.4543077  21.7749299 112.6168868  72.3148983  20.6363537
 115.7027119  80.5437522  24.8960448 116.6544542  80.6435619  24.9172672
 115.5330570  79.7515790  25.4058532 113.7241499  77.6293105  25.0819849
 113.1291431  77.9098117  24.3866337 113.4391196  78.1187006  25.8536590
 118.3309686  80.5554685  24.0561031 117.8148734  79.7713141  23.8690960
 119.2149634  80.2273401  24.2207550 115.9920413  74.2995700  20.0156843
 115.7945234  73.9910788  20.9000175 116.6020118  75.0257339  20.1454773
 109.9037221  86.6857440  31.5130609 110.8240230  86.8636039  31.7070655
 109.8686804  85.7413486  31.3610308  99.1219386  81.8796034  20.4383883
  98.8022170  81.0261342  20.1458257  98.5752814  82.0944612  21.1941851
 102.8999293  84.5958475  24.1553390 103.1185303  85.5275583  24.1741424
 103.3125067  84.2366449  24.9408194 109.8203511  75.1026560  16.1429078
 109.0104239  74.7573645  16.5184324 110.5087928  74.7934104  16.7316690
 111.7494059  74.1804607  17.7653375 112.3025098  74.6000061  18.4243398
 111.9864146  73.2540355  17.8076331 107.7727159  80.1691681  33.5456139
 107.6723885  81.1186038  33.4768230 107.5548701  79.8409920  32.6732209
  98.9907646  85.4998945  22.4077005  98.2971117  85.0852898  21.8946959
  99.7380637  85.5419482  21.8110424 113.5776433  75.6910190  19.4753359
 114.0776211  75.8026724  18.6667678 114.2212041  75.3871243  20.1154168
 107.6358429  83.5988820  32.3621200 107.1525510  84.3989180  32.5685089
 107.7219368  83.6096764  31.4088644 100.9044388  85.4317199  20.2843020
 100.8815076  85.5304887  19.3324903 101.2145025  86.2782350  20.6060186
 103.5631766  87.4893354  24.3989634 104.5175020  87.4577297  24.3319566
 103.3644290  87.0283978  25.2139860 104.1531148  86.0594470  26.9660432
 104.9724037  86.5538549  26.9895269 104.4267956  85.1426438  26.9377999
  99.4066062  80.3932604  27.6652629 100.0524926  79.8831558  28.1539854
  99.1983214  81.1301286  28.2396054 111.9319455  87.4613452  33.1644769
 112.8010614  87.6354104  32.8031404 111.4526206  88.2807868  33.0420499
 106.1005635  94.5810553  24.8434203 107.0032882  94.6134163  25.1600698
 105.8743005  93.6511004  24.8580539 111.7421792  71.2515425  17.6722462
 110.9754188  70.6973912  17.8179144 112.1532497  71.3237294  18.5336613
 103.7463553  77.5400221  31.7627643 104.6095015  77.1837026  31.9730968
 103.1728964  77.2014116  32.4503047 116.3045054  90.9480938  32.7557615
 115.9112000  90.3947136  33.4305259 117.1211195  91.2591516  33.1464132
 119.2213015  92.3638817  30.3477871 119.9622729  92.9645970  30.2682334
 119.4530938  91.6216455  29.7895914 114.2493042  94.7382627  29.6962278
 114.8765081  94.3559705  30.3099802 113.3920961  94.5196829  30.0617970
 117.4861099  94.0600533  31.3576197 117.5349255  94.9362656  30.9753967
 118.0283613  93.5177926  30.7847840 118.6120913  95.4983598  33.5456139
 118.5117640  96.4477955  33.4768230 118.3942455  95.1701837  32.6732209
 110.2459817  95.7224522  27.6652629 110.8918681  95.2123476  28.1539854
 110.0376968  96.4593203  28.2396054 114.5857308  92.8692139  31.7627643
 115.4488769  92.5128944  31.9730968 114.0122719  92.5306034  32.4503047
  71.9666705   5.8033219  15.4497509  71.9079252   5.1192440  14.7828092
  72.3686224   6.5452209  14.9978135  70.4518379   5.5048137  18.0261320
  70.9958283   6.1178095  17.5316274  69.8705224   6.0627715  18.5428333
  73.7747174   4.9644191  17.3622641  72.9842717   4.9468330  16.8227140
  73.5380528   5.5032484  18.1171677  75.3963246   4.2333599  14.9197391
  75.1048054   4.5963579  15.7560852  74.7835377   3.5200607  14.7410723
  68.5744438   3.1507904  19.8890076  69.4435598   3.3248556  19.5276711
  68.0951189   3.9702320  19.7665805  80.2336914  14.8596529   9.2935351
  80.8715324  14.7403277   8.5898691  80.1157757  15.8077373   9.3523303
  77.0426620  14.8123958   9.2296875  76.7045131  14.6965022   8.3417410
  77.9116388  14.4115123   9.2097882  77.5246403  15.9658809  15.1883081
  77.5135044  15.5711608  14.3163585  77.6867042  15.2324882  15.7816852
  70.4477868  18.1610626   8.0577987  71.2399159  17.8201450   7.6424286
  70.6874518  18.2705601   8.9780140  74.2453664  18.7495921  14.1362265
  73.9543530  19.6541552  14.0208931  74.8810648  18.7912449  14.8506334
  75.1709871  16.1272770  10.7263625  75.7673443  15.9028792  10.0120587
  75.2284842  15.3857515  11.3289072  82.7112030   6.2344791  11.7316146
  82.3795354   7.1040202  11.5077361  82.1157643   5.9181075  12.4110176
  79.2043549  18.4357337  11.1312059  78.9044272  19.3382375  11.0227866
  78.8594609  18.1689520  11.9833211  82.6040693  10.9539877   8.8109496
  81.6957570  10.8855285   8.5168257  82.5528289  11.4311822   9.6391321
  74.1864329  25.2001657   4.0983026  74.1088359  26.1509482   4.1771507
  73.5825973  24.8547529   4.7557953  76.6781559  12.3729522  16.7544393
  75.9014893  12.9323443  16.7447258  77.3172122  12.8586305  17.2759263
  74.9327931  15.1814976  16.3162360  75.6742615  15.7200020  16.0397184
  74.2264916  15.8081265  16.4733912  80.4083271  17.3244116  14.9134522
  80.8166627  16.8826527  14.1689154  79.6860532  16.7496744  15.1668715
  76.7614341  12.2616723  12.2868079  77.6075536  12.6856137  12.4302728
  76.7012978  11.6050347  12.9806642  80.7312085  17.8845307   8.6686811
  80.1020948  18.0491021   7.9662878  80.3437747  18.2986916   9.4397775
  84.6101317  18.8199745   6.0231174  83.9252355  19.1998646   5.4728208
  84.6945167  19.4295071   6.7563122  79.9113786   9.9221091  13.9449252
  79.6674718  10.6763152  13.4083528  80.1873717  10.3006439  14.7796499
  81.8652249  16.4659704  12.6226518  82.0769144  17.1091464  11.9460899
  81.8181997  15.6322020  12.1548448  73.1764128  17.1691196   8.8716659
  73.7465485  17.5978465   8.2334143  73.7672240  16.8873781   9.5700845
  73.6689295  12.3354624  17.1177670  73.0387955  13.0170905  17.3513067
  73.5625383  12.2237706  16.1730808  82.9798077  19.3431659  10.7948875
  83.8015520  18.9411846  10.5131557  82.9760480  19.2399893  11.7464991
  76.7454680  18.8915702  12.9509586  76.8099113  19.3536110  13.7867758
  76.0365604  18.2613067  13.0791896  72.9470037   6.6375390  19.4802921
  72.5536983   6.0841588  20.1550565  73.7636178   6.9485968  19.8709439
  71.7226980  21.1925004   5.4739244  71.8993608  22.1142969   5.2860228
  72.5183813  20.8783423   5.9033624  75.8637998   8.0533269  17.0723178
  76.6047712   8.6540422  16.9927640  76.0955921   7.3110907  16.5141220
  71.0079336  13.2389636  15.3501407  70.8932852  12.3374893  15.6508506
  70.1523854  13.4853333  14.9986224  78.0871174  21.1807376  16.9488908
  77.6435028  20.3943755  16.6309813  78.7488388  21.3686527  16.2832799
  72.8458295  22.7103178  11.4749587  73.3965721  22.5820241  10.7026581
  72.0069771  23.0098067  11.1244479  80.1852412  21.4610176  14.9770309
  80.1670888  22.2819057  14.4850579  81.1072332  21.3364252  15.2020451
  76.6425466  18.9754306  15.8193818  77.1753803  18.2142594  15.5893126
  76.1139548  18.6827958  16.5617972  82.9871025  16.2989319   8.4479676
  82.3294700  16.9888580   8.5359805  83.7911424  16.6885751   8.7913662
  78.2757315  12.1283147   8.7441958  77.3579876  12.3498094   8.5863646
  78.6917458  12.2029458   7.8853666  82.5638280  19.6339693   4.6262760
  82.1100607  18.7930603   4.6827951  81.9332247  20.2701091   4.9637541
  81.0071219  21.4716190   5.5612579  81.2994194  22.0321247   4.8424944
  81.5169840  21.7644751   6.3165738  75.9704845  22.2496541   6.6506032
  75.9281023  22.4757387   5.7214564  76.8867543  22.0159915   6.7991833
  79.4170478  12.7180608  13.5486661  79.7719866  12.9452081  14.4081127
  80.0642610  13.0498985  12.9263916  85.1737595  17.9075571   9.2647262
  85.6074102  17.8150860  10.1130316  85.8869176  17.8833072   8.6267278
  78.9065490  21.5077665  10.7980362  78.9602512  22.0768602  11.5658078
  78.0380271  21.6779550  10.4334399  71.7863883  11.2095222  12.2804813
  72.4586937  11.0012584  11.6317462  70.9593670  11.0117308  11.8410046
  86.0353145  17.9499272  11.7980147  86.2289035  18.8545082  12.0439422
  85.9353763  17.4906691  12.6318732  77.6889455   7.8357162  14.2970474
  77.0417370   8.5347112  14.2034951  78.4590471   8.2693306  14.6646722
  81.0968253  18.1006015  17.3721028  80.9453760  17.8716566  16.4551111
  81.0872933  19.0576616  17.3852373  77.8653590  15.6737927  12.3567294
  78.7945650  15.8249087  12.1836261  77.4444620  15.7621948  11.5015940
  76.6641921  19.6988592  10.1265832  76.5253007  19.3307376  10.9991770
  75.8756518  20.2136231   9.9549789  77.2590073  24.7997688   1.4691368
  77.4341829  24.3285731   2.2836991  76.5722861  25.4263454   1.6972629
  78.2147137  19.0770194   7.5154669  77.8796969  19.0370964   8.4112319
  77.7151082  18.4114910   7.0425080  72.1891381  14.4837824  13.0407251
  72.0511178  13.7518063  13.6418790  73.0996304  14.3946725  12.7591438
  74.8173681  14.1957784  12.5290930  75.5273300  13.5550976  12.4877549
  74.7742989  14.4470679  13.4517111  82.8060460  21.1325137  15.4497509
  82.7473006  20.4484357  14.7828092  83.2079978  21.8744127  14.9978135
  73.5302615  11.1823002  14.3486570  72.9939972  10.7313740  15.0008166
  72.9419324  11.3168911  13.6057034  71.8251159  27.9487051   8.2431228
  72.0647757  28.5805575   8.9210247  70.9820355  27.5975091   8.5296588
  82.8077867  19.0964721  13.6811489  81.9204646  18.7590643  13.8037888
  83.3776418  18.3647752  13.9180254  76.3379021  23.7566173  10.6472732
  76.2649192  24.5621145  11.1592037  75.8956414  23.9558139   9.8220754
  76.1268800  22.9937943   4.1575554  75.3436322  23.5359624   4.2513778
  76.8261545  23.5111923   4.5569795  78.7977704  23.6553007  12.8030891
  79.5105676  24.2900472  12.7306792  78.3067733  23.7516873  11.9870893
  73.8489618  21.4047451  13.6236462  74.5499077  22.0383934  13.7765856
  73.3784733  21.7462182  12.8632101  81.6490904  13.9592058  11.4489012
  80.9962354  14.2067966  10.7941465  82.0271283  13.1456197  11.1151489
  78.6098077  23.9951752   5.5517182  78.7920472  23.1773407   6.0144935
  79.4331063  24.2119444   5.1142072  78.9440243  22.9219937   2.8132231
  79.4728009  22.4112391   2.2002393  79.2068462  22.6062467   3.6777764
  77.6978477  14.7011869  17.9355049  77.0219114  14.6005999  18.6057424
  78.5206110  14.5451083  18.3991046  69.4457336  20.9383806  10.5567564
  70.0310772  20.1927494  10.6895469  69.2482174  21.2487763  11.4404228
  72.2995991  23.9735053   5.5730007  71.6306366  24.4581181   5.0894047
  72.1608861  24.2204274   6.4873385  76.4401259  26.0078797  12.1712665
  76.9919567  26.1710418  12.9361750  76.7807453  26.5983235  11.4992690
  70.8918025  10.4277079  16.4207584  71.5190064  10.0454157  17.0345108
  70.0345944  10.2091281  16.7863277  81.2912134  20.8340054  18.0261320
  81.8352038  21.4470013  17.5316274  80.7098979  21.3919633  18.5428333
  79.5769647  23.9560772   9.1576347  79.4520786  23.1550512   8.6487293
  80.2348738  24.4506966   8.6690317  81.6404555  21.7569792  10.7855897
  80.6934891  21.6375144  10.7134224  81.9887328  20.8692291  10.8682159
  74.0004128   7.6463931  14.6094139  74.5238530   7.8926228  15.3720449
  73.7816462   8.4783966  14.1897277  78.6450988  21.5522509   6.9860250
  78.4975951  20.6239216   7.1667820  79.4704482  21.5742599   6.5017325
  82.2485110  22.3751067   8.0725122  83.1731658  22.1693929   7.9349574
  82.0800414  22.1267469   8.9814464  75.2056674   8.5877627  12.2943810
  74.8653494   7.7885440  12.6964490  74.4995680   8.8879337  11.7220643
  77.0934238   9.7885948  10.6497128  76.8352016  10.7103018  10.6481459
  76.5619278   9.3916382  11.3397593  82.0380426  22.8936735   3.4287214
  82.2117304  22.3283157   2.6761066  82.5309318  23.6937630   3.2466704
  67.8557386  14.9051404  11.4950773  67.3110854  15.6811212  11.6271047
  68.7336736  15.2522208  11.3369894  68.6423408  14.0321300  14.3880930
  67.9005144  14.1803936  14.9745560  68.3216152  14.2929566  13.5247679
  76.5867071  23.5737278  14.1861320  76.8954197  23.3286425  15.0584019
  77.3842553  23.7783917  13.6980190  76.6087683  25.7275188   6.4166696
  76.1692673  25.2351567   7.1099553  77.3595800  25.1848156   6.1758771
  69.0880022  21.9186729   6.4191324  69.9138042  21.6190501   6.0389968
  68.7374074  21.1494351   6.8681113  74.0561555  21.2713197   8.4888998
  73.4341564  20.6083902   8.1891226  74.7266422  21.2974329   7.8062646
  74.1286082   9.7494985  18.0821504  74.1774238  10.6257108  17.6999273
  74.6708597   9.2072378  17.5093147  84.6140928  20.2936108  17.3622641
  83.8236472  20.2760247  16.8227140  84.3774283  20.8324402  18.1171677
  84.7338803  17.1428575  14.6755369  84.7836808  16.9778582  15.6170892
  84.6252727  16.2755834  14.2853250  82.0242566  13.1259503  15.9914676
  82.9252428  12.9865968  15.6998674  82.0990540  13.2913958  16.9312854
  76.3585371  10.5026358  14.8367862  75.4888680  10.7959924  14.5650451
  76.5944851  11.0866803  15.5575126  86.2357000  19.5625516  14.9197391
  85.9441808  19.9255497  15.7560852  85.6229131  18.8492525  14.7410723
  84.4844188  14.6858131  13.3877449  84.9598310  14.8785777  12.5796300
  83.5609754  14.7417317  13.1420833  79.0624405   6.7205975  12.3533283
  79.5806349   7.4567001  12.0279771  78.7079538   7.0269968  13.1880042
  83.1845857  11.5623891  11.6205755  84.1363280  11.6621989  11.6417979
  83.0149308  10.7702160  12.1303839  81.2060237   8.6479474  11.8065155
  80.6110169   8.9284487  11.1111644  80.9209933   9.1373375  12.5781897
  85.6633935  14.7830011  10.7348054  85.6310255  13.8446011  10.9207738
  86.2734559  14.8614047  10.0013879  77.3855958  17.7043810  18.2375915
  78.3058968  17.8822409  18.4315962  77.3505541  16.7599855  18.0855614
  70.3818031  15.6144845  10.8798696  70.6004041  16.5461952  10.8986730
  70.7943805  15.2552819  11.6653500  75.2545896  11.1878050  20.2701445
  75.1542623  12.1372407  20.2013536  75.0367438  10.8596289  19.3977515
  75.1177166  14.6175189  19.0866507  74.6344248  15.4175549  19.2930396
  75.2038105  14.6283134  18.1333951  71.0450504  18.5079724  11.1234941
  71.9993757  18.4763666  11.0564872  70.8463027  18.0470348  11.9385167
  71.6349886  17.0780840  13.6905738  72.4542775  17.5724919  13.7140576
  71.9086694  16.1612808  13.6623306  69.4000733  24.0499343   8.1405139
  69.2655201  23.2899744   7.5743137  68.9832795  24.7740243   7.6733927
  72.5569858  24.9468660   8.3523581  72.4402243  25.8914093   8.2502272
  71.7362305  24.6442222   8.7409380  66.8884800  11.4118974  14.3897935
  67.5343664  10.9017928  14.8785161  66.6801951  12.1487655  14.9641361
  79.4138192  18.4799821  19.8890076  80.2829352  18.6540474  19.5276711
  78.9344944  19.2994238  19.7665805  73.5824373  25.5996922  11.5679510
  74.4851619  25.6320533  11.8846005  73.3561743  24.6697373  11.5825845
  75.3377975  24.3527909   8.2289588  74.3873606  24.3529770   8.1153961
  75.6410461  23.6060643   7.7125623  71.2282291   8.5586591  18.4872950
  72.0913753   8.2023396  18.6976274  70.6547702   8.2200486  19.1748354
  91.0730668  30.1888447   9.2935351  91.7109078  30.0695195   8.5898691
  90.9551511  31.1369291   9.3523303  87.8820374  30.1415875   9.2296875
  87.5438886  30.0256940   8.3417410  88.7510143  29.7407040   9.2097882
  83.7407190  31.9951352   5.2193766  83.1772055  31.9041289   4.4510054
  83.6259585  31.1751256   5.6996259  88.3640157  31.2950727  15.1883081
  88.3528798  30.9003525  14.3163585  88.5260797  30.5616800  15.7816852
  81.2871622  33.4902543   8.0577987  82.0792914  33.1493368   7.6424286
  81.5268272  33.5997518   8.9780140  89.3206749  35.6622319   0.5308231
  88.6694729  36.2476400   0.1442245  90.1151112  36.1928514   0.5903269
  83.2462376  32.7511457   0.9295366  84.0193252  32.2040444   0.7908241
  83.5987775  33.6155706   1.1409827  85.0847419  34.0787839  14.1362265
  84.7937285  34.9833470  14.0208931  85.7204403  34.1204366  14.8506334
  86.0103625  31.4564687  10.7263625  86.6067198  31.2320710  10.0120587
  86.0678597  30.7149433  11.3289072  85.3024943  30.8132229   0.7638190
  85.1861201  30.1377132   1.4319275  85.4127202  30.3264603  -0.0529656
  87.6456483  30.2742376   4.4684880  87.2814691  29.7472997   5.1797801
  88.5023599  29.8840845   4.2951365  93.5505784  21.5636708  11.7316146
  93.2189109  22.4332119  11.5077361  92.9551397  21.2472992  12.4110176
  90.0437304  33.7649254  11.1312059  89.7438027  34.6674293  11.0227866
  89.6988363  33.4981438  11.9833211  83.4949785  30.2163051   7.1648763
  82.5700282  30.0839265   7.3726455  83.7434198  30.9957270   7.6618705
  93.4434447  26.2831795   8.8109496  92.5351325  26.2147203   8.5168257
  93.3922043  26.7603739   9.6391321  80.8558596  29.8596325   7.9992552
  80.9850977  30.1130804   8.9131964  80.1756047  30.4524033   7.6797207
  85.0258083  40.5293575   4.0983026  84.9482113  41.4801400   4.1771507
  84.4219727  40.1839447   4.7557953  87.5175313  27.7021440  16.7544393
  86.7408647  28.2615360  16.7447258  88.1565876  28.1878223  17.2759263
  85.7721686  30.5106893  16.3162360  86.5136370  31.0491937  16.0397184
  85.0658671  31.1373182  16.4733912  91.2477025  32.6536034  14.9134522
  91.6560381  32.2118444  14.1689154  90.5254287  32.0788661  15.1668715
  87.6008095  27.5908641  12.2868079  88.4469290  28.0148054  12.4302728
  87.5406733  26.9342265  12.9806642  91.5705840  33.2137225   8.6686811
  90.9414702  33.3782939   7.9662878  91.1831502  33.6278834   9.4397775
  95.4495072  34.1491662   6.0231174  94.7646110  34.5290564   5.4728208
  95.5338921  34.7586989   6.7563122  90.7507541  25.2513009  13.9449252
  90.5068472  26.0055070  13.4083528  91.0267471  25.6298357  14.7796499
  92.7046003  31.7951621  12.6226518  92.9162899  32.4383381  11.9460899
  92.6575752  30.9613938  12.1548448  90.3072232  24.4069442   9.5263090
  89.4456711  24.7050696   9.8179828  90.3334667  24.6239841   8.5944123
  87.1233802  32.9511633   5.9336896  87.5872147  33.2299336   5.1441518
  86.8590600  32.0495077   5.7509986  84.0157883  32.4983114   8.8716659
  84.5859240  32.9270383   8.2334143  84.6065995  32.2165699   9.5700845
  86.0602688  29.0734785   2.7426461  86.7626731  29.5255829   3.2100387
  85.7283316  28.4318604   3.3706354  84.5083049  27.6646542  17.1177670
  83.8781710  28.3462822  17.3513067  84.4019137  27.5529623  16.1730808
  79.8028022  27.3318338   8.0443594  79.0127076  27.5875866   7.5683705
  80.2939269  28.1466676   8.1495635  93.8191831  34.6723577  10.7948875
  94.6409275  34.2703764  10.5131557  93.8154234  34.5691811  11.7464991
  81.7542767  27.6962917   5.0027071  80.9573930  27.8081611   5.5210567
  81.5268359  28.0349569   4.1367962  87.5848435  34.2207620  12.9509586
  87.6492867  34.6828027  13.7867758  86.8759359  33.5904985  13.0791896
  78.0865725  27.5848828  10.4758585  78.3373763  28.4695838  10.7416161
  78.6225273  27.4053430   9.7033677  87.2996452  35.8875728   2.8188566
  87.1642127  36.7327263   3.2473414  87.8406265  36.0895005   2.0554500
  83.7863792  21.9667307  19.4802921  83.3930738  21.4133506  20.1550565
  84.6029932  22.2777886  19.8709439  80.7525850  33.4051166   3.3916491
  81.2650370  34.1994416   3.5422056  81.4048563  32.7077456   3.3250093
  82.5620734  36.5216922   5.4739244  82.7387363  37.4434887   5.2860228
  83.3577568  36.2075341   5.9033624  86.7031753  23.3825187  17.0723178
  87.4441466  23.9832340  16.9927640  86.9349676  22.6402824  16.5141220
  81.8473091  28.5681554  15.3501407  81.7326606  27.6666811  15.6508506
  80.9917609  28.8145251  14.9986224  88.9264929  36.5099294  16.9488908
  88.4828783  35.7235673  16.6309813  89.5882142  36.6978445  16.2832799
  83.6852050  38.0395096  11.4749587  84.2359475  37.9112159  10.7026581
  82.8463526  38.3389985  11.1244479  91.0246167  36.7902094  14.9770309
  91.0064642  37.6110975  14.4850579  91.9466087  36.6656169  15.2020451
  87.4819221  34.3046224  15.8193818  88.0147558  33.5434512  15.5893126
  86.9533302  34.0119875  16.5617972  78.7174767  31.7339820   4.1676062
  79.5549989  32.1436828   3.9509769  78.8953034  30.7939262   4.1376256
  89.7285456  21.7810945   9.3136693  89.2250252  21.7441080   8.5004498
  90.0216063  22.6903687   9.3733349  85.9728342  21.8649674   8.3202874
  86.8381339  21.6692483   7.9608764  86.0405851  21.6360026   9.2472231
  88.8471934  33.4332216   3.3312630  88.3193295  32.6984976   3.0185867
  88.3459436  34.2106892   3.0852598  93.8264780  31.6281237   8.4479676
  93.1688454  32.3180498   8.5359805  94.6305179  32.0177668   8.7913662
  83.5790661  24.0951882   5.6919241  84.1534413  23.8727064   4.9592434
  84.1661644  24.1640577   6.4447843  89.8992613  39.9609933  -0.7455711
  89.2254311  40.2641630  -0.1370753  90.2858435  40.7639014  -1.0950254
  89.1151069  27.4575065   8.7441958  88.1973631  27.6790012   8.5863646
  89.5311213  27.5321375   7.8853666  93.4032035  34.9631611   4.6262760
  92.9494362  34.1222521   4.6827951  92.7726001  35.5993009   4.9637541
  91.8464974  36.8008107   5.5612579  92.1387948  37.3613164   4.8424944
  92.3563594  37.0936668   6.3165738  78.7400938  29.0730535   4.8386795
  78.5425337  28.4799896   4.1137862  78.1847602  28.7682745   5.5562734
  86.7197661  28.9653642   6.9581388  86.7746271  28.0127478   6.8823865
  85.9088863  29.1213081   7.4422687  84.6590021  27.5830702   4.7171767
  83.8457887  27.8824872   5.1236959  85.1549015  27.1886390   5.4346249
  86.8098599  37.5788458   6.6506032  86.7674778  37.8049305   5.7214564
  87.7261298  37.3451833   6.7991833  90.2564233  28.0472526  13.5486661
  90.6113621  28.2743999  14.4081127  90.9036364  28.3790903  12.9263916
  84.1504096  25.1549057  10.3333002  84.7903475  25.0137816   9.6355965
  83.3181627  24.8683570   9.9571604  96.0131349  33.2367489   9.2647262
  96.4467856  33.1442778  10.1130316  96.7262930  33.2124989   8.6267278
  84.9264400  34.4551487   6.4467995  85.7204998  33.9601808   6.2450569
  84.2156092  33.9269351   6.0835700  89.7459244  36.8369583  10.7980362
  89.7996267  37.4060519  11.5658078  88.8774026  37.0071468  10.4334399
  81.2347163  28.5994569   2.5227747  80.3044751  28.5379025   2.7397709
  81.3304635  28.0770522   1.7264388  81.1532712  25.1249382   5.1105989
  81.4139530  26.0394715   5.0015149  81.9749885  24.6573825   5.2602602
  82.6257638  26.5387139  12.2804813  83.2980691  26.3304501  11.6317462
  81.7987424  26.3409225  11.8410046  96.8746899  33.2791190  11.7980147
  97.0682789  34.1837000  12.0439422  96.7747517  32.8198609  12.6318732
  88.5283210  23.1649080  14.2970474  87.8811125  23.8639030  14.2034951
  89.2984225  23.5985224  14.6646722  91.9362008  33.4297932  17.3721028
  91.7847514  33.2008484  16.4551111  91.9266687  34.3868534  17.3852373
  88.7047344  31.0029845  12.3567294  89.6339404  31.1541005  12.1836261
  88.2838374  31.0913866  11.5015940  87.5035676  35.0280509  10.1265832
  87.3646762  34.6599294  10.9991770  86.7150272  35.5428149   9.9549789
  88.0983828  40.1289606   1.4691368  88.2735584  39.6577649   2.2836991
  87.4116616  40.7555372   1.6972629  89.0540891  34.4062112   7.5154669
  88.7190724  34.3662882   8.4112319  88.5544837  33.7406828   7.0425080
  83.0285135  29.8129742  13.0407251  82.8904933  29.0809981  13.6418790
  83.9390058  29.7238642  12.7591438  85.6567436  29.5249701  12.5290930
  86.3667054  28.8842894  12.4877549  85.6136744  29.7762596  13.4517111
  93.6454214  36.4617055  15.4497509  93.5866760  35.7776275  14.7828092
  94.0473733  37.2036045  14.9978135  84.3696370  26.5114919  14.3486570
  83.8333727  26.0605658  15.0008166  83.7813078  26.6460828  13.6057034
  82.6644913  43.2778969   8.2431228  82.9041511  43.9097493   8.9210247
  81.8214110  42.9267009   8.5296588  93.6471622  34.4256639  13.6811489
  92.7598400  34.0882561  13.8037888  94.2170173  33.6939670  13.9180254
  75.3000769  30.7580731   7.0054540  75.9871809  30.4442461   6.4175556
  75.1448897  31.6622095   6.7321792  80.1035491  25.6470927  11.4339564
  80.0193680  25.0396597  10.6989974  79.2818197  26.1379945  11.4349060
  87.1772775  39.0858091  10.6472732  87.1042946  39.8913063  11.1592037
  86.7350168  39.2850057   9.8220754  86.9662555  38.3229861   4.1575554
  86.1830077  38.8651541   4.2513778  87.6655300  38.8403841   4.5569795
  89.6371459  38.9844925  12.8030891  90.3499431  39.6192390  12.7306792
  89.1461487  39.0808791  11.9870893  91.3588985  32.8896178   4.3748183
  90.4245264  33.0097640   4.2052887  91.5365654  31.9868645   4.1108192
  86.8594173  26.2741874   6.5281444  86.4891961  25.7212914   7.2162349
  87.3553266  25.6700007   5.9756444  84.6883372  36.7339369  13.6236462
  85.3892832  37.3675852  13.7765856  84.2178487  37.0754100  12.8632101
  92.4884658  29.2883976  11.4489012  91.8356108  29.5359884  10.7941465
  92.8665038  28.4748114  11.1151489  89.4491832  39.3243669   5.5517182
  89.6314226  38.5065325   6.0144935  90.2724818  39.5411361   5.1142072
  89.7833997  38.2511854   2.8132231  90.3121764  37.7404309   2.2002393
  90.0462217  37.9354385   3.6777764  88.5372231  30.0303787  17.9355049
  87.8612868  29.9297916  18.6057424  89.3599865  29.8743001  18.3991046
  80.2851090  36.2675724  10.5567564  80.8704527  35.5219412  10.6895469
  80.0875929  36.5779680  11.4404228  83.1389745  39.3026971   5.5730007
  82.4700121  39.7873099   5.0894047  83.0002615  39.5496191   6.4873385
  74.8768745  28.8381324   9.2772008  74.9152844  28.3044915  10.0709126
  74.3709038  28.3116529   8.6582985  87.2795014  41.3370715  12.1712665
  87.8313322  41.5002336  12.9361750  87.6201207  41.9275152  11.4992690
  82.2559507  23.6845864  12.7734550  82.3200834  24.5460695  12.3611948
  82.1926627  23.0719866  12.0406908  81.7311780  25.7568997  16.4207584
  82.3583818  25.3746074  17.0345108  80.8739699  25.5383199  16.7863277
  92.1305888  36.1631972  18.0261320  92.6745792  36.7761930  17.5316274
  91.5492733  36.7211550  18.5428333  78.5077322  27.5645426   2.3525939
  78.8030764  26.6556104   2.2992993  77.6065358  27.5433165   2.0306941
  90.4163401  39.2852690   9.1576347  90.2914541  38.4842430   8.6487293
  91.0742492  39.7798883   8.6690317  82.0371569  25.6401423   8.3353488
  81.3158155  26.2537390   8.1960961  82.8264825  26.1759187   8.2570134
  92.4798310  37.0861710  10.7855897  91.5328645  36.9667061  10.7134224
  92.8281083  36.1984208  10.8682159  84.8397883  22.9755849  14.6094139
  85.3632285  23.2218146  15.3720449  84.6210216  23.8075884  14.1897277
  80.2365164  25.2459524   2.4765264  79.9077870  24.3656903   2.2940370
  80.5904535  25.1907192   3.3641653  89.4844743  36.8814426   6.9860250
  89.3369705  35.9531134   7.1667820  90.3098236  36.9034517   6.5017325
  83.3506987  25.5332493   2.8440742  83.6903060  26.0618415   2.1219350
  83.7979108  25.8712900   3.6199308  93.0878865  37.7042985   8.0725122
  94.0125412  37.4985846   7.9349574  92.9194168  37.4559386   8.9814464
  86.0450428  23.9169544  12.2943810  85.7047248  23.1177357  12.6964490
  85.3389434  24.2171255  11.7220643  86.6966900  21.0018857  10.7471133
  87.5192969  20.5279335  10.6250023  86.9404963  21.7809340  11.2469819
  84.2205479  27.6937977   8.5563111  84.0750059  28.0078280   9.4487393
  83.7430682  28.3122878   8.0034010  86.0801861  24.6840525   8.6044001
  86.0663430  23.7881619   8.2676299  86.7974290  24.6911189   9.2382287
  87.9327992  25.1177865  10.6497128  87.6745770  26.0394936  10.6481459
  87.4013033  24.7208300  11.3397593  92.8774181  38.2228653   3.4287214
  93.0511058  37.6575075   2.6761066  93.3703072  39.0229547   3.2466704
  78.6951141  30.2343322  11.4950773  78.1504609  31.0103130  11.6271047
  79.5730491  30.5814126  11.3369894  79.4817163  29.3613218  14.3880930
  78.7398899  29.5095853  14.9745560  79.1609907  29.6221484  13.5247679
  87.4260825  38.9029196  14.1861320  87.7347952  38.6578343  15.0584019
  88.2236307  39.1075835  13.6980190  87.4481437  41.0567106   6.4166696
  87.0086428  40.5643484   7.1099553  88.1989554  40.5140073   6.1758771
  79.9273776  37.2478647   6.4191324  80.7531796  36.9482419   6.0389968
  79.5767828  36.4786269   6.8681113  84.8955309  36.6005115   8.4888998
  84.2735319  35.9375820   8.1891226  85.5660176  36.6266247   7.8062646
  78.1282381  35.1664973   7.3780258  77.2914290  34.7387147   7.1964259
  78.1006027  35.3597416   8.3151049  84.9679837  25.0786903  18.0821504
  85.0167992  25.9549026  17.6999273  85.5102351  24.5364296  17.5093147
  95.4534683  35.6228026  17.3622641  94.6630226  35.6052165  16.8227140
  95.2168037  36.1616320  18.1171677  95.5732558  32.4720493  14.6755369
  95.6230563  32.3070500  15.6170892  95.4646481  31.6047752  14.2853250
  84.4568816  35.1509038   1.9647458  84.6056937  35.8344503   1.3114131
  85.2635260  35.1314128   2.4796914  92.8636320  28.4551421  15.9914676
  93.7646183  28.3157885  15.6998674  92.9384295  28.6205875  16.9312854
  87.1979125  25.8318275  14.8367862  86.3282435  26.1251841  14.5650451
  87.4338606  26.4158720  15.5575126  97.0750754  34.8917434  14.9197391
  96.7835563  35.2547415  15.7560852  96.4622886  34.1784442  14.7410723
  95.3237943  30.0150049  13.3877449  95.7992064  30.2077695  12.5796300
  94.4003508  30.0709234  13.1420833  82.2121449  31.1774216   2.9708527
  81.9667491  30.2736546   3.1688737  82.3817364  31.1791366   2.0288005
  89.9018159  22.0497892  12.3533283  90.4200103  22.7858919  12.0279771
  89.5473292  22.3561886  13.1880042  81.4817097  26.9102573   0.4694689
  80.7886342  26.9846928  -0.1865275  81.2368849  26.1462917   0.9916206
  87.9564222  37.6457169  -0.5640794  87.3838189  38.2647356  -1.0170322
  88.5297016  38.1956530  -0.0300872  94.0239612  26.8915809  11.6205755
  94.9757035  26.9913906  11.6417979  93.8543062  26.0994077  12.1303839
  92.0453991  23.9771392  11.8065155  91.4503923  24.2576405  11.1111644
  91.7603688  24.4665293  12.5781897  96.5027690  30.1121928  10.7348054
  96.4704010  29.1737929  10.9207738  97.1128313  30.1905965  10.0013879
  88.2249713  33.0335728  18.2375915  89.1452722  33.2114327  18.4315962
  88.1899296  32.0891773  18.0855614  77.4431878  28.2274321   7.1629190
  77.1234662  27.3739629   6.8703564  76.8965306  28.4422899   7.9187157
  81.2211785  30.9436762  10.8798696  81.4397795  31.8753870  10.8986730
  81.6337559  30.5844737  11.6653500  86.0939651  26.5169968  20.2701445
  85.9936378  27.4664325  20.2013536  85.8761193  26.1888207  19.3977515
  77.3120138  31.8477233   9.1322311  76.6183609  31.4331185   8.6192266
  78.0593129  31.8897769   8.5355730  85.9570921  29.9467107  19.0866507
  85.4738003  30.7467467  19.2930396  86.0431860  29.9575052  18.1333951
  79.2256880  31.7795486   7.0088326  79.2027569  31.8783174   6.0570209
  79.5357517  32.6260637   7.3305492  81.8844258  33.8371642  11.1234941
  82.8387512  33.8055584  11.0564872  81.6856782  33.3762265  11.9385167
  82.4743640  32.4072758  13.6905738  83.2936529  32.9016836  13.7140576
  82.7480448  31.4904726  13.6623306  80.2394487  39.3791261   8.1405139
  80.1048955  38.6191662   7.5743137  79.8226549  40.1032161   7.6733927
  83.3963613  40.2760578   8.3523581  83.2795997  41.2206011   8.2502272
  82.5756059  39.9734140   8.7409380  77.7278555  26.7410891  14.3897935
  78.3737418  26.2309845  14.8785161  77.5195706  27.4779573  14.9641361
  90.2531947  33.8091739  19.8890076  91.1223107  33.9832391  19.5276711
  89.7738698  34.6286156  19.7665805  84.4218127  40.9288840  11.5679510
  85.3245374  40.9612450  11.8846005  84.1955497  39.9989291  11.5825845
  86.1771729  39.6819826   8.2289588  85.2267360  39.6821688   8.1153961
  86.4804215  38.9352561   7.7125623  82.0676046  23.8878508  18.4872950
  82.9307507  23.5315313  18.6976274  81.4941456  23.5492403  19.1748354
 101.9124423  45.5180365   9.2935351 102.5502833  45.3987112   8.5898691
 101.7945266  46.4661209   9.3523303  98.7214129  45.4707793   9.2296875
  98.3832640  45.3548858   8.3417410  99.5903897  45.0698958   9.2097882
  94.5800945  47.3243269   5.2193766  94.0165810  47.2333206   4.4510054
  94.4653340  46.5043174   5.6996259  99.2033912  46.6242645  15.1883081
  99.1922553  46.2295443  14.3163585  99.3654551  45.8908717  15.7816852
  92.1265377  48.8194461   8.0577987  92.9186668  48.4785286   7.6424286
  92.3662027  48.9289436   8.9780140 100.1600503  50.9914237   0.5308231
  99.5088483  51.5768317   0.1442245 100.9544866  51.5220432   0.5903269
  94.0856130  48.0803374   0.9295366  94.8587006  47.5332361   0.7908241
  94.4381529  48.9447624   1.1409827  95.9241173  49.4079756  14.1362265
  95.6331039  50.3125387  14.0208931  96.5598157  49.4496284  14.8506334
  96.8497380  46.7856605  10.7263625  97.4460952  46.5612627  10.0120587
  96.9072351  46.0441350  11.3289072  96.1418697  46.1424146   0.7638190
  96.0254955  45.4669050   1.4319275  96.2520957  45.6556520  -0.0529656
  98.4850238  45.6034293   4.4684880  98.1208445  45.0764914   5.1797801
  99.3417354  45.2132762   4.2951365 104.3899539  36.8928626  11.7316146
 104.0582863  37.7624037  11.5077361 103.7945152  36.5764910  12.4110176
 100.8831058  49.0941172  11.1312059 100.5831781  49.9966211  11.0227866
 100.5382118  48.8273355  11.9833211  94.3343540  45.5454969   7.1648763
  93.4094036  45.4131183   7.3726455  94.5827953  46.3249188   7.6618705
 104.2828202  41.6123712   8.8109496 103.3745079  41.5439121   8.5168257
 104.2315798  42.0895657   9.6391321  91.6952351  45.1888242   7.9992552
  91.8244732  45.4422721   8.9131964  91.0149802  45.7815950   7.6797207
  95.8651838  55.8585492   4.0983026  95.7875868  56.8093317   4.1771507
  95.2613482  55.5131365   4.7557953  98.3569068  43.0313358  16.7544393
  97.5802402  43.5907278  16.7447258  98.9959631  43.5170141  17.2759263
  96.6115440  45.8398811  16.3162360  97.3530124  46.3783855  16.0397184
  95.9052425  46.4665100  16.4733912 102.0870780  47.9827952  14.9134522
 102.4954136  47.5410362  14.1689154 101.3648041  47.4080579  15.1668715
  98.4401850  42.9200558  12.2868079  99.2863045  43.3439972  12.4302728
  98.3800487  42.2634183  12.9806642 102.4099594  48.5429142   8.6686811
 101.7808457  48.7074856   7.9662878 102.0225256  48.9570752   9.4397775
 106.2888826  49.4783580   6.0231174 105.6039864  49.8582481   5.4728208
 106.3732675  50.0878907   6.7563122 101.5901295  40.5804927  13.9449252
 101.3462227  41.3346987  13.4083528 101.8661226  40.9590274  14.7796499
 103.5439758  47.1243539  12.6226518 103.7556653  47.7675299  11.9460899
 103.4969506  46.2905856  12.1548448 101.1465987  39.7361360   9.5263090
 100.2850466  40.0342613   9.8179828 101.1728421  39.9531759   8.5944123
  97.9627556  48.2803550   5.9336896  98.4265902  48.5591253   5.1441518
  97.6984354  47.3786995   5.7509986  94.8551637  47.8275032   8.8716659
  95.4252994  48.2562300   8.2334143  95.4459749  47.5457617   9.5700845
  96.8996442  44.4026703   2.7426461  97.6020486  44.8547746   3.2100387
  96.5677071  43.7610522   3.3706354  95.3476804  42.9938459  17.1177670
  94.7175464  43.6754740  17.3513067  95.2412892  42.8821541  16.1730808
  90.6421776  42.6610255   8.0443594  89.8520830  42.9167784   7.5683705
  91.1333024  43.4758593   8.1495635 104.6585586  50.0015495  10.7948875
 105.4803029  49.5995682  10.5131557 104.6547989  49.8983729  11.7464991
  92.5936522  43.0254835   5.0027071  91.7967685  43.1373529   5.5210567
  92.3662114  43.3641487   4.1367962  98.4242189  49.5499538  12.9509586
  98.4886622  50.0119945  13.7867758  97.7153113  48.9196903  13.0791896
  88.9259479  42.9140746  10.4758585  89.1767518  43.7987756  10.7416161
  89.4619028  42.7345347   9.7033677  98.1390207  51.2167645   2.8188566
  98.0035882  52.0619181   3.2473414  98.6800019  51.4186923   2.0554500
  94.6257546  37.2959225  19.4802921  94.2324492  36.7425424  20.1550565
  95.4423687  37.6069804  19.8709439  91.5919604  48.7343083   3.3916491
  92.1044125  49.5286334   3.5422056  92.2442317  48.0369374   3.3250093
  93.4014489  51.8508840   5.4739244  93.5781117  52.7726804   5.2860228
  94.1971322  51.5367259   5.9033624  97.5425507  38.7117104  17.0723178
  98.2835221  39.3124257  16.9927640  97.7743430  37.9694742  16.5141220
  92.6866845  43.8973472  15.3501407  92.5720361  42.9958729  15.6508506
  91.8311363  44.1437168  14.9986224  99.7658683  51.8391212  16.9488908
  99.3222537  51.0527590  16.6309813 100.4275897  52.0270362  16.2832799
  94.5245804  53.3687013  11.4749587  95.0753230  53.2404077  10.7026581
  93.6857280  53.6681902  11.1244479 101.8639921  52.1194012  14.9770309
 101.8458397  52.9402893  14.4850579 102.7859841  51.9948087  15.2020451
  98.3212975  49.6338141  15.8193818  98.8541312  48.8726429  15.5893126
  97.7927057  49.3411793  16.5617972  89.5568521  47.0631738   4.1676062
  90.3943743  47.4728746   3.9509769  89.7346789  46.1231180   4.1376256
 100.5679211  37.1102862   9.3136693 100.0644006  37.0732998   8.5004498
 100.8609818  38.0195605   9.3733349  96.8122097  37.1941592   8.3202874
  97.6775093  36.9984401   7.9608764  96.8799606  36.9651944   9.2472231
  99.6865688  48.7624134   3.3312630  99.1587050  48.0276893   3.0185867
  99.1853191  49.5398810   3.0852598 104.6658534  46.9573154   8.4479676
 104.0082209  47.6472416   8.5359805 105.4698933  47.3469586   8.7913662
  94.4184416  39.4243800   5.6919241  94.9928168  39.2018981   4.9592434
  95.0055398  39.4932494   6.4447843  99.9544824  42.7866982   8.7441958
  99.0367385  43.0081929   8.5863646 100.3704967  42.8613293   7.8853666
 104.2425789  50.2923528   4.6262760 103.7888116  49.4514438   4.6827951
 103.6119756  50.9284927   4.9637541 102.6858728  52.1300025   5.5612579
 102.9781703  52.6905082   4.8424944 103.1957349  52.4228586   6.3165738
  89.5794692  44.4022453   4.8386795  89.3819092  43.8091814   4.1137862
  89.0241356  44.0974663   5.5562734  97.5591416  44.2945559   6.9581388
  97.6140026  43.3419396   6.8823865  96.7482618  44.4504999   7.4422687
  95.4983776  42.9122619   4.7171767  94.6851641  43.2116790   5.1236959
  95.9942770  42.5178308   5.4346249  97.6492354  52.9080376   6.6506032
  97.6068532  53.1341222   5.7214564  98.5655052  52.6743751   6.7991833
 101.0957987  43.3764444  13.5486661 101.4507375  43.6035917  14.4081127
 101.7430119  43.7082820  12.9263916  94.9897850  40.4840975  10.3333002
  95.6297230  40.3429734   9.6355965  94.1575381  40.1975488   9.9571604
 106.8525104  48.5659407   9.2647262 107.2861611  48.4734696  10.1130316
 107.5656685  48.5416907   8.6267278  95.7658154  49.7843405   6.4467995
  96.5598753  49.2893725   6.2450569  95.0549847  49.2561268   6.0835700
 100.5852999  52.1661501  10.7980362 100.6390021  52.7352437  11.5658078
  99.7167780  52.3363386  10.4334399  92.0740918  43.9286487   2.5227747
  91.1438506  43.8670942   2.7397709  92.1698390  43.4062440   1.7264388
  91.9926467  40.4541300   5.1105989  92.2533284  41.3686633   5.0015149
  92.8143639  39.9865742   5.2602602  93.4651392  41.8679057  12.2804813
  94.1374446  41.6596419  11.6317462  92.6381179  41.6701143  11.8410046
 107.7140654  48.6083107  11.7980147 107.9076544  49.5128918  12.0439422
 107.6141272  48.1490526  12.6318732  99.3676964  38.4940998  14.2970474
  98.7204879  39.1930947  14.2034951 100.1377980  38.9277142  14.6646722
 102.7755762  48.7589850  17.3721028 102.6241269  48.5300402  16.4551111
 102.7660442  49.7160451  17.3852373  99.5441099  46.3321763  12.3567294
 100.4733159  46.4832922  12.1836261  99.1232129  46.4205783  11.5015940
  98.3429430  50.3572427  10.1265832  98.2040516  49.9891212  10.9991770
  97.5544027  50.8720067   9.9549789  98.9377582  55.4581524   1.4691368
  99.1129338  54.9869567   2.2836991  98.2510370  56.0847290   1.6972629
  99.8934646  49.7354030   7.5154669  99.5584478  49.6954800   8.4112319
  99.3938591  49.0698746   7.0425080  93.8678889  45.1421660  13.0407251
  93.7298687  44.4101899  13.6418790  94.7783813  45.0530560  12.7591438
  96.4961190  44.8541619  12.5290930  97.2060809  44.2134811  12.4877549
  96.4530498  45.1054514  13.4517111 104.4847969  51.7908972  15.4497509
 104.4260515  51.1068193  14.7828092 104.8867487  52.5327963  14.9978135
  95.2090124  41.8406837  14.3486570  94.6727481  41.3897576  15.0008166
  94.6206833  41.9752746  13.6057034  93.5038668  58.6070886   8.2431228
  93.7435266  59.2389411   8.9210247  92.6607864  58.2558926   8.5296588
 104.4865376  49.7548556  13.6811489 103.5992155  49.4174478  13.8037888
 105.0563927  49.0231588  13.9180254  86.1394523  46.0872648   7.0054540
  86.8265563  45.7734378   6.4175556  85.9842652  46.9914013   6.7321792
  90.9429245  40.9762845  11.4339564  90.8587434  40.3688514  10.6989974
  90.1211952  41.4671863  11.4349060  98.0166530  54.4150009  10.6472732
  97.9436701  55.2204980  11.1592037  97.5743923  54.6141975   9.8220754
  97.8056309  53.6521779   4.1575554  97.0223831  54.1943459   4.2513778
  98.5049054  54.1695758   4.5569795 100.4765213  54.3136843  12.8030891
 101.1893185  54.9484308  12.7306792  99.9855242  54.4100709  11.9870893
 102.1982740  48.2188095   4.3748183 101.2639019  48.3389558   4.2052887
 102.3759408  47.3160562   4.1108192  97.6987928  41.6033791   6.5281444
  97.3285716  41.0504832   7.2162349  98.1947020  40.9991925   5.9756444
  95.5277127  52.0631286  13.6236462  96.2286586  52.6967769  13.7765856
  95.0572242  52.4046018  12.8632101 103.3278413  44.6175894  11.4489012
 102.6749863  44.8651801  10.7941465 103.7058792  43.8040032  11.1151489
 100.2885586  54.6535587   5.5517182 100.4707981  53.8357243   6.0144935
 101.1118572  54.8703279   5.1142072 100.6227752  53.5803772   2.8132231
 101.1515518  53.0696227   2.2002393 100.8855971  53.2646302   3.6777764
  99.3765986  45.3595705  17.9355049  98.7006623  45.2589834  18.6057424
 100.1993619  45.2034919  18.3991046  91.1244845  51.5967641  10.5567564
  91.7098281  50.8511329  10.6895469  90.9269683  51.9071598  11.4404228
  93.9783500  54.6318889   5.5730007  93.3093875  55.1165016   5.0894047
  93.8396370  54.8788109   6.4873385  85.7162499  44.1673242   9.2772008
  85.7546599  43.6336832  10.0709126  85.2102792  43.6408447   8.6582985
  98.1188768  56.6662632  12.1712665  98.6707076  56.8294254  12.9361750
  98.4594962  57.2567070  11.4992690  93.0953262  39.0137782  12.7734550
  93.1594588  39.8752613  12.3611948  93.0320382  38.4011784  12.0406908
  92.5705534  41.0860915  16.4207584  93.1977573  40.7037992  17.0345108
  91.7133453  40.8675117  16.7863277 102.9699643  51.4923890  18.0261320
 103.5139547  52.1053848  17.5316274 102.3886488  52.0503468  18.5428333
  89.3471077  42.8937344   2.3525939  89.6424518  41.9848022   2.2992993
  88.4459113  42.8725083   2.0306941 101.2557156  54.6144608   9.1576347
 101.1308295  53.8134348   8.6487293 101.9136247  55.1090801   8.6690317
  92.8765324  40.9693340   8.3353488  92.1551910  41.5829308   8.1960961
  93.6658580  41.5051105   8.2570134 103.3192064  52.4153628  10.7855897
 102.3722400  52.2958979  10.7134224 103.6674837  51.5276126  10.8682159
  95.6791637  38.3047767  14.6094139  96.2026039  38.5510063  15.3720449
  95.4603971  39.1367802  14.1897277  91.0758919  40.5751441   2.4765264
  90.7471625  39.6948820   2.2940370  91.4298289  40.5199110   3.3641653
 100.3238497  52.2106344   6.9860250 100.1763460  51.2823051   7.1667820
 101.1491991  52.2326435   6.5017325  94.1900742  40.8624411   2.8440742
  94.5296814  41.3910332   2.1219350  94.6372862  41.2004817   3.6199308
 103.9272619  53.0334903   8.0725122 104.8519167  52.8277764   7.9349574
 103.7587923  52.7851304   8.9814464  96.8844182  39.2461462  12.2943810
  96.5441003  38.4469275  12.6964490  96.1783189  39.5463173  11.7220643
  97.5360654  36.3310774  10.7471133  98.3586724  35.8571252  10.6250023
  97.7798718  37.1101258  11.2469819  95.0599233  43.0229895   8.5563111
  94.9143814  43.3370198   9.4487393  94.5824437  43.6414795   8.0034010
  96.9195616  40.0132443   8.6044001  96.9057185  39.1173536   8.2676299
  97.6368044  40.0203107   9.2382287  98.7721747  40.4469783  10.6497128
  98.5139524  41.3686854  10.6481459  98.2406787  40.0500218  11.3397593
 103.7167935  53.5520570   3.4287214 103.8904813  52.9866993   2.6761066
 104.2096827  54.3521465   3.2466704  89.5344895  45.5635239  11.4950773
  88.9898363  46.3395047  11.6271047  90.4124245  45.9106044  11.3369894
  90.3210917  44.6905136  14.3880930  89.5792653  44.8387771  14.9745560
  90.0003661  44.9513401  13.5247679  98.2654580  54.2321114  14.1861320
  98.5741706  53.9870261  15.0584019  99.0630062  54.4367752  13.6980190
  98.2875192  56.3859023   6.4166696  97.8480182  55.8935402   7.1099553
  99.0383309  55.8431991   6.1758771  90.7667531  52.5770564   6.4191324
  91.5925551  52.2774336   6.0389968  90.4161583  51.8078187   6.8681113
  95.7349064  51.9297033   8.4888998  95.1129073  51.2667738   8.1891226
  96.4053931  51.9558164   7.8062646  88.9676136  50.4956891   7.3780258
  88.1308044  50.0679065   7.1964259  88.9399781  50.6889334   8.3151049
  95.8073591  40.4078821  18.0821504  95.8561747  41.2840943  17.6999273
  96.3496106  39.8656214  17.5093147 106.2928437  50.9519944  17.3622641
 105.5023981  50.9344083  16.8227140 106.0561792  51.4908238  18.1171677
 106.4126312  47.8012410  14.6755369 106.4624317  47.6362418  15.6170892
 106.3040236  46.9339669  14.2853250  95.2962571  50.4800956   1.9647458
  95.4450691  51.1636420   1.3114131  96.1029014  50.4606046   2.4796914
 103.7030075  43.7843338  15.9914676 104.6039937  43.6449803  15.6998674
 103.7778049  43.9497793  16.9312854  98.0372880  41.1610193  14.8367862
  97.1676189  41.4543759  14.5650451  98.2732360  41.7450638  15.5575126
 107.9144509  50.2209352  14.9197391 107.6229317  50.5839332  15.7560852
 107.3016640  49.5076360  14.7410723 106.1631697  45.3441966  13.3877449
 106.6385819  45.5369613  12.5796300 105.2397263  45.4001152  13.1420833
  93.0515204  46.5066134   2.9708527  92.8061246  45.6028464   3.1688737
  93.2211118  46.5083284   2.0288005 100.7411914  37.3789810  12.3533283
 101.2593858  38.1150837  12.0279771 100.3867046  37.6853803  13.1880042
  92.3210851  42.2394491   0.4694689  91.6280096  42.3138846  -0.1865275
  92.0762603  41.4754835   0.9916206  98.7957976  52.9749086  -0.5640794
  98.2231943  53.5939273  -1.0170322  99.3690770  53.5248448  -0.0300872
 104.8633366  42.2207726  11.6205755 105.8150789  42.3205824  11.6417979
 104.6936817  41.4285995  12.1303839 102.8847746  39.3063310  11.8065155
 102.2897678  39.5868322  11.1111644 102.5997442  39.7957211  12.5781897
 107.3421444  45.4413846  10.7348054 107.3097764  44.5029847  10.9207738
 107.9522068  45.5197883  10.0013879  99.0643467  48.3627645  18.2375915
  99.9846477  48.5406244  18.4315962  99.0293050  47.4183691  18.0855614
  88.2825632  43.5566239   7.1629190  87.9628417  42.7031547   6.8703564
  87.7359061  43.7714817   7.9187157  92.0605540  46.2728680  10.8798696
  92.2791550  47.2045788  10.8986730  92.4731314  45.9136654  11.6653500
  96.9333405  41.8461886  20.2701445  96.8330132  42.7956243  20.2013536
  96.7154947  41.5180125  19.3977515  88.1513892  47.1769150   9.1322311
  87.4577364  46.7623103   8.6192266  88.8986883  47.2189687   8.5355730
  96.7964675  45.2759024  19.0866507  96.3131757  46.0759385  19.2930396
  96.8825614  45.2866969  18.1333951  90.0650635  47.1087404   7.0088326
  90.0421323  47.2075091   6.0570209  90.3751271  47.9552555   7.3305492
  92.7238013  49.1663559  11.1234941  93.6781266  49.1347502  11.0564872
  92.5250536  48.7054183  11.9385167  93.3137395  47.7364675  13.6905738
  94.1330284  48.2308754  13.7140576  93.5874203  46.8196643  13.6623306
  91.0788242  54.7083179   8.1405139  90.9442710  53.9483580   7.5743137
  90.6620304  55.4324079   7.6733927  94.2357367  55.6052496   8.3523581
  94.1189752  56.5497928   8.2502272  93.4149814  55.3026057   8.7409380
  88.5672309  42.0702809  14.3897935  89.2131173  41.5601763  14.8785161
  88.3589460  42.8071491  14.9641361 101.0925701  49.1383657  19.8890076
 101.9616861  49.3124309  19.5276711 100.6132453  49.9578073  19.7665805
  95.2611882  56.2580758  11.5679510  96.1639128  56.2904368  11.8846005
  95.0349252  55.3281209  11.5825845  97.0165484  55.0111744   8.2289588
  96.0661115  55.0113606   8.1153961  97.3197970  54.2644479   7.7125623
  92.9069800  39.2170426  18.4872950  93.7701262  38.8607231  18.6976274
  92.3335211  38.8784321  19.1748354 112.7518177  60.8472283   9.2935351
 113.3896587  60.7279030   8.5898691 112.6339020  61.7953126   9.3523303
 109.5607883  60.7999711   9.2296875 109.2226395  60.6840775   8.3417410
 110.4297652  60.3990876   9.2097882 110.0427666  61.9534562  15.1883081
 110.0316307  61.5587361  14.3163585 110.2048306  61.2200635  15.7816852
 102.9659131  64.1486379   8.0577987 103.7580423  63.8077203   7.6424286
 103.2055781  64.2581354   8.9780140 106.7634928  64.7371674  14.1362265
 106.4724794  65.6417305  14.0208931 107.3991912  64.7788202  14.8506334
 107.6891134  62.1148523  10.7263625 108.2854707  61.8904545  10.0120587
 107.7466106  61.3733268  11.3289072 115.2293293  52.2220544  11.7316146
 114.8976618  53.0915955  11.5077361 114.6338906  51.9056828  12.4110176
 111.7224813  64.4233090  11.1312059 111.4225536  65.3258128  11.0227866
 111.3775872  64.1565273  11.9833211 105.1737294  60.8746887   7.1648763
 104.2487791  60.7423101   7.3726455 105.4221707  61.6541106   7.6618705
 115.1221956  56.9415630   8.8109496 114.2138834  56.8731038   8.5168257
 115.0709552  57.4187575   9.6391321 102.5346105  60.5180160   7.9992552
 102.6638486  60.7714639   8.9131964 101.8543556  61.1107868   7.6797207
 109.1962822  58.3605275  16.7544393 108.4196156  58.9199196  16.7447258
 109.8353385  58.8462058  17.2759263 107.4509194  61.1690729  16.3162360
 108.1923879  61.7075773  16.0397184 106.7446180  61.7957018  16.4733912
 112.9264534  63.3119869  14.9134522 113.3347890  62.8702280  14.1689154
 112.2041796  62.7372497  15.1668715 109.2795604  58.2492476  12.2868079
 110.1256799  58.6731890  12.4302728 109.2194242  57.5926100  12.9806642
 112.4295050  55.9096844  13.9449252 112.1855981  56.6638905  13.4083528
 112.7054980  56.2882192  14.7796499 114.3833512  62.4535457  12.6226518
 114.5950408  63.0967217  11.9460899 114.3363261  61.6197773  12.1548448
 111.9859741  55.0653277   9.5263090 111.1244220  55.3634531   9.8179828
 112.0122176  55.2823676   8.5944123 105.6945392  63.1566950   8.8716659
 106.2646749  63.5854218   8.2334143 106.2853504  62.8749534   9.5700845
 106.1870558  58.3230377  17.1177670 105.5569219  59.0046658  17.3513067
 106.0806646  58.2113459  16.1730808 101.4815531  57.9902173   8.0443594
 100.6914585  58.2459702   7.5683705 101.9726778  58.8050511   8.1495635
 103.4330276  58.3546752   5.0027071 102.6361439  58.4665447   5.5210567
 103.2055868  58.6933404   4.1367962 109.2635944  64.8791455  12.9509586
 109.3280376  65.3411863  13.7867758 108.5546868  64.2488820  13.0791896
  99.7653234  58.2432663  10.4758585 100.0161272  59.1279673  10.7416161
 100.3012782  58.0637265   9.7033677 105.4651301  52.6251143  19.4802921
 105.0718247  52.0717341  20.1550565 106.2817441  52.9361721  19.8709439
 108.3819262  54.0409022  17.0723178 109.1228975  54.6416175  16.9927640
 108.6137185  53.2986660  16.5141220 103.5260600  59.2265389  15.3501407
 103.4114115  58.3250646  15.6508506 102.6705118  59.4729086  14.9986224
 110.6052438  67.1683129  16.9488908 110.1616292  66.3819508  16.6309813
 111.2669651  67.3562280  16.2832799 105.3639559  68.6978931  11.4749587
 105.9146984  68.5695994  10.7026581 104.5251035  68.9973820  11.1244479
 112.7033676  67.4485929  14.9770309 112.6852151  68.2694810  14.4850579
 113.6253596  67.3240005  15.2020451 109.1606730  64.9630059  15.8193818
 109.6935067  64.2018347  15.5893126 108.6320811  64.6703711  16.5617972
 111.4072965  52.4394780   9.3136693 110.9037761  52.4024915   8.5004498
 111.7003572  53.3487523   9.3733349 107.6515851  52.5233510   8.3202874
 108.5168848  52.3276318   7.9608764 107.7193360  52.2943862   9.2472231
 105.2578170  54.7535718   5.6919241 105.8321922  54.5310899   4.9592434
 105.8449153  54.8224412   6.4447843 110.7938578  58.1158900   8.7441958
 109.8761140  58.3373847   8.5863646 111.2098722  58.1905211   7.8853666
 100.4188447  59.7314371   4.8386795 100.2212846  59.1383731   4.1137862
  99.8635111  59.4266581   5.5562734 108.3985170  59.6237477   6.9581388
 108.4533780  58.6711314   6.8823865 107.5876372  59.7796916   7.4422687
 106.3377530  58.2414537   4.7171767 105.5245396  58.5408707   5.1236959
 106.8336524  57.8470226   5.4346249 111.9351742  58.7056361  13.5486661
 112.2901130  58.9327834  14.4081127 112.5823873  59.0374738  12.9263916
 105.8291605  55.8132892  10.3333002 106.4690984  55.6721651   9.6355965
 104.9969136  55.5267406   9.9571604 102.8320221  55.7833217   5.1105989
 103.0927039  56.6978551   5.0015149 103.6537394  55.3157660   5.2602602
 104.3045147  57.1970975  12.2804813 104.9768200  56.9888337  11.6317462
 103.4774933  56.9993061  11.8410046 110.2070719  53.8232915  14.2970474
 109.5598634  54.5222865  14.2034951 110.9771734  54.2569059  14.6646722
 113.6149517  64.0881768  17.3721028 113.4635023  63.8592319  16.4551111
 113.6054196  65.0452369  17.3852373 110.3834853  61.6613680  12.3567294
 111.3126913  61.8124840  12.1836261 109.9625883  61.7497701  11.5015940
 109.1823185  65.6864345  10.1265832 109.0434271  65.3183129  10.9991770
 108.3937781  66.2011984   9.9549789 104.7072644  60.4713578  13.0407251
 104.5692442  59.7393816  13.6418790 105.6177567  60.3822478  12.7591438
 107.3354945  60.1833537  12.5290930 108.0454563  59.5426729  12.4877549
 107.2924253  60.4346432  13.4517111 115.3241723  67.1200890  15.4497509
 115.2654269  66.4360110  14.7828092 115.7261242  67.8619880  14.9978135
 106.0483879  57.1698755  14.3486570 105.5121236  56.7189493  15.0008166
 105.4600587  57.3044664  13.6057034 115.3259131  65.0840474  13.6811489
 114.4385909  64.7466396  13.8037888 115.8957682  64.3523505  13.9180254
  96.9788278  61.4164566   7.0054540  97.6659318  61.1026296   6.4175556
  96.8236406  62.3205930   6.7321792 101.7823000  56.3054762  11.4339564
 101.6981189  55.6980432  10.6989974 100.9605706  56.7963781  11.4349060
 108.5381682  56.9325709   6.5281444 108.1679470  56.3796749   7.2162349
 109.0340775  56.3283842   5.9756444 106.3670881  67.3923204  13.6236462
 107.0680341  68.0259687  13.7765856 105.8965996  67.7337936  12.8632101
 114.1672167  59.9467811  11.4489012 113.5143617  60.1943719  10.7941465
 114.5452547  59.1331950  11.1151489 110.2159740  60.6887622  17.9355049
 109.5400377  60.5881752  18.6057424 111.0387374  60.5326836  18.3991046
 101.9638599  66.9259559  10.5567564 102.5492036  66.1803247  10.6895469
 101.7663438  67.2363516  11.4404228  96.5556254  59.4965159   9.2772008
  96.5940353  58.9628750  10.0709126  96.0496547  58.9700365   8.6582985
 103.9347016  54.3429700  12.7734550 103.9988343  55.2044531  12.3611948
 103.8714136  53.7303701  12.0406908 103.4099289  56.4152832  16.4207584
 104.0371327  56.0329910  17.0345108 102.5527208  56.1967034  16.7863277
 113.8093397  66.8215807  18.0261320 114.3533301  67.4345766  17.5316274
 113.2280242  67.3795386  18.5428333 100.1864831  58.2229261   2.3525939
 100.4818273  57.3139940   2.2992993  99.2852867  58.2017001   2.0306941
 103.7159078  56.2985258   8.3353488 102.9945664  56.9121226   8.1960961
 104.5052334  56.8343023   8.2570134 106.5185392  53.6339684  14.6094139
 107.0419794  53.8801981  15.3720449 106.2997725  54.4659719  14.1897277
 101.9152673  55.9043359   2.4765264 101.5865379  55.0240738   2.2940370
 102.2692044  55.8491028   3.3641653 107.7237937  54.5753380  12.2943810
 107.3834757  53.7761193  12.6964490 107.0176943  54.8755090  11.7220643
 108.3754409  51.6602692  10.7471133 109.1980478  51.1863170  10.6250023
 108.6192472  52.4393176  11.2469819 105.8992988  58.3521813   8.5563111
 105.7537568  58.6662116   9.4487393 105.4218191  58.9706713   8.0034010
 107.7589370  55.3424361   8.6044001 107.7450939  54.4465454   8.2676299
 108.4761799  55.3495024   9.2382287 109.6115501  55.7761701  10.6497128
 109.3533279  56.6978771  10.6481459 109.0800542  55.3792135  11.3397593
 100.3738650  60.8927157  11.4950773  99.8292118  61.6686965  11.6271047
 101.2518000  61.2397961  11.3369894 101.1604672  60.0197053  14.3880930
 100.4186408  60.1679689  14.9745560 100.8397416  60.2805319  13.5247679
 109.1048334  69.5613032  14.1861320 109.4135461  69.3162178  15.0584019
 109.9023816  69.7659670  13.6980190  99.8069890  65.8248808   7.3780258
  98.9701799  65.3970983   7.1964259  99.7793536  66.0181252   8.3151049
 106.6467346  55.7370738  18.0821504 106.6955501  56.6132861  17.6999273
 107.1889860  55.1948131  17.5093147 117.1322192  66.2811862  17.3622641
 116.3417735  66.2636000  16.8227140 116.8955546  66.8200155  18.1171677
 117.2520067  63.1304328  14.6755369 117.3018072  62.9654335  15.6170892
 117.1433990  62.2631587  14.2853250 114.5423829  59.1135256  15.9914676
 115.4433692  58.9741721  15.6998674 114.6171804  59.2789711  16.9312854
 108.8766634  56.4902111  14.8367862 108.0069944  56.7835677  14.5650451
 109.1126115  57.0742556  15.5575126 118.7538263  65.5501269  14.9197391
 118.4623072  65.9131250  15.7560852 118.1410395  64.8368278  14.7410723
 117.0025452  60.6733884  13.3877449 117.4779573  60.8661530  12.5796300
 116.0791017  60.7293070  13.1420833 111.5805668  52.7081728  12.3533283
 112.0987612  53.4442755  12.0279771 111.2260801  53.0145721  13.1880042
 115.7027121  57.5499644  11.6205755 116.6544544  57.6497742  11.6417979
 115.5330571  56.7577913  12.1303839 113.7241500  54.6355227  11.8065155
 113.1291432  54.9160240  11.1111644 113.4391197  55.1249128  12.5781897
 109.9037222  63.6919563  18.2375915 110.8240231  63.8698162  18.4315962
 109.8686805  62.7475608  18.0855614  99.1219387  58.8858157   7.1629190
  98.8022171  58.0323465   6.8703564  98.5752815  59.1006735   7.9187157
 102.8999294  61.6020598  10.8798696 103.1185304  62.5337705  10.8986730
 103.3125068  61.2428572  11.6653500 107.7727160  57.1753803  20.2701445
 107.6723887  58.1248160  20.2013536 107.5548702  56.8472042  19.3977515
  98.9907647  62.5061068   9.1322311  98.2971118  62.0915021   8.6192266
  99.7380638  62.5481605   8.5355730 107.6358430  60.6050942  19.0866507
 107.1525512  61.4051302  19.2930396 107.7219369  60.6158887  18.1333951
 100.9044389  62.4379322   7.0088326 100.8815078  62.5367009   6.0570209
 101.2145026  63.2844473   7.3305492 103.5631767  64.4955477  11.1234941
 104.5175021  64.4639419  11.0564872 103.3644291  64.0346101  11.9385167
 104.1531149  63.0656593  13.6905738 104.9724038  63.5600672  13.7140576
 104.4267957  62.1488561  13.6623306  99.4066064  57.3994727  14.3897935
 100.0524927  56.8893681  14.8785161  99.1983215  58.1363408  14.9641361
 111.9319456  64.4675574  19.8890076 112.8010615  64.6416227  19.5276711
 111.4526207  65.2869991  19.7665805 106.1005636  71.5872675  11.5679510
 107.0032883  71.6196286  11.8846005 105.8743006  70.6573126  11.5825845
 103.7463555  54.5462344  18.4872950 104.6095016  54.1899149  18.6976274
 103.1728965  54.2076239  19.1748354 116.3045055  67.9543061  19.4802921
 115.9112001  67.4009259  20.1550565 117.1211196  68.2653639  19.8709439
 119.2213016  69.3700940  17.0723178 119.9622730  69.9708093  16.9927640
 119.4530939  68.6278577  16.5141220 114.2493043  71.7444750  16.4207584
 114.8765082  71.3621827  17.0345108 113.3920962  71.5258952  16.7863277
 117.4861100  71.0662656  18.0821504 117.5349256  71.9424779  17.6999273
 118.0283615  70.5240049  17.5093147 118.6120914  72.5045721  20.2701445
 118.5117641  73.4540078  20.2013536 118.3942456  72.1763960  19.3977515
 110.2459818  72.7286644  14.3897935 110.8918682  72.2185598  14.8785161
 110.0376969  73.4655326  14.9641361 114.5857309  69.8754262  18.4872950
 115.4488771  69.5191066  18.6976274 114.0122720  69.5368156  19.1748354
   4.3554026  77.0038084  86.7962004   3.6017735  76.4345482  86.6406008
   4.4901568  76.9700748  87.7432638   0.7202639  78.4446072  87.0928118
   1.5549530  78.8835876  87.2565679   0.8561768  77.9684725  86.2736364
   4.7660441  77.1613694  89.5282248   5.4963830  76.8998982  90.0889951
   4.1567387  76.4242416  89.5684316   2.8475739  75.3021556  90.1256699
   2.1208902  75.1677521  89.5173191   2.4323025  75.6098385  90.9313417
   0.4653533  71.5233408  87.4790131   1.0598024  71.2829144  86.7683439
   0.5380117  70.8040539  88.1063667   2.7724606  74.8299609  86.2533552
   2.2124164  74.8992799  87.0265114   2.1668110  74.6540594  85.5333048
   4.3580625  91.5056123  88.9463508   4.9959035  91.3862871  88.2426848
   4.2401468  92.4536967  89.0051460   1.1670331  91.4583551  88.8825033
   0.8288842  91.3424616  87.9945567   2.0360099  91.0574716  88.8626039
   2.6056705  96.9789995  80.1836388   1.9544685  97.5644076  79.7970402
   3.4001068  97.5096190  80.2431426   3.9121893  89.2307577  86.0216716
   4.6984982  88.8127000  85.6707133   4.1760597  90.1353669  86.1898364
   4.0831970  94.6680427  80.7205373   3.4477803  94.7415054  81.4326277
   3.7529377  95.2574026  80.0424452   9.3130320  89.1682810  86.9249694
  10.0455492  88.5982027  87.1587524   8.5569676  88.7804411  87.3656200
   0.9306440  91.5910052  84.1213037   0.5664647  91.0640673  84.8325958
   1.7873556  91.2008521  83.9479522   6.8355741  82.8804384  91.3844303
   6.5039065  83.7499795  91.1605518   6.2401354  82.5640668  92.0638333
   3.3287260  95.0816930  90.7840216   3.0287983  95.9841969  90.6756023
   2.9838320  94.8149114  91.6361369   6.7284404  87.5999471  88.4637653
   5.8201281  87.5314879  88.1696414   6.6772000  88.0771415  89.2919478
   8.5946050  85.8015909  90.2415527   7.9520431  86.0948442  89.5955322
   8.0900979  85.6868829  91.0468724   6.2486214  89.5479082  80.9301386
   7.1604070  89.7806469  80.7549084   5.7395861  90.1316126  80.3676465
   0.8858052  88.9076317  91.9396236   1.7319247  89.3315730  92.0830885
   0.8256689  88.2509941  92.6334799   4.8555796  94.5304901  88.3214968
   4.2264659  94.6950615  87.6191036   4.4681458  94.9446510  89.0925932
   8.7345028  95.4659338  85.6759331   8.0496066  95.8458240  85.1256365
   8.8188878  96.0754665  86.4091279   4.0357497  86.5680685  93.5977409
   3.7918429  87.3222746  93.0611685   4.3117428  86.9466033  94.4324656
   5.9895960  93.1119297  92.2754675   6.2012855  93.7551057  91.5989056
   5.9425708  92.2781614  91.8076605   3.5922189  85.7237118  89.1791247
   2.7306668  86.0218372  89.4707985   3.6184623  85.9407517  88.2472280
   7.1041788  95.9891253  90.4477032   7.9259232  95.5871440  90.1659714
   7.1004191  95.8859487  91.3993148  15.1947781  92.3330001  86.7962004
  14.4411489  91.7637399  86.6406008  15.3295322  92.2992666  87.7432638
   0.5846409  97.2043404  82.4716723   0.4492084  98.0494939  82.9001571
   1.1256221  97.4062681  81.7082657   3.9338872  80.7273966  91.0015617
   3.5903142  81.6175607  90.9254727   4.3017835  80.5375623  90.1385202
   3.8989155  90.7182577  79.5088052   3.3835779  91.4887181  79.7476439
   3.6266464  90.0447713  80.1321113   1.4836266  85.5632277  84.5673290
   0.6277863  85.1739128  84.3878929   1.8963218  85.6424238  83.7073076
   3.0135413  83.0978621  88.9664850   2.5100208  83.0608756  88.1532655
   3.3066020  84.0071363  89.0261506   8.8723429  93.4714931  81.4441225
   8.0952872  93.1326091  80.9996387   9.5514910  93.4767554  80.7696190
   3.6875458  88.5909669  81.3347833   3.3825594  88.9055818  82.1857976
   4.6405900  88.6691089  81.3775166   2.1321890  94.7499892  82.9840787
   1.6043252  94.0152652  82.6714024   1.6309393  95.5274568  82.7380755
   7.1114736  92.9448913  88.1007833   6.4538411  93.6348174  88.1887962
   7.9155135  93.3345344  88.4441819   5.9220195  91.2993285  86.1511775
   6.4352077  91.9323277  86.6533485   6.5721419  90.6994481  85.7855135
   3.1842569 101.2777610  78.9072446   2.5104268 101.5809306  79.5157404
   3.5708391 102.0806690  78.5577903   2.4001026  88.7742741  88.3970115
   1.4823587  88.9957688  88.2391803   2.8161169  88.8489051  87.5381823
   3.1836074  90.1734156  83.5272796   3.9307893  90.6855554  83.2179918
   3.4527663  89.8518209  84.3877189   1.4562724  92.6692697  80.5099750
   0.5473943  92.3851730  80.6072220   1.4857808  93.0891776  79.6503057
   6.6881991  96.2799287  84.2790918   6.2344318  95.4390197  84.3356108
   6.0575958  96.9160685  84.6165698   5.6314911  87.2091273  85.5091585
   4.8937668  86.6968659  85.8401828   5.8841684  86.7691654  84.6974862
   5.1314930  98.1175783  85.2140736   5.4237905  98.6780840  84.4953101
   5.6413551  98.4104344  85.9693895   5.7326538  79.9867525  86.1033354
   6.0385415  79.1264888  85.8159269   6.4579143  80.5785145  85.9032348
   1.1538812  94.2101441  77.8487829   0.7158242  93.4937300  77.3893466
   1.8949252  94.4377556  77.2872920   3.5414189  89.3640202  93.2014818
   3.8963577  89.5911675  94.0609284   4.1886321  89.6958579  92.5792073
   9.2711926  92.4858638  83.9064147   9.1329825  92.6760234  82.9785336
   8.9148145  93.2478021  84.3632198   9.2981306  94.5535165  88.9175419
   9.7317813  94.4610454  89.7658473  10.0112887  94.5292665  88.2795435
  10.1596856  94.5958866  91.4508304  10.3532746  95.5004676  91.6967579
  10.0597474  94.1366285  92.2846889   1.8133166  84.4816756  93.9498631
   1.1661081  85.1806706  93.8563108   2.5834182  84.9152900  94.3174880
   1.9897301  92.3197521  92.0095451   2.9189361  92.4708681  91.8364418
   1.5688331  92.4081542  91.1544098   1.3833784 101.4457282  81.1219525
   1.5585540 100.9745325  81.9365148   0.6966572 102.0723048  81.3500786
   2.3390848  95.7229788  87.1682826   2.0040680  95.6830558  88.0640476
   1.8394793  95.0574504  86.6953237   5.2750039  93.0685823  77.4419886
   4.6579210  92.3432651  77.3452939   4.8066528  93.8295183  77.0986960
   6.9321578  95.7424315  93.3339646   6.0448357  95.4050237  93.4566045
   7.5020129  95.0107346  93.5708412   3.5609161  85.4492167  86.4537916
   4.0577861  84.6962129  86.1338987   2.7896143  85.4856483  85.8881126
  11.4138919  91.1532532  88.0956208  11.4028795  92.0357248  87.7250141
  10.5456298  90.8004083  87.9010745   4.6438942  94.2063854  84.0276340
   3.7095221  94.3265316  83.8581044   4.8215610  93.3036321  83.7636350
   8.0311493  90.0481173  84.5626374   8.4971946  90.8809165  84.4886677
   8.4818994  89.5826155  85.2671632   6.0987724  96.3924994  81.5612526
   6.3747568  96.2781589  82.4706400   5.2292223  95.9942479  81.5224699
   6.0028156  82.4161760  88.6017275   5.0891236  82.6465987  88.7699482
   6.4321258  82.5000204  89.4531308   5.7734615  90.6051652  91.1017169
   5.1206065  90.8527560  90.4469622   6.1514994  89.7915790  90.7679646
   2.7341788 100.6411345  85.2045340   2.9164183  99.8233001  85.6673092
   3.5574774 100.8579038  84.7670229   3.0683954  99.5679530  82.4660388
   3.5971720  99.0571985  81.8530550   3.3312174  99.2522061  83.3305921
   3.7013358 100.6020366  88.8104504   3.5764497  99.8010106  88.3015450
   4.3592449 101.0966559  88.3218474   5.7648266  98.4029386  90.4384055
   4.8178602  98.2834737  90.3662381   6.1131039  97.5151884  90.5210316
   2.7694699  98.1982102  86.6388407   2.6219662  97.2698810  86.8195977
   3.5948193  98.2202193  86.1545482   6.3728821  99.0210661  87.7253280
   7.2975369  98.8153523  87.5877731   6.2044125  98.7727062  88.6342621
   2.7656214  86.0519940  81.6320524   2.9819828  86.9344578  81.3309352
   2.2850281  85.6606153  80.9026166   1.2177949  86.4345541  90.3025286
   0.9595727  87.3562612  90.3009616   0.6862989  86.0375976  90.9925750
   6.1624137  99.5396329  83.0815371   6.3361015  98.9742751  82.3289223
   6.6553029 100.3397223  82.8994861   1.6379904  82.5677492  86.6626448
   1.6601601  82.6316825  85.7078428   2.0547963  81.7282001  86.8566954
  12.0163529  92.3032752  84.7005671  12.4594675  91.5540077  84.3024794
  11.1390039  92.2942888  84.3179403   7.1499310  98.8563093  80.1812269
   7.8450215  99.4769786  80.3999584   7.4922460  98.0058444  80.4564647
   9.0490733  96.3062799  81.7099600   9.5742057  96.6450071  80.9848920
   8.9613086  95.3709814  81.5262735   8.8582514  93.7888169  94.3283527
   8.9080519  93.6238176  95.2699049   8.7496438  92.9215428  93.9381407
   6.1486277  89.7719097  95.6442833   7.0496139  89.6325561  95.3526831
   6.2234251  89.9373551  96.5841011  10.3600711  96.2085110  94.5725548
  10.0685519  96.5715091  95.4089009   9.7472842  95.4952118  94.3938880
  11.5596393  93.7737990  87.0928118  12.3943285  94.2127794  87.2565679
  11.6955522  93.2976643  86.2736364   8.6087899  91.3317725  93.0405606
   9.0842021  91.5245371  92.2324457   7.6853465  91.3876911  92.7948990
   3.1868116  83.3665568  92.0061440   3.7050060  84.1026595  91.6807929
   2.8323249  83.6729562  92.8408199   3.4380710  79.7865851  87.5262337
   3.7182464  79.1189040  88.1522763   4.2231317  79.9794946  87.0137000
   1.2414178  98.9624845  79.0887363   0.6688146  99.5815032  78.6357835
   1.8146972  99.5124206  79.6227285   7.3089568  88.2083485  91.2733912
   8.2606991  88.3081582  91.2946136   7.1393019  87.4161753  91.7831996
   5.3303948  85.2939068  91.4593313   4.7353880  85.5744081  90.7639801
   5.0453644  85.7832969  92.2310054   4.4611438  99.2461995  80.2195945
   5.3942111  99.1807557  80.4228821   4.3734651 100.0818262  79.7610478
   7.0899455  98.5627865  77.1799893   7.0113086  98.2287729  78.0735651
   7.9109122  99.0549633  77.1791365   9.7877646  91.4289604  90.3876211
   9.7553966  90.4905605  90.5735895  10.3978270  91.5073641  89.6542036
   1.6260977  90.2985657  76.4303415   2.5720082  90.1691866  76.4991833
   1.2475222  89.5600319  76.9072843   9.9372135  88.2200648  90.4334494
   9.4211183  87.4359105  90.2464423  10.8212083  87.8919365  90.5981014
   7.5982861  81.9641663  86.3930307   7.4007683  81.6556752  87.2773639
   8.2082567  82.6903302  86.5228237  15.6054196  92.4905611  89.5282248
  16.3357584  92.2290899  90.0889951  14.9961141  91.7534333  89.5684316
  13.6869493  90.6313474  90.1256699  12.9602657  90.4969439  89.5173191
  13.2716780  90.9390303  90.9313417   1.4265960  82.7672524  82.5202542
   0.6166688  82.4219609  82.8957788   2.1150377  82.4580067  83.1090153
   3.3556508  81.8450570  84.1426838   3.9087547  82.2646024  84.8016862
   3.5926594  80.9186318  84.1849794   6.7335315  83.9551096  83.6505503
   6.1533984  84.6135900  83.2683555   6.4671248  83.1328440  83.2392920
   5.1838882  83.3556153  85.8526823   5.6838660  83.4672688  85.0441142
   5.8274489  83.0517206  86.4927632   5.5160193  86.1151186  82.7061851
   4.6286048  86.4000837  82.4882046   5.9314182  85.9544949  81.8589128
   8.8674729  86.1397707  86.4216190   9.6435119  86.6294159  86.6940807
   8.1422863  86.5655761  86.8788060  11.3047288  86.8525326  87.4790131
  11.8991779  86.6121062  86.7683439  11.3773872  86.1332457  88.1063667
   4.6603407  95.8795861  76.8009871   5.3639257  96.0845863  77.4167527
   3.9366055  96.4472622  77.0658955   5.4901217  91.6305722  82.9212141
   5.4336418  92.0874273  82.0819774   6.0429559  90.8696406  82.7434984
   9.3006023  87.4195454  83.7462261   9.0442957  87.0192089  84.5770468
   8.6758891  88.1339248  83.6212400  13.6118361  90.1591527  86.2533552
  13.0517919  90.2284716  87.0265114  13.0061864  89.9832512  85.5333048
   6.5690104  96.3178390  78.8508331   7.4035708  95.8859588  78.6685806
   6.4074447  96.1460403  79.7785226   6.2235996  92.8210503  80.2164670
   6.1684800  92.6554775  79.2753114   5.5982052  93.5286536  80.3726860
   3.3484241  78.9161389  84.0495926   2.5816637  78.3619875  84.1952608
   3.7594946  78.9883257  84.9110077  15.1974379 106.8348041  88.9463508
  15.8352789 106.7154788  88.2426848  15.0795222 107.7828885  89.0051460
  12.0064085 106.7875469  88.8825033  11.6682597 106.6716534  87.9945567
  12.8753854 106.3866634  88.8626039   9.7072365 105.5563716  78.2141973
   9.9597886 105.0345238  77.4525436   8.7696924 105.3929862  78.3168656
  14.7515648 104.5599495  86.0216716  15.5378737 104.1418918  85.6707133
  15.0154352 105.4645587  86.1898364  20.1524075 104.4974728  86.9249694
  20.8849247 103.9273945  87.1587524  19.3963430 104.1096328  87.3656200
  11.7700194 106.9201969  84.1213037  11.4058402 106.3932590  84.8325958
  12.6267310 106.5300438  83.9479522  17.6749495  98.2096302  91.3844303
  17.3432820  99.0791713  91.1605518  17.0795109  97.8932586  92.0638333
  11.4105681 101.9491869  79.1174385  11.5780084 102.8172106  79.4844856
  11.2202851 102.1119151  78.1935675  17.5678158 102.9291388  88.4637653
  16.6595036 102.8606797  88.1696414  17.5165754 103.4063333  89.2919478
  11.3894902 104.4049527  80.1021052  11.2694528 104.8506577  80.9406532
  10.6947491 104.7534844  79.5434590  19.4339805 101.1307827  90.2415527
  18.7914185 101.4240360  89.5955322  18.9294733 101.0160747  91.0468724
  17.0879969 104.8771000  80.9301386  17.9997825 105.1098387  80.7549084
  16.5789616 105.4608044  80.3676465  11.7251806 104.2368234  91.9396236
  12.5713001 104.6607648  92.0830885  11.6650444 103.5801859  92.6334799
  14.8751252 101.8972603  93.5977409  14.6312183 102.6514663  93.0611685
  15.1511182 102.2757950  94.4324656  16.8289714 108.4411215  92.2754675
  17.0406610 109.0842975  91.5989056  16.7819463 107.6073532  91.8076605
  14.4315943 101.0529036  89.1791247  13.5700422 101.3510289  89.4707985
  14.4578378 101.2699435  88.2472280  10.1846399 105.7194379  82.3954618
  10.8870442 106.1715422  82.8628544   9.8527027 105.0778198  83.0234511
   3.9271733 103.9777931  87.6971751   3.1370787 104.2335460  87.2211862
   4.4182980 104.7926269  87.8023792   5.8786478 104.3422511  84.6555228
   5.0817641 104.4541205  85.1738724   5.6512070 104.6809163  83.7896119
  26.0341535 107.6621919  86.7962004  25.2805244 107.0929317  86.6406008
  26.1689077 107.6284584  87.7432638  14.7732627  96.0565883  91.0015617
  14.4296896  96.9467525  90.9254727  15.1411590  95.8667541  90.1385202
  14.7382910 106.0474494  79.5088052  14.2229533 106.8179099  79.7476439
  14.4660218 105.3739630  80.1321113  12.3230021 100.8924195  84.5673290
  11.4671617 100.5031046  84.3878929  12.7356972 100.9716156  83.7073076
  13.8529167  98.4270538  88.9664850  13.3493963  98.3900674  88.1532655
  14.1459774  99.3363281  89.0261506  10.0972053  98.5109268  87.9731032
  10.9625050  98.3152077  87.6136921  10.1649562  98.2819620  88.9000388
  19.7117184 108.8006849  81.4441225  18.9346627 108.4618008  80.9996387
  20.3908665 108.8059472  80.7696190  14.5269213 103.9201586  81.3347833
  14.2219348 104.2347736  82.1857976  15.4799655 103.9983006  81.3775166
  17.9508491 108.2740830  88.1007833  17.2932165 108.9640092  88.1887962
  18.7548890 108.6637262  88.4441819   7.7034372 100.7411476  85.3447398
   8.2778124 100.5186658  84.6120591   8.2905355 100.8100171  86.0976000
  16.7613949 106.6285203  86.1511775  17.2745831 107.2615195  86.6533485
  17.4115173 106.0286398  85.7855135   8.0303959 102.7715937  79.3643284
   7.1941272 103.1090624  79.6852558   7.8908729 102.6364917  78.4270421
  10.0057040  97.6152725  84.0722468   9.3521452  97.3001742  83.4479083
   9.9637514  96.9928465  84.7982291  13.2394780 104.1034658  88.3970115
  12.3217342 104.3249605  88.2391803  13.6554924 104.1780969  87.5381823
  14.0229828 105.5026074  83.5272796  14.7701647 106.0147471  83.2179918
  14.2921418 105.1810127  84.3877189  16.4708665 102.5383190  85.5091585
  15.7331422 102.0260577  85.8401828  16.7235439 102.0983572  84.6974862
  16.5720293  95.3159442  86.1033354  16.8779169  94.4556806  85.8159269
  17.2972897  95.9077063  85.9032348  10.8441372 105.6113235  86.6109545
  10.8989982 104.6587072  86.5352022  10.0332574 105.7672675  87.0950844
   8.7833732 104.2290295  84.3699924   7.9701598 104.5284466  84.7765116
   9.2792726 103.8345984  85.0874406  14.3807944 104.6932120  93.2014818
  14.7357332 104.9203593  94.0609284  15.0280075 105.0250496  92.5792073
  20.1105681 107.8150556  83.9064147  19.9723579 108.0052152  82.9785336
  19.7541900 108.5769938  84.3632198   8.2747807 101.8008651  89.9861159
   8.9147186 101.6597410  89.2884122   7.4425338 101.5143164  89.6099761
  20.1375060 109.8827083  88.9175419  20.5711567 109.7902372  89.7658473
  20.8506641 109.8584583  88.2795435   5.3590874 105.2454163  82.1755904
   4.4288462 105.1838618  82.3925866   5.4548346 104.7230116  81.3792546
   5.2776423 101.7708976  84.7634146   5.5383241 102.6854309  84.6543306
   6.0993596 101.3033418  84.9130759  20.9990610 109.9250783  91.4508304
  21.1926500 110.8296594  91.6967579  20.8991228 109.4658202  92.2846889
  12.6526921  99.8108674  93.9498631  12.0054836 100.5098623  93.8563108
  13.4227936 100.2444818  94.3174880  12.8291055 107.6489439  92.0095451
  13.7583115 107.8000598  91.8364418  12.4082085 107.7373460  91.1544098
  16.1143794 108.3977740  77.4419886  15.4972964 107.6724568  77.3452939
  15.6460282 109.1587100  77.0986960   7.9042340 102.6163164  76.5641190
   7.0271806 102.4951965  76.2003437   8.3800093 101.8249243  76.3120079
  14.4002916 100.7784084  86.4537916  14.8971615 100.0254047  86.1338987
  13.6289897 100.8148401  85.8881126  22.2532673 106.4824450  88.0956208
  22.2422549 107.3649165  87.7250141  21.3850053 106.1296001  87.9010745
  10.9837885 102.9201467  86.1809601  10.6135672 102.3672508  86.8690506
  11.4796977 102.3159601  85.6284601  18.8705248 105.3773091  84.5626374
  19.3365700 106.2101082  84.4886677  19.3212748 104.9118072  85.2671632
  16.8421911  97.7453678  88.6017275  15.9284990  97.9757905  88.7699482
  17.2715012  97.8292122  89.4531308  16.6128369 105.9343570  91.1017169
  15.9599819 106.1819477  90.4469622  16.9908749 105.1207708  90.7679646
   6.3803218 100.3305458  92.4262707   6.4444545 101.1920289  92.0140105
   6.3170338  99.7179460  91.6935066   2.6321033 104.2105020  82.0054096
   2.9274475 103.3015698  81.9521150   1.7309069 104.1892759  81.6835098
   6.1615280 102.2861016  87.9881645   5.4401866 102.8996984  87.8489118
   6.9508536 102.8218781  87.9098291   8.9641594  99.6215443  94.2622296
   9.4875996  99.8677739  95.0248606   8.7453927 100.4535478  93.8425434
   4.3608875 101.8919117  82.1293421   4.0321581 101.0116496  81.9468527
   4.7148246 101.8366786  83.0169810   7.4750698 102.1792087  82.4968899
   7.8146771 102.7078008  81.7747507   7.9222819 102.5172493  83.2727465
  10.1694139 100.5629138  91.9471967   9.8290959  99.7636951  92.3492647
   9.4633145 100.8630849  91.3748800  10.8210611  97.6478450  90.3999290
  11.6436680  97.1738929  90.2778180  11.0648674  98.4268934  90.8997976
   9.4618845 100.6766709  80.6962192  10.1827208 101.0547962  80.1925909
   8.8384149 101.3955586  80.7997170  13.6049968 101.3811858  81.6320524
  13.8213583 102.2636496  81.3309352  13.1244035 100.9898071  80.9026166
   8.3449190 104.3397571  88.2091269   8.1993770 104.6537874  89.1015550
   7.8674393 104.9582471  87.6562167  10.2045572 101.3300119  88.2572158
  10.1907141 100.4341212  87.9204456  10.9218001 101.3370783  88.8910444
  12.0571703 101.7637459  90.3025286  11.7989481 102.6854530  90.3009616
  11.5256744 101.3667894  90.9925750   9.6082468 100.2114499  83.5259728
   9.7298380  99.2831145  83.7250616   9.3184511 100.2253185  82.6138044
  12.4773659  97.8969410  86.6626448  12.4995356  97.9608743  85.7078428
  12.8941718  97.0573918  86.8566954  22.8557283 107.6324669  84.7005671
  23.2988429 106.8831994  84.3024794  21.9783793 107.6234806  84.3179403
  19.6976269 109.1180086  94.3283527  19.7474274 108.9530094  95.2699049
  19.5890192 108.2507345  93.9381407  16.9880031 105.1011014  95.6442833
  17.8889894 104.9617479  95.3526831  17.0628006 105.2665469  96.5841011
  11.3222836 102.4777869  94.4896020  10.4526146 102.7711435  94.2178608
  11.5582317 103.0618314  95.2103283  22.3990148 109.1029908  87.0928118
  23.2337039 109.5419712  87.2565679  22.5349277 108.6268561  86.2736364
  19.4481654 106.6609642  93.0405606  19.9235775 106.8537289  92.2324457
  18.5247219 106.7168828  92.7948990  14.0261870  98.6957486  92.0061440
  14.5443814  99.4318513  91.6807929  13.6717003  99.0021479  92.8408199
   5.6060808 103.5562167  80.1222846   4.9130053 103.6306522  79.4662882
   5.3612560 102.7922511  80.6444363  14.2774464  95.1157768  87.5262337
  14.5576218  94.4480958  88.1522763  15.0625071  95.3086864  87.0137000
  18.1483323 103.5375402  91.2733912  19.1000746 103.6373500  91.2946136
  17.9786773 102.7453671  91.7831996  16.1697702 100.6230986  91.4593313
  15.5747634 100.9035998  90.7639801  15.8847399 101.1124887  92.2310054
  20.6271401 106.7581522  90.3876211  20.5947721 105.8197523  90.5735895
  21.2372024 106.8365559  89.6542036  12.4654731 105.6277575  76.4303415
  13.4113836 105.4983783  76.4991833  12.0868976 104.8892237  76.9072843
  20.7765889 103.5492566  90.4334494  20.2604938 102.7651022  90.2464423
  21.6605838 103.2211282  90.5981014  18.4376616  97.2933581  86.3930307
  18.2401437  96.9848669  87.2773639  19.0476322  98.0195220  86.5228237
  26.4447950 107.8197529  89.5282248  27.1751339 107.5582817  90.0889951
  25.8354896 107.0826251  89.5684316  24.5263248 105.9605392  90.1256699
  23.7996411 105.8261357  89.5173191  24.1110534 106.2682220  90.9313417
  10.6497649 103.5527552  76.3658301   9.7429104 103.2560664  76.4421014
  10.9273630 103.2557370  75.4992587  12.2659714  98.0964441  82.5202542
  11.4560443  97.7511526  82.8957788  12.9544131  97.7871985  83.1090153
  14.1950263  97.1742488  84.1426838  14.7481301  97.5937941  84.8016862
  14.4320349  96.2478236  84.1849794   9.4196433 100.4114487  76.5070280
  10.2815597 100.7369385  76.7666097   9.6046777  99.6245983  75.9943346
  17.5729070  99.2843013  83.6505503  16.9927739  99.9427817  83.2683555
  17.3065002  98.4620358  83.2392920  16.0232636  98.6848071  85.8526823
  16.5232414  98.7964605  85.0441142  16.6668244  98.3809124  86.4927632
  16.3553948 101.4443104  82.7061851  15.4679803 101.7292754  82.4882046
  16.7707937 101.2836867  81.8589128  19.7068484 101.4689625  86.4216190
  20.4828874 101.9586077  86.6940807  18.9816618 101.8947679  86.8788060
  22.1441042 102.1817244  87.4790131  22.7385533 101.9412980  86.7683439
  22.2167626 101.4624374  88.1063667  16.3294971 106.9597640  82.9212141
  16.2730173 107.4166191  82.0819774  16.8823314 106.1988324  82.7434984
  20.1399777 102.7487371  83.7462261  19.8836712 102.3484007  84.5770468
  19.5152645 103.4631165  83.6212400  24.4512115 105.4883445  86.2533552
  23.8911673 105.5576634  87.0265114  23.8455619 105.3124429  85.5333048
  17.0629751 108.1502421  80.2164670  17.0078555 107.9846692  79.2753114
  16.4375806 108.8578454  80.3726860  10.3725876  97.6510530  79.7949989
  10.3604546  98.5952370  79.9518260  11.2649298  97.4680675  79.5009450
  14.1877996  94.2453306  84.0495926  13.4210391  93.6911793  84.1952608
  14.5988701  94.3175175  84.9110077  25.6126381 111.3857801  91.0015617
  25.2690651 112.2759443  90.9254727  25.9805344 111.1959459  90.1385202
  27.4114047 110.6451360  86.1033354  27.7172924 109.7848724  85.8159269
  28.1366652 111.2368980  85.9032348  25.1168219 110.4449686  87.5262337
  25.3969973 109.7772875  88.1522763  25.9018826 110.6378782  87.0137000
  29.2770370 112.6225499  86.3930307  29.0795192 112.3140587  87.2773639
  29.8870076 113.3487138  86.5228237  25.0271750 109.5745224  84.0495926
  24.2604146 109.0203711  84.1952608  25.4382455 109.6467093  84.9110077
   4.3554028  54.0100206  73.5207310   3.6017736  53.4407604  73.3651315
   4.4901569  53.9762871  74.4677945   0.7202640  55.4508195  73.8173425
   1.5549531  55.8897999  73.9810985   0.8561769  54.9746848  72.9981671
   4.7660443  54.1675816  76.2527555   5.4963831  53.9061104  76.8135258
   4.1567388  53.4304538  76.2929623   2.8475740  52.3083679  76.8502006
   2.1208903  52.1739644  76.2418498   2.4323027  52.6160507  77.6558724
   0.4653535  48.5295531  74.2035438   1.0598026  48.2891267  73.4928746
   0.5380118  47.8102662  74.8308974   2.7724607  51.8361732  72.9778859
   2.2124165  51.9054921  73.7510421   2.1668111  51.6602716  72.2578355
   4.3580626  68.5118246  75.6708814   4.9959036  68.3924993  74.9672155
   4.2401469  69.4599090  75.7296767   1.1670332  68.4645674  75.6070339
   0.8288844  68.3486739  74.7190874   2.0360100  68.0636839  75.5871345
   1.6490115  69.6180526  81.5656545   1.6378756  69.2233324  80.6937048
   1.8110755  68.8846598  82.1590316   2.6056707  73.9852118  66.9081695
   1.9544686  74.5706198  66.5215709   3.4001069  74.5158313  66.9676732
   3.9121894  66.2369700  72.7462022   4.6984984  65.8189123  72.3952439
   4.1760599  67.1415792  72.9143671   4.0831972  71.6742550  67.4450679
   3.4477805  71.7477176  68.1571584   3.7529378  72.2636149  66.7669759
   9.3130322  66.1744933  73.6495001  10.0455493  65.6044150  73.8832830
   8.5569677  65.7866533  74.0901507   0.9306441  68.5972174  70.8458343
   0.5664648  68.0702795  71.5571265   1.7873557  68.2070643  70.6724829
   6.8355742  59.8866507  78.1089610   6.5039067  60.7561918  77.8850825
   6.2401355  59.5702791  78.7883640   3.3287261  72.0879053  77.5085522
   3.0287985  72.9904092  77.4001330   2.9838321  71.8211236  78.3606675
   6.7284405  64.6061593  75.1882960   5.8201283  64.5377002  74.8941721
   6.6772001  65.0833538  76.0164785   8.5946052  62.8078032  76.9660834
   7.9520432  63.1010565  76.3200628   8.0900980  62.6930952  77.7714030
   6.2486215  66.5541205  67.6546693   7.1604071  66.7868591  67.4794390
   5.7395862  67.1378249  67.0921771   4.5326983  70.9765833  81.2907985
   4.9410339  70.5348243  80.5462618   3.8104244  70.4018460  81.5442178
   0.8858053  65.9138439  78.6641542   1.7319248  66.3377853  78.8076191
   0.8256691  65.2572064  79.3580105   4.8555798  71.5367023  75.0460274
   4.2264660  71.7012737  74.3436342   4.4681460  71.9508633  75.8171238
   8.7345029  72.4721461  72.4004638   8.0496068  72.8520362  71.8501671
   8.8188879  73.0816788  73.1336586   4.0357498  63.5742808  80.3222716
   3.7918430  64.3284868  79.7856992   4.3117429  63.9528155  81.1569963
   5.9895961  70.1181420  78.9999982   6.2012856  70.7613180  78.3234363
   5.9425709  69.2843737  78.5321912   3.5922190  62.7299241  75.9036554
   2.7306669  63.0280494  76.1953291   3.6184625  62.9469640  74.9717586
   7.1041789  72.9953375  77.1722339   7.9259233  72.5933563  76.8905021
   7.1004192  72.8921610  78.1238455  15.1947782  69.3392124  73.5207310
  14.4411490  68.7699522  73.3651315  15.3295323  69.3054788  74.4677945
   0.5846410  74.2105526  69.1962030   0.4492085  75.0557062  69.6246878
   1.1256223  74.4124804  68.4327964   2.2114887  74.8329093  83.3262372
   1.7678741  74.0465471  83.0083276   2.8732100  75.0208243  82.6606263
   4.3096125  75.1131893  81.3543773   4.2914600  75.9340774  80.8624042
   5.2316045  74.9885968  81.5793914   3.9338874  57.7336088  77.7260923
   3.5903143  58.6237730  77.6500034   4.3017836  57.5437746  76.8630508
   3.8989156  67.7244699  66.2333358   3.3835780  68.4949304  66.4721746
   3.6266465  67.0509835  66.8566420   1.4836267  62.5694400  71.2918597
   0.6277864  62.1801250  71.1124235   1.8963219  62.6486361  70.4318382
   3.0135414  60.1040743  75.6910156   2.5100210  60.0670878  74.8777962
   3.3066021  61.0133486  75.7506813   8.8723431  70.4777054  68.1686532
   8.0952873  70.1388213  67.7241694   9.5514912  70.4829677  67.4941497
   3.6875460  65.5971791  68.0593139   3.3825595  65.9117941  68.9103283
   4.6405902  65.6753211  68.1020472   2.1321891  71.7562015  69.7086093
   1.6043253  71.0214774  69.3959331   1.6309394  72.5336691  69.4626062
   7.1114737  69.9511035  74.8253140   6.4538412  70.6410297  74.9133268
   7.9155137  70.3407467  75.1687126   5.9220196  68.3055408  72.8757082
   6.4352078  68.9385400  73.3778791   6.5721420  67.7056603  72.5100442
   3.1842571  78.2839732  65.6317753   2.5104269  78.5871429  66.2402710
   3.5708392  79.0868812  65.2823210   2.4001027  65.7804863  75.1215422
   1.4823588  66.0019810  74.9637110   2.8161171  65.8551174  74.2627129
   3.1836075  67.1796279  70.2518102   3.9307894  67.6917676  69.9425224
   3.4527664  66.8580332  71.1122496   1.4562725  69.6754820  67.2345057
   0.5473944  69.3913853  67.3317526   1.4857809  70.0953898  66.3748363
   6.6881992  73.2861409  71.0036224   6.2344320  72.4452319  71.0601415
   6.0575959  73.9222808  71.3411004   5.6314912  64.2153395  72.2336892
   4.8937669  63.7030782  72.5647134   5.8841686  63.7753777  71.4220168
   5.1314932  75.1237906  71.9386042   5.4237906  75.6842963  71.2198408
   5.6413552  75.4166467  72.6939201   5.7326539  56.9929647  72.8278661
   6.0385416  56.1327011  72.5404576   6.4579144  57.5847268  72.6277655
   1.1538813  71.2163563  64.5733135   0.7158243  70.4999422  64.1138773
   1.8949254  71.4439678  64.0118227   3.5414191  66.3702325  79.9260125
   3.8963578  66.5973798  80.7854590   4.1886322  66.7020701  79.3037380
   9.2711928  69.4920760  70.6309454   9.1329826  69.6822356  69.7030643
   8.9148146  70.2540143  71.0877505   9.2981307  71.5597288  75.6420725
   9.7317814  71.4672577  76.4903779  10.0112888  71.5354788  75.0040741
   3.0309202  75.1599382  77.1753826   3.0846224  75.7290318  77.9431542
   2.1623984  75.3301267  76.8107863  10.1596857  71.6020988  78.1753611
  10.3532747  72.5066799  78.4212886  10.0597475  71.1428407  79.0092196
   1.8133168  61.4878879  80.6743938   1.1661083  62.1868828  80.5808414
   2.5834183  61.9215023  81.0420186   5.2211965  71.7527731  83.7494491
   5.0697472  71.5238283  82.8324575   5.2116645  72.7098332  83.7625836
   1.9897302  69.3259644  78.7340758   2.9189362  69.4770803  78.5609725
   1.5688332  69.4143664  77.8789404   1.3833786  78.4519405  67.8464832
   1.5585541  77.9807448  68.6610455   0.6966574  79.0785171  68.0746093
   2.3390849  72.7291911  73.8928133   2.0040681  72.6892681  74.7885783
   1.8394795  72.0636627  73.4198543   5.2750040  70.0747945  64.1665193
   4.6579211  69.3494773  64.0698245   4.8066529  70.8357305  63.8232267
   6.9304172  74.7846853  81.8270973   6.8716718  74.1006074  81.1601556
   7.3323691  75.5265843  81.3751599   6.9321579  72.7486437  80.0584953
   6.0448358  72.4112359  80.1811352   7.5020130  72.0169469  80.2953718
   3.5609163  62.4554289  73.1783223   4.0577862  61.7024252  72.8584293
   2.7896144  62.4918606  72.6126432  11.4138920  68.1594655  74.8201514
  11.4028796  69.0419370  74.4495448  10.5456299  67.8066206  74.6256052
   2.9221416  77.3074724  79.1804355   3.6349389  77.9422189  79.1080256
   2.4311445  77.4038590  78.3644357   4.6438943  71.2125976  70.7521646
   3.7095222  71.3327439  70.5826351   4.8215612  70.3098443  70.4881656
   8.0311495  67.0543296  71.2871680   8.4971947  67.8871287  71.2131983
   8.4818995  66.5888277  71.9916939   6.0987726  73.3987117  68.2857833
   6.3747570  73.2843712  69.1951707   5.2292224  73.0004602  68.2470006
   6.0028157  59.4223883  75.3262582   5.0891237  59.6528110  75.4944789
   6.4321259  59.5062327  76.1776614   5.7734616  67.6113775  77.8262476
   5.1206066  67.8589682  77.1714929   6.1514996  66.7977913  77.4924953
   2.7341790  77.6473468  71.9290646   2.9164184  76.8295124  72.3918398
   3.5574776  77.8641160  71.4915536   3.0683955  76.5741653  69.1905695
   3.5971722  76.0634108  68.5775857   3.3312175  76.2584183  70.0551228
   1.8222189  68.3533586  84.3128513   1.1462826  68.2527715  84.9830888
   2.6449823  68.1972799  84.7764510   0.5644972  79.6600513  78.5486129
   1.1163280  79.8232135  79.3135214   0.9051165  80.2504951  77.8766154
   5.4155846  74.4861771  84.4034783   5.9595750  75.0991729  83.9089738
   4.8342691  75.0441349  84.9201796   3.7013359  77.6082489  75.5349811
   3.5764498  76.8072229  75.0260757   4.3592450  78.1028682  75.0463781
   5.7648267  75.4091509  77.1629361   4.8178603  75.2896860  77.0907688
   6.1131040  74.5214007  77.2455623   2.7694701  75.2044225  73.3633713
   2.6219663  74.2760932  73.5441283   3.5948194  75.2264316  72.8790789
   6.3728823  76.0272784  74.4498586   7.2975370  75.8215645  74.3123037
   6.2044126  75.7789185  75.3587928   2.7656215  63.0582063  68.3565831
   2.9819829  63.9406701  68.0554659   2.2850282  62.6668276  67.6271473
   1.2177950  63.4407664  77.0270592   0.9595728  64.3624735  77.0254923
   0.6862990  63.0438099  77.7171056   6.1624139  76.5458451  69.8060678
   6.3361016  75.9804874  69.0534530   6.6553030  77.3459346  69.6240168
   1.6379906  59.5739615  73.3871755   1.6601602  59.6378948  72.4323734
   2.0547965  58.7344123  73.5812261  12.0163530  69.3094874  71.4250977
  12.4594676  68.5602199  71.0270101  11.1390040  69.3005011  71.0424709
   7.1499311  75.8625216  66.9057576   7.8450216  76.4831908  67.1244891
   7.4922461  75.0120567  67.1809954   9.0490734  73.3124921  68.4344907
   9.5742058  73.6512194  67.7094227   8.9613087  72.3771936  68.2508041
   0.7110783  77.2258995  80.5634783   1.0197909  76.9808142  81.4357483
   1.5086265  77.4305633  80.0753654   8.7384640  73.9457825  83.7396105
   7.9480184  73.9281964  83.2000604   8.5017995  74.4846118  84.4945141
   8.8582515  70.7950291  81.0528833   8.9080520  70.6300299  81.9944356
   8.7496439  69.9277550  80.6626714   6.1486278  66.7781219  82.3688140
   7.0496141  66.6387684  82.0772138   6.2234252  66.9435674  83.3086317
  10.3600712  73.2147233  81.2970855  10.0685521  73.5777213  82.1334316
   9.7472844  72.5014241  81.1184187  11.5596395  70.7800112  73.8173425
  12.3943286  71.2189917  73.9810985  11.6955523  70.3038766  72.9981671
   8.6087901  68.3379847  79.7650913   9.0842022  68.5307494  78.9569764
   7.6853466  68.3939033  79.5194296   3.1868117  60.3727691  78.7306747
   3.7050061  61.1088718  78.4053235   2.8323250  60.6791684  79.5653506
   3.4380711  56.7927973  74.2507643   3.7182465  56.1251162  74.8768070
   4.2231318  56.9857069  73.7382307   1.2414180  75.9686967  65.8132669
   0.6688147  76.5877154  65.3603141   1.8146973  76.5186329  66.3472591
   7.3089570  65.2145607  77.9979218   8.2606992  65.3143705  78.0191442
   7.1393020  64.4223876  78.5077303   5.3303949  62.3001191  78.1838619
   4.7353881  62.5806203  77.4885108   5.0453646  62.7895092  78.9555360
   4.4611439  76.2524117  66.9441252   5.3942113  76.1869679  67.1474127
   4.3734652  77.0880384  66.4855784   7.0899456  75.5689988  63.9045199
   7.0113088  75.2349851  64.7980957   7.9109123  76.0611756  63.9036672
   9.7877647  68.4351727  77.1121518   9.7553967  67.4967728  77.2981202
  10.3978271  68.5135764  76.3787343   1.6260978  67.3047780  63.1548722
   2.5720083  67.1753988  63.2237140   1.2475223  66.5662442  63.6318150
   9.9372136  65.2262771  77.1579801   9.4211184  64.4421227  76.9709730
  10.8212084  64.8981487  77.3226321   7.5982863  58.9703786  73.1175614
   7.4007684  58.6618874  74.0018946   8.2082568  59.6965425  73.2473544
  15.6054197  69.4967734  76.2527555  16.3357586  69.2353022  76.8135258
  14.9961143  68.7596456  76.2929623  13.6869494  67.6375597  76.8502006
  12.9602658  67.5031561  76.2418498  13.2716781  67.9452425  77.6558724
   1.5099671  71.3565526  84.6149379   2.4302680  71.5344125  84.8089425
   1.4749254  70.4121572  84.4629078   1.4265961  59.7734646  69.2447848
   0.6166689  59.4281731  69.6203095   2.1150378  59.4642190  69.8335460
   3.3556509  58.8512693  70.8672145   3.9087548  59.2708146  71.5262168
   3.5926596  57.9248441  70.9095101   6.7335316  60.9613218  70.3750809
   6.1533985  61.6198022  69.9928862   6.4671249  60.1390563  69.9638227
   5.1838883  60.3618276  72.5772130   5.6838661  60.4734810  71.7686449
   5.8274491  60.0579329  73.2172938   5.5160194  63.1213309  69.4307158
   4.6286049  63.4062959  69.2127352   5.9314184  62.9607072  68.5834435
   8.8674731  63.1459829  73.1461497   9.6435121  63.6356282  73.4186114
   8.1422865  63.5717884  73.6033366  11.3047289  63.8587449  74.2035438
  11.8991780  63.6183185  73.4928746  11.3773873  63.1394579  74.8308974
   4.6603408  72.8857983  63.5255178   5.3639258  73.0907986  64.1412833
   3.9366057  73.4534745  63.7904261   5.4901218  68.6367844  69.6457448
   5.4336420  69.0936396  68.8065080   6.0429561  67.8758529  69.4680291
   9.3006024  64.4257576  70.4707567   9.0442958  64.0254212  71.3015775
   8.6758892  65.1401370  70.3457706  13.6118362  67.1653650  72.9778859
  13.0517920  67.2346839  73.7510421  13.0061865  66.9894634  72.2578355
   6.5690105  73.3240512  65.5753638   7.4035709  72.8921711  65.3931112
   6.4074448  73.1522526  66.5030532   6.2235998  69.8272626  66.9409977
   6.1684801  69.6616897  65.9998421   5.5982053  70.5348659  67.0972167
   3.5381905  72.1321538  86.2663540   4.4073064  72.3062190  85.9050175
   3.0588656  72.9515954  86.1439269   3.3484242  55.9223511  70.7741232
   2.5816638  55.3681998  70.9197915   3.7594947  55.9945380  71.6355384
  15.1974380  83.8410163  75.6708814  15.8352790  83.7216911  74.9672155
  15.0795223  84.7891007  75.7296767  12.0064087  83.7937592  75.6070339
  11.6682598  83.6778656  74.7190874  12.8753855  83.3928757  75.5871345
   7.8650902  85.6473068  71.5967230   7.3015768  85.5563005  70.8283518
   7.7503297  84.8272972  72.0769723  12.4883870  84.9472443  81.5656545
  12.4772510  84.5525242  80.6937048  12.6504509  84.2138516  82.1590316
   5.4115334  87.1424260  74.4351451   6.2036626  86.8015084  74.0197750
   5.6511984  87.2519235  75.3553604  13.4450461  89.3144036  66.9081695
  12.7938441  89.8998116  66.5215709  14.2394824  89.8450231  66.9676732
   7.3706088  86.4033173  67.3068829   8.1436964  85.8562160  67.1681705
   7.7231487  87.2677422  67.5183291   9.2091131  87.7309555  80.5135729
   8.9180997  88.6355186  80.3982395   9.8448115  87.7726083  81.2279798
  10.1347338  85.1086404  77.1037088  10.7310910  84.8842426  76.3894051
  10.1922309  84.3671149  77.7062536   9.7072366  82.5625839  64.9387279
   9.9597887  82.0407360  64.1770742   8.7696925  82.3991984  65.0413963
  14.7515649  81.5661617  72.7462022  15.5378738  81.1481041  72.3952439
  15.0154353  82.4707710  72.9143671  14.9225726  87.0034468  67.4450679
  14.2871559  87.0769094  68.1571584  14.5923133  87.5928066  66.7669759
  20.1524076  81.5036851  73.6495001  20.8849248  80.9336067  73.8832830
  19.3963432  81.1158451  74.0901507   9.4268655  84.4653945  67.1411654
   9.3104913  83.7898848  67.8092739   9.5370915  83.9786319  66.3243807
  11.7700196  83.9264092  70.8458343  11.4058403  83.3994713  71.5571265
  12.6267312  83.5362561  70.6724829  17.6749496  75.2158425  78.1089610
  17.3432821  76.0853836  77.8850825  17.0795110  74.8994709  78.7883640
  11.4105683  78.9553992  65.8419692  11.5780085  79.8234228  66.2090163
  11.2202852  79.1181273  64.9180981  14.1681016  87.4170971  77.5085522
  13.8681739  88.3196009  77.4001330  13.8232075  87.1503154  78.3606675
   7.6193497  83.8684767  73.5422227   6.6943994  83.7360982  73.7499919
   7.8677911  84.6478987  74.0392169  17.5678160  79.9353511  75.1882960
  16.6595037  79.8668919  74.8941721  17.5165755  80.4125456  76.0164785
  11.3894904  81.4111649  66.8266359  11.2694529  81.8568700  67.6651839
  10.6947492  81.7596967  66.2679897   4.9802308  83.5118041  74.3766016
   5.1094690  83.7652520  75.2905428   4.2999760  84.1045749  74.0570671
   9.1501796  94.1815291  70.4756490   9.0725825  95.1323116  70.5544971
   8.5463439  93.8361163  71.1331416  11.6419025  81.3543156  83.1317857
  10.8652360  81.9137077  83.1220722  12.2809589  81.8399939  83.6532727
  19.4339806  78.1369949  76.9660834  18.7914186  78.4302482  76.3200628
  18.9294735  78.0222870  77.7714030  17.0879970  81.8833122  67.6546693
  17.9997826  82.1160509  67.4794390  16.5789617  82.4670167  67.0921771
   9.8965398  84.1628610  82.6935824  10.6380082  84.7013654  82.4170648
   9.1902383  84.7894899  82.8507376  15.3720737  86.3057750  81.2907985
  15.7804093  85.8640161  80.5462618  14.6497999  85.7310378  81.5442178
  11.7251807  81.2430357  78.6641542  12.5713003  81.6669771  78.8076191
  11.6650445  80.5863981  79.3580105  15.6949552  86.8658941  75.0460274
  15.0658415  87.0304655  74.3436342  15.3075214  87.2800550  75.8171238
  19.5738784  87.8013379  72.4004638  18.8889822  88.1812280  71.8501671
  19.6582633  88.4108705  73.1336586  14.8751253  78.9034725  80.3222716
  14.6312185  79.6576786  79.7856992  15.1511183  79.2820073  81.1569963
  16.8289716  85.4473338  78.9999982  17.0406611  86.0905098  78.3234363
  16.7819464  84.6135654  78.5321912  14.4315945  78.0591158  75.9036554
  13.5700424  78.3572412  76.1953291  14.4578379  78.2761557  74.9717586
  11.2477514  86.6033349  72.3110359  11.7115859  86.8821052  71.5214982
  10.9834312  85.7016794  72.1283450   8.1401595  86.1504830  75.2490123
   8.7102952  86.5792099  74.6107607   8.7309707  85.8687415  75.9474308
  10.1846400  82.7256501  69.1199925  10.8870443  83.1777545  69.5873851
   9.8527028  82.0840320  69.7479818   8.6326762  81.3168258  83.4951134
   8.0025422  81.9984539  83.7286531   8.5262849  81.2051340  82.5504272
   3.9271734  80.9840054  74.4217058   3.1370788  81.2397583  73.9457169
   4.4182981  81.7988392  74.5269099  17.9435544  88.3245293  77.1722339
  18.7652987  87.9225480  76.8905021  17.9397946  88.2213527  78.1238455
   5.8786479  81.3484633  71.3800535   5.0817643  81.4603327  71.8984030
   5.6512072  81.6871285  70.5141425  11.7092147  87.8729336  79.3283049
  11.7736579  88.3349744  80.1641221  11.0003071  87.2426701  79.4565359
   2.2109437  81.2370544  76.8532049   2.4617475  82.1217554  77.1189625
   2.7468985  81.0575146  76.0807141  26.0341537  84.6684042  73.5207310
  25.2805245  84.0991440  73.3651315  26.1689078  84.6346706  74.4677945
  11.4240165  89.5397444  69.1962030  11.2885839  90.3848980  69.6246878
  11.9649977  89.7416722  68.4327964   7.9107504  75.6189024  85.8576385
   7.5174450  75.0655222  86.5324029   8.7273645  75.9299602  86.2482902
   4.8769562  87.0572882  69.7689955   5.3894083  87.8516132  69.9195520
   5.5292275  86.3599172  69.7023556   6.6864447  90.1738638  71.8512708
   6.8631075  91.0956603  71.6633692   7.4821280  89.8597057  72.2807088
  10.8275465  77.0346903  83.4496642  11.5685179  77.6354056  83.3701104
  11.0593388  76.2924541  82.8914684   5.9716803  82.2203270  81.7274871
   5.8570318  81.3188527  82.0281970   5.1161321  82.4666967  81.3759688
  13.0508641  90.1621010  83.3262372  12.6072495  89.3757389  83.0083276
  13.7125855  90.3500161  82.6606263   7.8095762  91.6916812  77.8523050
   8.3603187  91.5633875  77.0800044   6.9707238  91.9911701  77.5017943
  15.1489879  90.4423810  81.3543773  15.1308354  91.2632691  80.8624042
  16.0709799  90.3177886  81.5793914  11.6062933  87.9567940  82.1967281
  12.1391270  87.1956228  81.9666589  11.0777014  87.6641592  82.9391436
  14.7732628  73.0628006  77.7260923  14.4296898  73.9529648  77.6500034
  15.1411591  72.8729663  76.8630508   2.8418479  85.3861536  70.5449525
   3.6793701  85.7958545  70.3283233   3.0196746  84.4460978  70.5149719
  14.7382911  83.0536617  66.2333358  14.2229534  83.8241222  66.4721746
  14.4660219  82.3801753  66.8566420  12.3230022  77.8986318  71.2918597
  11.4671618  77.5093168  71.1124235  12.7356974  77.9778279  70.4318382
  13.8529169  75.4332661  75.6910156  13.3493964  75.3962796  74.8777962
  14.1459775  76.3425404  75.7506813  10.0972054  75.5171391  74.6976338
  10.9625051  75.3214199  74.3382228  10.1649563  75.2881742  75.6245695
  19.7117185  85.8068972  68.1686532  18.9346628  85.4680131  67.7241694
  20.3908666  85.8121595  67.4941497  14.5269214  80.9263709  68.0593139
  14.2219350  81.2409858  68.9103283  15.4799656  81.0045129  68.1020472
  12.9715646  87.0853932  69.7086093  12.4437008  86.3506692  69.3959331
  12.4703149  87.8628609  69.4626062  17.9508492  85.2802953  74.8253140
  17.2932166  85.9702214  74.9133268  18.7548891  85.6699385  75.1687126
   7.7034374  77.7473599  72.0692705   8.2778125  77.5248780  71.3365898
   8.2905356  77.8162293  72.8221306  16.7613951  83.6347326  72.8757082
  17.2745832  84.2677317  73.3778791  17.4115175  83.0348521  72.5100442
   8.0303961  79.7778060  66.0888590   7.1941273  80.1152746  66.4097865
   7.8908730  79.6427039  65.1515727  10.0057041  74.6214848  70.7967774
   9.3521454  74.3063865  70.1724389   9.9637515  73.9990588  71.5227597
  11.1168246  84.9034143  62.7121066  10.2095308  84.6723396  62.9112215
  11.6139278  84.1071762  62.8995048  14.0236325  93.6131650  65.6317753
  13.3498024  93.9163347  66.2402710  14.4102147  94.4160730  65.2823210
  13.2394782  81.1096781  75.1215422  12.3217343  81.3311728  74.9637110
  13.6554925  81.1843092  74.2627129  14.0229829  82.5088197  70.2518102
  14.7701648  83.0209594  69.9425224  14.2921419  82.1872249  71.1122496
  12.2956480  85.0046737  67.2345057  11.3867699  84.7205770  67.3317526
  12.3251563  85.4245816  66.3748363  17.5275747  88.6153327  71.0036224
  17.0738074  87.7744237  71.0601415  16.8969714  89.2514725  71.3411004
  16.4708667  79.5445313  72.2336892  15.7331423  79.0322699  72.5647134
  16.7235440  79.1045695  71.4220168  15.9708686  90.4529824  71.9386042
  16.2631661  91.0134881  71.2198408  16.4807307  90.7458385  72.6939201
  16.5720294  72.3221565  72.8278661  16.8779171  71.4618928  72.5404576
  17.2972899  72.9139185  72.6277655   2.8644650  82.7252252  71.2160259
   2.6669050  82.1321612  70.4911325   2.3091314  82.4204462  71.9336198
  10.8441374  82.6175358  73.3354852  10.8989983  81.6649194  73.2597329
  10.0332576  82.7734797  73.8196150  11.9932567  86.5455481  64.5733135
  11.5551997  85.8291340  64.1138773  12.7343008  86.7731596  64.0118227
   8.7833734  81.2352418  71.0945231   7.9701599  81.5346588  71.5010423
   9.2792728  80.8408107  71.8119713  10.9342311  91.2310175  73.0279496
  10.8918490  91.4571021  72.0988028  11.8505010  90.9973549  73.1765297
  14.3807945  81.6994242  79.9260125  14.7357333  81.9265715  80.7854590
  15.0280076  82.0312619  79.3037380  20.1105682  84.8212678  70.6309454
  19.9723581  85.0114274  69.7030643  19.7541901  85.5832061  71.0877505
   8.2747808  78.8070773  76.7106466   8.9147188  78.6659532  76.0129429
   7.4425339  78.5205287  76.3345068  20.1375062  86.8889205  75.6420725
  20.5711568  86.7964494  76.4903779  20.8506642  86.8646706  75.0040741
   9.0508112  88.1073204  72.8241458   9.8448711  87.6123524  72.6224033
   8.3399805  87.5791067  72.4609164  13.8702957  90.4891299  77.1753826
  13.9239979  91.0582236  77.9431542  13.0017738  90.6593184  76.8107863
   5.3590876  82.2516285  68.9001211   4.4288464  82.1900741  69.1171173
   5.4548348  81.7292238  68.1037852   5.2776425  78.7771098  71.4879453
   5.5383242  79.6916432  71.3788613   6.0993597  78.3095541  71.6376065
   6.7501350  80.1908856  78.6578277   7.4224403  79.9826218  78.0090926
   5.9231137  79.9930941  78.2183509  20.9990611  86.9312906  78.1753611
  21.1926501  87.8358716  78.4212886  20.8991229  86.4720325  79.0092196
  12.6526922  76.8170796  80.6743938  12.0054837  77.5160746  80.5808414
  13.4227937  77.2506940  81.0420186  16.0605720  87.0819649  83.7494491
  15.9091226  86.8530200  82.8324575  16.0510399  88.0390250  83.7625836
  12.8291056  84.6551561  78.7340758  13.7583116  84.8062721  78.5609725
  12.4082086  84.7435582  77.8789404  11.6279388  88.6802226  76.5039295
  11.4890474  88.3121010  77.3765233  10.8393984  89.1949865  76.3323253
  12.2227540  93.7811322  67.8464832  12.3979296  93.3099365  68.6610455
  11.5360328  94.4077088  68.0746093  13.1784603  88.0583828  73.8928133
  12.8434436  88.0184598  74.7885783  12.6788549  87.3928544  73.4198543
   7.1528847  83.4651458  79.4180714   7.0148645  82.7331697  80.0192253
   8.0633771  83.3760359  79.1364902  16.1143795  85.4039863  64.1665193
  15.4972966  84.6786691  64.0698245  15.6460283  86.1649223  63.8232267
   9.7811148  83.1771418  78.9064394  10.4910766  82.5364610  78.8651012
   9.7380456  83.4284313  79.8290575  17.7697927  90.1138771  81.8270973
  17.7110473  89.4297991  81.1601556  18.1717445  90.8557761  81.3751599
   8.4940082  80.1636636  80.7260033   7.9577439  79.7127374  81.3781630
   7.9056790  80.2982545  79.9830498   6.7888625  96.9300685  74.6204692
   7.0285224  97.5619209  75.2983711   5.9457822  96.5788725  74.9070051
   7.9042341  79.6225287  63.2886497   7.0271807  79.5014088  62.9248744
   8.3800094  78.8311365  63.0365386  17.7715334  88.0778355  80.0584953
  16.8842113  87.7404277  80.1811352  18.3413885  87.3461386  80.2953718
   4.2279203  79.2992643  77.8113028   4.1437392  78.6918313  77.0763438
   3.4061910  79.7901662  77.8122524  11.3016487  92.7379807  77.0246196
  11.2286659  93.5434779  77.5365501  10.8593880  92.9371773  76.1994217
  11.0906267  91.9751577  70.5349018  10.3073789  92.5173258  70.6287242
  11.7899012  92.4925557  70.9343259  14.4002917  77.7846207  73.1783223
  14.8971617  77.0316169  72.8584293  13.6289899  77.8210524  72.6126432
  22.2532674  83.4886572  74.8201514  22.2422551  84.3711288  74.4495448
  21.3850054  83.1358123  74.6256052  13.7615171  92.6366641  79.1804355
  14.4743143  93.2714106  79.1080256  13.2705199  92.7330507  78.3644357
  15.4832698  86.5417894  70.7521646  14.5488976  86.6619357  70.5826351
  15.6609366  85.6390361  70.4881656  10.9837886  79.9263590  72.9054908
  10.6135673  79.3734630  73.5935813  11.4796978  79.3221723  72.3529908
  18.8705249  82.3835213  71.2871680  19.3365701  83.2163205  71.2131983
  19.3212750  81.9180195  71.9916939   8.8127084  90.3861085  80.0009925
   9.5136544  91.0197568  80.1539320   8.3422199  90.7275816  79.2405565
  16.9381480  88.7279035  68.2857833  17.2141324  88.6135629  69.1951707
  16.0685979  88.3296520  68.2470006  16.8421912  74.7515800  75.3262582
  15.9284992  74.9820027  75.4944789  17.2715013  74.8354244  76.1776614
  16.6128370  82.9405692  77.8262476  15.9599821  83.1881600  77.1714929
  16.9908750  82.1269831  77.4924953  13.5735544  92.9765386  71.9290646
  13.7557939  92.1587041  72.3918398  14.3968530  93.1933078  71.4915536
  13.9077710  91.9033571  69.1905695  14.4365476  91.3926025  68.5775857
  14.1705929  91.5876101  70.0551228  12.6615943  83.6825503  84.3128513
  11.9856580  83.5819633  84.9830888  13.4843577  83.5264717  84.7764510
   4.4094802  89.9197440  76.9341028   4.9948239  89.1741128  77.0668932
   4.2119641  90.2301397  77.8177692   7.2633458  92.9548687  71.9503471
   6.5943833  93.4394815  71.4667511   7.1246327  93.2017908  72.8646849
  11.4038726  94.9892431  78.5486129  11.9557034  95.1524052  79.3135214
  11.7444920  95.5796869  77.8766154   6.3803219  77.3367581  79.1508014
   6.4444546  78.1982412  78.7385411   6.3170340  76.7241582  78.4180372
   5.8555492  79.4090713  82.7981048   6.4827531  79.0267791  83.4118572
   4.9983411  79.1904915  83.1636740  16.2549601  89.8153688  84.4034783
  16.7989505  90.4283647  83.9089738  15.6736445  90.3733267  84.9201796
   2.6321035  81.2167142  68.7299403   2.9274476  80.3077821  68.6766456
   1.7309070  81.1954882  68.4080405  14.5407113  92.9374406  75.5349811
  14.4158253  92.1364146  75.0260757  15.1986205  93.4320600  75.0463781
   6.1615282  79.2923139  74.7126951   5.4401867  79.9059107  74.5734425
   6.9508537  79.8280904  74.6343597  16.6042022  90.7383426  77.1629361
  15.6572357  90.6188778  77.0907688  16.9524795  89.8505925  77.2455623
   8.9641595  76.6277565  80.9867603   9.4875997  76.8739862  81.7493912
   8.7453929  77.4597600  80.5670740   4.3608876  78.8981240  68.8538728
   4.0321582  78.0178619  68.6713834   4.7148247  78.8428909  69.7415117
  13.6088455  90.5336143  73.3633713  13.4613418  89.6052850  73.5441283
  14.4341949  90.5556233  72.8790789   7.4750699  79.1854210  69.2214206
   7.8146772  79.7140131  68.4992814   7.9222820  79.5234616  69.9972772
  17.2122577  91.3564701  74.4498586  18.1369124  91.1507563  74.3123037
  17.0437880  91.1081103  75.3587928  10.1694140  77.5691261  78.6717274
   9.8290961  76.7699074  79.0737953   9.4633147  77.8692971  78.0994107
  10.8210612  74.6540573  77.1244597  11.6436681  74.1801051  77.0023487
  11.0648676  75.4331057  77.6243283   9.4618847  77.6828831  67.4207498
  10.1827209  78.0610084  66.9171215   8.8384151  78.4017708  67.5242476
  13.6049969  78.3873980  68.3565831  13.8213584  79.2698618  68.0554659
  13.1244037  77.9960194  67.6271473   8.3449191  81.3459694  74.9336575
   8.1993772  81.6599997  75.8260857   7.8674394  81.9644594  74.3807474
  10.2045574  78.3362242  74.9817465  10.1907143  77.4403335  74.6449763
  10.9218002  78.3432905  75.6155751  12.0571704  78.7699582  77.0270592
  11.7989482  79.6916652  77.0254923  11.5256745  78.3730016  77.7171056
  17.0017893  91.8750369  69.8060678  17.1754771  91.3096791  69.0534530
  17.4946784  92.6751264  69.6240168   2.8194853  83.8865038  77.8724236
   2.2748321  84.6624846  78.0044511   3.6974203  84.2335842  77.7143358
   9.6082470  77.2176622  70.2505035   9.7298381  76.2893268  70.4495922
   9.3184512  77.2315308  69.3383350  12.4773660  74.9031532  73.3871755
  12.4995357  74.9670865  72.4323734  12.8941719  74.0636041  73.5812261
  22.8557284  84.6386792  71.4250977  23.2988430  83.8894117  71.0270101
  21.9783795  84.6296928  71.0424709  17.9893066  91.1917133  66.9057576
  18.6843970  91.8123826  67.1244891  18.3316216  90.3412485  67.1809954
   3.6060875  83.0134934  80.7654393   2.8642611  83.1617570  81.3519024
   3.2853619  83.2743200  79.9021143  19.8884489  88.6416839  68.4344907
  20.4135813  88.9804112  67.7094227  19.8006841  87.7063854  68.2508041
  11.5504538  92.5550912  80.5634783  11.8591664  92.3100059  81.4357483
  12.3480020  92.7597551  80.0753654  11.5725150  94.7088822  72.7940160
  11.1330140  94.2165201  73.4873017  12.3233267  94.1661790  72.5532235
   4.0517489  90.9000363  72.7964788   4.8775508  90.6004135  72.4163431
   3.7011541  90.1307985  73.2454577   9.0199022  90.2526831  74.8662462
   8.3979031  89.5897536  74.5664689   9.6903889  90.2787963  74.1836109
   2.2526094  88.8186689  73.7553722   1.4158002  88.3908864  73.5737723
   2.2249739  89.0119133  74.6924513   9.0923549  78.7308619  84.4594968
   9.1411705  79.6070742  84.0772737   9.6346063  78.1886012  83.8866611
  19.5778395  89.2749742  83.7396105  18.7873939  89.2573881  83.2000604
  19.3411749  89.8138036  84.4945141  19.6976270  86.1242209  81.0528833
  19.7474275  85.9592216  81.9944356  19.5890193  85.2569468  80.6626714
   8.5812529  88.8030755  68.3420922   8.7300649  89.4866219  67.6887595
   9.3878972  88.7835845  68.8570378  16.9880032  82.1073137  82.3688140
  17.8889895  81.9679602  82.0772138  17.0628007  82.2727592  83.3086317
  11.3222838  79.4839992  81.2141326  10.4526147  79.7773558  80.9423915
  11.5582318  80.0680437  81.9348590  21.1994467  88.5439150  81.2970855
  20.9079275  88.9069131  82.1334316  20.5866598  87.8306159  81.1184187
  22.3990149  86.1092030  73.8173425  23.2337040  86.5481834  73.9810985
  22.5349278  85.6330683  72.9981671  19.4481655  83.6671765  79.7650913
  19.9235777  83.8599411  78.9569764  18.5247220  83.7230951  79.5194296
   6.3365162  84.8295932  69.3481991   6.0911204  83.9258262  69.5462201
   6.5061076  84.8313083  68.4061469  14.0261872  75.7019609  78.7306747
  14.5443815  76.4380635  78.4053235  13.6717004  76.0083602  79.5653506
   5.6060809  80.5624290  66.8468152   4.9130054  80.6368645  66.1908188
   5.3612561  79.7984633  67.3689669  14.2774466  72.1219891  74.2507643
  14.5576219  71.4543080  74.8768070  15.0625073  72.3148987  73.7382307
  12.0807934  91.2978885  65.8132669  11.5081901  91.9169072  65.3603141
  12.6540728  91.8478247  66.3472591  18.1483324  80.5437525  77.9979218
  19.1000747  80.6435623  78.0191442  17.9786774  79.7515794  78.5077303
  16.1697703  77.6293108  78.1838619  15.5747636  77.9098121  77.4885108
  15.8847400  78.1187009  78.9555360  15.3005194  91.5816035  66.9441252
  16.2335867  91.5161597  67.1474127  15.2128407  92.4172302  66.4855784
  17.9293211  90.8981905  63.9045199  17.8506842  90.5641769  64.7980957
  18.7502877  91.3903673  63.9036672  20.6271402  83.7643645  77.1121518
  20.5947722  82.8259645  77.2981202  21.2372025  83.8427681  76.3787343
  12.4654733  82.6339698  63.1548722  13.4113837  82.5045906  63.2237140
  12.0868978  81.8954360  63.6318150  20.7765890  80.5554688  77.1579801
  20.2604939  79.7713145  76.9709730  21.6605839  80.2273405  77.3226321
  18.4376617  74.2995704  73.1175614  18.2401438  73.9910792  74.0018946
  19.0476323  75.0257343  73.2473544  26.4447952  84.8259652  76.2527555
  27.1751340  84.5644940  76.8135258  25.8354897  84.0888374  76.2929623
  24.5263249  82.9667514  76.8502006  23.7996412  82.8323479  76.2418498
  24.1110536  83.2744343  77.6558724  12.3493425  86.6857444  84.6149379
  13.2696435  86.8636043  84.8089425  12.3143008  85.7413489  84.4629078
  10.6497650  80.5589674  63.0903607   9.7429105  80.2622787  63.1666321
  10.9273631  80.2619492  62.2237893   1.5675590  81.8796038  73.5402654
   1.2478375  81.0261346  73.2477028   1.0209018  82.0944616  74.2960621
   5.3455498  84.5958479  77.2572160   5.5641508  85.5275586  77.2760194
   5.7581272  84.2366453  78.0426964  12.2659716  75.1026564  69.2447848
  11.4560444  74.7573649  69.6203095  12.9544132  74.7934108  69.8335460
  14.1950264  74.1804611  70.8672145  14.7481302  74.6000064  71.5262168
  14.4320350  73.2540359  70.9095101  10.2183363  80.1691684  86.6474909
  10.1180090  81.1186041  86.5787000  10.0004905  79.8409923  85.7750979
   9.4196434  77.4176609  63.2315586  10.2815598  77.7431508  63.4911404
   9.6046779  76.6308105  62.7188652   1.4363850  85.4998949  75.5095775
   0.7427322  85.0852902  74.9965730   2.1836841  85.5419486  74.9129194
  17.5729071  76.2905136  70.3750809  16.9927740  76.9489940  69.9928862
  17.3065004  75.4682480  69.9638227  16.0232637  75.6910194  72.5772130
  16.5232416  75.8026728  71.7686449  16.6668245  75.3871246  73.2172938
  10.0814633  83.5988823  85.4639971   9.5981715  84.3989183  85.6703860
  10.1675572  83.6096768  84.5107415   3.3500593  85.4317203  73.3861790
   3.3271281  85.5304890  72.4343673   3.6601229  86.2782354  73.7078956
   6.0087971  87.4893358  77.5008404   6.9631224  87.4577300  77.4338336
   5.8100494  87.0283982  78.3158630   6.5987353  86.0594474  80.0679202
   7.4180242  86.5538553  80.0914039   6.8724160  85.1426442  80.0396770
  16.3553949  78.4505226  69.4307158  15.4679804  78.7354877  69.2127352
  16.7707938  78.2898990  68.5834435  19.7068485  78.4751747  73.1461497
  20.4828875  78.9648200  73.4186114  18.9816619  78.9009801  73.6033366
  22.1441044  79.1879366  74.2035438  22.7385535  78.9475102  73.4928746
  22.2167627  78.4686497  74.8308974   4.3638199  93.0312977  74.5178602
   4.2292667  92.2713378  73.9516600   3.9470262  93.7553877  74.0507391
  15.4997162  88.2149901  63.5255178  16.2033013  88.4199903  64.1412833
  14.7759811  88.7826663  63.7904261  16.3294973  83.9659762  69.6457448
  16.2730174  84.4228314  68.8065080  16.8823315  83.2050447  69.4680291
  20.1399779  79.7549494  70.4707567  19.8836713  79.3546130  71.3015775
  19.5152647  80.4693288  70.3457706  24.4512116  82.4945567  72.9778859
  23.8911674  82.5638757  73.7510421  23.8455620  82.3186552  72.2578355
   7.5207325  93.9282294  74.7297045   7.4039709  94.8727727  74.6275735
   6.6999772  93.6255856  75.1182844  17.4083860  88.6532430  65.5753638
  18.2429464  88.2213629  65.3931112  17.2468203  88.4814444  66.5030532
  17.0629752  85.1564543  66.9409977  17.0078556  84.9908815  65.9998421
  16.4375807  85.8640576  67.0972167   1.8522267  80.3932608  80.7671399
   2.4981131  79.8831562  81.2558624   1.6439418  81.1301289  81.3414824
  14.3775659  87.4613455  86.2663540  15.2466819  87.6354108  85.9050175
  13.8982411  88.2807872  86.1439269  10.3725877  74.6572652  66.5195295
  10.3604547  75.6014492  66.6763566  11.2649299  74.4742798  66.2254757
   8.5461839  94.5810556  77.9452973   9.4489086  94.6134166  78.2619468
   8.3199209  93.6511007  77.9599309  10.3015441  93.3341543  74.6063052
   9.3511072  93.3343404  74.4927424  10.6047928  92.5874277  74.0899087
  14.1877997  71.2515429  70.7741232  13.4210393  70.6973916  70.9197915
  14.5988702  71.3237298  71.6355384   6.1919758  77.5400225  84.8646413
   7.0551220  77.1837030  85.0749738   5.6185169  77.2014120  85.5521818
  26.0368135  99.1702081  75.6708814  26.6746545  99.0508829  74.9672155
  25.9188978 100.1182925  75.7296767  22.8457841  99.1229509  75.6070339
  22.5076353  99.0070574  74.7190874  23.7147609  98.7220674  75.5871345
  18.7044657 100.9764986  71.5967230  18.1409522 100.8854923  70.8283518
  18.5897052 100.1564890  72.0769723  23.3277624 100.2764361  81.5656545
  23.3166265  99.8817159  80.6937048  23.4898264  99.5430434  82.1590316
  16.2509089 102.4716177  74.4351451  17.0430381 102.1307002  74.0197750
  16.4905739 102.5811152  75.3553604  24.2844216 104.6435953  66.9081695
  23.6332195 105.2290034  66.5215709  25.0788578 105.1742148  66.9676732
  18.2099843 101.7325091  67.3068829  18.9830719 101.1854078  67.1681705
  18.5625242 102.5969340  67.5183291  20.0484885 103.0601473  80.5135729
  19.7574751 103.9647104  80.3982395  20.6841870 103.1018000  81.2279798
  20.9741092 100.4378321  77.1037088  21.5704664 100.2134344  76.3894051
  21.0316064  99.6963067  77.7062536  20.5466121  97.8917757  64.9387279
  20.7991641  97.3699278  64.1770742  19.6090680  97.7283902  65.0413963
  25.5909403  96.8953535  72.7462022  26.3772493  96.4772958  72.3952439
  25.8548108  97.7999627  72.9143671  25.7619481 102.3326385  67.4450679
  25.1265314 102.4061012  68.1571584  25.4316887 102.9219984  66.7669759
  30.9917831  96.8328768  73.6495001  31.7243002  96.2627985  73.8832830
  30.2357186  96.4450369  74.0901507  20.2662409  99.7945863  67.1411654
  20.1498667  99.1190766  67.8092739  20.3764669  99.3078237  66.3243807
  22.6093950  99.2556010  70.8458343  22.2452157  98.7286631  71.5571265
  23.4661066  98.8654479  70.6724829  28.5143251  90.5450342  78.1089610
  28.1826576  91.4145753  77.8850825  27.9188864  90.2286626  78.7883640
  22.2499437  94.2845909  65.8419692  22.4173840  95.1526146  66.2090163
  22.0596606  94.4473191  64.9180981  25.0074770 102.7462888  77.5085522
  24.7075493 103.6487927  77.4001330  24.6625830 102.4795072  78.3606675
  18.4587252  99.1976685  73.5422227  17.5337748  99.0652899  73.7499919
  18.7071665  99.9770904  74.0392169  28.4071914  95.2645429  75.1882960
  27.4988792  95.1960837  74.8941721  28.3559510  95.7417373  76.0164785
  22.2288658  96.7403567  66.8266359  22.1088283  97.1860618  67.6651839
  21.5341246  97.0888885  66.2679897  15.8196063  98.8409959  74.3766016
  15.9488444  99.0944438  75.2905428  15.1393514  99.4337667  74.0570671
  19.9895550 109.5107209  70.4756490  19.9119580 110.4615034  70.5544971
  19.3857194 109.1653081  71.1331416  22.4812780  96.6835074  83.1317857
  21.7046114  97.2428994  83.1220722  23.1203343  97.1691857  83.6532727
  30.2733561  93.4661867  76.9660834  29.6307941  93.7594400  76.3200628
  29.7688489  93.3514787  77.7714030  27.9273724  97.2125040  67.6546693
  28.8391580  97.4452427  67.4794390  27.4183371  97.7962084  67.0921771
  20.7359152  99.4920527  82.6935824  21.4773837 100.0305571  82.4170648
  20.0296138 100.1186816  82.8507376  26.2114492 101.6349668  81.2907985
  26.6197848 101.1932078  80.5462618  25.4891753 101.0602295  81.5442178
  22.5645562  96.5722275  78.6641542  23.4106757  96.9961688  78.8076191
  22.5044200  95.9155899  79.3580105  26.5343307 102.1950859  75.0460274
  25.9052169 102.3596573  74.3436342  26.1468969 102.6092468  75.8171238
  30.4132538 103.1305296  72.4004638  29.7283577 103.5104198  71.8501671
  30.4976388 103.7400623  73.1336586  25.7145007  94.2326643  80.3222716
  25.4705939  94.9868704  79.7856992  25.9904938  94.6111991  81.1569963
  27.6683470 100.7765255  78.9999982  27.8800365 101.4197015  78.3234363
  27.6213218  99.9427572  78.5321912  25.2709699  93.3883076  75.9036554
  24.4094178  93.6864330  76.1953291  25.2972134  93.6053475  74.9717586
  22.0871268 101.9325267  72.3110359  22.5509614 102.2112970  71.5214982
  21.8228067 101.0308711  72.1283450  18.9795350 101.4796748  75.2490123
  19.5496707 101.9084017  74.6107607  19.5703461 101.1979333  75.9474308
  21.0240154  98.0548419  69.1199925  21.7264198  98.5069463  69.5873851
  20.6920783  97.4132238  69.7479818  19.4720516  96.6460176  83.4951134
  18.8419177  97.3276456  83.7286531  19.3656604  96.5343257  82.5504272
  14.7665488  96.3131972  74.4217058  13.9764542  96.5689500  73.9457169
  15.2576736  97.1280310  74.5269099  28.7829298 103.6537211  77.1722339
  29.6046742 103.2517398  76.8905021  28.7791701 103.5505445  78.1238455
  16.7180234  96.6776551  71.3800535  15.9211397  96.7895245  71.8984030
  16.4905826  97.0163203  70.5141425  22.5485901 103.2021254  79.3283049
  22.6130334 103.6641661  80.1641221  21.8396825 102.5718619  79.4565359
  13.0503191  96.5662462  76.8532049  13.3011230  97.4509472  77.1189625
  13.5862740  96.3867064  76.0807141  36.8735291  99.9975959  73.5207310
  36.1198999  99.4283357  73.3651315  37.0082832  99.9638624  74.4677945
  22.2633919 104.8689362  69.1962030  22.1279594 105.7140897  69.6246878
  22.8043732 105.0708639  68.4327964  18.7501259  90.9480941  85.8576385
  18.3568204  90.3947140  86.5324029  19.5667399  91.2591520  86.2482902
  15.7163317 102.3864800  69.7689955  16.2287837 103.1808050  69.9195520
  16.3686029 101.6891090  69.7023556  17.5258201 105.5030556  71.8512708
  17.7024830 106.4248521  71.6633692  18.3215035 105.1888975  72.2807088
  21.6669220  92.3638821  83.4496642  22.4078933  92.9645974  83.3701104
  21.8987143  91.6216458  82.8914684  16.8110558  97.5495188  81.7274871
  16.6964073  96.6480445  82.0281970  15.9555075  97.7958885  81.3759688
  23.8902395 105.4912928  83.3262372  23.4466250 104.7049307  83.0083276
  24.5519609 105.6792079  82.6606263  18.6489517 107.0208730  77.8523050
  19.1996942 106.8925793  77.0800044  17.8100993 107.3203619  77.5017943
  25.9883634 105.7715728  81.3543773  25.9702109 106.5924609  80.8624042
  26.9103554 105.6469803  81.5793914  22.4456688 103.2859858  82.1967281
  22.9785025 102.5248146  81.9666589  21.9170769 102.9933509  82.9391436
  25.6126383  88.3919923  77.7260923  25.2690652  89.2821565  77.6500034
  25.9805345  88.2021581  76.8630508  13.6812233 100.7153454  70.5449525
  14.5187455 101.1250462  70.3283233  13.8590501  99.7752896  70.5149719
  25.5776665  98.3828535  66.2333358  25.0623289  99.1533139  66.4721746
  25.3053974  97.7093671  66.8566420  23.1623776  93.2278235  71.2918597
  22.3065373  92.8385086  71.1124235  23.5750728  93.3070196  70.4318382
  24.6922923  90.7624579  75.6910156  24.1887719  90.7254714  74.8777962
  24.9853530  91.6717321  75.7506813  20.9365809  90.8463308  74.6976338
  21.8018806  90.6506117  74.3382228  21.0043318  90.6173660  75.6245695
  30.5510940 101.1360889  68.1686532  29.7740382 100.7972049  67.7241694
  31.2302421 101.1413512  67.4941497  25.3662969  96.2555627  68.0593139
  25.0613104  96.5701776  68.9103283  26.3193411  96.3337047  68.1020472
  23.8109400 102.4145850  69.7086093  23.2830762 101.6798610  69.3959331
  23.3096903 103.1920526  69.4626062  28.7902246 100.6094871  74.8253140
  28.1325921 101.2994132  74.9133268  29.5942646 100.9991302  75.1687126
  18.5428128  93.0765516  72.0692705  19.1171880  92.8540698  71.3365898
  19.1299110  93.1454211  72.8221306  27.6007705  98.9639243  72.8757082
  28.1139587  99.5969235  73.3778791  28.2508929  98.3640439  72.5100442
  18.8697715  95.1069977  66.0888590  18.0335027  95.4444664  66.4097865
  18.7302485  94.9718957  65.1515727  20.8450796  89.9506765  70.7967774
  20.1915208  89.6355782  70.1724389  20.8031270  89.3282506  71.5227597
  21.9562001 100.2326060  62.7121066  21.0489062 100.0015314  62.9112215
  22.4533033  99.4363680  62.8995048  24.8630079 108.9423567  65.6317753
  24.1891778 109.2455264  66.2402710  25.2495901 109.7452648  65.2823210
  24.0788536  96.4388699  75.1215422  23.1611097  96.6603646  74.9637110
  24.4948680  96.5135009  74.2627129  24.8623584  97.8380114  70.2518102
  25.6095403  98.3501512  69.9425224  25.1315173  97.5164167  71.1122496
  23.1350234 100.3338655  67.2345057  22.2261453 100.0497688  67.3317526
  23.1645318 100.7537734  66.3748363  28.3669501 103.9445245  71.0036224
  27.9131829 103.1036155  71.0601415  27.7363468 104.5806643  71.3411004
  27.3102421  94.8737231  72.2336892  26.5725178  94.3614617  72.5647134
  27.5629195  94.4337612  71.4220168  26.8102441 105.7821741  71.9386042
  27.1025415 106.3426798  71.2198408  27.3201061 106.0750302  72.6939201
  27.4114048  87.6513483  72.8278661  27.7172925  86.7910846  72.5404576
  28.1366653  88.2431103  72.6277655  13.7038404  98.0544169  71.2160259
  13.5062804  97.4613530  70.4911325  13.1485068  97.7496379  71.9336198
  21.6835128  97.9467276  73.3354852  21.7383738  96.9941112  73.2597329
  20.8726330  98.1026715  73.8196150  22.8326322 101.8747399  64.5733135
  22.3945752 101.1583258  64.1138773  23.5736763 102.1023514  64.0118227
  19.6227488  96.5644335  71.0945231  18.8095354  96.8638506  71.5010423
  20.1186482  96.1700024  71.8119713  21.7736066 106.5602092  73.0279496
  21.7312245 106.7862939  72.0988028  22.6898765 106.3265467  73.1765297
  25.2201700  97.0286160  79.9260125  25.5751087  97.2557633  80.7854590
  25.8673831  97.3604537  79.3037380  30.9499437 100.1504596  70.6309454
  30.8117335 100.3406192  69.7030643  30.5935655 100.9123979  71.0877505
  19.1141563  94.1362691  76.7106466  19.7540942  93.9951450  76.0129429
  18.2819093  93.8497204  76.3345068  30.9768816 102.2181123  75.6420725
  31.4105323 102.1256412  76.4903779  31.6900397 102.1938623  75.0040741
  19.8901867 103.4365121  72.8241458  20.6842465 102.9415442  72.6224033
  19.1793559 102.9082985  72.4609164  24.7096711 105.8183217  77.1753826
  24.7633733 106.3874153  77.9431542  23.8411493 105.9885102  76.8107863
  16.1984630  97.5808203  68.9001211  15.2682218  97.5192659  69.1171173
  16.2942102  97.0584156  68.1037852  16.1170179  94.1063016  71.4879453
  16.3776996  95.0208349  71.3788613  16.9387352  93.6387459  71.6376065
  17.5895105  95.5200773  78.6578277  18.2618158  95.3118135  78.0090926
  16.7624891  95.3222859  78.2183509  31.8384366 102.2604824  78.1753611
  32.0320256 103.1650634  78.4212886  31.7384984 101.8012243  79.0092196
  23.4920677  92.1462714  80.6743938  22.8448592  92.8452664  80.5808414
  24.2621692  92.5798858  81.0420186  26.8999474 102.4111566  83.7494491
  26.7484981 102.1822118  82.8324575  26.8904154 103.3682168  83.7625836
  23.6684811  99.9843479  78.7340758  24.5976871 100.1354639  78.5609725
  23.2475841 100.0727500  77.8789404  22.4673143 104.0094143  76.5039295
  22.3284228 103.6412928  77.3765233  21.6787739 104.5241783  76.3323253
  23.0621295 109.1103240  67.8464832  23.2373050 108.6391283  68.6610455
  22.3754083 109.7369006  68.0746093  24.0178358 103.3875746  73.8928133
  23.6828190 103.3476516  74.7885783  23.5182303 102.7220462  73.4198543
  17.9922602  98.7943376  79.4180714  17.8542400  98.0623615  80.0192253
  18.9027525  98.7052276  79.1364902  26.9537549 100.7331780  64.1665193
  26.3366720 100.0078609  64.0698245  26.4854038 101.4941141  63.8232267
  20.6204902  98.5063335  78.9064394  21.3304521  97.8656528  78.8651012
  20.5774211  98.7576230  79.8290575  28.6091681 105.4430689  81.8270973
  28.5504227 104.7589909  81.1601556  29.0111199 106.1849679  81.3751599
  19.3333836  95.4928553  80.7260033  18.7971193  95.0419292  81.3781630
  18.7450545  95.6274462  79.9830498  18.7436095  94.9517205  63.2886497
  17.8665562  94.8306006  62.9248744  19.2193848  94.1603283  63.0365386
  28.6109088 103.4070273  80.0584953  27.7235867 103.0696195  80.1811352
  29.1807639 102.6753304  80.2953718  10.2638235  99.7394364  73.3828004
  10.9509275  99.4256095  72.7949020  10.1086364 100.6435729  73.1095256
  15.0672958  94.6284561  77.8113028  14.9831146  94.0210231  77.0763438
  14.2455664  95.1193579  77.8122524  22.1410242 108.0671725  77.0246196
  22.0680413 108.8726697  77.5365501  21.6987635 108.2663691  76.1994217
  21.9300021 107.3043495  70.5349018  21.1467543 107.8465175  70.6287242
  22.6292767 107.8217475  70.9343259  25.2396672  93.1138125  73.1783223
  25.7365371  92.3608087  72.8584293  24.4683653  93.1502441  72.6126432
  33.0926429  98.8178490  74.8201514  33.0816305  99.7003206  74.4495448
  32.2243808  98.4650041  74.6256052  24.6008925 107.9658559  79.1804355
  25.3136898 108.6006024  79.1080256  24.1098954 108.0622425  78.3644357
  26.3226452 101.8709812  70.7521646  25.3882731 101.9911274  70.5826351
  26.5003121 100.9682279  70.4881656  21.8231640  95.2555508  72.9054908
  21.4529428  94.7026548  73.5935813  22.3190733  94.6513641  72.3529908
  29.7099004  97.7127131  71.2871680  30.1759456  98.5455123  71.2131983
  30.1606504  97.2472113  71.9916939  19.6520839 105.7153003  80.0009925
  20.3530298 106.3489486  80.1539320  19.1815954 106.0567734  79.2405565
  27.7775235 104.0570952  68.2857833  28.0535079 103.9427547  69.1951707
  26.9079733 103.6588437  68.2470006  27.6815666  90.0807718  75.3262582
  26.7678746  90.3111945  75.4944789  28.1108768  90.1646162  76.1776614
  27.4522125  98.2697610  77.8262476  26.7993575  98.5173517  77.1714929
  27.8302505  97.4561748  77.4924953  24.4129299 108.3057303  71.9290646
  24.5951693 107.4878959  72.3918398  25.2362285 108.5224995  71.4915536
  24.7471464 107.2325488  69.1905695  25.2759231 106.7217943  68.5775857
  25.0099684 106.9168019  70.0551228  23.5009698  99.0117421  84.3128513
  22.8250335  98.9111550  84.9830888  24.3237332  98.8556635  84.7764510
  15.2488557 105.2489358  76.9341028  15.8341994 104.5033046  77.0668932
  15.0513395 105.5593314  77.8177692  18.1027212 108.2840605  71.9503471
  17.4337587 108.7686733  71.4667511  17.9640082 108.5309825  72.8646849
   9.8406212  97.8194958  75.6545471   9.8790311  97.2858549  76.4482589
   9.3346504  97.2930163  75.0356448  22.2432481 110.3184349  78.5486129
  22.7950789 110.4815970  79.3135214  22.5838674 110.9088786  77.8766154
  17.2196974  92.6659498  79.1508014  17.2838300  93.5274329  78.7385411
  17.1564094  92.0533500  78.4180372  16.6949246  94.7382631  82.7981048
  17.3221285  94.3559708  83.4118572  15.8377165  94.5196833  83.1636740
  27.0943355 105.1445606  84.4034783  27.6383259 105.7575564  83.9089738
  26.5130200 105.7025184  84.9201796  13.4714789  96.5459060  68.7299403
  13.7668230  95.6369738  68.6766456  12.5702825  96.5246799  68.4080405
  25.3800868 108.2666324  75.5349811  25.2552007 107.4656064  75.0260757
  26.0379959 108.7612517  75.0463781  17.0009036  94.6215057  74.7126951
  16.2795622  95.2351024  74.5734425  17.7902292  95.1572821  74.6343597
  27.4435776 106.0675344  77.1629361  26.4966112 105.9480695  77.0907688
  27.7918549 105.1797842  77.2455623  19.8035350  91.9569483  80.9867603
  20.3269752  92.2031780  81.7493912  19.5847683  92.7889518  80.5670740
  15.2002631  94.2273158  68.8538728  14.8715337  93.3470537  68.6713834
  15.5542001  94.1720826  69.7415117  24.4482210 105.8628060  73.3633713
  24.3007172 104.9344768  73.5441283  25.2735703 105.8848151  72.8790789
  18.3144454  94.5146127  69.2214206  18.6540526  95.0432049  68.4992814
  18.7616574  94.8526534  69.9972772  28.0516331 106.6856619  74.4498586
  28.9762879 106.4799480  74.3123037  27.8831635 106.4373020  75.3587928
  21.0087895  92.8983178  78.6717274  20.6684715  92.0990991  79.0737953
  20.3026901  93.1984889  78.0994107  21.6604367  89.9832491  77.1244597
  22.4830436  89.5092969  77.0023487  21.9042430  90.7622974  77.6243283
  20.3012601  93.0120749  67.4207498  21.0220964  93.3902002  66.9171215
  19.6777905  93.7309626  67.5242476  24.4443724  93.7165898  68.3565831
  24.6607338  94.5990536  68.0554659  23.9637791  93.3252111  67.6271473
  19.1842945  96.6751611  74.9336575  19.0387526  96.9891914  75.8260857
  18.7068149  97.2936512  74.3807474  21.0439328  93.6654159  74.9817465
  21.0300897  92.7695253  74.6449763  21.7611756  93.6724823  75.6155751
  22.8965459  94.0991499  77.0270592  22.6383237  95.0208570  77.0254923
  22.3650499  93.7021934  77.7171056  27.8411648 107.2042287  69.8060678
  28.0148525 106.6388709  69.0534530  28.3340539 108.0043181  69.6240168
  13.6588608  99.2156956  77.8724236  13.1142076  99.9916764  78.0044511
  14.5367957  99.5627760  77.7143358  20.4476224  92.5468540  70.2505035
  20.5692135  91.6185186  70.4495922  20.1578267  92.5607225  69.3383350
  23.3167415  90.2323450  73.3871755  23.3389111  90.2962783  72.4323734
  23.7335474  89.3927959  73.5812261  33.6951039  99.9678710  71.4250977
  34.1382185  99.2186035  71.0270101  32.8177549  99.9588846  71.0424709
  28.8286820 106.5209051  66.9057576  29.5237725 107.1415744  67.1244891
  29.1709970 105.6704402  67.1809954  14.4454629  98.3426852  80.7654393
  13.7036365  98.4909487  81.3519024  14.1247374  98.6035118  79.9021143
  30.7278243 103.9708756  68.4344907  31.2529567 104.3096029  67.7094227
  30.6400596 103.0355772  68.2508041  22.3898292 107.8842830  80.5634783
  22.6985418 107.6391977  81.4357483  23.1873774 108.0889469  80.0753654
  22.4118904 110.0380740  72.7940160  21.9723894 109.5457118  73.4873017
  23.1627021 109.4953707  72.5532235  14.8911243 106.2292281  72.7964788
  15.7169263 105.9296053  72.4163431  14.5405295 105.4599903  73.2454577
  19.8592776 105.5818749  74.8662462  19.2372786 104.9189454  74.5664689
  20.5297643 105.6079881  74.1836109  13.0919848 104.1478607  73.7553722
  12.2551756 103.7200781  73.5737723  13.0643494 104.3411050  74.6924513
  19.9317304  94.0600537  84.4594968  19.9805459  94.9362660  84.0772737
  20.4739818  93.5177930  83.8866611  30.4172149 104.6041660  83.7396105
  29.6267693 104.5865799  83.2000604  30.1805504 105.1429954  84.4945141
  30.5370024 101.4534127  81.0528833  30.5868029 101.2884134  81.9944356
  30.4283948 100.5861386  80.6626714  19.4206283 104.1322672  68.3420922
  19.5694403 104.8158137  67.6887595  20.2272727 104.1127762  68.8570378
  27.8273787  97.4365055  82.3688140  28.7283650  97.2971519  82.0772138
  27.9021761  97.6019509  83.3086317  22.1616592  94.8131909  81.2141326
  21.2919902  95.1065475  80.9423915  22.3976073  95.3972354  81.9348590
  32.0388221 103.8731068  81.2970855  31.7473030 104.2361049  82.1334316
  31.4260353 103.1598076  81.1184187  33.2383904 101.4383948  73.8173425
  34.0730795 101.8773752  73.9810985  33.3743032 100.9622601  72.9981671
  30.2875410  98.9963683  79.7650913  30.7629531  99.1891329  78.9569764
  29.3640975  99.0522868  79.5194296  17.1758916 100.1587850  69.3481991
  16.9304958  99.2550180  69.5462201  17.3454831 100.1605000  68.4061469
  24.8655626  91.0311526  78.7306747  25.3837570  91.7672553  78.4053235
  24.5110759  91.3375520  79.5653506  16.4454564  95.8916207  66.8468152
  15.7523809  95.9660562  66.1908188  16.2006316  95.1276551  67.3689669
  25.1168220  87.4511809  74.2507643  25.3969974  86.7834998  74.8768070
  25.9018827  87.6440904  73.7382307  22.9201689 106.6270803  65.8132669
  22.3475656 107.2460990  65.3603141  23.4934482 107.1770164  66.3472591
  28.9877079  95.8729443  77.9979218  29.9394501  95.9727540  78.0191442
  28.8180529  95.0807711  78.5077303  27.0091458  92.9585026  78.1838619
  26.4141390  93.2390039  77.4885108  26.7241155  93.4478927  78.9555360
  26.1398948 106.9107953  66.9441252  27.0729622 106.8453514  67.1474127
  26.0522161 107.7464220  66.4855784  28.7686965 106.2273823  63.9045199
  28.6900597 105.8933687  64.7980957  29.5896632 106.7195591  63.9036672
  31.4665156  99.0935562  77.1121518  31.4341476  98.1551563  77.2981202
  32.0765780  99.1719599  76.3787343  23.3048487  97.9631615  63.1548722
  24.2507592  97.8337824  63.2237140  22.9262732  97.2246277  63.6318150
  31.6159645  95.8846606  77.1579801  31.0998693  95.1005062  76.9709730
  32.4999593  95.5565322  77.3226321  29.2770372  89.6287621  73.1175614
  29.0795193  89.3202710  74.0018946  29.8870077  90.3549260  73.2473544
  37.2841706 100.1551569  76.2527555  38.0145095  99.8936857  76.8135258
  36.6748652  99.4180291  76.2929623  35.3657003  98.2959432  76.8502006
  34.6390167  98.1615397  76.2418498  34.9504290  98.6036260  77.6558724
  23.1887180 102.0149362  84.6149379  24.1090189 102.1927961  84.8089425
  23.1536763 101.0705407  84.4629078  21.4891404  95.8881592  63.0903607
  20.5822860  95.5914705  63.1666321  21.7667385  95.5911410  62.2237893
  12.4069345  97.2087955  73.5402654  12.0872129  96.3553263  73.2477028
  11.8602773  97.4236533  74.2960621  16.1849252  99.9250396  77.2572160
  16.4035262 100.8567504  77.2760194  16.5975026  99.5658371  78.0426964
  23.1053470  90.4318482  69.2447848  22.2954198  90.0865566  69.6203095
  23.7937887  90.1226025  69.8335460  25.0344018  89.5096528  70.8672145
  25.5875057  89.9291982  71.5262168  25.2714105  88.5832276  70.9095101
  21.0577118  95.4983602  86.6474909  20.9573844  96.4477959  86.5787000
  20.8398660  95.1701841  85.7750979  20.2590189  92.7468527  63.2315586
  21.1209353  93.0723425  63.4911404  20.4440533  91.9600023  62.7188652
  12.2757605 100.8290867  75.5095775  11.5821076 100.4144819  74.9965730
  13.0230596 100.8711403  74.9129194  28.4122825  91.6197053  70.3750809
  27.8321494  92.2781858  69.9928862  28.1458758  90.7974398  69.9638227
  26.8626392  91.0202111  72.5772130  27.3626170  91.1318646  71.7686449
  27.5062000  90.7163164  73.2172938  20.9208388  98.9280741  85.4639971
  20.4375469  99.7281101  85.6703860  21.0069327  98.9388686  84.5107415
  14.1894347 100.7609120  73.3861790  14.1665035 100.8596808  72.4343673
  14.4994984 101.6074271  73.7078956  16.8481725 102.8185275  77.5008404
  17.8024979 102.7869218  77.4338336  16.6494249 102.3575899  78.3158630
  17.4381107 101.3886392  80.0679202  18.2573996 101.8830470  80.0914039
  17.7117915 100.4718360  80.0396770  27.1947703  93.7797144  69.4307158
  26.3073558  94.0646794  69.2127352  27.6101693  93.6190907  68.5834435
  30.5462240  93.8043665  73.1461497  31.3222630  94.2940117  73.4186114
  29.8210374  94.2301719  73.6033366  32.9834798  94.5171284  74.2035438
  33.5779289  94.2767020  73.4928746  33.0561382  93.7978415  74.8308974
  26.3390917 103.5441819  63.5255178  27.0426767 103.7491821  64.1412833
  25.6153566 104.1118580  63.7904261  27.1688727  99.2951680  69.6457448
  27.1123929  99.7520231  68.8065080  27.7217070  98.5342364  69.4680291
  30.9793533  95.0841412  70.4707567  30.7230467  94.6838047  71.3015775
  30.3546401  95.7985206  70.3457706  35.2905871  97.8237485  72.9778859
  34.7305429  97.8930674  73.7510421  34.6849374  97.6478470  72.2578355
  28.2477614 103.9824348  65.5753638  29.0823218 103.5505546  65.3931112
  28.0861957 103.8106361  66.5030532  27.9023506 100.4856461  66.9409977
  27.8472310 100.3200732  65.9998421  27.2769562 101.1932494  67.0972167
  12.6916021  95.7224525  80.7671399  13.3374885  95.2123479  81.2558624
  12.4833173  96.4593207  81.3414824  25.2169414 102.7905373  86.2663540
  26.0860573 102.9646025  85.9050175  24.7376165 103.6099790  86.1439269
  21.2119632  89.9864570  66.5195295  21.1998302  90.9306410  66.6763566
  22.1043054  89.8034715  66.2254757  19.3855594 109.9102474  77.9452973
  20.2882841 109.9426084  78.2619468  19.1592964 108.9802925  77.9599309
  21.1409196 108.6633460  74.6063052  20.1904827 108.6635322  74.4927424
  21.4441682 107.9166195  74.0899087  25.0271751  86.5807347  70.7741232
  24.2604147  86.0265833  70.9197915  25.4382456  86.6529215  71.6355384
  17.0313512  92.8692142  84.8646413  17.8944974  92.5128947  85.0749738
  16.4578923  92.5306037  85.5521818  36.8761889 114.4993999  75.6708814
  37.5140299 114.3800746  74.9672155  36.7582732 115.4474843  75.7296767
  33.6851596 114.4521427  75.6070339  33.3470107 114.3362492  74.7190874
  34.5541364 114.0512592  75.5871345  34.1671379 115.6056279  81.5656545
  34.1560019 115.2109077  80.6937048  34.3292018 114.8722351  82.1590316
  31.3859875 113.2209674  64.9387279  31.6385396 112.6991196  64.1770742
  30.4484434 113.0575820  65.0413963  36.4303158 112.2245453  72.7462022
  37.2166247 111.8064876  72.3952439  36.6941862 113.1291545  72.9143671
  41.8311585 112.1620686  73.6495001  42.5636757 111.5919903  73.8832830
  41.0750941 111.7742286  74.0901507  33.4487705 114.5847927  70.8458343
  33.0845912 114.0578548  71.5571265  34.3054821 114.1946396  70.6724829
  39.3537005 105.8742260  78.1089610  39.0220330 106.7437671  77.8850825
  38.7582619 105.5578544  78.7883640  33.0893192 109.6137827  65.8419692
  33.2567594 110.4818063  66.2090163  32.8990361 109.7765109  64.9180981
  39.2465669 110.5937346  75.1882960  38.3382546 110.5252755  74.8941721
  39.1953264 111.0709291  76.0164785  33.0682413 112.0695485  66.8266359
  32.9482038 112.5152535  67.6651839  32.3735001 112.4180802  66.2679897
  33.3206534 112.0126992  83.1317857  32.5439869 112.5720912  83.1220722
  33.9597098 112.4983775  83.6532727  41.1127315 108.7953785  76.9660834
  40.4701695 109.0886318  76.3200628  40.6082244 108.6806705  77.7714030
  38.7667479 112.5416958  67.6546693  39.6785335 112.7744345  67.4794390
  38.2577126 113.1254002  67.0921771  33.4039316 111.9014192  78.6641542
  34.2500512 112.3253606  78.8076191  33.3437954 111.2447817  79.3580105
  36.5538762 109.5618561  80.3222716  36.3099694 110.3160621  79.7856992
  36.8298692 109.9403908  81.1569963  38.5077225 116.1057173  78.9999982
  38.7194120 116.7488933  78.3234363  38.4606973 115.2719490  78.5321912
  36.1103454 108.7174994  75.9036554  35.2487933 109.0156247  76.1953291
  36.1365888 108.9345393  74.9717586  31.8633909 113.3840337  69.1199925
  32.5657952 113.8361380  69.5873851  31.5314537 112.7424156  69.7479818
  30.3114271 111.9752093  83.4951134  29.6812931 112.6568374  83.7286531
  30.2050358 111.8635175  82.5504272  25.6059243 111.6423889  74.4217058
  24.8158297 111.8981418  73.9457169  26.0970490 112.4572227  74.5269099
  27.5573988 112.0068469  71.3800535  26.7605152 112.1187163  71.8984030
  27.3299581 112.3455121  70.5141425  47.7129046 115.3267877  73.5207310
  46.9592754 114.7575275  73.3651315  47.8476587 115.2930541  74.4677945
  29.5895013 106.2772859  85.8576385  29.1961959 105.7239058  86.5324029
  30.4061154 106.5883438  86.2482902  32.5062974 107.6930738  83.4496642
  33.2472688 108.2937891  83.3701104  32.7380897 106.9508376  82.8914684
  36.4520137 103.7211841  77.7260923  36.1084407 104.6113483  77.6500034
  36.8199100 103.5313499  76.8630508  36.4170420 113.7120452  66.2333358
  35.9017043 114.4825057  66.4721746  36.1447728 113.0385588  66.8566420
  34.0017531 108.5570153  71.2918597  33.1459127 108.1677003  71.1124235
  34.4144483 108.6362114  70.4318382  35.5316678 106.0916496  75.6910156
  35.0281473 106.0546631  74.8777962  35.8247284 107.0009239  75.7506813
  31.7759563 106.1755226  74.6976338  32.6412560 105.9798035  74.3382228
  31.8437072 105.9465578  75.6245695  41.3904694 116.4652807  68.1686532
  40.6134137 116.1263966  67.7241694  42.0696175 116.4705430  67.4941497
  36.2056723 111.5847544  68.0593139  35.9006859 111.8993694  68.9103283
  37.1587165 111.6628964  68.1020472  39.6296001 115.9386788  74.8253140
  38.9719675 116.6286050  74.9133268  40.4336400 116.3283220  75.1687126
  29.3821883 108.4057434  72.0692705  29.9565634 108.1832615  71.3365898
  29.9692865 108.4746128  72.8221306  38.4401460 114.2931161  72.8757082
  38.9533341 114.9261153  73.3778791  39.0902684 113.6932356  72.5100442
  29.7091470 110.4361895  66.0888590  28.8728782 110.7736582  66.4097865
  29.5696239 110.3010875  65.1515727  31.6844550 105.2798683  70.7967774
  31.0308963 104.9647700  70.1724389  31.6425024 104.6574423  71.5227597
  34.9182291 111.7680616  75.1215422  34.0004852 111.9895563  74.9637110
  35.3342434 111.8426927  74.2627129  35.7017338 113.1672032  70.2518102
  36.4489157 113.6793429  69.9425224  35.9708928 112.8456085  71.1122496
  38.1496176 110.2029148  72.2336892  37.4118932 109.6906535  72.5647134
  38.4022949 109.7629530  71.4220168  38.2507803 102.9805400  72.8278661
  38.5566680 102.1202764  72.5404576  38.9760408 103.5723021  72.6277655
  32.5228883 113.2759193  73.3354852  32.5777492 112.3233030  73.2597329
  31.7120085 113.4318633  73.8196150  30.4621242 111.8936253  71.0945231
  29.6489108 112.1930424  71.5010423  30.9580237 111.4991942  71.8119713
  36.0595454 112.3578078  79.9260125  36.4144842 112.5849551  80.7854590
  36.7067585 112.6896454  79.3037380  41.7893191 115.4796514  70.6309454
  41.6511090 115.6698110  69.7030643  41.4329410 116.2415896  71.0877505
  29.9535317 109.4654609  76.7106466  30.5934697 109.3243368  76.0129429
  29.1212848 109.1789122  76.3345068  41.8162571 117.5473041  75.6420725
  42.2499077 117.4548330  76.4903779  42.5294151 117.5230541  75.0040741
  27.0378385 112.9100121  68.9001211  26.1075973 112.8484576  69.1171173
  27.1335857 112.3876074  68.1037852  26.9563934 109.4354934  71.4879453
  27.2170751 110.3500267  71.3788613  27.7781106 108.9679376  71.6376065
  28.4288859 110.8492691  78.6578277  29.1011912 110.6410053  78.0090926
  27.6018646 110.6514777  78.2183509  42.6778120 117.5896741  78.1753611
  42.8714010 118.4942552  78.4212886  42.5778738 117.1304160  79.0092196
  34.3314431 107.4754632  80.6743938  33.6842346 108.1744581  80.5808414
  35.1015446 107.9090776  81.0420186  34.5078565 115.3135397  78.7340758
  35.4370625 115.4646556  78.5609725  34.0869595 115.4019417  77.8789404
  37.7931304 116.0623698  64.1665193  37.1760475 115.3370526  64.0698245
  37.3247792 116.8233058  63.8232267  31.4598657 113.8355253  78.9064394
  32.1698275 113.1948445  78.8651012  31.4167965 114.0868148  79.8290575
  30.1727591 110.8220471  80.7260033  29.6364948 110.3711209  81.3781630
  29.5844299 110.9566380  79.9830498  29.5829850 110.2809122  63.2886497
  28.7059316 110.1597923  62.9248744  30.0587603 109.4895201  63.0365386
  25.9066712 109.9576479  77.8113028  25.8224901 109.3502148  77.0763438
  25.0849419 110.4485497  77.8122524  36.0790426 108.4430042  73.1783223
  36.5759126 107.6900005  72.8584293  35.3077408 108.4794359  72.6126432
  43.9320183 114.1470408  74.8201514  43.9210060 115.0295123  74.4495448
  43.0637563 113.7941959  74.6256052  32.6625395 110.5847425  72.9054908
  32.2923182 110.0318466  73.5935813  33.1584487 109.9805559  72.3529908
  40.5492758 113.0419049  71.2871680  41.0153210 113.8747040  71.2131983
  41.0000259 112.5764030  71.9916939  38.5209421 105.4099636  75.3262582
  37.6072501 105.6403863  75.4944789  38.9502522 105.4938080  76.1776614
  38.2915879 113.5989528  77.8262476  37.6387330 113.8465435  77.1714929
  38.6696259 112.7853666  77.4924953  34.3403452 114.3409339  84.3128513
  33.6644089 114.2403468  84.9830888  35.1631086 114.1848553  84.7764510
  28.0590728 107.9951416  79.1508014  28.1232055 108.8566247  78.7385411
  27.9957849 107.3825418  78.4180372  27.5343001 110.0674549  82.7981048
  28.1615040 109.6851626  83.4118572  26.6770920 109.8488751  83.1636740
  24.3108544 111.8750978  68.7299403  24.6061985 110.9661656  68.6766456
  23.4096579 111.8538717  68.4080405  27.8402791 109.9506974  74.7126951
  27.1189376 110.5642942  74.5734425  28.6296046 110.4864739  74.6343597
  30.6429104 107.2861401  80.9867603  31.1663506 107.5323697  81.7493912
  30.4241437 108.1181436  80.5670740  26.0396385 109.5565075  68.8538728
  25.7109091 108.6762454  68.6713834  26.3935756 109.5012744  69.7415117
  29.1538208 109.8438045  69.2214206  29.4934281 110.3723966  68.4992814
  29.6010329 110.1818451  69.9972772  31.8481649 108.2275096  78.6717274
  31.5078470 107.4282909  79.0737953  31.1420656 108.5276807  78.0994107
  32.4998121 105.3124408  77.1244597  33.3224190 104.8384886  77.0023487
  32.7436185 106.0914892  77.6243283  31.1406356 108.3412667  67.4207498
  31.8614718 108.7193920  66.9171215  30.5171660 109.0601544  67.5242476
  35.2837478 109.0457816  68.3565831  35.5001093 109.9282454  68.0554659
  34.8031546 108.6544029  67.6271473  30.0236700 112.0043529  74.9336575
  29.8781281 112.3183832  75.8260857  29.5461903 112.6228429  74.3807474
  31.8833083 108.9946077  74.9817465  31.8694651 108.0987170  74.6449763
  32.6005511 109.0016741  75.6155751  33.7359213 109.4283417  77.0270592
  33.4776991 110.3500488  77.0254923  33.2044254 109.0313852  77.7171056
  31.2869979 107.8760457  70.2505035  31.4085890 106.9477103  70.4495922
  30.9972021 107.8899143  69.3383350  34.1561169 105.5615368  73.3871755
  34.1782866 105.6254701  72.4323734  34.5729228 104.7219876  73.5812261
  44.5344793 115.2970627  71.4250977  44.9775939 114.5477952  71.0270101
  43.6571304 115.2880764  71.0424709  30.7711058 109.3892455  84.4594968
  30.8199214 110.2654577  84.0772737  31.3133572 108.8469848  83.8866611
  41.3763779 116.7826044  81.0528833  41.4261784 116.6176052  81.9944356
  41.2677702 115.9153303  80.6626714  38.6667541 112.7656972  82.3688140
  39.5677404 112.6263437  82.0772138  38.7415516 112.9311427  83.3086317
  33.0010347 110.1423827  81.2141326  32.1313656 110.4357393  80.9423915
  33.2369827 110.7264272  81.9348590  44.0777658 116.7675865  73.8173425
  44.9124549 117.2065670  73.9810985  44.2136787 116.2914519  72.9981671
  41.1269164 114.3255600  79.7650913  41.6023286 114.5183247  78.9569764
  40.2034729 114.3814786  79.5194296  35.7049380 106.3603444  78.7306747
  36.2231324 107.0964471  78.4053235  35.3504513 106.6667437  79.5653506
  27.2848318 111.2208125  66.8468152  26.5917563 111.2952480  66.1908188
  27.0400070 110.4568469  67.3689669  35.9561975 102.7803726  74.2507643
  36.2363728 102.1126915  74.8768070  36.7412582 102.9732822  73.7382307
  39.8270833 111.2021360  77.9979218  40.7788256 111.3019458  78.0191442
  39.6574283 110.4099629  78.5077303  37.8485212 108.2876944  78.1838619
  37.2535145 108.5681956  77.4885108  37.5634909 108.7770845  78.9555360
  42.3058911 114.4227480  77.1121518  42.2735231 113.4843481  77.2981202
  42.9159534 114.5011517  76.3787343  34.1442242 113.2923533  63.1548722
  35.0901346 113.1629741  63.2237140  33.7656487 112.5538195  63.6318150
  42.4553399 111.2138524  77.1579801  41.9392448 110.4296980  76.9709730
  43.3393348 110.8857240  77.3226321  40.1164126 104.9579539  73.1175614
  39.9188947 104.6494627  74.0018946  40.7263832 105.6841178  73.2473544
  48.1235461 115.4843487  76.2527555  48.8538849 115.2228775  76.8135258
  47.5142406 114.7472209  76.2929623  46.2050758 113.6251350  76.8502006
  45.4783921 113.4907314  76.2418498  45.7898045 113.9328178  77.6558724
  32.3285159 111.2173509  63.0903607  31.4216614 110.9206622  63.1666321
  32.6061140 110.9203328  62.2237893  33.9447225 105.7610399  69.2447848
  33.1347953 105.4157484  69.6203095  34.6331641 105.4517943  69.8335460
  35.8737773 104.8388446  70.8672145  36.4268811 105.2583899  71.5262168
  36.1107859 103.9124194  70.9095101  31.8970872 110.8275520  86.6474909
  31.7967599 111.7769877  86.5787000  31.6792414 110.4993759  85.7750979
  31.0983943 108.0760445  63.2315586  31.9603107 108.4015343  63.4911404
  31.2834288 107.2891941  62.7188652  39.2516580 106.9488971  70.3750809
  38.6715249 107.6073775  69.9928862  38.9852513 106.1266316  69.9638227
  37.7020146 106.3494029  72.5772130  38.2019925 106.4610563  71.7686449
  38.3455754 106.0455082  73.2172938  38.0341458 109.1089062  69.4307158
  37.1467313 109.3938712  69.2127352  38.4495447 108.9482825  68.5834435
  41.3855994 109.1335583  73.1461497  42.1616384 109.6232035  73.4186114
  40.6604128 109.5593637  73.6033366  43.8228553 109.8463202  74.2035438
  44.4173043 109.6058938  73.4928746  43.8955136 109.1270332  74.8308974
  38.0082482 114.6243597  69.6457448  37.9517683 115.0812149  68.8065080
  38.5610824 113.8634282  69.4680291  41.8187288 110.4133329  70.4707567
  41.5624222 110.0129965  71.3015775  41.1940156 111.1277123  70.3457706
  46.1299625 113.1529403  72.9778859  45.5699183 113.2222592  73.7510421
  45.5243129 112.9770387  72.2578355  38.7417261 115.8148379  66.9409977
  38.6866065 115.6492650  65.9998421  38.1163316 116.5224412  67.0972167
  23.5309776 111.0516443  80.7671399  24.1768640 110.5415397  81.2558624
  23.3226927 111.7885125  81.3414824  32.0513386 105.3156488  66.5195295
  32.0392056 106.2598328  66.6763566  32.9436808 105.1326633  66.2254757
  35.8665506 101.9099264  70.7741232  35.0997902 101.3557751  70.9197915
  36.2776211 101.9821133  71.6355384  27.8707267 108.1984060  84.8646413
  28.7338729 107.8420865  85.0749738  27.2972678 107.8597955  85.5521818
  47.2913892 119.0503759  77.7260923  46.9478161 119.9405401  77.6500034
  47.6592854 118.8605416  76.8630508  49.0901557 118.3097318  72.8278661
  49.3960434 117.4494681  72.5404576  49.8154162 118.9014938  72.6277655
  46.7955729 118.1095644  74.2507643  47.0757483 117.4418833  74.8768070
  47.5806336 118.3024740  73.7382307  50.9557881 120.2871457  73.1175614
  50.7582702 119.9786545  74.0018946  51.5657586 121.0133096  73.2473544
  46.7059260 117.2391182  70.7741232  45.9391656 116.6849669  70.9197915
  47.1169965 117.3113051  71.6355384   4.3554029  31.0162329  60.2452617
   3.6017737  30.4469727  60.0896621   4.4901570  30.9824993  61.1923252
   0.7202641  32.4570317  60.5418732   1.5549533  32.8960121  60.7056292
   0.8561770  31.9808971  59.7226977   4.7660444  31.1737939  62.9772861
   5.4963832  30.9123227  63.5380565   4.1567389  30.4366661  63.0174929
   2.8475741  29.3145801  63.5747313   2.1208905  29.1801766  62.9663804
   2.4323028  29.6222630  64.3804031   0.4653536  25.5357654  60.9280744
   1.0598027  25.2953390  60.2174052   0.5380120  24.8164784  61.5554280
   2.7724609  28.8423854  59.7024165   2.2124167  28.9117044  60.4755727
   2.1668112  28.6664839  58.9823662   4.3580627  45.5180368  62.3954121
   4.9959037  45.3987116  61.6917461   4.2401470  46.4661212  62.4542073
   1.1670333  45.4707797  62.3315646   0.8288845  45.3548861  61.4436181
   2.0360102  45.0698962  62.3116652   1.6490116  46.6242648  68.2901851
   1.6378757  46.2295447  67.4182355   1.8110756  45.8908721  68.8835623
   2.6056708  50.9914241  53.6327002   1.9544688  51.5768321  53.2461015
   3.4001071  51.5220436  53.6922039   3.9121896  43.2431822  59.4707329
   4.6984985  42.8251245  59.1197746   4.1760600  44.1477914  59.6388977
   4.0831973  48.6804673  54.1695986   3.4477806  48.7539299  54.8816891
   3.7529379  49.2698271  53.4915065   9.3130323  43.1807055  60.3740308
  10.0455495  42.6106272  60.6078137   8.5569678  42.7928656  60.8146813
   0.9306443  45.6034297  57.5703650   0.5664650  45.0764918  58.2816572
   1.7873558  45.2132766  57.3970135   6.8355743  36.8928630  64.8334916
   6.5039068  37.7624041  64.6096131   6.2401357  36.5764914  65.5128947
   3.3287263  49.0941176  64.2330829   3.0287986  49.9966214  64.1246636
   2.9838322  48.8273359  65.0851982   6.7284406  41.6123716  61.9128266
   5.8201284  41.5439124  61.6187027   6.6772002  42.0895661  62.7410092
   8.5946053  39.8140154  63.6906140   7.9520433  40.1072687  63.0445935
   8.0900981  39.6993074  64.4959337   6.2486217  43.5603327  54.3791999
   7.1604073  43.7930714  54.2039697   5.7395864  44.1440372  53.8167078
   4.5326984  47.9827955  68.0153292   4.9410340  47.5410366  67.2707924
   3.8104246  47.4080583  68.2687485   0.8858054  42.9200562  65.3886849
   1.7319249  43.3439975  65.5321498   0.8256692  42.2634186  66.0825412
   4.8555799  48.5429146  61.7705581   4.2264661  48.7074860  61.0681649
   4.4681461  48.9570755  62.5416545   8.7345031  49.4783584  59.1249945
   8.0496069  49.8582485  58.5746978   8.8188880  50.0878910  59.8581892
   4.0357500  40.5804930  67.0468023   3.7918431  41.3346991  66.5102298
   4.3117430  40.9590278  67.8815270   5.9895962  47.1243543  65.7245288
   6.2012858  47.7675303  65.0479669   5.9425711  46.2905859  65.2567218
   3.5922191  39.7361363  62.6281860   2.7306670  40.0342617  62.9198598
   3.6184626  39.9531762  61.6962893   7.1041790  50.0015498  63.8967646
   7.9259234  49.5995685  63.6150327   7.1004193  49.8983732  64.8483761
  15.1947783  46.3454247  60.2452617  14.4411492  45.7761645  60.0896621
  15.3295325  46.3116911  61.1923252   0.5846411  51.2167649  55.9207336
   0.4492086  52.0619185  56.3492184   1.1256224  51.4186927  55.1573270
   2.2114888  51.8391215  70.0507678   1.7678742  51.0527594  69.7328583
   2.8732101  52.0270366  69.3851569   4.3096126  52.1194015  68.0789080
   4.2914601  52.9402896  67.5869349   5.2316046  51.9948091  68.3039221
   3.9338875  34.7398211  64.4506230   3.5903144  35.6299852  64.3745340
   4.3017838  34.5499868  63.5875815   3.8989158  44.7306822  52.9578665
   3.3835781  45.5011426  53.1967052   3.6266466  44.0571958  53.5811726
   1.4836269  39.5756523  58.0163903   0.6277865  39.1863373  57.8369542
   1.8963220  39.6548483  57.1563689   3.0135415  37.1102866  62.4155463
   2.5100211  37.0733001  61.6023268   3.3066022  38.0195609  62.4752120
   8.8723432  47.4839176  54.8931838   8.0952875  47.1450336  54.4487001
   9.5514913  47.4891800  54.2186803   3.6875461  42.6033914  54.7838446
   3.3825596  42.9180063  55.6348589   4.6405903  42.6815334  54.8265779
   2.1321893  48.7624137  56.4331400   1.6043254  48.0276897  56.1204638
   1.6309395  49.5398814  56.1871368   7.1114739  46.9573158  61.5498446
   6.4538413  47.6472419  61.6378575   7.9155138  47.3469590  61.8932433
   5.9220198  45.3117530  59.6002388   6.4352079  45.9447522  60.1024098
   6.5721421  44.7118726  59.2345748   3.1842572  55.2901855  52.3563059
   2.5104271  55.5933551  52.9648017   3.5708394  56.0930935  52.0068516
   2.4001028  42.7866986  61.8460729   1.4823590  43.0081933  61.6882417
   2.8161172  42.8613296  60.9872436   3.1836076  44.1858402  56.9763409
   3.9307895  44.6979799  56.6670531   3.4527666  43.8642454  57.8367803
   1.4562726  46.6816942  53.9590363   0.5473946  46.3975975  54.0562833
   1.4857810  47.1016021  53.0993670   6.6881994  50.2923532  57.7281531
   6.2344321  49.4514442  57.7846721   6.0575960  50.9284930  58.0656311
   5.6314913  41.2215518  58.9582198   4.8937670  40.7092904  59.2892441
   5.8841687  40.7815900  58.1465475   5.1314933  52.1300029  58.6631349
   5.4237907  52.6905086  57.9443715   5.6413554  52.4228590  59.4184508
   5.7326541  33.9991770  59.5523968   6.0385417  33.1389133  59.2649883
   6.4579145  34.5909390  59.3522961   1.1538814  48.2225686  51.2978442
   0.7158244  47.5061545  50.8384079   1.8949255  48.4501801  50.7363533
   3.5414192  43.3764447  66.6505431   3.8963580  43.6035920  67.5099897
   4.1886323  43.7082824  66.0282687   9.2711929  46.4982883  57.3554760
   9.1329827  46.6884479  56.4275950   8.9148148  47.2602266  57.8122812
   9.2981309  48.5659410  62.3666032   9.7317815  48.4734699  63.2149086
  10.0112889  48.5416911  61.7286048   3.0309203  52.1661504  63.8999132
   3.0846226  52.7352441  64.6676848   2.1623985  52.3363389  63.5353170
  10.1596858  48.6083111  64.8998917  10.3532748  49.5128921  65.1458192
  10.0597476  48.1490530  65.7337502   1.8133169  38.4941001  67.3989245
   1.1661084  39.1930951  67.3053721   2.5834184  38.9277145  67.7665493
   5.2211967  48.7589854  70.4739798   5.0697473  48.5300405  69.5569882
   5.2116646  49.7160455  70.4871143   1.9897303  46.3321766  65.4586064
   2.9189363  46.4832926  65.2855032   1.5688333  46.4205787  64.6034711
   1.3833787  55.4581527  54.5710138   1.5585543  54.9869570  55.3855761
   0.6966575  56.0847293  54.7991399   2.3390850  49.7354033  60.6173440
   2.0040683  49.6954803  61.5131090   1.8394796  49.0698749  60.1443850
   5.2750042  47.0810068  50.8910499   4.6579212  46.3556896  50.7943552
   4.8066530  47.8419428  50.5477574   6.9304173  51.7908976  68.5516280
   6.8716720  51.1068196  67.8846863   7.3323692  52.5327966  68.0996906
   6.9321581  49.7548560  66.7830259   6.0448359  49.4174482  66.9056658
   7.5020132  49.0231591  67.0199025   3.5609164  39.4616412  59.9028530
   4.0577863  38.7086374  59.5829600   2.7896145  39.4980728  59.3371739
  11.4138921  45.1656777  61.5446821  11.4028797  46.0481493  61.1740754
  10.5456301  44.8128328  61.3501358   2.9221418  54.3136846  65.9049661
   3.6349390  54.9484311  65.8325563   2.4311446  54.4100712  65.0889663
   4.6438944  48.2188099  57.4766953   3.7095223  48.3389562  57.3071657
   4.8215613  47.3160566  57.2126963   8.0311496  44.0605418  58.0116987
   8.4971948  44.8933410  57.9377290   8.4818996  43.5950400  58.7162246
   6.0987727  50.4049240  55.0103139   6.3747571  50.2905834  55.9197013
   5.2292226  50.0066724  54.9715312   6.0028159  36.4286005  62.0507888
   5.0891238  36.6590232  62.2190095   6.4321260  36.5124449  62.9021921
   5.7734617  44.6175897  64.5507782   5.1206067  44.8651805  63.8960235
   6.1514997  43.8040035  64.2170260   2.7341791  54.6535590  58.6535953
   2.9164185  53.8357246  59.1163705   3.5574777  54.8703283  58.2160843
   3.0683956  53.5803776  55.9151001   3.5971723  53.0696230  55.3021163
   3.3312176  53.2646306  56.7796534   1.8222190  45.3595708  71.0373820
   1.1462827  45.2589838  71.7076195   2.6449824  45.2034922  71.5009817
   0.5644973  56.6662636  65.2731436   1.1163281  56.8294257  66.0380521
   0.9051166  57.2567074  64.6011460   5.4155847  51.4923893  71.1280090
   5.9595751  52.1053852  70.6335045   4.8342692  52.0503472  71.6447103
   3.7013360  54.6144611  62.2595118   3.5764500  53.8134351  61.7506063
   4.3592451  55.1090805  61.7709088   5.7648269  52.4153631  63.8874668
   4.8178604  52.2958983  63.8152995   6.1131042  51.5276129  63.9700929
   2.7694702  52.2106348  60.0879020   2.6219664  51.2823055  60.2686590
   3.5948195  52.2326438  59.6036095   6.3728824  53.0334906  61.1743893
   7.2975371  52.8277768  61.0368344   6.2044127  52.7851308  62.0833234
   2.7656216  40.0644185  55.0811137   2.9819831  40.9468823  54.7799965
   2.2850283  39.6730399  54.3516779   1.2177951  40.4469787  63.7515899
   0.9595729  41.3686857  63.7500229   0.6862992  40.0500221  64.4416363
   6.1624140  53.5520574  56.5305984   6.3361018  52.9866996  55.7779837
   6.6553031  54.3521469  56.3485474   1.6379907  36.5801737  60.1117061
   1.6601604  36.6441070  59.1569041   2.0547966  35.7406246  60.3057568
  12.0163531  46.3156997  58.1496284  12.4594677  45.5664322  57.7515407
  11.1390041  46.3067133  57.7670016   7.1499312  52.8687338  53.6302883
   7.8450217  53.4894031  53.8490197   7.4922463  52.0182689  53.9055260
   9.0490736  50.3187044  55.1590213   9.5742060  50.6574317  54.4339533
   8.9613088  49.3834059  54.9753348   0.7110784  54.2321117  67.2880090
   1.0197911  53.9870264  68.1602790   1.5086266  54.4367756  66.7998960
   8.7384642  50.9519947  70.4641411   7.9480185  50.9344086  69.9245911
   8.5017996  51.4908241  71.2190448   8.8582517  47.8012414  67.7774140
   8.9080522  47.6362421  68.7189663   8.7496440  46.9339673  67.3872021
   6.1486279  43.7843342  69.0933446   7.0496142  43.6449807  68.8017444
   6.2234254  43.9497797  70.0331624  10.3600714  50.2209355  68.0216161
  10.0685522  50.5839336  68.8579622   9.7472845  49.5076364  67.8429493
  11.5596396  47.7862235  60.5418732  12.3943287  48.2252039  60.7056292
  11.6955525  47.3100888  59.7226977   8.6087902  45.3441970  66.4896219
   9.0842023  45.5369616  65.6815071   7.6853467  45.4001156  66.2439603
   3.1868118  37.3789813  65.4552053   3.7050062  38.1150840  65.1298542
   2.8323251  37.6853807  66.2898812   3.4380712  33.7990096  60.9752950
   3.7182466  33.1313285  61.6013376   4.2231319  33.9919192  60.4627614
   1.2414181  52.9749090  52.5377976   0.6688148  53.5939277  52.0848448
   1.8146975  53.5248452  53.0717898   7.3089571  42.2207730  64.7224525
   8.2606994  42.3205828  64.7436749   7.1393021  41.4285999  65.2322609
   5.3303950  39.3063313  64.9083926   4.7353882  39.5868326  64.2130414
   5.0453647  39.7957214  65.6800667   4.4611441  53.2586240  53.6686558
   5.3942114  53.1931802  53.8719434   4.3734654  54.0942507  53.2101091
   7.0899457  52.5752110  50.6290506   7.0113089  52.2411974  51.5226264
   7.9109124  53.0673878  50.6281978   9.7877649  45.4413850  63.8366825
   9.7553969  44.5029850  64.0226508  10.3978272  45.5197886  63.1032649
   1.6260979  44.3109903  49.8794029   2.5720084  44.1816111  49.9482447
   1.2475224  43.5724565  50.3563457   9.9372137  42.2324893  63.8825108
   9.4211186  41.4483350  63.6955037  10.8212086  41.9043610  64.0471627
   7.5982864  35.9765909  59.8420920   7.4007685  35.6680997  60.7264252
   8.2082570  36.7027548  59.9718850  15.6054198  46.5029857  62.9772861
  16.3357587  46.2415145  63.5380565  14.9961144  45.7658578  63.0174929
  13.6869496  44.6437719  63.5747313  12.9602659  44.5093684  62.9663804
  13.2716782  44.9514548  64.3804031   1.5099672  48.3627649  71.3394686
   2.4302681  48.5406248  71.5334732   1.4749255  47.4183694  71.1874385
   1.4265962  36.7796769  55.9693155   0.6166691  36.4343854  56.3448401
   2.1150379  36.4704312  56.5580767   3.3556511  35.8574816  57.5917452
   3.9087549  36.2770269  58.2507475   3.5926597  34.9310564  57.6340408
   6.7335318  37.9675341  57.0996116   6.1533987  38.6260145  56.7174168
   6.4671250  37.1452685  56.6883534   5.1838884  37.3680398  59.3017436
   5.6838662  37.4796933  58.4931755   5.8274492  37.0641451  59.9418245
   5.5160196  40.1275431  56.1552464   4.6286051  40.4125082  55.9372659
   5.9314185  39.9669194  55.3079741   8.8674732  40.1521952  59.8706804
   9.6435122  40.6418405  60.1431420   8.1422866  40.5780006  60.3278673
  11.3047290  40.8649571  60.9280744  11.8991781  40.6245307  60.2174052
  11.3773874  40.1456702  61.5554280   4.6603409  49.8920106  50.2500484
   5.3639259  50.0970108  50.8658140   3.9366058  50.4596868  50.5149568
   5.4901219  45.6429967  56.3702754   5.4336421  46.0998518  55.5310387
   6.0429562  44.8820652  56.1925597   9.3006025  41.4319699  57.1952874
   9.0442960  41.0316335  58.0261082   8.6758893  42.1463493  57.0703013
  13.6118363  44.1715772  59.7024165  13.0517921  44.2408961  60.4755727
  13.0061867  43.9956757  58.9823662   6.5690107  50.3302635  52.2998944
   7.4035711  49.8983833  52.1176419   6.4074449  50.1584649  53.2275839
   6.2235999  46.8334748  53.6655284   6.1684803  46.6679020  52.7243728
   5.5982054  47.5410781  53.8217473   3.5381906  49.1383660  72.9908846
   4.4073066  49.3124312  72.6295481   3.0588657  49.9578077  72.8684576
   3.3484244  32.9285634  57.4986539   2.5816639  32.3744121  57.6443221
   3.7594949  33.0007503  58.3600690  15.1974382  60.8472286  62.3954121
  15.8352792  60.7279033  61.6917461  15.0795225  61.7953130  62.4542073
  12.0064088  60.7999714  62.3315646  11.6682599  60.6840779  61.4436181
  12.8753856  60.3990879  62.3116652   7.8650904  62.6535191  58.3212537
   7.3015769  62.5625128  57.5528824   7.7503299  61.8335095  58.8015029
  12.4883871  61.9534566  68.2901851  12.4772512  61.5587364  67.4182355
  12.6504510  61.2200639  68.8835623   5.4115336  64.1486382  61.1596757
   6.2036627  63.8077207  60.7443056   5.6511986  64.2581357  62.0798910
  13.4450462  66.3206158  53.6327002  12.7938442  66.9060239  53.2461015
  14.2394825  66.8512353  53.6922039   7.3706090  63.4095295  54.0314136
   8.1436966  62.8624283  53.8927012   7.7231488  64.2739545  54.2428597
   9.2091132  64.7371678  67.2381035   8.9180998  65.6417309  67.1227702
   9.8448116  64.7788205  67.9525105  10.1347339  62.1148526  63.8282395
  10.7310911  61.8904549  63.1139358  10.1922310  61.3733272  64.4307843
   9.7072367  59.5687962  51.6632586   9.9597888  59.0469483  50.9016049
   8.7696926  59.4054107  51.7659269  14.7515650  58.5723740  59.4707329
  15.5378739  58.1543163  59.1197746  15.0154354  59.4769832  59.6388977
  14.9225728  64.0096590  54.1695986  14.2871560  64.0831217  54.8816891
  14.5923134  64.5990189  53.4915065  20.1524077  58.5098973  60.3740308
  20.8849249  57.9398190  60.6078137  19.3963433  58.1220574  60.8146813
   9.4268656  61.4716068  53.8656961   9.3104914  60.7960971  54.5338045
   9.5370916  60.9848441  53.0489114  11.7700197  60.9326215  57.5703650
  11.4058404  60.4056836  58.2816572  12.6267313  60.5424684  57.3970135
  17.6749498  52.2220547  64.8334916  17.3432822  53.0915958  64.6096131
  17.0795111  51.9056831  65.5128947  11.4105684  55.9616114  52.5664999
  11.5780086  56.8296351  52.9335470  11.2202853  56.1243396  51.6426288
  14.1681017  64.4233093  64.2330829  13.8681740  65.3258132  64.1246636
  13.8232077  64.1565276  65.0851982   7.6193499  60.8746890  60.2667533
   6.6943995  60.7423104  60.4745225   7.8677912  61.6541109  60.7637476
  17.5678161  56.9415633  61.9128266  16.6595038  56.8731042  61.6187027
  17.5165757  57.4187578  62.7410092  11.3894905  58.4173772  53.5511665
  11.2694530  58.8630823  54.3897146  10.6947493  58.7659090  52.9925204
   4.9802310  60.5180164  61.1011322   5.1094691  60.7714643  62.0150734
   4.2999761  61.1107872  60.7815978   9.1501797  71.1877414  57.2001797
   9.0725827  72.1385239  57.2790277   8.5463441  70.8423286  57.8576723
  11.6419027  58.3605279  69.8563164  10.8652361  58.9199199  69.8466028
  12.2809590  58.8462062  70.3778034  19.4339807  55.1432072  63.6906140
  18.7914188  55.4364605  63.0445935  18.9294736  55.0284992  64.4959337
  17.0879971  58.8895245  54.3791999  17.9997827  59.1222632  54.2039697
  16.5789618  59.4732289  53.8167078   9.8965399  61.1690732  69.4181131
  10.6380083  61.7075776  69.1415954   9.1902385  61.7957021  69.5752682
  15.3720739  63.3119873  68.0153292  15.7804095  62.8702283  67.2707924
  14.6498000  62.7372500  68.2687485  11.7251809  58.2492480  65.3886849
  12.5713004  58.6731893  65.5321498  11.6650446  57.5926104  66.0825412
  15.6949553  63.8721063  61.7705581  15.0658416  64.0366778  61.0681649
  15.3075215  64.2862673  62.5416545  19.5738785  64.8075501  59.1249945
  18.8889823  65.1874403  58.5746978  19.6582635  65.4170828  59.8581892
  14.8751254  55.9096848  67.0468023  14.6312186  56.6638908  66.5102298
  15.1511185  56.2882196  67.8815270  16.8289717  62.4535460  65.7245288
  17.0406612  63.0967220  65.0479669  16.7819465  61.6197777  65.2567218
  14.4315946  55.0653281  62.6281860  13.5700425  55.3634535  62.9198598
  14.4578380  55.2823680  61.6962893  11.2477515  63.6095472  59.0355666
  11.7115861  63.8883175  58.2460289  10.9834313  62.7078916  58.8528757
   8.1401596  63.1566953  61.9735429   8.7102953  63.5854221  61.3352914
   8.7309708  62.8749538  62.6719615  10.1846401  59.7318624  55.8445231
  10.8870445  60.1839668  56.3119158   9.8527030  59.0902443  56.4725124
   8.6326763  58.3230381  70.2196441   8.0025423  59.0046661  70.4531837
   8.5262851  58.2113462  69.2749579   3.9271735  57.9902177  61.1462365
   3.1370789  58.2459705  60.6702475   4.4182983  58.8050514  61.2514405
  17.9435545  65.3307416  63.8967646  18.7652989  64.9287603  63.6150327
  17.9397948  65.2275650  64.8483761   5.8786481  58.3546756  58.1045841
   5.0817644  58.4665450  58.6229337   5.6512073  58.6933408  57.2386732
  11.7092148  64.8791459  66.0528356  11.7736581  65.3411866  66.8886528
  11.0003072  64.2488824  66.1810666   2.2109438  58.2432667  63.5777356
   2.4617477  59.1279677  63.8434931   2.7468987  58.0637269  62.8052447
  26.0341538  61.6746164  60.2452617  25.2805246  61.1053562  60.0896621
  26.1689079  61.6408829  61.1923252  11.4240166  66.5459567  55.9207336
  11.2885841  67.3911102  56.3492184  11.9649978  66.7478844  55.1573270
   7.9107506  52.6251146  72.5821692   7.5174451  52.0717345  73.2569336
   8.7273646  52.9361725  72.9728209   4.8769563  64.0635005  56.4935261
   5.3894084  64.8578255  56.6440826   5.5292276  63.3661295  56.4268863
   6.6864448  67.1800761  58.5758015   6.8631076  68.1018726  58.3878999
   7.4821281  66.8659180  59.0052394  10.8275467  54.0409025  70.1741948
  11.5685180  54.6416179  70.0946411  11.0593389  53.2986663  69.6159991
   5.9716805  59.2265393  68.4520178   5.8570320  58.3250650  68.7527277
   5.1161322  59.4729090  68.1004994  13.0508642  67.1683133  70.0507678
  12.6072496  66.3819512  69.7328583  13.7125856  67.3562284  69.3851569
   7.8095763  68.6978935  64.5768357   8.3603189  68.5695998  63.8045351
   6.9707239  68.9973824  64.2263250  15.1489880  67.4485933  68.0789080
  15.1308356  68.2694814  67.5869349  16.0709800  67.3240008  68.3039221
  11.6062934  64.9630062  68.9212588  12.1391271  64.2018351  68.6911896
  11.0777016  64.6703714  69.6636743  14.7732629  50.0690128  64.4506230
  14.4296899  50.9591770  64.3745340  15.1411592  49.8791786  63.5875815
   2.8418480  62.3923659  57.2694832   3.6793702  62.8020667  57.0528540
   3.0196748  61.4523101  57.2395026  14.7382912  60.0598740  52.9578665
  14.2229536  60.8303344  53.1967052  14.4660221  59.3863876  53.5811726
  12.3230023  54.9048440  58.0163903  11.4671620  54.5155291  57.8369542
  12.7356975  54.9840401  57.1563689  13.8529170  52.4394784  62.4155463
  13.3493965  52.4024919  61.6023268  14.1459777  53.3487526  62.4752120
  10.0972056  52.5233513  61.4221645  10.9625052  52.3276322  61.0627534
  10.1649565  52.2943865  62.3491002  19.7117186  62.8131094  54.8931838
  18.9346629  62.4742254  54.4487001  20.3908667  62.8183717  54.2186803
  14.5269215  57.9325832  54.7838446  14.2219351  58.2471981  55.6348589
  15.4799657  58.0107252  54.8265779  12.9715647  64.0916055  56.4331400
  12.4437009  63.3568815  56.1204638  12.4703150  64.8690731  56.1871368
  17.9508493  62.2865075  61.5498446  17.2932168  62.9764337  61.6378575
  18.7548892  62.6761507  61.8932433   7.7034375  54.7535721  58.7938012
   8.2778127  54.5310903  58.0611205   8.2905357  54.8224416  59.5466613
  16.7613952  60.6409448  59.6002388  17.2745834  61.2739440  60.1024098
  17.4115176  60.0410644  59.2345748   8.0303962  56.7840182  52.8133897
   7.1941274  57.1214869  53.1343172   7.8908732  56.6489162  51.8761034
  10.0057043  51.6276970  57.5213081   9.3521455  51.3125987  56.8969696
   9.9637517  51.0052711  58.2472904  11.1168247  61.9096265  49.4366373
  10.2095309  61.6785519  49.6357522  11.6139279  61.1133884  49.6240355
  14.0236326  70.6193772  52.3563059  13.3498025  70.9225469  52.9648017
  14.4102148  71.4222853  52.0068516  13.2394783  58.1158904  61.8460729
  12.3217344  58.3373851  61.6882417  13.6554926  58.1905214  60.9872436
  14.0229831  59.5150319  56.9763409  14.7701650  60.0271717  56.6670531
  14.2921420  59.1934372  57.8367803  12.2956481  62.0108860  53.9590363
  11.3867700  61.7267893  54.0562833  12.3251565  62.4307939  53.0993670
  17.5275748  65.6215450  57.7281531  17.0738075  64.7806359  57.7846721
  16.8969715  66.2576848  58.0656311  16.4708668  56.5507436  58.9582198
  15.7331425  56.0384822  59.2892441  16.7235441  56.1107817  58.1465475
  15.9708687  67.4591946  58.6631349  16.2631662  68.0197003  57.9443715
  16.4807308  67.7520507  59.4184508  16.5720295  49.3283688  59.5523968
  16.8779172  48.4681051  59.2649883  17.2972900  49.9201308  59.3522961
   2.8644651  59.7314374  57.9405565   2.6669051  59.1383735  57.2156632
   2.3091315  59.4266584  58.6581504  10.8441375  59.6237481  60.0600159
  10.8989985  58.6711317  59.9842635  10.0332577  59.7796920  60.5441457
  11.9932569  63.5517604  51.2978442  11.5551999  62.8353463  50.8384079
  12.7343009  63.7793719  50.7363533   8.7833735  58.2414540  57.8190537
   7.9701600  58.5408711  58.2255730   9.2792729  57.8470229  58.5365020
  10.9342313  68.2372297  59.7524802  10.8918491  68.4633144  58.8233334
  11.8505012  68.0035672  59.9010603  14.3807946  58.7056365  66.6505431
  14.7357334  58.9327838  67.5099897  15.0280078  59.0374742  66.0282687
  20.1105683  61.8274801  57.3554760  19.9723582  62.0176397  56.4275950
  19.7541902  62.5894184  57.8122812   8.2747810  55.8132896  63.4351772
   8.9147189  55.6721655  62.7374736   7.4425340  55.5267409  63.0590374
  20.1375063  63.8951328  62.3666032  20.5711570  63.8026617  63.2149086
  20.8506644  63.8708828  61.7286048   9.0508113  65.1135326  59.5486765
   9.8448712  64.6185646  59.3469340   8.3399806  64.5853189  59.1854470
  13.8702958  67.4953422  63.8999132  13.9239980  68.0644358  64.6676848
  13.0017739  67.6655307  63.5353170   5.3590877  59.2578408  55.6246518
   4.4288465  59.1962864  55.8416480   5.4548349  58.7354361  54.8283159
   5.2776426  55.7833221  58.2124759   5.5383243  56.6978554  58.1033920
   6.0993598  55.3157663  58.3621372   6.7501351  57.1970978  65.3823584
   7.4224405  56.9888340  64.7336233   5.9231138  56.9993064  64.9428816
  20.9990613  63.9375028  64.8998917  21.1926503  64.8420839  65.1458192
  20.8991231  63.4782448  65.7337502  12.6526923  53.8232919  67.3989245
  12.0054838  54.5222869  67.3053721  13.4227939  54.2569063  67.7665493
  16.0605721  64.0881771  70.4739798  15.9091228  63.8592323  69.5569882
  16.0510401  65.0452373  70.4871143  12.8291058  61.6613684  65.4586064
  13.7583118  61.8124844  65.2855032  12.4082088  61.7497705  64.6034711
  11.6279389  65.6864348  63.2284602  11.4890475  65.3183133  64.1010540
  10.8393986  66.2011988  63.0568560  12.2227541  70.7873445  54.5710138
  12.3979297  70.3161488  55.3855761  11.5360329  71.4139211  54.7991399
  13.1784605  65.0645951  60.6173440  12.8434437  65.0246721  61.5131090
  12.6788550  64.3990667  60.1443850   7.1528849  60.4713581  66.1426021
   7.0148646  59.7393820  66.7437560   8.0633772  60.3822481  65.8610209
  16.1143796  62.4101985  50.8910499  15.4972967  61.6848814  50.7943552
  15.6460285  63.1711346  50.5477574   9.7811149  60.1833540  65.6309701
  10.4910768  59.5426733  65.5896319   9.7380457  60.4346435  66.5535881
  17.7697928  67.1200894  68.5516280  17.7110474  66.4360114  67.8846863
  18.1717446  67.8619884  68.0996906   8.4940083  57.1698758  67.4505340
   7.9577440  56.7189497  68.1026936   7.9056792  57.3044667  66.7075804
   6.7888627  73.9362808  61.3449999   7.0285225  74.5681332  62.0229017
   5.9457823  73.5850848  61.6315358   7.9042342  56.6287410  50.0131804
   7.0271808  56.5076210  49.6494050   8.3800095  55.8373488  49.7610692
  17.7715335  65.0840478  66.7830259  16.8842114  64.7466399  66.9056658
  18.3413886  64.3523509  67.0199025   4.2279204  56.3054766  64.5358335
   4.1437393  55.6980436  63.8008744   3.4061911  56.7963784  64.5367831
  11.3016489  69.7441930  63.7491503  11.2286660  70.5496902  64.2610807
  10.8593882  69.9433896  62.9239524  11.0906268  68.9813700  57.2594324
  10.3073790  69.5235380  57.3532549  11.7899013  69.4987680  57.6588565
  14.4002918  54.7908330  59.9028530  14.8971618  54.0378292  59.5829600
  13.6289900  54.8272646  59.3371739  22.2532676  60.4948695  61.5446821
  22.2422552  61.3773410  61.1740754  21.3850055  60.1420246  61.3501358
  13.7615172  69.6428764  65.9049661  14.4743144  70.2776229  65.8325563
  13.2705201  69.7392630  65.0889663  15.4832699  63.5480017  57.4766953
  14.5488978  63.6681479  57.3071657  15.6609367  62.6452484  57.2126963
  10.9837887  56.9325713  59.6300214  10.6135675  56.3796753  60.3181120
  11.4796979  56.3283846  59.0775214  18.8705250  59.3897336  58.0116987
  19.3365703  60.2225328  57.9377290  19.3212751  58.9242318  58.7162246
   8.8127086  67.3923208  66.7255232   9.5136545  68.0259690  66.8784626
   8.3422201  67.7337939  65.9650871  16.9381481  65.7341157  55.0103139
  17.2141325  65.6197752  55.9197013  16.0685980  65.3358642  54.9715312
  16.8421913  51.7577923  62.0507888  15.9284993  51.9882150  62.2190095
  17.2715015  51.8416367  62.9021921  16.6128372  59.9467815  64.5507782
  15.9599822  60.1943722  63.8960235  16.9908751  59.1331953  64.2170260
  13.5735545  69.9827508  58.6535953  13.7557940  69.1649164  59.1163705
  14.3968531  70.1995200  58.2160843  13.9077711  68.9095693  55.9151001
  14.4365477  68.3988148  55.3021163  14.1705931  68.5938223  56.7796534
  12.6615945  60.6887626  71.0373820  11.9856582  60.5881755  71.7076195
  13.4843578  60.5326840  71.5009817   4.4094804  66.9259563  63.6586335
   4.9948240  66.1803250  63.7914239   4.2119642  67.2363519  64.5422999
   7.2633459  69.9610810  58.6748777   6.5943834  70.4456938  58.1912817
   7.1246329  70.2080030  59.5892156  11.4038727  71.9954553  65.2731436
  11.9557035  72.1586175  66.0380521  11.7444921  72.5858991  64.6011460
   6.3803221  54.3429703  65.8753320   6.4444547  55.2044534  65.4630718
   6.3170341  53.7303705  65.1425679   5.8555493  56.4152836  69.5226355
   6.4827532  56.0329913  70.1363879   4.9983412  56.1967038  69.8882047
  16.2549602  66.8215811  71.1280090  16.7989506  67.4345769  70.6335045
  15.6736447  67.3795389  71.6447103   2.6321036  58.2229265  55.4544709
   2.9274477  57.3139943  55.4011763   1.7309072  58.2017004  55.1325712
  14.5407115  69.9436529  62.2595118  14.4158254  69.1426269  61.7506063
  15.1986206  70.4382722  61.7709088   6.1615283  56.2985261  61.4372258
   5.4401869  56.9121229  61.2979731   6.9508539  56.8343026  61.3588904
  16.6042023  67.7445549  63.8874668  15.6572359  67.6250900  63.8152995
  16.9524796  66.8568047  63.9700929   8.9641597  53.6339688  67.7112910
   9.4875998  53.8801985  68.4739219   8.7453930  54.4659723  67.2916047
   4.3608878  55.9043363  55.5784034   4.0321584  55.0240742  55.3959140
   4.7148248  55.8491031  56.4660424  13.6088456  67.5398265  60.0879020
  13.4613419  66.6114973  60.2686590  14.4341950  67.5618356  59.6036095
   7.4750701  56.1916332  55.9459512   7.8146773  56.7202254  55.2238121
   7.9222821  56.5296739  56.7218079  17.2122578  68.3626824  61.1743893
  18.1369126  68.1569685  61.0368344  17.0437882  68.1143225  62.0833234
  10.1694142  54.5753383  65.3962580   9.8290962  53.7761196  65.7983260
   9.4633148  54.8755094  64.8239413  10.8210613  51.6602696  63.8489903
  11.6436683  51.1863174  63.7268794  11.0648677  52.4393179  64.3488590
   9.4618848  54.6890954  54.1452805  10.1827210  55.0672207  53.6416522
   8.8384152  55.4079831  54.2487783  13.6049971  55.3936103  55.0811137
  13.8213585  56.2760741  54.7799965  13.1244038  55.0022316  54.3516779
   8.3449192  58.3521816  61.6581882   8.1993773  58.6662119  62.5506163
   7.8674396  58.9706717  61.1052781  10.2045575  55.3424364  61.7062771
  10.1907144  54.4465457  61.3695069  10.9218003  55.3495028  62.3401057
  12.0571706  55.7761704  63.7515899  11.7989484  56.6978775  63.7500229
  11.5256746  55.3792139  64.4416363  17.0017894  68.8812491  56.5305984
  17.1754772  68.3158914  55.7779837  17.4946786  69.6813386  56.3485474
   2.8194854  60.8927161  64.5969543   2.2748322  61.6686969  64.7289817
   3.6974204  61.2397965  64.4388664   9.6082471  54.2238744  56.9750342
   9.7298382  53.2955391  57.1741229   9.3184513  54.2377430  56.0628657
  12.4773661  51.9093655  60.1117061  12.4995358  51.9732988  59.1569041
  12.8941720  51.0698164  60.3057568  22.8557286  61.6448914  58.1496284
  23.2988432  60.8956240  57.7515407  21.9783796  61.6359051  57.7670016
  17.9893067  68.1979256  53.6302883  18.6843972  68.8185949  53.8490197
  18.3316217  67.3474607  53.9055260   3.6060876  60.0197057  67.4899700
   2.8642612  60.1679692  68.0764330   3.2853620  60.2805322  66.6266449
  19.8884490  65.6478961  55.1590213  20.4135814  65.9866234  54.4339533
  19.8006843  64.7125977  54.9753348  11.5504539  69.5613035  67.2880090
  11.8591665  69.3162182  68.1602790  12.3480021  69.7659674  66.7998960
  11.5725151  71.7150945  59.5185466  11.1330141  71.2227323  60.2118323
  12.3233268  71.1723912  59.2777542   4.0517490  67.9062486  59.5210095
   4.8775510  67.6066257  59.1408738   3.7011542  67.1370108  59.9699883
   9.0199023  67.2588954  61.5907768   8.3979032  66.5959659  61.2909996
   9.6903890  67.2850086  60.9081416   2.2526095  65.8248812  60.4799028
   1.4158003  65.3970986  60.2983029   2.2249740  66.0181255  61.4169819
   9.0923550  55.7370742  71.1840274   9.1411706  56.6132865  70.8018044
   9.6346065  55.1948135  70.6111917  19.5778396  66.2811865  70.4641411
  18.7873940  66.2636004  69.9245911  19.3411751  66.8200159  71.2190448
  19.6976271  63.1304331  67.7774140  19.7474276  62.9654339  68.7189663
  19.5890195  62.2631590  67.3872021   8.5812530  65.8092877  55.0666229
   8.7300650  66.4928342  54.4132901   9.3878973  65.7897967  55.5815684
  16.9880034  59.1135259  69.0933446  17.8889896  58.9741724  68.8017444
  17.0628008  59.2789714  70.0331624  11.3222839  56.4902114  67.9386633
  10.4526148  56.7835680  67.6669221  11.5582319  57.0742559  68.6593896
  21.1994468  65.5501273  68.0216161  20.9079276  65.9131253  68.8579622
  20.5866599  64.8368281  67.8429493  22.3990150  63.1154153  60.5418732
  23.2337042  63.5543957  60.7056292  22.5349279  62.6392806  59.7226977
  19.4481656  60.6733888  66.4896219  19.9235778  60.8661534  65.6815071
  18.5247222  60.7293073  66.2439603   6.3365163  61.8358055  56.0727298
   6.0911205  60.9320385  56.2707508   6.5061077  61.8375205  55.1306776
  14.0261873  52.7081731  65.4552053  14.5443817  53.4442758  65.1298542
  13.6717006  53.0145724  66.2898812   5.6060810  57.5686412  53.5713459
   4.9130055  57.6430767  52.9153495   5.3612562  56.8046756  54.0934976
  14.2774467  49.1282014  60.9752950  14.5576221  48.4605203  61.6013376
  15.0625074  49.3211109  60.4627614  12.0807935  68.3041008  52.5377976
  11.5081903  68.9231195  52.0848448  12.6540729  68.8540369  53.0717898
  18.1483325  57.5499648  64.7224525  19.1000748  57.6497745  64.7436749
  17.9786776  56.7577916  65.2322609  16.1697705  54.6355231  64.9083926
  15.5747637  54.9160244  64.2130414  15.8847401  55.1249132  65.6800667
  15.3005195  68.5878158  53.6686558  16.2335868  68.5223719  53.8719434
  15.2128408  69.4234425  53.2101091  17.9293212  67.9044028  50.6290506
  17.8506843  67.5703892  51.5226264  18.7502879  68.3965796  50.6281978
  20.6271403  60.7705767  63.8366825  20.5947723  59.8321768  64.0226508
  21.2372027  60.8489804  63.1032649  12.4654734  59.6401820  49.8794029
  13.4113839  59.5108028  49.9482447  12.0868979  58.9016482  50.3563457
  20.7765892  57.5616811  63.8825108  20.2604940  56.7775267  63.6955037
  21.6605840  57.2335527  64.0471627  18.4376618  51.3057826  59.8420920
  18.2401440  50.9972915  60.7264252  19.0476324  52.0319465  59.9718850
  26.4447953  61.8321774  62.9772861  27.1751341  61.5707062  63.5380565
  25.8354898  61.0950496  63.0174929  24.5263250  59.9729637  63.5747313
  23.7996414  59.8385602  62.9663804  24.1110537  60.2806465  64.3804031
  12.3493426  63.6919566  71.3394686  13.2696436  63.8698165  71.5334732
  12.3143009  62.7475612  71.1874385  10.6497651  57.5651797  49.8148914
   9.7429106  57.2684909  49.8911627  10.9273632  57.2681615  48.9483200
   1.5675591  58.8858160  60.2647960   1.2478376  58.0323468  59.9722334
   1.0209020  59.1006738  61.0205928   5.3455499  61.6020601  63.9817467
   5.5641509  62.5337709  64.0005501   5.7581273  61.2428576  64.7672271
  12.2659717  52.1088686  55.9693155  11.4560445  51.7635771  56.3448401
  12.9544134  51.7996230  56.5580767  14.1950265  51.1866733  57.5917452
  14.7481304  51.6062187  58.2507475  14.4320351  50.2602481  57.6340408
  10.2183364  57.1753807  73.3720216  10.1180091  58.1248164  73.3032307
  10.0004906  56.8472046  72.4996286   9.4196436  54.4238732  49.9560893
  10.2815600  54.7493630  50.2156710   9.6046780  53.6370228  49.4433959
   1.4363851  62.5061072  62.2341082   0.7427323  62.0915024  61.7211036
   2.1836842  62.5481608  61.6374501  17.5729072  53.2967258  57.0996116
  16.9927741  53.9552062  56.7174168  17.3065005  52.4744603  56.6883534
  16.0232639  52.6972316  59.3017436  16.5232417  52.8088851  58.4931755
  16.6668246  52.3933369  59.9418245  10.0814634  60.6050946  72.1885277
   9.5981716  61.4051306  72.3949166  10.1675573  60.6158891  71.2352721
   3.3500594  62.4379325  60.1107097   3.3271282  62.5367013  59.1588980
   3.6601230  63.2844476  60.4324263   6.0087972  64.4955480  64.2253711
   6.9631225  64.4639423  64.1583643   5.8100495  64.0346104  65.0403937
   6.5987354  63.0656596  66.7924509   7.4180243  63.5600675  66.8159346
   6.8724162  62.1488565  66.7642076  16.3553950  55.4567349  56.1552464
  15.4679805  55.7416999  55.9372659  16.7707939  55.2961112  55.3079741
  19.7068486  55.4813870  59.8706804  20.4828876  55.9710322  60.1431420
  18.9816620  55.9071924  60.3278673  22.1441045  56.1941489  60.9280744
  22.7385536  55.9537225  60.2174052  22.2167629  55.4748620  61.5554280
   4.3638201  70.0375100  61.2423909   4.2292669  69.2775501  60.6761907
   3.9470263  70.7616000  60.7752698  15.4997164  65.2212023  50.2500484
  16.2033014  65.4262026  50.8658140  14.7759812  65.7888785  50.5149568
  16.3294974  60.9721885  56.3702754  16.2730175  61.4290436  55.5310387
  16.8823316  60.2112569  56.1925597  20.1399780  56.7611617  57.1952874
  19.8836714  56.3608252  58.0261082  19.5152648  57.4755411  57.0703013
  24.4512118  59.5007690  59.7024165  23.8911676  59.5700879  60.4755727
  23.8455621  59.3248674  58.9823662   7.5207327  70.9344417  61.4542352
   7.4039711  71.8789849  61.3521042   6.6999773  70.6317978  61.8428151
  17.4083861  65.6594553  52.2998944  18.2429465  65.2275751  52.1176419
  17.2468204  65.4876566  53.2275839  17.0629753  62.1626666  53.6655284
  17.0078557  61.9970937  52.7243728  16.4375809  62.8702699  53.8217473
   1.8522268  57.3994730  67.4916706   2.4981132  56.8893684  67.9803931
   1.6439419  58.1363412  68.0660131  14.3775660  64.4675578  72.9908846
  15.2466820  64.6416230  72.6295481  13.8982412  65.2869995  72.8684576
  10.3725879  51.6634775  53.2440602  10.3604549  52.6076615  53.4008873
  11.2649301  51.4804920  52.9500063   8.5461841  71.5872679  64.6698280
   9.4489087  71.6196289  64.9864775   8.3199211  70.6573130  64.6844616
  10.3015443  70.3403665  61.3308359   9.3511074  70.3405527  61.2172731
  10.6047929  69.5936400  60.8144393  14.1877998  48.2577552  57.4986539
  13.4210394  47.7036038  57.6443221  14.5988703  48.3299420  58.3600690
   6.1919759  54.5462347  71.5891720   7.0551221  54.1899152  71.7995045
   5.6185170  54.2076242  72.2767124  18.7044658  77.9827108  58.3212537
  18.1409523  77.8917045  57.5528824  18.5897053  77.1627013  58.8015029
  16.2509090  79.4778300  61.1596757  17.0430382  79.1369125  60.7443056
  16.4905740  79.5873275  62.0798910  24.2844217  81.6498076  53.6327002
  23.6332197  82.2352156  53.2461015  25.0788580  82.1804271  53.6922039
  18.2099844  78.7387213  54.0314136  18.9830720  78.1916200  53.8927012
  18.5625243  79.6031462  54.2428597  20.0484887  80.0663595  67.2381035
  19.7574753  80.9709226  67.1227702  20.6841871  80.1080123  67.9525105
  20.9741093  77.4440444  63.8282395  21.5704666  77.2196466  63.1139358
  21.0316065  76.7025189  64.4307843  20.5466122  74.8979879  51.6632586
  20.7991643  74.3761401  50.9016049  19.6090681  74.7346025  51.7659269
  25.7619482  79.3388508  54.1695986  25.1265315  79.4123134  54.8816891
  25.4316888  79.9282107  53.4915065  20.2662411  76.8007985  53.8656961
  20.1498669  76.1252889  54.5338045  20.3764670  76.3140359  53.0489114
  22.6093951  76.2618132  57.5703650  22.2452159  75.7348753  58.2816572
  23.4661067  75.8716601  57.3970135  22.2499438  71.2908032  52.5664999
  22.4173841  72.1588268  52.9335470  22.0596608  71.4535314  51.6426288
  25.0074772  79.7525011  64.2330829  24.7075495  80.6550050  64.1246636
  24.6625831  79.4857194  65.0851982  18.4587253  76.2038808  60.2667533
  17.5337750  76.0715022  60.4745225  18.7071666  76.9833027  60.7637476
  22.2288659  73.7465689  53.5511665  22.1088285  74.1922740  54.3897146
  21.5341248  74.0951007  52.9925204  15.8196064  75.8472081  61.1011322
  15.9488445  76.1006560  62.0150734  15.1393515  76.4399789  60.7815978
  19.9895551  86.5169331  57.2001797  19.9119581  87.4677156  57.2790277
  19.3857195  86.1715204  57.8576723  27.9273726  74.2187163  54.3791999
  28.8391582  74.4514549  54.2039697  27.4183373  74.8024207  53.8167078
  20.7359154  76.4982650  69.4181131  21.4773838  77.0367694  69.1415954
  20.0296139  77.1248939  69.5752682  26.5343308  79.2012981  61.7705581
  25.9052170  79.3658695  61.0681649  26.1468970  79.6154591  62.5416545
  30.4132540  80.1367419  59.1249945  29.7283578  80.5166320  58.5746978
  30.4976389  80.7462746  59.8581892  22.0871270  78.9387389  59.0355666
  22.5509615  79.2175092  58.2460289  21.8228068  78.0370834  58.8528757
  18.9795351  78.4858871  61.9735429  19.5496708  78.9146139  61.3352914
  19.5703463  78.2041455  62.6719615  21.0240156  75.0610542  55.8445231
  21.7264199  75.5131585  56.3119158  20.6920784  74.4194360  56.4725124
  19.4720517  73.6522298  70.2196441  18.8419178  74.3338579  70.4531837
  19.3656605  73.5405380  69.2749579  14.7665490  73.3194094  61.1462365
  13.9764544  73.5751623  60.6702475  15.2576737  74.1342432  61.2514405
  28.7829299  80.6599333  63.8967646  29.6046743  80.2579521  63.6150327
  28.7791702  80.5567568  64.8483761  16.7180235  73.6838674  58.1045841
  15.9211398  73.7957368  58.6229337  16.4905827  74.0225326  57.2386732
  22.5485903  80.2083377  66.0528356  22.6130335  80.6703784  66.8886528
  21.8396827  79.5780742  66.1810666  13.0503193  73.5724585  63.5777356
  13.3011231  74.4571595  63.8434931  13.5862741  73.3929186  62.8052447
  22.2633920  81.8751484  55.9207336  22.1279595  82.7203020  56.3492184
  22.8043733  82.0770762  55.1573270  18.7501260  67.9543064  72.5821692
  18.3568206  67.4009263  73.2569336  19.5667400  68.2653643  72.9728209
  15.7163318  79.3926922  56.4935261  16.2287838  80.1870173  56.6440826
  16.3686031  78.6953213  56.4268863  17.5258202  82.5092679  58.5758015
  17.7024831  83.4310643  58.3878999  18.3215036  82.1951098  59.0052394
  21.6669221  69.3700943  70.1741948  22.4078934  69.9708096  70.0946411
  21.8987144  68.6278581  69.6159991  16.8110559  74.5557310  68.4520178
  16.6964074  73.6542568  68.7527277  15.9555077  74.8021007  68.1004994
  23.8902397  82.4975051  70.0507678  23.4466251  81.7111429  69.7328583
  24.5519610  82.6854201  69.3851569  18.6489518  84.0270852  64.5768357
  19.1996943  83.8987916  63.8045351  17.8100994  84.3265741  64.2263250
  25.9883635  82.7777851  68.0789080  25.9702110  83.5986732  67.5869349
  26.9103555  82.6531926  68.3039221  22.4456689  80.2921980  68.9212588
  22.9785026  79.5310268  68.6911896  21.9170770  79.9995632  69.6636743
  13.6812235  77.7215577  57.2694832  14.5187457  78.1312585  57.0528540
  13.8590502  76.7815019  57.2395026  25.5776667  75.3890657  52.9578665
  25.0623290  76.1595262  53.1967052  25.3053975  74.7155793  53.5811726
  23.1623778  70.2340358  58.0163903  22.3065374  69.8447208  57.8369542
  23.5750729  70.3132319  57.1563689  20.9365810  67.8525431  61.4221645
  21.8018807  67.6568240  61.0627534  21.0043319  67.6235783  62.3491002
  30.5510941  78.1423012  54.8931838  29.7740384  77.8034171  54.4487001
  31.2302422  78.1475635  54.2186803  25.3662970  73.2617749  54.7838446
  25.0613105  73.5763898  55.6348589  26.3193412  73.3399169  54.8265779
  23.8109402  79.4207973  56.4331400  23.2830763  78.6860732  56.1204638
  23.3096904  80.1982649  56.1871368  18.5428129  70.0827639  58.7938012
  19.1171881  69.8602820  58.0611205  19.1299112  70.1516333  59.5466613
  18.8697716  72.1132100  52.8133897  18.0335029  72.4506786  53.1343172
  18.7302486  71.9781080  51.8761034  20.8450797  66.9568888  57.5213081
  20.1915209  66.6417905  56.8969696  20.8031271  66.3344628  58.2472904
  21.9562002  77.2388183  49.4366373  21.0489064  77.0077436  49.6357522
  22.4533034  76.4425802  49.6240355  24.8630081  85.9485690  52.3563059
  24.1891780  86.2517387  52.9648017  25.2495903  86.7514770  52.0068516
  23.1350235  77.3400778  53.9590363  22.2261455  77.0559811  54.0562833
  23.1645319  77.7599856  53.0993670  28.3669503  80.9507367  57.7281531
  27.9131830  80.1098277  57.7846721  27.7363469  81.5868766  58.0656311
  26.8102442  82.7883864  58.6631349  27.1025416  83.3488921  57.9443715
  27.3201063  83.0812425  59.4184508  27.4114050  64.6575605  59.5523968
  27.7172926  63.7972969  59.2649883  28.1366654  65.2493225  59.3522961
  13.7038406  75.0606292  57.9405565  13.5062805  74.4675653  57.2156632
  13.1485070  74.7558502  58.6581504  22.8326323  78.8809521  51.2978442
  22.3945753  78.1645380  50.8384079  23.5736764  79.1085636  50.7363533
  19.6227489  73.5706458  57.8190537  18.8095355  73.8700629  58.2255730
  20.1186483  73.1762147  58.5365020  21.7736067  83.5664215  59.7524802
  21.7312246  83.7925061  58.8233334  22.6898766  83.3327590  59.9010603
  30.9499438  77.1566718  57.3554760  30.8117336  77.3468314  56.4275950
  30.5935657  77.9186101  57.8122812  19.1141564  71.1424814  63.4351772
  19.7540943  71.0013573  62.7374736  18.2819095  70.8559327  63.0590374
  19.8901868  80.4427244  59.5486765  20.6842466  79.9477564  59.3469340
  19.1793560  79.9145107  59.1854470  24.7096712  82.8245340  63.8999132
  24.7633735  83.3936276  64.6676848  23.8411494  82.9947225  63.5353170
  16.1984631  74.5870326  55.6246518  15.2682219  74.5254781  55.8416480
  16.2942103  74.0646279  54.8283159  16.1170180  71.1125139  58.2124759
  16.3776998  72.0270472  58.1033920  16.9387353  70.6449581  58.3621372
  17.5895106  72.5262896  65.3823584  18.2618159  72.3180258  64.7336233
  16.7624892  72.3284982  64.9428816  22.4673144  81.0156266  63.2284602
  22.3284230  80.6475050  64.1010540  21.6787740  81.5303905  63.0568560
  23.0621296  86.1165362  54.5710138  23.2373052  85.6453406  55.3855761
  22.3754084  86.7431129  54.7991399  24.0178359  80.3937869  60.6173440
  23.6828192  80.3538639  61.5131090  23.5182305  79.7282585  60.1443850
  17.9922603  75.8005499  66.1426021  17.8542401  75.0685738  66.7437560
  18.9027526  75.7114399  65.8610209  26.9537551  77.7393903  50.8910499
  26.3366721  77.0140731  50.7943552  26.4854039  78.5003263  50.5477574
  28.6091682  82.4492811  68.5516280  28.5504229  81.7652032  67.8846863
  29.0111201  83.1911801  68.0996906  17.6282381  89.2654725  61.3449999
  17.8678979  89.8973249  62.0229017  16.7851578  88.9142765  61.6315358
  18.7436097  71.9579327  50.0131804  17.8665563  71.8368128  49.6494050
  19.2193850  71.1665406  49.7610692  28.6109090  80.4132395  66.7830259
  27.7235868  80.0758317  66.9056658  29.1807641  79.6815427  67.0199025
  10.2638237  76.7456487  60.1073311  10.9509277  76.4318217  59.5194326
  10.1086365  77.6497852  59.8340562  15.0672959  71.6346684  64.5358335
  14.9831148  71.0272353  63.8008744  14.2455665  72.1255702  64.5367831
  22.1410243  85.0733848  63.7491503  22.0680415  85.8788819  64.2610807
  21.6987636  85.2725814  62.9239524  21.9300023  84.3105618  57.2594324
  21.1467545  84.8527298  57.3532549  22.6292768  84.8279597  57.6588565
  24.6008927  84.9720682  65.9049661  25.3136899  85.6068147  65.8325563
  24.1098955  85.0684548  65.0889663  26.3226453  78.8771934  57.4766953
  25.3882732  78.9973397  57.3071657  26.5003122  77.9744401  57.2126963
  19.6520840  82.7215125  66.7255232  20.3530300  83.3551608  66.8784626
  19.1815955  83.0629857  65.9650871  27.7775236  81.0633075  55.0103139
  28.0535080  80.9489670  55.9197013  26.9079735  80.6650560  54.9715312
  24.4129300  85.3119426  58.6535953  24.5951694  84.4941082  59.1163705
  25.2362286  85.5287118  58.2160843  24.7471465  84.2387611  55.9151001
  25.2759232  83.7280066  55.3021163  25.0099685  83.9230141  56.7796534
  15.2488558  82.2551480  63.6586335  15.8341995  81.5095168  63.7914239
  15.0513397  82.5655437  64.5422999  18.1027213  85.2902728  58.6748777
  17.4337589  85.7748855  58.1912817  17.9640083  85.5371948  59.5892156
   9.8406213  74.8257080  62.3790778   9.8790312  74.2920671  63.1727896
   9.3346506  74.2992286  61.7601755  22.2432482  87.3246471  65.2731436
  22.7950790  87.4878093  66.0380521  22.5838675  87.9150909  64.6011460
  17.2196975  69.6721621  65.8753320  17.2838302  70.5336452  65.4630718
  17.1564095  69.0595623  65.1425679  16.6949248  71.7444753  69.5226355
  17.3221287  71.3621831  70.1363879  15.8377167  71.5258955  69.8882047
  27.0943356  82.1507729  71.1280090  27.6383260  82.7637687  70.6335045
  26.5130201  82.7087307  71.6447103  13.4714790  73.5521183  55.4544709
  13.7668232  72.6431861  55.4011763  12.5702826  73.5308922  55.1325712
  25.3800869  85.2728447  62.2595118  25.2552009  84.4718187  61.7506063
  26.0379960  85.7674640  61.7709088  17.0009037  71.6277179  61.4372258
  16.2795623  72.2413147  61.2979731  17.7902293  72.1634944  61.3588904
  27.4435778  83.0737467  63.8874668  26.4966113  82.9542818  63.8152995
  27.7918551  82.1859965  63.9700929  19.8035351  68.9631606  67.7112910
  20.3269753  69.2093902  68.4739219  19.5847684  69.7951640  67.2916047
  15.2002632  71.2335280  55.5784034  14.8715338  70.3532659  55.3959140
  15.5542003  71.1782949  56.4660424  24.4482211  82.8690183  60.0879020
  24.3007173  81.9406890  60.2686590  25.2735704  82.8910274  59.6036095
  18.3144455  71.5208250  55.9459512  18.6540528  72.0494171  55.2238121
  18.7616576  71.8588656  56.7218079  28.0516333  83.6918742  61.1743893
  28.9762880  83.4861603  61.0368344  27.8831636  83.4435143  62.0833234
  21.6604368  66.9894613  63.8489903  22.4830437  66.5155091  63.7268794
  21.9042431  67.7685097  64.3488590  20.3012602  70.0182872  54.1452805
  21.0220965  70.3964124  53.6416522  19.6777906  70.7371748  54.2487783
  24.4443725  70.7228021  55.0811137  24.6607340  71.6052658  54.7799965
  23.9637792  70.3314234  54.3516779  19.1842947  73.6813734  61.6581882
  19.0387527  73.9954037  62.5506163  18.7068150  74.2998634  61.1052781
  21.0439329  70.6716282  61.7062771  21.0300898  69.7757375  61.3695069
  21.7611758  70.6786946  62.3401057  27.8411649  84.2104409  56.5305984
  28.0148527  83.6450832  55.7779837  28.3340540  85.0105304  56.3485474
  13.6588609  76.2219078  64.5969543  13.1142077  76.9978886  64.7289817
  14.5367959  76.5689883  64.4388664  20.4476225  69.5530662  56.9750342
  20.5692137  68.6247308  57.1741229  20.1578268  69.5669348  56.0628657
  23.3167416  67.2385573  60.1117061  23.3389113  67.3024906  59.1569041
  23.7335475  66.3990081  60.3057568  33.6951040  76.9740832  58.1496284
  34.1382186  76.2248157  57.7515407  32.8177550  76.9650968  57.7670016
  28.8286821  83.5271174  53.6302883  29.5237726  84.1477866  53.8490197
  29.1709972  82.6766525  53.9055260  14.4454631  75.3488975  67.4899700
  13.7036367  75.4971610  68.0764330  14.1247375  75.6097240  66.6266449
  30.7278245  80.9770879  55.1590213  31.2529569  81.3158152  54.4339533
  30.6400597  80.0417894  54.9753348  22.3898293  84.8904953  67.2880090
  22.6985420  84.6454100  68.1602790  23.1873775  85.0951591  66.7998960
  22.4118905  87.0442862  59.5185466  21.9723896  86.5519241  60.2118323
  23.1627022  86.5015830  59.2777542  14.8911244  83.2354403  59.5210095
  15.7169264  82.9358175  59.1408738  14.5405296  82.4662026  59.9699883
  19.8592777  82.5880871  61.5907768  19.2372787  81.9251576  61.2909996
  20.5297644  82.6142003  60.9081416  13.0919849  81.1540730  60.4799028
  12.2551758  80.7262904  60.2983029  13.0643495  81.3473173  61.4169819
  19.9317305  71.0662659  71.1840274  19.9805460  71.9424782  70.8018044
  20.4739819  70.5240053  70.6111917  30.4172151  81.6103783  70.4641411
  29.6267694  81.5927922  69.9245911  30.1805505  82.1492076  71.2190448
  19.4206284  81.1384795  55.0666229  19.5694405  81.8220259  54.4132901
  20.2272728  81.1189885  55.5815684  32.0388223  80.8793191  68.0216161
  31.7473031  81.2423171  68.8579622  31.4260354  80.1660199  67.8429493
  33.2383905  78.4446070  60.5418732  34.0730796  78.8835874  60.7056292
  33.3743034  77.9684724  59.7226977  17.1758917  77.1649972  56.0727298
  16.9304959  76.2612302  56.2707508  17.3454832  77.1667123  55.1306776
  16.4454565  72.8978330  53.5713459  15.7523810  72.9722685  52.9153495
  16.2006317  72.1338674  54.0934976  25.1168221  64.4573931  60.9752950
  25.3969975  63.7897120  61.6013376  25.9018828  64.6503027  60.4627614
  22.9201690  83.6332925  52.5377976  22.3475657  84.2523112  52.0848448
  23.4934484  84.1832287  53.0717898  26.1398950  83.9170075  53.6686558
  27.0729623  83.8515637  53.8719434  26.0522163  84.7526342  53.2101091
  28.7686966  83.2335946  50.6290506  28.6900598  82.8995809  51.5226264
  29.5896633  83.7257714  50.6281978  23.3048488  74.9693738  49.8794029
  24.2507593  74.8399946  49.9482447  22.9262733  74.2308400  50.3563457
  29.2770373  66.6349744  59.8420920  29.0795194  66.3264832  60.7264252
  29.8870079  67.3611383  59.9718850  23.1887181  79.0211484  71.3394686
  24.1090190  79.1990083  71.5334732  23.1536764  78.0767529  71.1874385
  21.4891406  72.8943714  49.8148914  20.5822861  72.5976827  49.8911627
  21.7667387  72.5973532  48.9483200  12.4069346  74.2150078  60.2647960
  12.0872130  73.3615386  59.9722334  11.8602774  74.4298656  61.0205928
  16.1849253  76.9312519  63.9817467  16.4035263  77.8629627  64.0005501
  16.5975027  76.5720493  64.7672271  23.1053471  67.4380604  55.9693155
  22.2954200  67.0927689  56.3448401  23.7937888  67.1288148  56.5580767
  25.0344020  66.5158651  57.5917452  25.5875058  66.9354104  58.2507475
  25.2714106  65.5894399  57.6340408  21.0577119  72.5045725  73.3720216
  20.9573846  73.4540082  73.3032307  20.8398661  72.1763963  72.4996286
  20.2590190  69.7530650  49.9560893  21.1209354  70.0785548  50.2156710
  20.4440534  68.9662146  49.4433959  12.2757606  77.8352989  62.2341082
  11.5821077  77.4206942  61.7211036  13.0230597  77.8773526  61.6374501
  28.4122827  68.6259176  57.0996116  27.8321496  69.2843980  56.7174168
  28.1458759  67.8036521  56.6883534  26.8626393  68.0264234  59.3017436
  27.3626171  68.1380768  58.4931755  27.5062001  67.7225287  59.9418245
  20.9208389  75.9342863  72.1885277  20.4375471  76.7343224  72.3949166
  21.0069328  75.9450808  71.2352721  14.1894348  77.7671243  60.1107097
  14.1665037  77.8658930  59.1588980  14.4994985  78.6136394  60.4324263
  16.8481726  79.8247398  64.2253711  17.8024980  79.7931340  64.1583643
  16.6494250  79.3638022  65.0403937  17.4381108  78.3948514  66.7924509
  18.2573997  78.8892593  66.8159346  17.7117916  77.4780482  66.7642076
  27.1947705  70.7859266  56.1552464  26.3073560  71.0708917  55.9372659
  27.6101694  70.6253030  55.3079741  15.2031955  85.3667018  61.2423909
  15.0686423  84.6067418  60.6761907  14.7864017  86.0907917  60.7752698
  26.3390918  80.5503941  50.2500484  27.0426768  80.7553944  50.8658140
  25.6153567  81.1180703  50.5149568  27.1688728  76.3013802  56.3702754
  27.1123930  76.7582354  55.5310387  27.7217071  75.5404487  56.1925597
  35.2905872  74.8299607  59.7024165  34.7305430  74.8992797  60.4755727
  34.6849376  74.6540592  58.9823662  18.3601081  86.2636335  61.4542352
  18.2433465  87.2081767  61.3521042  17.5393527  85.9609896  61.8428151
  28.2477616  80.9886470  52.2998944  29.0823219  80.5567669  52.1176419
  28.0861958  80.8168484  53.2275839  27.9023508  77.4918584  53.6655284
  27.8472312  77.3262855  52.7243728  27.2769563  78.1994617  53.8217473
  12.6916023  72.7286648  67.4916706  13.3374886  72.2185602  67.9803931
  12.4833174  73.4655330  68.0660131  25.2169415  79.7967495  72.9908846
  26.0860575  79.9708148  72.6295481  24.7376166  80.6161912  72.8684576
  21.2119633  66.9926693  53.2440602  21.1998303  67.9368533  53.4008873
  22.1043055  66.8096838  52.9500063  19.3855595  86.9164596  64.6698280
  20.2882842  86.9488207  64.9864775  19.1592965  85.9865047  64.6844616
  21.1409197  85.6695583  61.3308359  20.1904828  85.6697445  61.2172731
  21.4441683  84.9228318  60.8144393  25.0271753  63.5869469  57.4986539
  24.2604148  63.0327956  57.6443221  25.4382458  63.6591338  58.3600690
  17.0313514  69.8754265  71.5891720  17.8944975  69.5191070  71.7995045
  16.4578924  69.5368160  72.2767124  36.8761891  91.5056121  62.3954121
  37.5140301  91.3862869  61.6917461  36.7582734  92.4536965  62.4542073
  33.6851597  91.4583550  62.3315646  33.3470108  91.3424614  61.4436181
  34.5541365  91.0574715  62.3116652  29.5438413  93.3119026  58.3212537
  28.9803278  93.2208963  57.5528824  29.4290808  92.4918930  58.8015029
  34.1671380  92.6118401  68.2901851  34.1560021  92.2171200  67.4182355
  34.3292019  91.8784474  68.8835623  27.0902845  94.8070218  61.1596757
  27.8824136  94.4661042  60.7443056  27.3299495  94.9165193  62.0798910
  35.1237971  96.9789994  53.6327002  34.4725951  97.5644074  53.2461015
  35.9182334  97.5096189  53.6922039  29.0493598  94.0679131  54.0314136
  29.8224474  93.5208118  53.8927012  29.4018997  94.9323380  54.2428597
  30.8878641  95.3955513  67.2381035  30.5968507  96.3001144  67.1227702
  31.5235625  95.4372041  67.9525105  31.8134848  92.7732362  63.8282395
  32.4098420  92.5488384  63.1139358  31.8709819  92.0317107  64.4307843
  31.3859876  90.2271797  51.6632586  31.6385397  89.7053318  50.9016049
  30.4484435  90.0637942  51.7659269  36.4303159  89.2307575  59.4707329
  37.2166248  88.8126998  59.1197746  36.6941863  90.1353667  59.6388977
  36.6013236  94.6680426  54.1695986  35.9659069  94.7415052  54.8816891
  36.2710643  95.2574024  53.4915065  41.8311586  89.1682808  60.3740308
  42.5636758  88.5982025  60.6078137  41.0750942  88.7804409  60.8146813
  31.1056165  92.1299903  53.8656961  30.9892423  91.4544806  54.5338045
  31.2158425  91.6432277  53.0489114  33.4487706  91.5910050  57.5703650
  33.0845913  91.0640671  58.2816572  34.3054822  91.2008519  57.3970135
  33.0893193  86.6199950  52.5664999  33.2567595  87.4880186  52.9335470
  32.8990362  86.7827231  51.6426288  35.8468526  95.0816929  64.2330829
  35.5469249  95.9841967  64.1246636  35.5019586  94.8149112  65.0851982
  29.2981008  91.5330725  60.2667533  28.3731504  91.4006940  60.4745225
  29.5465421  92.3124945  60.7637476  39.2465670  87.5999469  61.9128266
  38.3382547  87.5314877  61.6187027  39.1953266  88.0771414  62.7410092
  33.0682414  89.0757607  53.5511665  32.9482039  89.5214658  54.3897146
  32.3735002  89.4242925  52.9925204  26.6589819  91.1763999  61.1011322
  26.7882200  91.4298478  62.0150734  25.9787270  91.7691707  60.7815978
  30.8289306 101.8461249  57.2001797  30.7513336 102.7969074  57.2790277
  30.2250950 101.5007121  57.8576723  33.3206536  89.0189114  69.8563164
  32.5439870  89.5783034  69.8466028  33.9597099  89.5045897  70.3778034
  41.1127316  85.8015907  63.6906140  40.4701697  86.0948440  63.0445935
  40.6082245  85.6868828  64.4959337  38.7667480  89.5479080  54.3791999
  39.6785336  89.7806467  54.2039697  38.2577127  90.1316125  53.8167078
  31.5752908  91.8274568  69.4181131  32.3167592  92.3659612  69.1415954
  30.8689893  92.4540856  69.5752682  37.0508248  93.9703708  68.0153292
  37.4591604  93.5286119  67.2707924  36.3285509  93.3956336  68.2687485
  33.4039318  88.9076315  65.3886849  34.2500513  89.3315729  65.5321498
  33.3437955  88.2509939  66.0825412  37.3737062  94.5304899  61.7705581
  36.7445925  94.6950613  61.0681649  36.9862724  94.9446508  62.5416545
  41.2526294  95.4659337  59.1249945  40.5677332  95.8458238  58.5746978
  41.3370144  96.0754663  59.8581892  36.5538763  86.5680683  67.0468023
  36.3099695  87.3222744  66.5102298  36.8298694  86.9466031  67.8815270
  38.5077226  93.1119296  65.7245288  38.7194121  93.7551056  65.0479669
  38.4606974  92.2781612  65.2567218  36.1103455  85.7237116  62.6281860
  35.2487934  86.0218370  62.9198598  36.1365889  85.9407515  61.6962893
  32.9265024  94.2679307  59.0355666  33.3903370  94.5467010  58.2460289
  32.6621822  93.3662751  58.8528757  29.8189105  93.8150788  61.9735429
  30.3890462  94.2438057  61.3352914  30.4097217  93.5333373  62.6719615
  31.8633910  90.3902459  55.8445231  32.5657954  90.8423503  56.3119158
  31.5314539  89.7486278  56.4725124  30.3114272  88.9814216  70.2196441
  29.6812932  89.6630497  70.4531837  30.2050360  88.8697297  69.2749579
  25.6059244  88.6486012  61.1462365  24.8158298  88.9043540  60.6702475
  26.0970492  89.4634350  61.2514405  39.6223054  95.9891251  63.8967646
  40.4440497  95.5871438  63.6150327  39.6185457  95.8859485  64.8483761
  27.5573990  89.0130591  58.1045841  26.7605153  89.1249285  58.6229337
  27.3299582  89.3517243  57.2386732  33.3879657  95.5375294  66.0528356
  33.4524090  95.9995702  66.8886528  32.6790581  94.9072659  66.1810666
  23.8896947  88.9016502  63.5777356  24.1404986  89.7863512  63.8434931
  24.4256496  88.7221104  62.8052447  47.7129047  92.3330000  60.2452617
  46.9592755  91.7637398  60.0896621  47.8476588  92.2992664  61.1923252
  33.1027675  97.2043402  55.9207336  32.9673350  98.0494938  56.3492184
  33.6437487  97.4062680  55.1573270  29.5895014  83.2834982  72.5821692
  29.1961960  82.7301180  73.2569336  30.4061155  83.5945560  72.9728209
  26.5557072  94.7218840  56.4935261  27.0681593  95.5162090  56.6440826
  27.2079785  94.0245130  56.4268863  28.3651957  97.8384596  58.5758015
  28.5418585  98.7602561  58.3878999  29.1608790  97.5243015  59.0052394
  32.5062975  84.6992861  70.1741948  33.2472689  85.3000014  70.0946411
  32.7380898  83.9570499  69.6159991  27.6504313  89.8849228  68.4520178
  27.5357829  88.9834485  68.7527277  26.7948831  90.1312925  68.1004994
  34.7296151  97.8266968  70.0507678  34.2860005  97.0403347  69.7328583
  35.3913365  98.0146119  69.3851569  29.4883272  99.3562770  64.5768357
  30.0390698  99.2279833  63.8045351  28.6494748  99.6557659  64.2263250
  36.8277389  98.1069768  68.0789080  36.8095865  98.9278649  67.5869349
  37.7497309  97.9823844  68.3039221  33.2850443  95.6213898  68.9212588
  33.8178780  94.8602186  68.6911896  32.7564525  95.3287550  69.6636743
  24.5205989  93.0507494  57.2694832  25.3581211  93.4604503  57.0528540
  24.6984257  92.1106936  57.2395026  36.4170421  90.7182575  52.9578665
  35.9017045  91.4887180  53.1967052  36.1447730  90.0447711  53.5811726
  34.0017532  85.5632276  58.0163903  33.1459129  85.1739126  57.8369542
  34.4144484  85.6424236  57.1563689  35.5316679  83.0978619  62.4155463
  35.0281474  83.0608754  61.6023268  35.8247286  84.0071362  62.4752120
  31.7759565  83.1817349  61.4221645  32.6412561  82.9860157  61.0627534
  31.8437074  82.9527700  62.3491002  41.3904695  93.4714930  54.8931838
  40.6134138  93.1326089  54.4487001  42.0696176  93.4767553  54.2186803
  36.2056724  88.5909667  54.7838446  35.9006860  88.9055816  55.6348589
  37.1587166  88.6691087  54.8265779  34.6503156  94.7499890  56.4331400
  34.1224518  94.0152650  56.1204638  34.1490659  95.5274567  56.1871368
  39.6296002  92.9448911  61.5498446  38.9719677  93.6348172  61.6378575
  40.4336401  93.3345343  61.8932433  29.3821884  85.4119557  58.7938012
  29.9565636  85.1894738  58.0611205  29.9692866  85.4808251  59.5466613
  38.4401461  91.2993283  59.6002388  38.9533343  91.9323275  60.1024098
  39.0902685  90.6994479  59.2345748  29.7091471  87.4424018  52.8133897
  28.8728783  87.7798704  53.1343172  29.5696241  87.3072997  51.8761034
  31.6844551  82.2860805  57.5213081  31.0308964  81.9709823  56.8969696
  31.6425026  81.6636546  58.2472904  32.7955756  92.5680101  49.4366373
  31.8882818  92.3369354  49.6357522  33.2926788  91.7717720  49.6240355
  35.7023835 101.2777608  52.3563059  35.0285534 101.5809304  52.9648017
  36.0889657 102.0806688  52.0068516  34.9182292  88.7742739  61.8460729
  34.0004853  88.9957686  61.6882417  35.3342435  88.8489049  60.9872436
  35.7017340  90.1734155  56.9763409  36.4489159  90.6855552  56.6670531
  35.9708929  89.8518207  57.8367803  33.9743990  92.6692695  53.9590363
  33.0655209  92.3851728  54.0562833  34.0039074  93.0891774  53.0993670
  39.2063257  96.2799285  57.7281531  38.7525584  95.4390195  57.7846721
  38.5757224  96.9160683  58.0656311  38.1496177  87.2091271  58.9582198
  37.4118934  86.6968657  59.2892441  38.4022950  86.7691653  58.1465475
  37.6496196  98.1175782  58.6631349  37.9419171  98.6780839  57.9443715
  38.1594817  98.4104343  59.4184508  38.2507804  79.9867523  59.5523968
  38.5566681  79.1264886  59.2649883  38.9760409  80.5785143  59.3522961
  24.5432160  90.3898210  57.9405565  24.3456560  89.7967570  57.2156632
  23.9878824  90.0850420  58.6581504  32.5228884  90.2821316  60.0600159
  32.5777494  89.3295152  59.9842635  31.7120086  90.4380755  60.5441457
  33.6720078  94.2101439  51.2978442  33.2339508  93.4937298  50.8384079
  34.4130518  94.4377554  50.7363533  30.4621244  88.8998376  57.8190537
  29.6489109  89.1992546  58.2255730  30.9580238  88.5054065  58.5365020
  32.6129822  98.8956133  59.7524802  32.5706000  99.1216979  58.8233334
  33.5292520  98.6619507  59.9010603  36.0595455  89.3640200  66.6505431
  36.4144843  89.5911673  67.5099897  36.7067587  89.6958577  66.0282687
  41.7893192  92.4858636  57.3554760  41.6511091  92.6760232  56.4275950
  41.4329411  93.2478019  57.8122812  29.9535319  86.4716731  63.4351772
  30.5934698  86.3305490  62.7374736  29.1212849  86.1851245  63.0590374
  41.8162572  94.5535163  62.3666032  42.2499079  94.4610452  63.2149086
  42.5294153  94.5292664  61.7286048  30.7295622  95.7719162  59.5486765
  31.5236221  95.2769482  59.3469340  30.0187315  95.2437025  59.1854470
  35.5490467  98.1537257  63.8999132  35.6027489  98.7228194  64.6676848
  34.6805248  98.3239142  63.5353170  27.0378386  89.9162243  55.6246518
  26.1075974  89.8546699  55.8416480  27.1335858  89.3938196  54.8283159
  26.9563935  86.4417056  58.2124759  27.2170752  87.3562390  58.1033920
  27.7781107  85.9741499  58.3621372  28.4288860  87.8554813  65.3823584
  29.1011914  87.6472176  64.7336233  27.6018647  87.6576899  64.9428816
  42.6778122  94.5958864  64.8998917  42.8714012  95.5004674  65.1458192
  42.5778740  94.1366283  65.7337502  34.3314432  84.4816754  67.3989245
  33.6842347  85.1806704  67.3053721  35.1015448  84.9152898  67.7665493
  37.7393230  94.7465607  70.4739798  37.5878737  94.5176158  69.5569882
  37.7297910  95.7036208  70.4871143  34.5078567  92.3197519  65.4586064
  35.4370627  92.4708679  65.2855032  34.0869597  92.4081540  64.6034711
  33.3066898  96.3448184  63.2284602  33.1677984  95.9766968  64.1010540
  32.5181495  96.8595823  63.0568560  33.9015050 101.4457280  54.5710138
  34.0766806 100.9745323  55.3855761  33.2147838 102.0723046  54.7991399
  34.8572114  95.7229786  60.6173440  34.5221946  95.6830556  61.5131090
  34.3576059  95.0574502  60.1443850  28.8316358  91.1297416  66.1426021
  28.6936155  90.3977655  66.7437560  29.7421281  91.0406317  65.8610209
  37.7931305  93.0685821  50.8910499  37.1760476  92.3432649  50.7943552
  37.3247794  93.8295181  50.5477574  31.4598658  90.8417376  65.6309701
  32.1698277  90.2010568  65.5896319  31.4167966  91.0930271  66.5535881
  39.4485437  97.7784729  68.5516280  39.3897983  97.0943949  67.8846863
  39.8504955  98.5203719  68.0996906  30.1727592  87.8282594  67.4505340
  29.6364949  87.3773332  68.1026936  29.5844301  87.9628502  66.7075804
  28.4676136 104.5946643  61.3449999  28.7072734 105.2265167  62.0229017
  27.6245332 104.2434683  61.6315358  29.5829851  87.2871245  50.0131804
  28.7059317  87.1660046  49.6494050  30.0587604  86.4957323  49.7610692
  39.4502844  95.7424313  66.7830259  38.5629623  95.4050235  66.9056658
  40.0201395  95.0107344  67.0199025  21.1031991  92.0748405  60.1073311
  21.7903031  91.7610135  59.5194326  20.9480120  92.9789769  59.8340562
  25.9066713  86.9638601  64.5358335  25.8224902  86.3564271  63.8008744
  25.0849420  87.4547620  64.5367831  32.9803998 100.4025765  63.7491503
  32.9074169 101.2080737  64.2610807  32.5381391 100.6017731  62.9239524
  32.7693777  99.6397535  57.2594324  31.9861299 100.1819216  57.3532549
  33.4686522 100.1571515  57.6588565  36.0790427  85.4492165  59.9028530
  36.5759127  84.6962127  59.5829600  35.3077409  85.4856482  59.3371739
  43.9320185  91.1532530  61.5446821  43.9210061  92.0357246  61.1740754
  43.0637564  90.8004081  61.3501358  35.4402681 100.3012599  65.9049661
  36.1530653 100.9360064  65.8325563  34.9492710 100.3976465  65.0889663
  37.1620208  94.2063852  57.4766953  36.2276487  94.3265315  57.3071657
  37.3396876  93.3036319  57.2126963  32.6625396  87.5909548  59.6300214
  32.2923184  87.0380588  60.3181120  33.1584488  86.9867681  59.0775214
  40.5492759  90.0481171  58.0116987  41.0153212  90.8809163  57.9377290
  41.0000260  89.5826153  58.7162246  30.4914595  98.0507043  66.7255232
  31.1924054  98.6843526  66.8784626  30.0209710  98.3921774  65.9650871
  38.6168990  96.3924993  55.0103139  38.8928834  96.2781587  55.9197013
  37.7473489  95.9942478  54.9715312  38.2915881  90.6051650  64.5507782
  37.6387331  90.8527558  63.8960235  38.6696260  89.7915789  64.2170260
  35.2523054 100.6411343  58.6535953  35.4345449  99.8232999  59.1163705
  36.0756040 100.8579036  58.2160843  35.5865220  99.5679529  55.9151001
  36.1152986  99.0571983  55.3021163  35.8493440  99.2522059  56.7796534
  34.3403454  91.3471461  71.0373820  33.6644091  91.2465591  71.7076195
  35.1631087  91.1910675  71.5009817  26.0882313  97.5843398  63.6586335
  26.6735749  96.8387086  63.7914239  25.8907151  97.8947355  64.5422999
  28.9420968 100.6194645  58.6748777  28.2731343 101.1040773  58.1912817
  28.8033838 100.8663866  59.5892156  20.6799967  90.1548998  62.3790778
  20.7184067  89.6212589  63.1727896  20.1740260  89.6284204  61.7601755
  33.0826236 102.6538389  65.2731436  33.6344544 102.8170010  66.0380521
  33.4232430 103.2442827  64.6011460  28.0590730  85.0013539  65.8753320
  28.1232056  85.8628370  65.4630718  27.9957850  84.3887540  65.1425679
  27.5343002  87.0736671  69.5226355  28.1615041  86.6913748  70.1363879
  26.6770921  86.8550873  69.8882047  37.9337111  97.4799646  71.1280090
  38.4777015  98.0929605  70.6335045  37.3523956  98.0379225  71.6447103
  24.3108545  88.8813100  55.4544709  24.6061986  87.9723779  55.4011763
  23.4096581  88.8600840  55.1325712  36.2194624 100.6020364  62.2595118
  36.0945763  99.8010104  61.7506063  36.8773715 101.0966558  61.7709088
  27.8402792  86.9569097  61.4372258  27.1189378  87.5705065  61.2979731
  28.6296048  87.4926862  61.3588904  38.2829532  98.4029384  63.8874668
  37.3359868  98.2834736  63.8152995  38.6312305  97.5151882  63.9700929
  30.6429105  84.2923523  67.7112910  31.1663507  84.5385820  68.4739219
  30.4241439  85.1243558  67.2916047  26.0396387  86.5627198  55.5784034
  25.7109093  85.6824577  55.3959140  26.3935757  86.5074867  56.4660424
  35.2875965  98.1982101  60.0879020  35.1400928  97.2698808  60.2686590
  36.1129459  98.2202191  59.6036095  29.1538210  86.8500168  55.9459512
  29.4934282  87.3786089  55.2238121  29.6010330  87.1880574  56.7218079
  38.8910087  99.0210659  61.1743893  39.8156635  98.8153521  61.0368344
  38.7225391  98.7727061  62.0833234  31.8481651  85.2337218  65.3962580
  31.5078471  84.4345032  65.7983260  31.1420657  85.5338929  64.8239413
  32.4998122  82.3186531  63.8489903  33.3224192  81.8447009  63.7268794
  32.7436186  83.0977015  64.3488590  31.1406357  85.3474789  54.1452805
  31.8614719  85.7256042  53.6416522  30.5171661  86.0663666  54.2487783
  35.2837480  86.0519938  55.0811137  35.5001094  86.9344576  54.7799965
  34.8031547  85.6606152  54.3516779  30.0236701  89.0105652  61.6581882
  29.8781282  89.3245955  62.5506163  29.5461905  89.6290552  61.1052781
  31.8833084  86.0008200  61.7062771  31.8694653  85.1049293  61.3695069
  32.6005512  86.0078863  62.3401057  33.7359215  86.4345540  63.7515899
  33.4776993  87.3562610  63.7500229  33.2044255  86.0375974  64.4416363
  38.6805403  99.5396327  56.5305984  38.8542281  98.9742749  55.7779837
  39.1734295 100.3397222  56.3485474  24.4982363  91.5510996  64.5969543
  23.9535831  92.3270804  64.7289817  25.3761713  91.8981800  64.4388664
  31.2869980  84.8822580  56.9750342  31.4085891  83.9539226  57.1741229
  30.9972022  84.8961266  56.0628657  34.1561170  82.5677490  60.1117061
  34.1782867  82.6316823  59.1569041  34.5729229  81.7281999  60.3057568
  44.5344795  92.3032750  58.1496284  44.9775941  91.5540075  57.7515407
  43.6571305  92.2942886  57.7670016  39.6680576  98.8563091  53.6302883
  40.3631481  99.4769784  53.8490197  40.0103726  98.0058442  53.9055260
  25.2848385  90.6780892  67.4899700  24.5430121  90.8263528  68.0764330
  24.9641129  90.9389158  66.6266449  41.5671999  96.3062797  55.1590213
  42.0923323  96.6450070  54.4339533  41.4794352  95.3709812  54.9753348
  33.2292048 100.2196870  67.2880090  33.5379174  99.9746017  68.1602790
  34.0267530 100.4243509  66.7998960  33.2512660 102.3734780  59.5185466
  32.8117650 101.8811159  60.2118323  34.0020777 101.8307748  59.2777542
  25.7304999  98.5646321  59.5210095  26.5563019  98.2650093  59.1408738
  25.3799051  97.7953943  59.9699883  30.6986532  97.9172789  61.5907768
  30.0766541  97.2543494  61.2909996  31.3691399  97.9433921  60.9081416
  23.9313604  96.4832647  60.4799028  23.0945512  96.0554822  60.2983029
  23.9037249  96.6765091  61.4169819  30.7711059  86.3954577  71.1840274
  30.8199215  87.2716700  70.8018044  31.3133574  85.8531970  70.6111917
  41.2565905  96.9395700  70.4641411  40.4661449  96.9219839  69.9245911
  41.0199260  97.4783994  71.2190448  41.3763780  93.7888167  67.7774140
  41.4261785  93.6238174  68.7189663  41.2677704  92.9215426  67.3872021
  30.2600039  96.4676712  55.0666229  30.4088159  97.1512177  54.4132901
  31.0666482  96.4481803  55.5815684  38.6667543  89.7719095  69.0933446
  39.5677405  89.6325560  68.8017444  38.7415517  89.9373550  70.0331624
  33.0010348  87.1485950  67.9386633  32.1313657  87.4419516  67.6669221
  33.2369828  87.7326395  68.6593896  42.8781977  96.2085108  68.0216161
  42.5866785  96.5715089  68.8579622  42.2654108  95.4952117  67.8429493
  44.0777659  93.7737988  60.5418732  44.9124551  94.2127792  60.7056292
  44.2136788  93.2976641  59.7226977  41.1269165  91.3317723  66.4896219
  41.6023287  91.5245369  65.6815071  40.2034731  91.3876909  66.2439603
  28.0152672  92.4941890  56.0727298  27.7698714  91.5904220  56.2707508
  28.1848586  92.4959041  55.1306776  27.2848319  88.2270248  53.5713459
  26.5917564  88.3014603  52.9153495  27.0400071  87.4630591  54.0934976
  33.7595444  98.9624843  52.5377976  33.1869411  99.5815030  52.0848448
  34.3328238  99.5124205  53.0717898  39.8270834  88.2083483  64.7224525
  40.7788257  88.3081581  64.7436749  39.6574285  87.4161752  65.2322609
  37.8485214  85.2939066  64.9083926  37.2535146  85.5744079  64.2130414
  37.5634910  85.7832967  65.6800667  36.9792704  99.2461993  53.6686558
  37.9123377  99.1807555  53.8719434  36.8915917 100.0818260  53.2101091
  39.6080721  98.5627863  50.6290506  39.5294352  98.2287727  51.5226264
  40.4290388  99.0549631  50.6281978  42.3058912  91.4289603  63.8366825
  42.2735232  90.4905603  64.0226508  42.9159536  91.5073639  63.1032649
  34.1442243  90.2985656  49.8794029  35.0901348  90.1691864  49.9482447
  33.7656488  89.5600318  50.3563457  42.4553401  88.2200646  63.8825108
  41.9392449  87.4359103  63.6955037  43.3393349  87.8919363  64.0471627
  40.1164127  81.9641662  59.8420920  39.9188949  81.6556750  60.7264252
  40.7263833  82.6903301  59.9718850  48.1235462  92.4905610  62.9772861
  48.8538850  92.2290898  63.5380565  47.5142407  91.7534331  63.0174929
  46.2050759  90.6313472  63.5747313  45.4783923  90.4969437  62.9663804
  45.7898046  90.9390301  64.3804031  34.0280935  94.3503402  71.3394686
  34.9483945  94.5282001  71.5334732  33.9930518  93.4059447  71.1874385
  32.3285160  88.2235632  49.8148914  31.4216615  87.9268745  49.8911627
  32.6061141  87.9265450  48.9483200  23.2463100  89.5441995  60.2647960
  22.9265885  88.6907304  59.9722334  22.6996529  89.7590574  61.0205928
  27.0243008  92.2604436  63.9817467  27.2429018  93.1921544  64.0005501
  27.4368782  91.9012411  64.7672271  33.9447226  82.7672522  55.9693155
  33.1347954  82.4219607  56.3448401  34.6331643  82.4580066  56.5580767
  35.8737774  81.8450569  57.5917452  36.4268813  82.2646022  58.2507475
  36.1107860  80.9186317  57.6340408  31.8970873  87.8337642  73.3720216
  31.7967600  88.7831999  73.3032307  31.6792415  87.5055881  72.4996286
  31.0983945  85.0822567  49.9560893  31.9603109  85.4077466  50.2156710
  31.2834289  84.2954063  49.4433959  23.1151360  93.1644907  62.2341082
  22.4214832  92.7498860  61.7211036  23.8624351  93.2065443  61.6374501
  39.2516581  83.9551094  57.0996116  38.6715250  84.6135898  56.7174168
  38.9852514  83.1328438  56.6883534  37.7020148  83.3556151  59.3017436
  38.2019926  83.4672686  58.4931755  38.3455755  83.0517204  59.9418245
  31.7602143  91.2634781  72.1885277  31.2769225  92.0635141  72.3949166
  31.8463082  91.2742726  71.2352721  25.0288103  93.0963161  60.1107097
  25.0058791  93.1950848  59.1588980  25.3388739  93.9428312  60.4324263
  27.6875481  95.1539316  64.2253711  28.6418734  95.1223258  64.1583643
  27.4888004  94.6929940  65.0403937  28.2774863  93.7240432  66.7924509
  29.0967752  94.2184510  66.8159346  28.5511671  92.8072400  66.7642076
  38.0341459  86.1151184  56.1552464  37.1467314  86.4000835  55.9372659
  38.4495448  85.9544948  55.3079741  41.3855995  86.1397705  59.8706804
  42.1616385  86.6294158  60.1431420  40.6604129  86.5655759  60.3278673
  43.8228554  86.8525324  60.9280744  44.4173045  86.6121060  60.2174052
  43.8955138  86.1332455  61.5554280  26.0425710 100.6958935  61.2423909
  25.9080178  99.9359336  60.6761907  25.6257772 101.4199835  60.7752698
  37.1784673  95.8795859  50.2500484  37.8820523  96.0845861  50.8658140
  36.4547321  96.4472621  50.5149568  38.0082483  91.6305720  56.3702754
  37.9517684  92.0874271  55.5310387  38.5610825  90.8696405  56.1925597
  41.8187289  87.4195452  57.1952874  41.5624223  87.0192088  58.0261082
  41.1940157  88.1339246  57.0703013  46.1299627  90.1591525  59.7024165
  45.5699185  90.2284714  60.4755727  45.5243130  89.9832510  58.9823662
  29.1994836 101.5928252  61.4542352  29.0827220 102.5373685  61.3521042
  28.3787282 101.2901814  61.8428151  39.0871370  96.3178388  52.2998944
  39.9216974  95.8859586  52.1176419  38.9255713  96.1460402  53.2275839
  38.7417262  92.8210501  53.6655284  38.6866066  92.6554773  52.7243728
  38.1163318  93.5286534  53.8217473  23.5309777  88.0578566  67.4916706
  24.1768641  87.5477520  67.9803931  23.3226928  88.7947247  68.0660131
  36.0563169  95.1259413  72.9908846  36.9254329  95.3000065  72.6295481
  35.5769921  95.9453830  72.8684576  32.0513388  82.3218610  53.2440602
  32.0392058  83.2660450  53.4008873  32.9436810  82.1388756  52.9500063
  30.2249350 102.2456514  64.6698280  31.1276596 102.2780124  64.9864775
  29.9986720 101.3156965  64.6844616  31.9802952 100.9987501  61.3308359
  31.0298583 100.9989362  61.2172731  32.2835438 100.2520235  60.8144393
  35.8665507  78.9161387  57.4986539  35.0997903  78.3619874  57.6443221
  36.2776212  78.9883256  58.3600690  27.8707268  85.2046183  71.5891720
  28.7338730  84.8482988  71.7995045  27.2972679  84.8660078  72.2767124
  47.7155645 106.8348039  62.3954121  48.3534055 106.7154786  61.6917461
  47.5976488 107.7828883  62.4542073  44.5245351 106.7875467  62.3315646
  44.1863863 106.6716532  61.4436181  45.3935120 106.3866632  62.3116652
  40.3832167 108.6410944  58.3212537  39.8197032 108.5500881  57.5528824
  40.2684562 107.8210848  58.8015029  45.0065134 107.9410319  68.2901851
  44.9953775 107.5463117  67.4182355  45.1685774 107.2076392  68.8835623
  37.9296599 110.1362135  61.1596757  38.7217891 109.7952960  60.7443056
  38.1693249 110.2457110  62.0798910  45.9631726 112.3081911  53.6327002
  45.3119706 112.8935992  53.2461015  46.7576089 112.8388106  53.6922039
  39.8887353 109.3971048  54.0314136  40.6618229 108.8500036  53.8927012
  40.2412752 110.2615298  54.2428597  41.7272396 110.7247431  67.2381035
  41.4362262 111.6293062  67.1227702  42.3629380 110.7663958  67.9525105
  42.6528602 108.1024279  63.8282395  43.2492175 107.8780302  63.1139358
  42.7103574 107.3609025  64.4307843  42.2253631 105.5563715  51.6632586
  42.4779151 105.0345236  50.9016049  41.2878190 105.3929860  51.7659269
  47.2696914 104.5599493  59.4707329  48.0560003 104.1418916  59.1197746
  47.5335618 105.4645585  59.6388977  47.4406991 109.9972343  54.1695986
  46.8052824 110.0706970  54.8816891  47.1104397 110.5865942  53.4915065
  52.6705341 104.4974726  60.3740308  53.4030513 103.9273943  60.6078137
  51.9144696 104.1096327  60.8146813  41.9449920 107.4591821  53.8656961
  41.8286178 106.7836724  54.5338045  42.0552179 106.9724194  53.0489114
  44.2881460 106.9201968  57.5703650  43.9239668 106.3932589  58.2816572
  45.1448576 106.5300437  57.3970135  50.1930761  98.2096300  64.8334916
  49.8614086  99.0791711  64.6096131  49.5976374  97.8932584  65.5128947
  43.9286947 101.9491867  52.5664999  44.0961350 102.8172104  52.9335470
  43.7384117 102.1119149  51.6426288  46.6862281 110.4108846  64.2330829
  46.3863004 111.3133885  64.1246636  46.3413340 110.1441029  65.0851982
  40.1374762 106.8622643  60.2667533  39.2125259 106.7298857  60.4745225
  40.3859175 107.6416862  60.7637476  50.0859424 102.9291386  61.9128266
  49.1776302 102.8606795  61.6187027  50.0347020 103.4063331  62.7410092
  43.9076168 104.4049525  53.5511665  43.7875794 104.8506576  54.3897146
  43.2128757 104.7534843  52.9925204  37.4983573 106.5055917  61.1011322
  37.6275954 106.7590396  62.0150734  36.8181024 107.0983625  60.7815978
  41.6683060 117.1753167  57.2001797  41.5907090 118.1260992  57.2790277
  41.0644704 116.8299039  57.8576723  44.1600290 104.3481032  69.8563164
  43.3833624 104.9074952  69.8466028  44.7990853 104.8337815  70.3778034
  51.9521071 101.1307825  63.6906140  51.3095451 101.4240358  63.0445935
  51.4475999 101.0160745  64.4959337  49.6061234 104.8770998  54.3791999
  50.5179091 105.1098385  54.2039697  49.0970882 105.4608042  53.8167078
  42.4146663 107.1566485  69.4181131  43.1561347 107.6951529  69.1415954
  41.7083648 107.7832774  69.5752682  47.8902002 109.2995626  68.0153292
  48.2985358 108.8578036  67.2707924  47.1679264 108.7248253  68.2687485
  44.2433072 104.2368233  65.3886849  45.0894267 104.6607646  65.5321498
  44.1831710 103.5801857  66.0825412  48.2130817 109.8596816  61.7705581
  47.5839679 110.0242531  61.0681649  47.8256479 110.2738426  62.5416545
  52.0920049 110.7951254  59.1249945  51.4071087 111.1750156  58.5746978
  52.1763898 111.4046581  59.8581892  47.3932518 101.8972601  67.0468023
  47.1493449 102.6514662  66.5102298  47.6692448 102.2757949  67.8815270
  49.3470980 108.4411213  65.7245288  49.5587876 109.0842973  65.0479669
  49.3000729 107.6073530  65.2567218  46.9497209 101.0529034  62.6281860
  46.0881688 101.3510288  62.9198598  46.9759644 101.2699433  61.6962893
  43.7658779 109.5971225  59.0355666  44.2297124 109.8758928  58.2460289
  43.5015577 108.6954669  58.8528757  40.6582860 109.1442706  61.9735429
  41.2284217 109.5729974  61.3352914  41.2490972 108.8625291  62.6719615
  42.7027665 105.7194377  55.8445231  43.4051708 106.1715421  56.3119158
  42.3708293 105.0778196  56.4725124  41.1508026 104.3106134  70.2196441
  40.5206687 104.9922414  70.4531837  41.0444114 104.1989215  69.2749579
  36.4452999 103.9777930  61.1462365  35.6552053 104.2335458  60.6702475
  36.9364246 104.7926267  61.2514405  50.4616808 111.3183169  63.8967646
  51.2834252 110.9163356  63.6150327  50.4579211 111.2151403  64.8483761
  38.3967744 104.3422509  58.1045841  37.5998907 104.4541203  58.6229337
  38.1693336 104.6809161  57.2386732  44.2273412 110.8667212  66.0528356
  44.2917844 111.3287619  66.8886528  43.5184336 110.2364577  66.1810666
  34.7290702 104.2308420  63.5777356  34.9798740 105.1155430  63.8434931
  35.2650250 104.0513022  62.8052447  58.5522801 107.6621917  60.2452617
  57.7986510 107.0929315  60.0896621  58.6870343 107.6284582  61.1923252
  43.9421429 112.5335320  55.9207336  43.8067104 113.3786855  56.3492184
  44.4831242 112.7354597  55.1573270  40.4288769  98.6126899  72.5821692
  40.0355715  98.0593098  73.2569336  41.2454909  98.9237478  72.9728209
  37.3950827 110.0510758  56.4935261  37.9075347 110.8454008  56.6440826
  38.0473540 109.3537048  56.4268863  39.2045711 113.1676514  58.5758015
  39.3812340 114.0894479  58.3878999  40.0002545 112.8534933  59.0052394
  43.3456730 100.0284779  70.1741948  44.0866443 100.6291932  70.0946411
  43.5774653  99.2862416  69.6159991  38.4898068 105.2141146  68.4520178
  38.3751583 104.3126403  68.7527277  37.6342586 105.4604843  68.1004994
  45.5689906 113.1558886  70.0507678  45.1253760 112.3695265  69.7328583
  46.2307119 113.3438037  69.3851569  40.3277027 114.6854688  64.5768357
  40.8784452 114.5571751  63.8045351  39.4888503 114.9849577  64.2263250
  47.6671144 113.4361686  68.0789080  47.6489619 114.2570567  67.5869349
  48.5891064 113.3115761  68.3039221  44.1244198 110.9505815  68.9212588
  44.6572535 110.1894104  68.6911896  43.5958279 110.6579467  69.6636743
  47.2913893  96.0565881  64.4506230  46.9478162  96.9467523  64.3745340
  47.6592856  95.8667539  63.5875815  35.3599744 108.3799412  57.2694832
  36.1974966 108.7896420  57.0528540  35.5378011 107.4398854  57.2395026
  47.2564176 106.0474493  52.9578665  46.7410799 106.8179097  53.1967052
  46.9841484 105.3739629  53.5811726  44.8411287 100.8924193  58.0163903
  43.9852883 100.5031044  57.8369542  45.2538238 100.9716154  57.1563689
  46.3710433  98.4270537  62.4155463  45.8675229  98.3900672  61.6023268
  46.6641040  99.3363279  62.4752120  42.6153319  98.5109266  61.4221645
  43.4806316  98.3152075  61.0627534  42.6830828  98.2819618  62.3491002
  52.2298450 108.8006847  54.8931838  51.4527893 108.4618007  54.4487001
  52.9089931 108.8059470  54.2186803  47.0450479 103.9201585  54.7838446
  46.7400614 104.2347734  55.6348589  47.9980921 103.9983005  54.8265779
  45.4896911 110.0791808  56.4331400  44.9618272 109.3444568  56.1204638
  44.9884413 110.8566484  56.1871368  50.4689757 108.2740828  61.5498446
  49.8113431 108.9640090  61.6378575  51.2730156 108.6637260  61.8932433
  40.2215638 100.7411474  58.7938012  40.7959390 100.5186656  58.0611205
  40.8086621 100.8100169  59.5466613  49.2795215 106.6285201  59.6002388
  49.7927097 107.2615193  60.1024098  49.9296439 106.0286397  59.2345748
  40.5485225 102.7715935  52.8133897  39.7122538 103.1090622  53.1343172
  40.4089995 102.6364915  51.8761034  42.5238306  97.6152723  57.5213081
  41.8702718  97.3001740  56.8969696  42.4818780  96.9928464  58.2472904
  43.6349511 107.8972018  49.4366373  42.7276573 107.6661272  49.6357522
  44.1320543 107.1009637  49.6240355  46.5417590 116.6069525  52.3563059
  45.8679288 116.9101222  52.9648017  46.9283412 117.4098606  52.0068516
  45.7576046 104.1034657  61.8460729  44.8398608 104.3249604  61.6882417
  46.1736190 104.1780967  60.9872436  46.5411094 105.5026072  56.9763409
  47.2882913 106.0147470  56.6670531  46.8102684 105.1810125  57.8367803
  44.8137744 107.9984613  53.9590363  43.9048964 107.7143646  54.0562833
  44.8432828 108.4183692  53.0993670  50.0457012 111.6091203  57.7281531
  49.5919339 110.7682112  57.7846721  49.4150978 112.2452601  58.0656311
  48.9889931 102.5383189  58.9582198  48.2512688 102.0260575  59.2892441
  49.2416705 102.0983570  58.1465475  48.4889951 113.4467699  58.6631349
  48.7812925 114.0072756  57.9443715  48.9988572 113.7396260  59.4184508
  49.0901559  95.3159441  59.5523968  49.3960435  94.4556804  59.2649883
  49.8154163  95.9077061  59.3522961  35.3825915 105.7190127  57.9405565
  35.1850314 105.1259488  57.2156632  34.8272579 105.4142337  58.6581504
  43.3622638 105.6113234  60.0600159  43.4171248 104.6587070  59.9842635
  42.5513840 105.7672673  60.5441457  44.5113832 109.5393357  51.2978442
  44.0733262 108.8229216  50.8384079  45.2524273 109.7669472  50.7363533
  41.3014998 104.2290293  57.8190537  40.4882864 104.5284464  58.2255730
  41.7973992 103.8345982  58.5365020  43.4523576 114.2248050  59.7524802
  43.4099755 114.4508897  58.8233334  44.3686275 113.9911425  59.9010603
  46.8989210 104.6932118  66.6505431  47.2538598 104.9203591  67.5099897
  47.5461341 105.0250495  66.0282687  52.6286947 107.8150554  57.3554760
  52.4904845 108.0052150  56.4275950  52.2723166 108.5769937  57.8122812
  40.7929073 101.8008649  63.4351772  41.4328452 101.6597408  62.7374736
  39.9606604 101.5143162  63.0590374  52.6556326 109.8827081  62.3666032
  53.0892833 109.7902370  63.2149086  53.3687907 109.8584581  61.7286048
  41.5689377 111.1011079  59.5486765  42.3629975 110.6061400  59.3469340
  40.8581069 110.5728943  59.1854470  46.3884221 113.4829175  63.8999132
  46.4421244 114.0520111  64.6676848  45.5199003 113.6531060  63.5353170
  37.8772140 105.2454161  55.6246518  36.9469728 105.1838617  55.8416480
  37.9729612 104.7230114  54.8283159  37.7957689 101.7708974  58.2124759
  38.0564507 102.6854307  58.1033920  38.6174862 101.3033417  58.3621372
  39.2682615 103.1846731  65.3823584  39.9405668 102.9764093  64.7336233
  38.4412401 102.9868817  64.9428816  53.5171876 109.9250781  64.8998917
  53.7107766 110.8296592  65.1458192  53.4172494 109.4658201  65.7337502
  45.1708187  99.8108672  67.3989245  44.5236102 100.5098622  67.3053721
  45.9409202 100.2444816  67.7665493  48.5786985 110.0757524  70.4739798
  48.4272491 109.8468076  69.5569882  48.5691664 111.0328126  70.4871143
  45.3472321 107.6489437  65.4586064  46.2764381 107.8000597  65.2855032
  44.9263351 107.7373458  64.6034711  44.1460653 111.6740101  63.2284602
  44.0071739 111.3058886  64.1010540  43.3575249 112.1887741  63.0568560
  44.7408805 116.7749198  54.5710138  44.9160561 116.3037241  55.3855761
  44.0541593 117.4014964  54.7991399  45.6965868 111.0521704  60.6173440
  45.3615701 111.0122474  61.5131090  45.1969814 110.3866420  60.1443850
  39.6710112 106.4589334  66.1426021  39.5329910 105.7269573  66.7437560
  40.5815035 106.3698234  65.8610209  48.6325060 108.3977738  50.8910499
  48.0154230 107.6724567  50.7943552  48.1641548 109.1587099  50.5477574
  42.2992413 106.1709293  65.6309701  43.0092031 105.5302486  65.5896319
  42.2561721 106.4222188  66.5535881  50.2879191 113.1076647  68.5516280
  50.2291738 112.4235867  67.8846863  50.6898710 113.8495637  68.0996906
  41.0121347 103.1574511  67.4505340  40.4758704 102.7065250  68.1026936
  40.4238055 103.2920420  66.7075804  40.4223606 102.6163163  50.0131804
  39.5453072 102.4951964  49.6494050  40.8981359 101.8249241  49.7610692
  50.2896599 111.0716231  66.7830259  49.4023377 110.7342152  66.9056658
  50.8595150 110.3399262  67.0199025  31.9425746 107.4040322  60.1073311
  32.6296786 107.0902052  59.5194326  31.7873874 108.3081687  59.8340562
  36.7460468 102.2930519  64.5358335  36.6618657 101.6856189  63.8008744
  35.9243174 102.7839537  64.5367831  43.8197752 115.7317683  63.7491503
  43.7467923 116.5372655  64.2610807  43.3775145 115.9309649  62.9239524
  43.6087532 114.9689453  57.2594324  42.8255054 115.5111133  57.3532549
  44.3080277 115.4863433  57.6588565  46.9184182 100.7784083  59.9028530
  47.4152881 100.0254045  59.5829600  46.1471163 100.8148399  59.3371739
  54.7713939 106.4824448  61.5446821  54.7603815 107.3649163  61.1740754
  53.9031319 106.1295999  61.3501358  46.2796436 115.6304517  65.9049661
  46.9924408 116.2651982  65.8325563  45.7886464 115.7268383  65.0889663
  48.0013962 109.5355770  57.4766953  47.0670241 109.6557232  57.3071657
  48.1790631 108.6328237  57.2126963  43.5019151 102.9201466  59.6300214
  43.1316938 102.3672506  60.3181120  43.9978243 102.3159599  59.0775214
  51.3886514 105.3773089  58.0116987  51.8546966 106.2101081  57.9377290
  51.8394014 104.9118071  58.7162246  41.3308349 113.3798961  66.7255232
  42.0317809 114.0135444  66.8784626  40.8603464 113.7213692  65.9650871
  49.4562745 111.7216910  55.0103139  49.7322589 111.6073505  55.9197013
  48.5867244 111.3234395  54.9715312  49.3603177  97.7453676  62.0507888
  48.4466256  97.9757903  62.2190095  49.7896278  97.8292120  62.9021921
  49.1309635 105.9343568  64.5507782  48.4781085 106.1819475  63.8960235
  49.5090015 105.1207706  64.2170260  46.0916809 115.9703261  58.6535953
  46.2739203 115.1524917  59.1163705  46.9149795 116.1870953  58.2160843
  46.4258974 114.8971446  55.9151001  46.9546741 114.3863901  55.3021163
  46.6887194 114.5813977  56.7796534  45.1797208 106.6763379  71.0373820
  44.5037845 106.5757508  71.7076195  46.0024842 106.5202593  71.5009817
  36.9276067 112.9135316  63.6586335  37.5129504 112.1679003  63.7914239
  36.7300906 113.2239272  64.5422999  39.7814722 115.9486563  58.6748777
  39.1125098 116.4332691  58.1912817  39.6427592 116.1955783  59.5892156
  31.5193722 105.4840916  62.3790778  31.5577821 104.9504506  63.1727896
  31.0134015 104.9576121  61.7601755  43.9219991 117.9830307  65.2731436
  44.4738299 118.1461928  66.0380521  44.2626184 118.5734744  64.6011460
  38.8984484 100.3305456  65.8753320  38.9625811 101.1920287  65.4630718
  38.8351604  99.7179458  65.1425679  38.3736757 102.4028589  69.5226355
  39.0008796 102.0205666  70.1363879  37.5164676 102.1842791  69.8882047
  48.7730865 112.8091564  71.1280090  49.3170769 113.4221522  70.6335045
  48.1917710 113.3671142  71.6447103  35.1502299 104.2105018  55.4544709
  35.4455741 103.3015696  55.4011763  34.2490335 104.1892757  55.1325712
  47.0588378 115.9312282  62.2595118  46.9339518 115.1302022  61.7506063
  47.7167469 116.4258475  61.7709088  38.6796546 102.2861015  61.4372258
  37.9583132 102.8996982  61.2979731  39.4689802 102.8218779  61.3588904
  49.1223287 113.7321302  63.8874668  48.1753622 113.6126653  63.8152995
  49.4706060 112.8443800  63.9700929  41.4822860  99.6215441  67.7112910
  42.0057262  99.8677738  68.4739219  41.2635193 100.4535476  67.2916047
  36.8790141 101.8919116  55.5784034  36.5502847 101.0116495  55.3959140
  37.2329512 101.8366784  56.4660424  46.1269720 113.5274018  60.0879020
  45.9794682 112.5990726  60.2686590  46.9523213 113.5494109  59.6036095
  39.9931964 102.1792085  55.9459512  40.3328037 102.7078007  55.2238121
  40.4404085 102.5172492  56.7218079  49.7303842 114.3502577  61.1743893
  50.6550389 114.1445438  61.0368344  49.5619145 114.1018978  62.0833234
  42.6875405 100.5629136  65.3962580  42.3472225  99.7636949  65.7983260
  41.9814411 100.8630847  64.8239413  43.3391877  97.6478449  63.8489903
  44.1617946  97.1738927  63.7268794  43.5829940  98.4268932  64.3488590
  41.9800111 100.6766707  54.1452805  42.7008474 101.0547960  53.6416522
  41.3565415 101.3955584  54.2487783  46.1231234 101.3811856  55.0811137
  46.3394849 102.2636494  54.7799965  45.6425301 100.9898069  54.3516779
  40.8630456 104.3397569  61.6581882  40.7175036 104.6537872  62.5506163
  40.3855659 104.9582470  61.1052781  42.7226838 101.3300117  61.7062771
  42.7088407 100.4341210  61.3695069  43.4399267 101.3370781  62.3401057
  44.5752969 101.7637457  63.7515899  44.3170747 102.6854528  63.7500229
  44.0438010 101.3667892  64.4416363  49.5199158 114.8688245  56.5305984
  49.6936035 114.3034667  55.7779837  50.0128049 115.6689139  56.3485474
  35.3376118 106.8802914  64.5969543  34.7929586 107.6562722  64.7289817
  36.2155468 107.2273718  64.4388664  42.1263734 100.2114497  56.9750342
  42.2479646  99.2831144  57.1741229  41.8365777 100.2253183  56.0628657
  44.9954925  97.8969408  60.1117061  45.0176622  97.9608741  59.1569041
  45.4122984  97.0573917  60.3057568  55.3738549 107.6324667  58.1496284
  55.8169695 106.8831993  57.7515407  54.4965059 107.6234804  57.7670016
  50.5074330 114.1855009  53.6302883  51.2025235 114.8061702  53.8490197
  50.8497481 113.3350360  53.9055260  36.1242140 106.0072810  67.4899700
  35.3823876 106.1555445  68.0764330  35.8034884 106.2681075  66.6266449
  52.4065754 111.6354714  55.1590213  52.9317078 111.9741987  54.4339533
  52.3188106 110.7001730  54.9753348  44.0685802 115.5488788  67.2880090
  44.3772929 115.3037935  68.1602790  44.8661284 115.7535427  66.7998960
  44.0906414 117.7026698  59.5185466  43.6511405 117.2103076  60.2118323
  44.8414531 117.1599665  59.2777542  36.5698753 113.8938239  59.5210095
  37.3956773 113.5942010  59.1408738  36.2192805 113.1245861  59.9699883
  41.5380286 113.2464707  61.5907768  40.9160296 112.5835412  61.2909996
  42.2085153 113.2725839  60.9081416  34.7707358 111.8124565  60.4799028
  33.9339267 111.3846739  60.2983029  34.7431004 112.0057008  61.4169819
  41.6104814 101.7246495  71.1840274  41.6592969 102.6008618  70.8018044
  42.1527328 101.1823888  70.6111917  52.0959660 112.2687618  70.4641411
  51.3055203 112.2511757  69.9245911  51.8593014 112.8075912  71.2190448
  52.2157535 109.1180084  67.7774140  52.2655540 108.9530092  68.7189663
  52.1071458 108.2507343  67.3872021  41.0993793 111.7968630  55.0666229
  41.2481914 112.4804095  54.4132901  41.9060237 111.7773720  55.5815684
  49.5061297 105.1011012  69.0933446  50.4071160 104.9617477  68.8017444
  49.5809272 105.2665467  70.0331624  43.8404102 102.4777867  67.9386633
  42.9707412 102.7711433  67.6669221  44.0763583 103.0618312  68.6593896
  53.7175732 111.5377026  68.0216161  53.4260540 111.9007007  68.8579622
  53.1047863 110.8244034  67.8429493  54.9171414 109.1029906  60.5418732
  55.7518305 109.5419710  60.7056292  55.0530543 108.6268559  59.7226977
  51.9662920 106.6609641  66.4896219  52.4417041 106.8537287  65.6815071
  51.0428485 106.7168826  66.2439603  38.8546426 107.8233808  56.0727298
  38.6092468 106.9196138  56.2707508  39.0242341 107.8250958  55.1306776
  46.5443136  98.6957484  65.4552053  47.0625080  99.4318511  65.1298542
  46.1898269  99.0021477  66.2898812  38.1242074 103.5562165  53.5713459
  37.4311319 103.6306520  52.9153495  37.8793826 102.7922509  54.0934976
  46.7955730  95.1157767  60.9752950  47.0757484  94.4480956  61.6013376
  47.5806337  95.3086862  60.4627614  44.5989199 114.2916761  52.5377976
  44.0263166 114.9106948  52.0848448  45.1721993 114.8416122  53.0717898
  50.6664589 103.5375401  64.7224525  51.6182012 103.6373498  64.7436749
  50.4968039 102.7453669  65.2322609  48.6878968 100.6230984  64.9083926
  48.0928900 100.9035997  64.2130414  48.4028665 101.1124885  65.6800667
  47.8186459 114.5753911  53.6686558  48.7517132 114.5099472  53.8719434
  47.7309672 115.4110178  53.2101091  50.4474475 113.8919781  50.6290506
  50.3688107 113.5579645  51.5226264  51.2684142 114.3841549  50.6281978
  53.1452667 106.7581520  63.8366825  53.1128987 105.8197521  64.0226508
  53.7553290 106.8365557  63.1032649  44.9835997 105.6277573  49.8794029
  45.9295102 105.4983781  49.9482447  44.6050242 104.8892235  50.3563457
  53.2947155 103.5492564  63.8825108  52.7786204 102.7651020  63.6955037
  54.1787104 103.2211280  64.0471627  50.9557882  97.2933579  59.8420920
  50.7582703  96.9848668  60.7264252  51.5657588  98.0195218  59.9718850
  58.9629216 107.8197527  62.9772861  59.6932605 107.5582815  63.5380565
  58.3536162 107.0826249  63.0174929  57.0444514 105.9605390  63.5747313
  56.3177677 105.8261355  62.9663804  56.6291800 106.2682218  64.3804031
  44.8674690 109.6795319  71.3394686  45.7877699 109.8573918  71.5334732
  44.8324273 108.7351365  71.1874385  43.1678915 103.5527550  49.8148914
  42.2610370 103.2560662  49.8911627  43.4454896 103.2557368  48.9483200
  34.0856855 104.8733913  60.2647960  33.7659639 104.0199221  59.9722334
  33.5390283 105.0882491  61.0205928  37.8636762 107.5896354  63.9817467
  38.0822772 108.5213462  64.0005501  38.2762536 107.2304329  64.7672271
  44.7840980  98.0964439  55.9693155  43.9741709  97.7511524  56.3448401
  45.4725397  97.7871983  56.5580767  46.7131529  97.1742486  57.5917452
  47.2662567  97.5937940  58.2507475  46.9501615  96.2478234  57.6340408
  42.7364628 103.1629560  73.3720216  42.6361355 104.1123917  73.3032307
  42.5186170 102.8347799  72.4996286  41.9377699 100.4114485  49.9560893
  42.7996863 100.7369383  50.2156710  42.1228043  99.6245981  49.4433959
  33.9545115 108.4936825  62.2341082  33.2608586 108.0790777  61.7211036
  34.7018106 108.5357361  61.6374501  50.0910336  99.2843011  57.0996116
  49.5109005  99.9427815  56.7174168  49.8246268  98.4620356  56.6883534
  48.5413902  98.6848069  59.3017436  49.0413680  98.7964604  58.4931755
  49.1849510  98.3809122  59.9418245  42.5995898 106.5926699  72.1885277
  42.1162980 107.3927059  72.3949166  42.6856837 106.6034644  71.2352721
  35.8681857 108.4255078  60.1107097  35.8452546 108.5242766  59.1588980
  36.1782494 109.2720229  60.4324263  38.5269235 110.4831233  64.2253711
  39.4812489 110.4515176  64.1583643  38.3281759 110.0221857  65.0403937
  39.1168617 109.0532349  66.7924509  39.9361506 109.5476428  66.8159346
  39.3905425 108.1364318  66.7642076  48.8735214 101.4443102  56.1552464
  47.9861069 101.7292752  55.9372659  49.2889203 101.2836865  55.3079741
  52.2249750 101.4689623  59.8706804  53.0010140 101.9586075  60.1431420
  51.4997884 101.8947677  60.3278673  54.6622308 102.1817242  60.9280744
  55.2566799 101.9412978  60.2174052  54.7348892 101.4624373  61.5554280
  48.0178427 111.2087776  50.2500484  48.7214277 111.4137779  50.8658140
  47.2941076 111.7764538  50.5149568  48.8476237 106.9597638  56.3702754
  48.7911439 107.4166189  55.5310387  49.4004580 106.1988322  56.1925597
  52.6581043 102.7487370  57.1952874  52.4017978 102.3484005  58.0261082
  52.0333911 103.4631164  57.0703013  56.9693381 105.4883443  59.7024165
  56.4092939 105.5576632  60.4755727  56.3636885 105.3124427  58.9823662
  49.9265125 111.6470306  52.2998944  50.7610728 111.2151504  52.1176419
  49.7649467 111.4752319  53.2275839  49.5811017 108.1502419  53.6655284
  49.5259821 107.9846690  52.7243728  48.9557072 108.8578452  53.8217473
  34.3703532 103.3870483  67.4916706  35.0162395 102.8769437  67.9803931
  34.1620683 104.1239165  68.0660131  46.8956924 110.4551331  72.9908846
  47.7648084 110.6291983  72.6295481  46.4163675 111.2745748  72.8684576
  42.8907142  97.6510528  53.2440602  42.8785812  98.5952368  53.4008873
  43.7830564  97.4680673  52.9500063  41.0643104 117.5748432  64.6698280
  41.9670351 117.6072042  64.9864775  40.8380474 116.6448883  64.6844616
  42.8196706 116.3279418  61.3308359  41.8692337 116.3281280  61.2172731
  43.1229192 115.5812153  60.8144393  46.7059262  94.2453305  57.4986539
  45.9391657  93.6911791  57.6443221  47.1169967  94.3175173  58.3600690
  38.7101023 100.5338100  71.5891720  39.5732484 100.1774905  71.7995045
  38.1366433 100.1951995  72.2767124  58.5549400 122.1639957  62.3954121
  59.1927810 122.0446704  61.6917461  58.4370243 123.1120801  62.4542073
  55.3639106 122.1167385  62.3315646  55.0257617 122.0008450  61.4436181
  56.2328874 121.7158550  62.3116652  55.8458889 123.2702237  68.2901851
  55.8347530 122.8755035  67.4182355  56.0079528 122.5368309  68.8835623
  53.0647385 120.8855632  51.6632586  53.3172906 120.3637154  50.9016049
  52.1271944 120.7221778  51.7659269  58.1090668 119.8891411  59.4707329
  58.8953757 119.4710834  59.1197746  58.3729372 120.7937503  59.6388977
  63.5099095 119.8266644  60.3740308  64.2424267 119.2565861  60.6078137
  62.7538451 119.4388244  60.8146813  55.1275215 122.2493885  57.5703650
  54.7633422 121.7224506  58.2816572  55.9842331 121.8592354  57.3970135
  61.0324516 113.5388218  64.8334916  60.7007840 114.4083629  64.6096131
  60.4370129 113.2224502  65.5128947  54.7680702 117.2783785  52.5664999
  54.9355104 118.1464021  52.9335470  54.5777871 117.4411067  51.6426288
  60.9253179 118.2583304  61.9128266  60.0170056 118.1898713  61.6187027
  60.8740775 118.7355249  62.7410092  54.7469923 119.7341443  53.5511665
  54.6269548 120.1798493  54.3897146  54.0522511 120.0826760  52.9925204
  54.9994045 119.6772950  69.8563164  54.2227379 120.2366870  69.8466028
  55.6384608 120.1629733  70.3778034  62.7914825 116.4599743  63.6906140
  62.1489206 116.7532276  63.0445935  62.2869754 116.3452663  64.4959337
  60.4454989 120.2062916  54.3791999  61.3572845 120.4390302  54.2039697
  59.9364636 120.7899960  53.8167078  55.0826827 119.5660150  65.3886849
  55.9288022 119.9899564  65.5321498  55.0225464 118.9093775  66.0825412
  58.2326272 117.2264519  67.0468023  57.9887204 117.9806579  66.5102298
  58.5086203 117.6049866  67.8815270  60.1864735 123.7703131  65.7245288
  60.3981630 124.4134891  65.0479669  60.1394483 122.9365448  65.2567218
  57.7890964 116.3820952  62.6281860  56.9275443 116.6802205  62.9198598
  57.8153398 116.5991351  61.6962893  53.5421419 121.0486295  55.8445231
  54.2445463 121.5007338  56.3119158  53.2102048 120.4070113  56.4725124
  51.9901781 119.6398051  70.2196441  51.3600441 120.3214332  70.4531837
  51.8837869 119.5281133  69.2749579  47.2846753 119.3069847  61.1462365
  46.4945807 119.5627376  60.6702475  47.7758001 120.1218185  61.2514405
  49.2361499 119.6714427  58.1045841  48.4392662 119.7833121  58.6229337
  49.0087091 120.0101079  57.2386732  69.3916556 122.9913835  60.2452617
  68.6380264 122.4221233  60.0896621  69.5264097 122.9576499  61.1923252
  51.2682523 113.9418817  72.5821692  50.8749469 113.3885016  73.2569336
  52.0848664 114.2529396  72.9728209  54.1850484 115.3576696  70.1741948
  54.9260198 115.9583849  70.0946411  54.4168407 114.6154334  69.6159991
  58.1307647 111.3857799  64.4506230  57.7871917 112.2759441  64.3745340
  58.4986610 111.1959457  63.5875815  58.0957930 121.3766410  52.9578665
  57.5804554 122.1471015  53.1967052  57.8235239 120.7031546  53.5811726
  55.6805041 116.2216111  58.0163903  54.8246638 115.8322961  57.8369542
  56.0931993 116.3008072  57.1563689  57.2104188 113.7562454  62.4155463
  56.7068983 113.7192589  61.6023268  57.5034795 114.6655197  62.4752120
  53.4547074 113.8401184  61.4221645  54.3200070 113.6443993  61.0627534
  53.5224583 113.6111536  62.3491002  63.0692204 124.1298765  54.8931838
  62.2921647 123.7909924  54.4487001  63.7483685 124.1351388  54.2186803
  57.8844233 119.2493502  54.7838446  57.5794369 119.5639652  55.6348589
  58.8374675 119.3274922  54.8265779  61.3083511 123.6032746  61.5498446
  60.6507186 124.2932008  61.6378575  62.1123910 123.9929178  61.8932433
  51.0609393 116.0703392  58.7938012  51.6353145 115.8478573  58.0611205
  51.6480375 116.1392086  59.5466613  60.1188970 121.9577119  59.6002388
  60.6320852 122.5907111  60.1024098  60.7690194 121.3578314  59.2345748
  51.3878980 118.1007853  52.8133897  50.5516292 118.4382539  53.1343172
  51.2483750 117.9656833  51.8761034  53.3632060 112.9444641  57.5213081
  52.7096473 112.6293658  56.8969696  53.3212535 112.3220381  58.2472904
  56.5969801 119.4326574  61.8460729  55.6792362 119.6541521  61.6882417
  57.0129944 119.5072885  60.9872436  57.3804849 120.8317990  56.9763409
  58.1276668 121.3439387  56.6670531  57.6496438 120.5102043  57.8367803
  59.8283686 117.8675106  58.9582198  59.0906443 117.3552493  59.2892441
  60.0810459 117.4275488  58.1465475  59.9295313 110.6451358  59.5523968
  60.2354190 109.7848722  59.2649883  60.6547918 111.2368979  59.3522961
  54.2016393 120.9405151  60.0600159  54.2565003 119.9878988  59.9842635
  53.3907595 121.0964590  60.5441457  52.1408753 119.5582211  57.8190537
  51.3276618 119.8576382  58.2255730  52.6367747 119.1637900  58.5365020
  57.7382964 120.0224036  66.6505431  58.0932352 120.2495509  67.5099897
  58.3855096 120.3542412  66.0282687  63.4680701 123.1442471  57.3554760
  63.3298600 123.3344067  56.4275950  63.1116920 123.9061854  57.8122812
  51.6322827 117.1300567  63.4351772  52.2722207 116.9889326  62.7374736
  50.8000358 116.8435080  63.0590374  63.4950081 125.2118998  62.3666032
  63.9286588 125.1194288  63.2149086  64.2081662 125.1876499  61.7286048
  48.7165895 120.5746079  55.6246518  47.7863483 120.5130534  55.8416480
  48.8123367 120.0522032  54.8283159  48.6351444 117.1000892  58.2124759
  48.8958261 118.0146225  58.1033920  49.4568616 116.6325334  58.3621372
  50.1076369 118.5138649  65.3823584  50.7799423 118.3056011  64.7336233
  49.2806156 118.3160735  64.9428816  64.3565631 125.2542699  64.8998917
  64.5501521 126.1588510  65.1458192  64.2566249 124.7950118  65.7337502
  56.0101941 115.1400590  67.3989245  55.3629856 115.8390539  67.3053721
  56.7802957 115.5736734  67.7665493  56.1866076 122.9781355  65.4586064
  57.1158136 123.1292514  65.2855032  55.7657106 123.0665375  64.6034711
  59.4718814 123.7269656  50.8910499  58.8547985 123.0016484  50.7943552
  59.0035303 124.4879016  50.5477574  53.1386167 121.5001211  65.6309701
  53.8485786 120.8594403  65.5896319  53.0955475 121.7514106  66.5535881
  51.8515101 118.4866429  67.4505340  51.3152458 118.0357167  68.1026936
  51.2631810 118.6212338  66.7075804  51.2617360 117.9455080  50.0131804
  50.3846826 117.8243881  49.6494050  51.7375113 117.1541159  49.7610692
  47.5854222 117.6222437  64.5358335  47.5012411 117.0148106  63.8008744
  46.7636929 118.1131455  64.5367831  57.7577936 116.1076000  59.9028530
  58.2546636 115.3545963  59.5829600  56.9864918 116.1440317  59.3371739
  65.6107694 121.8116366  61.5446821  65.5997570 122.6941081  61.1740754
  64.7425073 121.4587917  61.3501358  54.3412905 118.2493383  59.6300214
  53.9710693 117.6964424  60.3181120  54.8371997 117.6451517  59.0775214
  62.2280268 120.7065007  58.0116987  62.6940720 121.5392998  57.9377290
  62.6787769 120.2409988  58.7162246  60.1996931 113.0745594  62.0507888
  59.2860011 113.3049821  62.2190095  60.6290032 113.1584038  62.9021921
  59.9703390 121.2635486  64.5507782  59.3174840 121.5111393  63.8960235
  60.3483769 120.4499624  64.2170260  56.0190963 122.0055297  71.0373820
  55.3431600 121.9049426  71.7076195  56.8418596 121.8494510  71.5009817
  49.7378239 115.6597374  65.8753320  49.8019565 116.5212205  65.4630718
  49.6745359 115.0471376  65.1425679  49.2130511 117.7320507  69.5226355
  49.8402550 117.3497584  70.1363879  48.3558430 117.5134708  69.8882047
  45.9896054 119.5396936  55.4544709  46.2849495 118.6307614  55.4011763
  45.0884090 119.5184675  55.1325712  49.5190301 117.6152932  61.4372258
  48.7976887 118.2288900  61.2979731  50.3083557 118.1510697  61.3588904
  52.3216614 114.9507359  67.7112910  52.8451016 115.1969655  68.4739219
  52.1028948 115.7827394  67.2916047  47.7183896 117.2211033  55.5784034
  47.3896602 116.3408412  55.3959140  48.0723266 117.1658702  56.4660424
  50.8325719 117.5084003  55.9459512  51.1721791 118.0369924  55.2238121
  51.2797839 117.8464409  56.7218079  53.5269160 115.8921054  65.3962580
  53.1865980 115.0928867  65.7983260  52.8208166 116.1922765  64.8239413
  54.1785631 112.9770366  63.8489903  55.0011701 112.5030844  63.7268794
  54.4223695 113.7560850  64.3488590  52.8193866 116.0058625  54.1452805
  53.5402228 116.3839877  53.6416522  52.1959170 116.7247501  54.2487783
  56.9624989 116.7103774  55.0811137  57.1788603 117.5928412  54.7799965
  56.4819056 116.3189987  54.3516779  51.7024210 119.6689487  61.6581882
  51.5568791 119.9829790  62.5506163  51.2249414 120.2874387  61.1052781
  53.5620593 116.6592035  61.7062771  53.5482162 115.7633128  61.3695069
  54.2793021 116.6662699  62.3401057  55.4146724 117.0929375  63.7515899
  55.1564502 118.0146446  63.7500229  54.8831764 116.6959810  64.4416363
  52.9657489 115.5406415  56.9750342  53.0873400 114.6123061  57.1741229
  52.6759531 115.5545101  56.0628657  55.8348679 113.2261326  60.1117061
  55.8570376 113.2900659  59.1569041  56.2516738 112.3865834  60.3057568
  66.2132304 122.9616585  58.1496284  66.6563450 122.2123910  57.7515407
  65.3358814 122.9526721  57.7670016  52.4498568 117.0538413  71.1840274
  52.4986724 117.9300535  70.8018044  52.9921083 116.5115806  70.6111917
  63.0551289 124.4472002  67.7774140  63.1049294 124.2822010  68.7189663
  62.9465213 123.5799261  67.3872021  60.3455052 120.4302930  69.0933446
  61.2464914 120.2909395  68.8017444  60.4203026 120.5957385  70.0331624
  54.6797857 117.8069785  67.9386633  53.8101166 118.1003351  67.6669221
  54.9157337 118.3910230  68.6593896  65.7565168 124.4321823  60.5418732
  66.5912060 124.8711628  60.7056292  65.8924297 123.9560477  59.7226977
  62.8056674 121.9901558  66.4896219  63.2810796 122.1829205  65.6815071
  61.8822240 122.0460744  66.2439603  57.3836891 114.0249402  65.4552053
  57.9018835 114.7610429  65.1298542  57.0292023 114.3313395  66.2898812
  48.9635828 118.8854083  53.5713459  48.2705073 118.9598438  52.9153495
  48.7187580 118.1214427  54.0934976  57.6349485 110.4449684  60.9752950
  57.9151239 109.7772873  61.6013376  58.4200092 110.6378780  60.4627614
  61.5058343 118.8667318  64.7224525  62.4575766 118.9665416  64.7436749
  61.3361794 118.0745587  65.2322609  59.5272723 115.9522902  64.9083926
  58.9322655 116.2327914  64.2130414  59.2422419 116.4416803  65.6800667
  63.9846421 122.0873438  63.8366825  63.9522741 121.1489439  64.0226508
  64.5947045 122.1657475  63.1032649  55.8229752 120.9569491  49.8794029
  56.7688857 120.8275699  49.9482447  55.4443997 120.2184153  50.3563457
  64.1340910 118.8784481  63.8825108  63.6179958 118.0942938  63.6955037
  65.0180858 118.5503198  64.0471627  61.7951636 112.6225497  59.8420920
  61.5976458 112.3140585  60.7264252  62.4051342 113.3487136  59.9718850
  69.8022971 123.1489445  62.9772861  70.5326359 122.8874733  63.5380565
  69.1929916 122.4118167  63.0174929  67.8838268 121.2897307  63.5747313
  67.1571432 121.1553272  62.9663804  67.4685555 121.5974136  64.3804031
  54.0072669 118.8819467  49.8148914  53.1004124 118.5852580  49.8911627
  54.2848650 118.5849286  48.9483200  55.6234735 113.4256357  55.9693155
  54.8135463 113.0803442  56.3448401  56.3119152 113.1163901  56.5580767
  57.5525283 112.5034404  57.5917452  58.1056322 112.9229857  58.2507475
  57.7895369 111.5770152  57.6340408  53.5758382 118.4921478  73.3720216
  53.4755109 119.4415835  73.3032307  53.3579924 118.1639716  72.4996286
  52.7771454 115.7406403  49.9560893  53.6390618 116.0661301  50.2156710
  52.9621798 114.9537899  49.4433959  60.9304090 114.6134929  57.0996116
  60.3502759 115.2719733  56.7174168  60.6640023 113.7912274  56.6883534
  59.3807657 114.0139987  59.3017436  59.8807435 114.1256521  58.4931755
  60.0243264 113.7101040  59.9418245  59.7128968 116.7735019  56.1552464
  58.8254823 117.0584670  55.9372659  60.1282957 116.6128783  55.3079741
  63.0643504 116.7981540  59.8706804  63.8403894 117.2877993  60.1431420
  62.3391638 117.2239595  60.3278673  65.5016063 117.5109160  60.9280744
  66.0960554 117.2704896  60.2174052  65.5742647 116.7916290  61.5554280
  59.6869992 122.2889555  56.3702754  59.6305193 122.7458107  55.5310387
  60.2398334 121.5280240  56.1925597  63.4974798 118.0779287  57.1952874
  63.2411732 117.6775923  58.0261082  62.8727666 118.7923081  57.0703013
  67.8087136 120.8175361  59.7024165  67.2486694 120.8868550  60.4755727
  67.2030639 120.6416345  58.9823662  60.4204771 123.4794337  53.6655284
  60.3653575 123.3138608  52.7243728  59.7950826 124.1870370  53.8217473
  45.2097286 118.7162401  67.4916706  45.8556150 118.2061355  67.9803931
  45.0014437 119.4531083  68.0660131  53.7300897 112.9802446  53.2440602
  53.7179566 113.9244286  53.4008873  54.6224319 112.7972591  52.9500063
  57.5453016 109.5745222  57.4986539  56.7785412 109.0203709  57.6443221
  57.9563721 109.6467091  58.3600690  49.5494777 115.8630018  71.5891720
  50.4126239 115.5066823  71.7995045  48.9760188 115.5243913  72.2767124
  68.9701402 126.7149717  64.4506230  68.6265671 127.6051358  64.3745340
  69.3380365 126.5251374  63.5875815  70.7689068 125.9743276  59.5523968
  71.0747944 125.1140639  59.2649883  71.4941672 126.5660896  59.3522961
  68.4743239 125.7741602  60.9752950  68.7544993 125.1064791  61.6013376
  69.2593846 125.9670698  60.4627614  72.6345391 127.9517415  59.8420920
  72.4370212 127.6432503  60.7264252  73.2445096 128.6779054  59.9718850
  68.3846771 124.9037140  57.4986539  67.6179166 124.3495627  57.6443221
  68.7957476 124.9759009  58.3600690   4.3580628  22.5242491  49.1199428
   4.9959038  22.4049238  48.4162768   4.2401471  23.4723335  49.1787380
   1.1670335  22.4769919  49.0560952   0.8288846  22.3610984  48.1681487
   2.0360103  22.0761084  49.0361959   1.6490118  23.6304771  55.0147158
   1.6378758  23.2357569  54.1427662   1.8110757  22.8970843  55.6080929
   2.6056709  27.9976363  40.3572308   1.9544689  28.5830444  39.9706322
   3.4001072  28.5282558  40.4167346   3.9121897  20.2493945  46.1952636
   4.6984986  19.8313368  45.8443053   4.1760601  21.1540037  46.3634284
   4.0831974  25.6866795  40.8941293   3.4477807  25.7601422  41.6062197
   3.7529381  26.2760394  40.2160372   9.3130324  20.1869178  47.0985614
  10.0455496  19.6168395  47.3323444   8.5569680  19.7990778  47.5392120
   0.9306444  22.6096420  44.2948957   0.5664651  22.0827041  45.0061878
   1.7873560  22.2194889  44.1215442   3.3287264  26.1003298  50.9576136
   3.0287987  27.0028337  50.8491943   2.9838323  25.8335481  51.8097288
   6.7284408  18.6185838  48.6373573   5.8201285  18.5501247  48.3432334
   6.6772004  19.0957783  49.4655398   8.5946054  16.8202277  50.4151447
   7.9520434  17.1134810  49.7691241   8.0900983  16.7055197  51.2204644
   6.2486218  20.5665450  41.1037306   7.1604074  20.7992837  40.9285004
   5.7395865  21.1502494  40.5412385   4.5326985  24.9890078  54.7398599
   4.9410341  24.5472488  53.9953231   3.8104247  24.4142705  54.9932792
   0.8858055  19.9262685  52.1132156   1.7319251  20.3502098  52.2566805
   0.8256693  19.2696309  52.8070719   4.8555800  25.5491268  48.4950888
   4.2264663  25.7136983  47.7926955   4.4681462  25.9632878  49.2661852
   8.7345032  26.4845706  45.8495251   8.0496070  26.8644608  45.2992285
   8.8188881  27.0941033  46.5827199   4.0357501  17.5867053  53.7713329
   3.7918433  18.3409113  53.2347605   4.3117431  17.9652400  54.6060576
   5.9895964  24.1305665  52.4490595   6.2012859  24.7737425  51.7724976
   5.9425712  23.2967982  51.9812525   3.5922193  16.7423486  49.3527167
   2.7306672  17.0404739  49.6443905   3.6184627  16.9593885  48.4208200
   7.1041792  27.0077621  50.6212952   7.9259235  26.6057808  50.3395634
   7.1004194  26.9045855  51.5729068  15.1947785  23.3516369  46.9697924
  14.4411493  22.7823767  46.8141928  15.3295326  23.3179034  47.9168558
   0.5846413  28.2229771  42.6452643   0.4492087  29.0681307  43.0737491
   1.1256225  28.4249049  41.8818577   2.2114889  28.8453338  56.7752985
   1.7678743  28.0589717  56.4573890   2.8732103  29.0332488  56.1096876
   4.3096127  29.1256138  54.8034386   4.2914602  29.9465019  54.3114656
   5.2316047  29.0010213  55.0284528   3.8989159  21.7368944  39.6823972
   3.3835782  22.5073549  39.9212359   3.6266467  21.0634081  40.3057033
   8.8723433  24.4901299  41.6177145   8.0952876  24.1512459  41.1732307
   9.5514914  24.4953922  40.9432110   3.6875462  19.6096037  41.5083753
   3.3825598  19.9242186  42.3593896   4.6405904  19.6877456  41.5511086
   2.1321894  25.7686260  43.1576707   1.6043256  25.0339019  42.8449944
   1.6309397  26.5460936  42.9116675   7.1114740  23.9635280  48.2743753
   6.4538414  24.6534542  48.3623882   7.9155139  24.3531712  48.6177739
   5.9220199  22.3179653  46.3247695   6.4352081  22.9509645  46.8269405
   6.5721423  21.7180849  45.9591055   3.1842573  32.2963977  39.0808366
   2.5104272  32.5995674  39.6893324   3.5708395  33.0993058  38.7313823
   2.4001030  19.7929109  48.5706035   1.4823591  20.0144056  48.4127723
   2.8161173  19.8675419  47.7117743   3.1836077  21.1920524  43.7008716
   3.9307896  21.7041921  43.3915838   3.4527667  20.8704577  44.5613109
   1.4562728  23.6879065  40.6835670   0.5473947  23.4038098  40.7808140
   1.4857811  24.1078144  39.8238977   6.6881995  27.2985654  44.4526837
   6.2344322  26.4576564  44.5092028   6.0575962  27.9347053  44.7901618
   5.6314915  18.2277641  45.6827505   4.8937671  17.7155027  46.0137747
   5.8841688  17.7878022  44.8710782   5.1314934  29.1362151  45.3876656
   5.4237909  29.6967208  44.6689021   5.6413555  29.4290712  46.1429815
   1.1538815  25.2287809  38.0223748   0.7158245  24.5123668  37.5629386
   1.8949256  25.4563923  37.4608840   3.5414193  20.3826570  53.3750738
   3.8963581  20.6098043  54.2345204   4.1886324  20.7144947  52.7527993
   9.2711930  23.5045006  44.0800067   9.1329829  23.6946602  43.1521256
   8.9148149  24.2664389  44.5368118   9.2981310  25.5721533  49.0911339
   9.7317816  25.4796822  49.9394393  10.0112890  25.5479033  48.4531355
   3.0309205  29.1723627  50.6244439   3.0846227  29.7414563  51.3922155
   2.1623986  29.3425512  50.2598476  10.1596859  25.6145233  51.6244224
  10.3532749  26.5191044  51.8703499  10.0597477  25.1552652  52.4582809
   5.2211968  25.7651976  57.1985105   5.0697474  25.5362528  56.2815188
   5.2116647  26.7222578  57.2116450   1.9897304  23.3383889  52.1831371
   2.9189364  23.4895048  52.0100338   1.5688334  23.4267910  51.3280017
   1.3833788  32.4643650  41.2955445   1.5585544  31.9931693  42.1101068
   0.6966576  33.0909416  41.5236706   2.3390851  26.7416156  47.3418746
   2.0040684  26.7016926  48.2376396   1.8394797  26.0760872  46.8689157
   5.2750043  24.0872190  37.6155806   4.6579214  23.3619018  37.5188859
   4.8066531  24.8481551  37.2722880   6.9304175  28.7971099  55.2761586
   6.8716721  28.1130319  54.6092169   7.3323693  29.5390089  54.8242212
   6.9321582  26.7610683  53.5075566   6.0448361  26.4236604  53.6301965
   7.5020133  26.0293714  53.7444331   3.5609165  16.4678534  46.6273836
   4.0577865  15.7148497  46.3074906   2.7896147  16.5042851  46.0617046
  11.4138922  22.1718900  48.2692128  11.4028799  23.0543615  47.8986061
  10.5456302  21.8190451  48.0746665   2.9221419  31.3198969  52.6294968
   3.6349391  31.9546434  52.5570869   2.4311447  31.4162835  51.8134970
   4.6438946  25.2250222  44.2012260   3.7095224  25.3451684  44.0316964
   4.8215614  24.3222688  43.9372269   8.0311497  21.0667541  44.7362294
   8.4971949  21.8995533  44.6622596   8.4818998  20.6012523  45.4407552
   6.0987728  27.4111362  41.7348446   6.3747572  27.2967957  42.6442320
   5.2292227  27.0128847  41.6960619   5.7734618  21.6238020  51.2753089
   5.1206069  21.8713927  50.6205542   6.1514998  20.8102158  50.9415566
   2.7341792  31.6597713  45.3781259   2.9164187  30.8419369  45.8409012
   3.5574778  31.8765405  44.9406149   3.0683958  30.5865898  42.6396308
   3.5971724  30.0758353  42.0266470   3.3312177  30.2708428  43.5041841
   1.8222191  22.3657831  57.7619126   1.1462828  22.2651960  58.4321501
   2.6449825  22.2097045  58.2255123   0.5644974  33.6724758  51.9976742
   1.1163282  33.8356380  52.7625827   0.9051168  34.2629196  51.3256767
   5.4155849  28.4986016  57.8525397   5.9595753  29.1115974  57.3580351
   4.8342693  29.0565594  58.3692410   3.7013362  31.6206734  48.9840424
   3.5764501  30.8196474  48.4751370   4.3592453  32.1152927  48.4954394
   5.7648270  29.4215754  50.6119974   4.8178605  29.3021105  50.5398301
   6.1131043  28.5338252  50.6946236   2.7694703  29.2168470  46.8124327
   2.6219666  28.2885178  46.9931897   3.5948197  29.2388561  46.3281402
   6.3728825  30.0397029  47.8989199   7.2975373  29.8339890  47.7613651
   6.2044128  29.7913430  48.8078541   6.1624141  30.5582696  43.2551291
   6.3361019  29.9929119  42.5025143   6.6553032  31.3583591  43.0730781
  12.0163532  23.3219119  44.8741591  12.4594678  22.5726445  44.4760714
  11.1390043  23.3129256  44.4915323   7.1499314  29.8749461  40.3548189
   7.8450218  30.4956153  40.5735504   7.4922464  29.0244812  40.6300567
   9.0490737  27.3249166  41.8835520   9.5742061  27.6636439  41.1584840
   8.9613089  26.3896182  41.6998655   0.7110786  31.2383240  54.0125397
   1.0197912  30.9932387  54.8848096   1.5086268  31.4429878  53.5244267
   8.7384643  27.9582070  57.1886718   7.9480187  27.9406209  56.6491217
   8.5017997  28.4970364  57.9435754   8.8582518  24.8074536  54.5019446
   8.9080523  24.6424544  55.4434969   8.7496441  23.9401795  54.1117327
   6.1486280  20.7905464  55.8178753   7.0496143  20.6511929  55.5262751
   6.2234255  20.9559919  56.7576931  10.3600715  27.2271478  54.7461468
  10.0685523  27.5901458  55.5824929   9.7472846  26.5138486  54.5674800
  11.5596397  24.7924358  47.2664038  12.3943289  25.2314162  47.4301599
  11.6955526  24.3163011  46.4472284   8.6087903  22.3504092  53.2141526
   9.0842025  22.5431739  52.4060377   7.6853468  22.4063278  52.9684910
   1.2414182  29.9811212  39.2623283   0.6688149  30.6001400  38.8093755
   1.8146976  30.5310574  39.7963205   7.3089572  19.2269853  51.4469832
   8.2606995  19.3267950  51.4682056   7.1393022  18.4348121  51.9567916
   5.3303952  16.3125436  51.6329232   4.7353884  16.5930449  50.9375721
   5.0453648  16.8019337  52.4045974   4.4611442  30.2648363  40.3931865
   5.3942115  30.1993924  40.5964741   4.3734655  31.1004629  39.9346398
   7.0899459  29.5814233  37.3535813   7.0113090  29.2474097  38.2471570
   7.9109125  30.0736001  37.3527285   9.7877650  22.4475972  50.5612131
   9.7553970  21.5091973  50.7471815  10.3978273  22.5260009  49.8277956
   1.6260981  21.3172025  36.6039335   2.5720085  21.1878233  36.6727753
   1.2475226  20.5786687  37.0808763   9.9372138  19.2387016  50.6070414
   9.4211187  18.4545472  50.4200343  10.8212087  18.9105732  50.7716934
  15.6054200  23.5091979  49.7018168  16.3357588  23.2477267  50.2625871
  14.9961145  22.7720701  49.7420236  13.6869497  21.6499842  50.2992619
  12.9602660  21.5155807  49.6909111  13.2716784  21.9576670  51.1049337
   1.5099673  25.3689771  58.0639992   2.4302683  25.5468370  58.2580039
   1.4749256  24.4245817  57.9119691   6.7335319  14.9737463  43.8241423
   6.1533988  15.6322267  43.4419475   6.4671252  14.1514808  43.4128840
   5.5160197  17.1337554  42.8797771   4.6286052  17.4187204  42.6617966
   5.9314186  16.9731317  42.0325048   8.8674733  17.1584075  46.5952110
   9.6435123  17.6480527  46.8676727   8.1422867  17.5842129  47.0523980
  11.3047292  17.8711694  47.6526051  11.8991783  17.6307430  46.9419359
  11.3773875  17.1518824  48.2799587   4.6603410  26.8982228  36.9745791
   5.3639261  27.1032231  37.5903447   3.9366059  27.4658990  37.2394874
   5.4901221  22.6492090  43.0948061   5.4336422  23.1060641  42.2555693
   6.0429563  21.8882774  42.9170904   9.3006027  18.4381821  43.9198181
   9.0442961  18.0378457  44.7506388   8.6758895  19.1525615  43.7948320
  13.6118364  21.1777895  46.4269472  13.0517922  21.2471084  47.2001034
  13.0061868  21.0018879  45.7068968   6.5690108  27.3364758  39.0244251
   7.4035712  26.9045956  38.8421726   6.4074451  27.1646771  39.9521145
   6.2236000  23.8396871  40.3900590   6.1684804  23.6741142  39.4489034
   5.5982055  24.5472904  40.5462780   3.5381907  26.1445783  59.7154153
   4.4073067  26.3186435  59.3540788   3.0588659  26.9640200  59.5929882
  15.1974383  37.8534409  49.1199428  15.8352793  37.7341156  48.4162768
  15.0795226  38.8015253  49.1787380  12.0064089  37.8061837  49.0560952
  11.6682601  37.6902901  48.1681487  12.8753857  37.4053002  49.0361959
   7.8650905  39.6597313  45.0457843   7.3015770  39.5687250  44.2774131
   7.7503300  38.8397218  45.5260336  12.4883872  38.9596689  55.0147158
  12.4772513  38.5649487  54.1427662  12.6504512  38.2262761  55.6080929
   5.4115337  41.1548505  47.8842064   6.2036629  40.8139329  47.4688363
   5.6511987  41.2643480  48.8044217  13.4450464  43.3268281  40.3572308
  12.7938443  43.9122361  39.9706322  14.2394826  43.8574476  40.4167346
   7.3706091  40.4157418  40.7559443   8.1436967  39.8686405  40.6172318
   7.7231490  41.2801667  40.9673904   9.2091133  41.7433800  53.9626342
   8.9180999  42.6479431  53.8473008   9.8448118  41.7850328  54.6770411
  10.1347340  39.1210649  50.5527702  10.7310912  38.8966671  49.8384664
  10.1922312  38.3795394  51.1553149   9.7072369  36.5750084  38.3877893
   9.9597889  36.0531605  37.6261356   8.7696928  36.4116230  38.4904576
  14.7515651  35.5785863  46.1952636  15.5378741  35.1605286  45.8443053
  15.0154356  36.4831955  46.3634284  14.9225729  41.0158713  40.8941293
  14.2871562  41.0893339  41.6062197  14.5923135  41.6052312  40.2160372
  20.1524079  35.5161096  47.0985614  20.8849250  34.9460313  47.3323444
  19.3963434  35.1282696  47.5392120   9.4268657  38.4778190  40.5902267
   9.3104915  37.8023094  41.2583352   9.5370917  37.9910564  39.7734421
  11.7700198  37.9388337  44.2948957  11.4058405  37.4118958  45.0061878
  12.6267314  37.5486806  44.1215442  17.6749499  29.2282670  51.5580223
  17.3432824  30.0978081  51.3341438  17.0795112  28.9118954  52.2374253
  11.4105685  32.9678237  39.2910305  11.5780088  33.8358473  39.6580776
  11.2202854  33.1305519  38.3671594  14.1681018  41.4295216  50.9576136
  13.8681742  42.3320255  50.8491943  13.8232078  41.1627399  51.8097288
   7.6193500  37.8809013  46.9912840   6.6943996  37.7485227  47.1990532
   7.8677913  38.6603232  47.4882782  17.5678162  33.9477756  48.6373573
  16.6595040  33.8793164  48.3432334  17.5165758  34.4249701  49.4655398
  11.3894906  35.4235894  40.2756972  11.2694531  35.8692945  41.1142452
  10.6947494  35.7721212  39.7170510   4.9802311  37.5242286  47.8256629
   5.1094692  37.7776765  48.7396041   4.2999762  38.1169994  47.5061284
   9.1501798  48.1939536  43.9247103   9.0725828  49.1447361  44.0035584
   8.5463442  47.8485409  44.5822030  11.6419028  35.3667402  56.5808470
  10.8652362  35.9261322  56.5711335  12.2809591  35.8524185  57.1023340
  19.4339809  32.1494194  50.4151447  18.7914189  32.4426728  49.7691241
  18.9294737  32.0347115  51.2204644  17.0879972  35.8957368  41.1037306
  17.9997828  36.1284754  40.9285004  16.5789619  36.4794412  40.5412385
   9.8965400  38.1752855  56.1426437  10.6380085  38.7137899  55.8661261
   9.1902386  38.8019144  56.2997989  15.3720740  40.3181995  54.7398599
  15.7804096  39.8764406  53.9953231  14.6498001  39.7434623  54.9932792
  11.7251810  35.2554602  52.1132156  12.5713005  35.6794016  52.2566805
  11.6650448  34.5988227  52.8070719  15.6949555  40.8783186  48.4950888
  15.0658417  41.0428900  47.7926955  15.3075217  41.2924796  49.2661852
  19.5738786  41.8137624  45.8495251  18.8889825  42.1936525  45.2992285
  19.6582636  42.4232951  46.5827199  14.8751255  32.9158971  53.7713329
  14.6312187  33.6701031  53.2347605  15.1511186  33.2944318  54.6060576
  16.8289718  39.4597583  52.4490595  17.0406613  40.1029343  51.7724976
  16.7819466  38.6259899  51.9812525  14.4315947  32.0715404  49.3527167
  13.5700426  32.3696657  49.6443905  14.4578382  32.2885802  48.4208200
  11.2477516  40.6157594  45.7600973  11.7115862  40.8945297  44.9705595
  10.9834315  39.7141039  45.5774063   8.1401598  40.1629076  48.6980736
   8.7102955  40.5916344  48.0598220   8.7309709  39.8811660  49.3964922
  10.1846403  36.7380747  42.5690538  10.8870446  37.1901790  43.0364464
   9.8527031  36.0964565  43.1970431   8.6326764  35.3292503  56.9441747
   8.0025425  36.0108784  57.1777144   8.5262852  35.2175585  55.9994885
   3.9271736  34.9964299  47.8707671   3.1370790  35.2521828  47.3947782
   4.4182984  35.8112637  47.9759712  17.9435546  42.3369538  50.6212952
  18.7652990  41.9349726  50.3395634  17.9397949  42.2337773  51.5729068
   5.8786482  35.3608878  44.8291148   5.0817645  35.4727573  45.3474644
   5.6512074  35.6995531  43.9632039  11.7092149  41.8853582  52.7773663
  11.7736582  42.3473989  53.6131835  11.0003073  41.2550947  52.9055973
   2.2109439  35.2494790  50.3022662   2.4617478  36.1341800  50.5680238
   2.7468988  35.0699391  49.5297754  26.0341539  38.6808287  46.9697924
  25.2805247  38.1115685  46.8141928  26.1689080  38.6470951  47.9168558
  11.4240167  43.5521689  42.6452643  11.2885842  44.3973225  43.0737491
  11.9649980  43.7540967  41.8818577   7.9107507  29.6313269  59.3066998
   7.5174452  29.0779468  59.9814642   8.7273647  29.9423847  59.6973516
   4.8769565  41.0697127  43.2180568   5.3894085  41.8640377  43.3686133
   5.5292277  40.3723418  43.1514170   6.6864449  44.1862883  45.3003321
   6.8631078  45.1080848  45.1124305   7.4821283  43.8721303  45.7297701
  10.8275468  31.0471148  56.8987255  11.5685181  31.6478301  56.8191717
  11.0593391  30.3048786  56.3405297   5.9716806  36.2327515  55.1765484
   5.8570321  35.3312773  55.4772583   5.1161324  36.4791212  54.8250301
  13.0508644  44.1745256  56.7752985  12.6072498  43.3881634  56.4573890
  13.7125857  44.3624406  56.1096876   7.8095765  45.7041057  51.3013664
   8.3603190  45.5758121  50.5290658   6.9707241  46.0035946  50.9508556
  15.1489882  44.4548056  54.8034386  15.1308357  45.2756937  54.3114656
  16.0709802  44.3302131  55.0284528  11.6062936  41.9692185  55.6457895
  12.1391273  41.2080473  55.4157203  11.0777017  41.6765837  56.3882049
  14.7732631  27.0752251  51.1751536  14.4296900  27.9653893  51.0990647
  15.1411593  26.8853909  50.3121121   2.8418481  39.3985781  43.9940139
   3.6793703  39.8082790  43.7773846   3.0196749  38.4585224  43.9640333
  14.7382913  37.0660862  39.6823972  14.2229537  37.8365467  39.9212359
  14.4660222  36.3925998  40.3057033  12.3230024  31.9110563  44.7409210
  11.4671621  31.5217413  44.5614849  12.7356976  31.9902524  43.8808995
  13.8529171  29.4456906  49.1400770  13.3493967  29.4087041  48.3268575
  14.1459778  30.3549649  49.1997426  10.0972057  29.5295636  48.1466951
  10.9625054  29.3338445  47.7872841  10.1649566  29.3005988  49.0736308
  19.7117188  39.8193217  41.6177145  18.9346630  39.4804376  41.1732307
  20.3908669  39.8245840  40.9432110  14.5269217  34.9387954  41.5083753
  14.2219352  35.2534103  42.3593896  15.4799659  35.0169374  41.5511086
  12.9715648  41.0978178  43.1576707  12.4437010  40.3630937  42.8449944
  12.4703151  41.8752854  42.9116675  17.9508494  39.2927198  48.2743753
  17.2932169  39.9826459  48.3623882  18.7548894  39.6823630  48.6177739
   7.7034376  31.7597844  45.5183318   8.2778128  31.5373025  44.7856511
   8.2905358  31.8286538  46.2711920  16.7613953  37.6471571  46.3247695
  17.2745835  38.2801563  46.8269405  17.4115177  37.0472766  45.9591055
   8.0303963  33.7902305  39.5379204   7.1941275  34.1276991  39.8588478
   7.8908733  33.6551285  38.6006341  10.0057044  28.6339093  44.2458388
   9.3521456  28.3188110  43.6215002   9.9637518  28.0114833  44.9718211
  11.1168249  38.9158388  36.1611680  10.2095310  38.6847641  36.3602829
  11.6139281  38.1196007  36.3485661  14.0236328  47.6255895  39.0808366
  13.3498026  47.9287592  39.6893324  14.4102149  48.4284975  38.7313823
  13.2394784  35.1221026  48.5706035  12.3217346  35.3435973  48.4127723
  13.6554928  35.1967337  47.7117743  14.0229832  36.5212442  43.7008716
  14.7701651  37.0333839  43.3915838  14.2921421  36.1996495  44.5613109
  12.2956482  39.0170983  40.6835670  11.3867701  38.7330015  40.7808140
  12.3251566  39.4370061  39.8238977  17.5275749  42.6277572  44.4526837
  17.0738077  41.7868482  44.5092028  16.8969716  43.2638971  44.7901618
  16.4708669  33.5569558  45.6827505  15.7331426  33.0446944  46.0137747
  16.7235443  33.1169940  44.8710782  15.9708689  44.4654069  45.3876656
  16.2631663  45.0259126  44.6689021  16.4807309  44.7582630  46.1429815
  16.5720296  26.3345810  46.2769274  16.8779173  25.4743174  45.9895189
  17.2972901  26.9263430  46.0768268   2.8644652  36.7376497  44.6650872
   2.6669052  36.1445857  43.9401939   2.3091316  36.4328707  45.3826811
  10.8441376  36.6299603  46.7845465  10.8989986  35.6773440  46.7087942
  10.0332578  36.7859042  47.2686764  11.9932570  40.5579726  38.0223748
  11.5552000  39.8415585  37.5629386  12.7343011  40.7855841  37.4608840
   8.7833736  35.2476663  44.5435844   7.9701602  35.5470834  44.9501036
   9.2792730  34.8532352  45.2610326  10.9342314  45.2434420  46.4770109
  10.8918493  45.4695266  45.5478641  11.8505013  45.0097795  46.6255910
  14.3807948  35.7118487  53.3750738  14.7357335  35.9389961  54.2345204
  15.0280079  36.0436864  52.7527993  20.1105685  38.8336923  44.0800067
  19.9723583  39.0238519  43.1521256  19.7541903  39.5956306  44.5368118
   8.2747811  32.8195019  50.1597079   8.9147190  32.6783778  49.4620042
   7.4425341  32.5329532  49.7835681  20.1375064  40.9013450  49.0911339
  20.5711571  40.8088739  49.9394393  20.8506645  40.8770951  48.4531355
   9.0508115  42.1197449  46.2732072   9.8448713  41.6247769  46.0714646
   8.3399807  41.5915312  45.9099777  13.8702959  44.5015544  50.6244439
  13.9239981  45.0706481  51.3922155  13.0017741  44.6717430  50.2598476
   5.3590878  36.2640531  42.3491824   4.4288466  36.2024986  42.5661786
   5.4548350  35.7416483  41.5528465   5.2776427  32.7895344  44.9370066
   5.5383245  33.7040677  44.8279226   6.0993600  32.3219786  45.0866679
   6.7501353  34.2033101  52.1068890   7.4224406  33.9950463  51.4581539
   5.9231139  34.0055187  51.6674123  20.9990614  40.9437151  51.6244224
  21.1926504  41.8482962  51.8703499  20.8991232  40.4844570  52.4582809
  12.6526925  30.8295042  54.1234551  12.0054840  31.5284991  54.0299028
  13.4227940  31.2631186  54.4910799  16.0605722  41.0943894  57.1985105
  15.9091229  40.8654445  56.2815188  16.0510402  42.0514495  57.2116450
  12.8291059  38.6675807  52.1831371  13.7583119  38.8186966  52.0100338
  12.4082089  38.7559827  51.3280017  11.6279391  42.6926471  49.9529909
  11.4890476  42.3245255  50.8255847  10.8393987  43.2074110  49.7813866
  12.2227543  47.7935567  41.2955445  12.3979298  47.3223611  42.1101068
  11.5360331  48.4201334  41.5236706  13.1784606  42.0708074  47.3418746
  12.8434438  42.0308844  48.2376396  12.6788552  41.4052790  46.8689157
   7.1528850  37.4775704  52.8671328   7.0148648  36.7455942  53.4682867
   8.0633773  37.3884604  52.5855515  16.1143797  39.4164108  37.6155806
  15.4972968  38.6910936  37.5188859  15.6460286  40.1773468  37.2722880
   9.7811150  37.1895663  52.3555007  10.4910769  36.5488855  52.3141626
   9.7380459  37.4408558  53.2781188  17.7697929  44.1263016  55.2761586
  17.7110475  43.4422236  54.6092169  18.1717448  44.8682006  54.8242212
   8.4940084  34.1760881  54.1750647   7.9577441  33.7251619  54.8272243
   7.9056793  34.3106790  53.4321111   6.7888628  50.9424930  48.0695305
   7.0285226  51.5743454  48.7474324   5.9457824  50.5912970  48.3560665
   7.9042343  33.6349532  36.7377110   7.0271810  33.5138333  36.3739357
   8.3800096  32.8435611  36.4855999  17.7715336  42.0902600  53.5075566
  16.8842115  41.7528522  53.6301965  18.3413887  41.3585631  53.7444331
   4.2279206  33.3116889  51.2603641   4.1437394  32.7042558  50.5254051
   3.4061912  33.8025907  51.2613137  11.3016490  46.7504053  50.4736809
  11.2286661  47.5559024  50.9856114  10.8593883  46.9496018  49.6484831
  11.0906269  45.9875823  43.9839631  10.3073791  46.5297503  44.0777855
  11.7899015  46.5049802  44.3833872  14.4002920  31.7970452  46.6273836
  14.8971619  31.0440414  46.3074906  13.6289901  31.8334769  46.0617046
  22.2532677  37.5010818  48.2692128  22.2422553  38.3835533  47.8986061
  21.3850056  37.1482368  48.0746665  13.7615173  46.6490887  52.6294968
  14.4743146  47.2838351  52.5570869  13.2705202  46.7454753  51.8134970
  15.4832700  40.5542139  44.2012260  14.5488979  40.6743602  44.0316964
  15.6609369  39.6514606  43.9372269  10.9837888  33.9387835  46.3545521
  10.6135676  33.3858875  47.0426426  11.4796981  33.3345969  45.8020521
  18.8705252  36.3959459  44.7362294  19.3365704  37.2287450  44.6622596
  19.3212752  35.9304440  45.4407552   8.8127087  44.3985330  53.4500539
   9.5136546  45.0321813  53.6029933   8.3422202  44.7400062  52.6896178
  16.9381483  42.7403280  41.7348446  17.2141327  42.6259874  42.6442320
  16.0685981  42.3420765  41.6960619  16.8421914  28.7640046  48.7753195
  15.9284994  28.9944272  48.9435402  17.2715016  28.8478490  49.6267227
  16.6128373  36.9529938  51.2753089  15.9599823  37.2005845  50.6205542
  16.9908753  36.1394076  50.9415566  13.5735547  46.9889631  45.3781259
  13.7557941  46.1711287  45.8409012  14.3968533  47.2057323  44.9406149
  13.9077712  45.9157816  42.6396308  14.4365479  45.4050270  42.0266470
  14.1705932  45.6000346  43.5041841  12.6615946  37.6949749  57.7619126
  11.9856583  37.5943878  58.4321501  13.4843580  37.5388962  58.2255123
   4.4094805  43.9321685  50.3831641   4.9948242  43.1865373  50.5159546
   4.2119643  44.2425642  51.2668305   7.2633460  46.9672933  45.3994084
   6.5943835  47.4519060  44.9158124   7.1246330  47.2142153  46.3137462
  11.4038729  49.0016676  51.9976742  11.9557037  49.1648298  52.7625827
  11.7444922  49.5921114  51.3256767   6.3803222  31.3491826  52.5998627
   6.4444548  32.2106657  52.1876025   6.3170342  30.7365828  51.8670985
   5.8555494  33.4214958  56.2471661   6.4827533  33.0392036  56.8609185
   4.9983413  33.2029160  56.6127354  16.2549603  43.8277934  57.8525397
  16.7989507  44.4407892  57.3580351  15.6736448  44.3857512  58.3692410
   2.6321037  35.2291388  42.1790016   2.9274478  34.3202066  42.1257070
   1.7309073  35.2079127  41.8571018  14.5407116  46.9498652  48.9840424
  14.4158255  46.1488391  48.4751370  15.1986207  47.4444845  48.4954394
   6.1615284  33.3047384  48.1617565   5.4401870  33.9183352  48.0225038
   6.9508540  33.8405149  48.0834211  16.6042024  44.7507672  50.6119974
  15.6572360  44.6313023  50.5398301  16.9524797  43.8630170  50.6946236
   8.9641598  30.6401811  54.4358216   9.4876000  30.8864107  55.1984526
   8.7453931  31.4721845  54.0161354   4.3608879  32.9105485  42.3029341
   4.0321585  32.0302864  42.1204447   4.7148250  32.8553154  43.1905730
  13.6088458  44.5460388  46.8124327  13.4613420  43.6177095  46.9931897
  14.4341951  44.5680479  46.3281402   7.4750702  33.1978455  42.6704819
   7.8146774  33.7264376  41.9483427   7.9222822  33.5358861  43.4463385
  17.2122580  45.3688947  47.8989199  18.1369127  45.1631808  47.7613651
  17.0437883  45.1205348  48.8078541  10.1694143  31.5815506  52.1207887
   9.8290963  30.7823319  52.5228567   9.4633149  31.8817217  51.5484720
  10.8210615  28.6664818  50.5735210  11.6436684  28.1925296  50.4514100
  11.0648678  29.4455302  51.0733896   9.4618849  31.6953077  40.8698112
  10.1827212  32.0734329  40.3661828   8.8384153  32.4141953  40.9733090
  13.6049972  32.3998226  41.8056444  13.8213586  33.2822863  41.5045272
  13.1244039  32.0084439  41.0762086   8.3449193  35.3583939  48.3827188
   8.1993774  35.6724242  49.2751470   7.8674397  35.9768839  47.8298087
  10.2045576  32.3486487  48.4308078  10.1907145  31.4527580  48.0940376
  10.9218004  32.3557150  49.0646364  12.0571707  32.7823827  50.4761205
  11.7989485  33.7040898  50.4745536  11.5256747  32.3854261  51.1661670
  17.0017896  45.8874614  43.2551291  17.1754773  45.3221037  42.5025143
  17.4946787  46.6875509  43.0730781   2.8194856  37.8989283  51.3214850
   2.2748324  38.6749091  51.4535124   3.6974205  38.2460088  51.1633971
   9.6082472  31.2300867  43.6995648   9.7298383  30.3017513  43.8986536
   9.3184515  31.2439553  42.7873964  12.4773663  28.9155777  46.8362368
  12.4995359  28.9795111  45.8814348  12.8941722  28.0760286  47.0302874
  22.8557287  38.6511037  44.8741591  23.2988433  37.9018362  44.4760714
  21.9783797  38.6421173  44.4915323  17.9893068  45.2041378  40.3548189
  18.6843973  45.8248071  40.5735504  18.3316218  44.3536730  40.6300567
   3.6060877  37.0259179  54.2145007   2.8642613  37.1741815  54.8009637
   3.2853622  37.2867445  53.3511756  19.8884491  42.6541084  41.8835520
  20.4135815  42.9928357  41.1584840  19.8006844  41.7188099  41.6998655
  11.5504540  46.5675158  54.0125397  11.8591666  46.3224304  54.8848096
  12.3480022  46.7721796  53.5244267  11.5725152  48.7213067  46.2430773
  11.1330142  48.2289446  46.9363630  12.3233269  48.1786035  46.0022848
   4.0517491  44.9124608  46.2455401   4.8775511  44.6128380  45.8654045
   3.7011543  44.1432231  46.6945190   9.0199024  44.2651076  48.3153075
   8.3979034  43.6021781  48.0155303   9.6903891  44.2912208  47.6326723
   2.2526096  42.8310935  47.2044335   1.4158004  42.4033109  47.0228336
   2.2249742  43.0243378  48.1415126   9.0923552  32.7432864  57.9085581
   9.1411707  33.6194987  57.5263350   9.6346066  32.2010257  57.3357224
  19.5778397  43.2873988  57.1886718  18.7873941  43.2698127  56.6491217
  19.3411752  43.8262281  57.9435754  19.6976272  40.1366454  54.5019446
  19.7474277  39.9716461  55.4434969  19.5890196  39.2693713  54.1117327
   8.5812531  42.8155000  41.7911535   8.7300652  43.4990464  41.1378208
   9.3878975  42.7960090  42.3060991  16.9880035  36.1197382  55.8178753
  17.8889898  35.9803847  55.5262751  17.0628009  36.2851837  56.7576931
  11.3222840  33.4964237  54.6631939  10.4526150  33.7897803  54.3914528
  11.5582321  34.0804682  55.3839203  21.1994469  42.5563396  54.7461468
  20.9079278  42.9193376  55.5824929  20.5866601  41.8430404  54.5674800
  22.3990152  40.1216275  47.2664038  23.2337043  40.5606079  47.4301599
  22.5349280  39.6454929  46.4472284  19.4481658  37.6796010  53.2141526
  19.9235779  37.8723656  52.4060377  18.5247223  37.7355196  52.9684910
   6.3365164  38.8420177  42.7972604   6.0911206  37.9382507  42.9952814
   6.5061079  38.8437328  41.8552082  14.0261874  29.7143854  52.1797360
  14.5443818  30.4504881  51.8543848  13.6717007  30.0207847  53.0144119
   5.6060812  34.5748535  40.2958766   4.9130057  34.6492890  39.6398802
   5.3612564  33.8108879  40.8180283  14.2774468  26.1344136  47.6998256
  14.5576222  25.4667325  48.3258683  15.0625075  26.3273232  47.1872920
  12.0807937  45.3103130  39.2623283  11.5081904  45.9293317  38.8093755
  12.6540730  45.8602492  39.7963205  18.1483327  34.5561770  51.4469832
  19.1000749  34.6559868  51.4682056  17.9786777  33.7640039  51.9567916
  16.1697706  31.6417353  51.6329232  15.5747638  31.9222366  50.9375721
  15.8847403  32.1311254  52.4045974  15.3005196  45.5940280  40.3931865
  16.2335870  45.5285842  40.5964741  15.2128409  46.4296547  39.9346398
  17.9293213  44.9106151  37.3535813  17.8506845  44.5766014  38.2471570
  18.7502880  45.4027919  37.3527285  20.6271404  37.7767890  50.5612131
  20.5947724  36.8383891  50.7471815  21.2372028  37.8551927  49.8277956
  12.4654735  36.6463943  36.6039335  13.4113840  36.5170151  36.6727753
  12.0868980  35.9078605  37.0808763  20.7765893  34.5678933  50.6070414
  20.2604941  33.7837390  50.4200343  21.6605841  34.2397650  50.7716934
  18.4376620  28.3119949  46.5666227  18.2401441  28.0035037  47.4509559
  19.0476325  29.0381588  46.6964157  26.4447954  38.8383897  49.7018168
  27.1751343  38.5769185  50.2625871  25.8354900  38.1012619  49.7420236
  24.5263251  36.9791759  50.2992619  23.7996415  36.8447724  49.6909111
  24.1110538  37.2868588  51.1049337  12.3493428  40.6981689  58.0639992
  13.2696437  40.8760288  58.2580039  12.3143011  39.7537734  57.9119691
  10.6497652  34.5713919  36.5394220   9.7429108  34.2747032  36.6156934
  10.9273633  34.2743737  35.6728507   1.5675593  35.8920283  46.9893267
   1.2478377  35.0385591  46.6967641   1.0209021  36.1068861  47.7451234
   5.3455500  38.6082724  50.7062773   5.5641510  39.5399832  50.7250807
   5.7581274  38.2490698  51.4917577  12.2659718  29.1150809  42.6938462
  11.4560446  28.7697894  43.0693708  12.9544135  28.8058353  43.2826073
  14.1950266  28.1928856  44.3162758  14.7481305  28.6124309  44.9752781
  14.4320353  27.2664604  44.3585714  10.2183366  34.1815929  60.0965522
  10.1180092  35.1310286  60.0277613  10.0004908  33.8534168  59.2241592
   9.4196437  31.4300855  36.6806200  10.2815601  31.7555753  36.9402017
   9.6046781  30.6432350  36.1679265   1.4363853  39.5123194  48.9586388
   0.7427324  39.0977147  48.4456343   2.1836844  39.5543731  48.3619807
  17.5729073  30.3029381  43.8241423  16.9927742  30.9614185  43.4419475
  17.3065006  29.4806726  43.4128840  16.0232640  29.7034439  46.0262743
  16.5232418  29.8150973  45.2177062  16.6668248  29.3995492  46.6663551
  10.0814636  37.6113068  58.9130584   9.5981717  38.4113428  59.1194473
  10.1675575  37.6221013  57.9598028   3.3500595  39.4441448  46.8352403
   3.3271283  39.5429135  45.8834286   3.6601232  40.2906599  47.1569569
   6.0087973  41.5017603  50.9499018   6.9631227  41.4701545  50.8828949
   5.8100497  41.0408227  51.7649244   6.5987355  40.0718719  53.5169815
   7.4180244  40.5662798  53.5404653   6.8724163  39.1550687  53.4887383
  16.3553951  32.4629471  42.8797771  15.4679806  32.7479122  42.6617966
  16.7707941  32.3023235  42.0325048  19.7068488  32.4875992  46.5952110
  20.4828878  32.9772445  46.8676727  18.9816622  32.9134047  47.0523980
  22.1441046  33.2003612  47.6526051  22.7385537  32.9599348  46.9419359
  22.2167630  32.4810742  48.2799587   4.3638202  47.0437223  47.9669216
   4.2292670  46.2837623  47.4007214   3.9470264  47.7678122  47.4998004
  15.4997165  42.2274146  36.9745791  16.2033015  42.4324149  37.5903447
  14.7759814  42.7950908  37.2394874  16.3294975  37.9784007  43.0948061
  16.2730177  38.4352559  42.2555693  16.8823318  37.2174692  42.9170904
  20.1399781  33.7673739  43.9198181  19.8836715  33.3670375  44.7506388
  19.5152649  34.4817533  43.7948320  24.4512119  36.5069812  46.4269472
  23.8911677  36.5763002  47.2001034  23.8455622  36.3310797  45.7068968
   7.5207328  47.9406540  48.1787658   7.4039712  48.8851972  48.0766349
   6.6999774  47.6380101  48.5673457  17.4083862  42.6656675  39.0244251
  18.2429466  42.2337874  38.8421726  17.2468205  42.4938689  39.9521145
  17.0629755  39.1688789  40.3900590  17.0078558  39.0033060  39.4489034
  16.4375810  39.8764821  40.5462780   1.8522269  34.4056853  54.2162012
   2.4981133  33.8955807  54.7049238   1.6439421  35.1425535  54.7905438
  14.3775662  41.4737700  59.7154153  15.2466821  41.6478353  59.3540788
  13.8982413  42.2932117  59.5929882  10.3725880  28.6696898  39.9685909
  10.3604550  29.6138737  40.1254180  11.2649302  28.4867043  39.6745370
   8.5461842  48.5934801  51.3943587   9.4489089  48.6258412  51.7110082
   8.3199212  47.6635252  51.4089922  10.3015444  47.3465788  48.0553665
   9.3511075  47.3467650  47.9418038  10.6047930  46.5998523  47.5389700
  14.1877999  25.2639674  44.2231845  13.4210395  24.7098161  44.3688528
  14.5988704  25.3361543  45.0845997   6.1919760  31.5524470  58.3137027
   7.0551222  31.1961275  58.5240351   5.6185171  31.2138365  59.0012431
  26.0368137  53.1826326  49.1199428  26.6746547  53.0633074  48.4162768
  25.9188980  54.1307170  49.1787380  22.8457844  53.1353754  49.0560952
  22.5076355  53.0194819  48.1681487  23.7147612  52.7344920  49.0361959
  18.7044659  54.9889231  45.0457843  18.1409525  54.8979168  44.2774131
  18.5897054  54.1689135  45.5260336  23.3277627  54.2888606  55.0147158
  23.3166267  53.8941404  54.1427662  23.4898266  53.5554679  55.6080929
  16.2509091  56.4840422  47.8842064  17.0430383  56.1431247  47.4688363
  16.4905741  56.5935398  48.8044217  24.2844218  58.6560199  40.3572308
  23.6332198  59.2414279  39.9706322  25.0788581  59.1866393  40.4167346
  18.2099845  55.7449336  40.7559443  18.9830721  55.1978323  40.6172318
  18.5625244  56.6093585  40.9673904  20.0484888  57.0725718  53.9626342
  19.7574754  57.9771349  53.8473008  20.6841872  57.1142246  54.6770411
  20.9741095  54.4502567  50.5527702  21.5704667  54.2258589  49.8384664
  21.0316066  53.7087312  51.1553149  20.5466123  51.9042002  38.3877893
  20.7991644  51.3823523  37.6261356  19.6090682  51.7408147  38.4904576
  25.5909406  50.9077780  46.1952636  26.3772495  50.4897203  45.8443053
  25.8548110  51.8123872  46.3634284  25.7619483  56.3450631  40.8941293
  25.1265316  56.4185257  41.6062197  25.4316890  56.9344229  40.2160372
  30.9917833  50.8453013  47.0985614  31.7243005  50.2752230  47.3323444
  30.2357189  50.4574614  47.5392120  20.2662412  53.8070108  40.5902267
  20.1498670  53.1315011  41.2583352  20.3764672  53.3202482  39.7734421
  22.6093953  53.2680255  44.2948957  22.2452160  52.7410876  45.0061878
  23.4661069  52.8778724  44.1215442  28.5143253  44.5574588  51.5580223
  28.1826578  45.4269998  51.3341438  27.9188867  44.2410872  52.2374253
  22.2499440  48.2970155  39.2910305  22.4173842  49.1650391  39.6580776
  22.0596609  48.4597436  38.3671594  25.0074773  56.7587134  50.9576136
  24.7075496  57.6612172  50.8491943  24.6625832  56.4919317  51.8097288
  18.4587254  53.2100930  46.9912840  17.5337751  53.0777144  47.1990532
  18.7071668  53.9895150  47.4882782  28.4071917  49.2769674  48.6373573
  27.4988794  49.2085082  48.3432334  28.3559512  49.7541619  49.4655398
  22.2288661  50.7527812  40.2756972  22.1088286  51.1984863  41.1142452
  21.5341249  51.1013130  39.7170510  15.8196065  52.8534204  47.8256629
  15.9488447  53.1068683  48.7396041  15.1393517  53.4461912  47.5061284
  19.9895553  63.5231454  43.9247103  19.9119582  64.4739279  44.0035584
  19.3857196  63.1777326  44.5822030  22.4812782  50.6959319  56.5808470
  21.7046117  51.2553239  56.5711335  23.1203346  51.1816102  57.1023340
  30.2733563  47.4786112  50.4151447  29.6307943  47.7718645  49.7691241
  29.7688492  47.3639032  51.2204644  27.9273727  51.2249285  41.1037306
  28.8391583  51.4576672  40.9285004  27.4183374  51.8086329  40.5412385
  20.7359155  53.5044773  56.1426437  21.4773839  54.0429817  55.8661261
  20.0296140  54.1311061  56.2997989  26.2114494  55.6473913  54.7398599
  26.6197850  55.2056324  53.9953231  25.4891756  55.0726541  54.9932792
  22.5645564  50.5846520  52.1132156  23.4106760  51.0085933  52.2566805
  22.5044202  49.9280144  52.8070719  26.5343309  56.2075104  48.4950888
  25.9052172  56.3720818  47.7926955  26.1468971  56.6216713  49.2661852
  25.7145010  48.2450888  53.7713329  25.4705942  48.9992949  53.2347605
  25.9904940  48.6236236  54.6060576  27.6683473  54.7889501  52.4490595
  27.8800368  55.4321260  51.7724976  27.6213221  53.9551817  51.9812525
  25.2709702  47.4007321  49.3527167  24.4094181  47.6988575  49.6443905
  25.2972136  47.6177720  48.4208200  22.0871271  55.9449512  45.7600973
  22.5509616  56.2237215  44.9705595  21.8228069  55.0432956  45.5774063
  18.9795352  55.4920993  48.6980736  19.5496709  55.9208262  48.0598220
  19.5703464  55.2103578  49.3964922  21.0240157  52.0672664  42.5690538
  21.7264200  52.5193708  43.0364464  20.6920786  51.4256483  43.1970431
  19.4720519  50.6584421  56.9441747  18.8419179  51.3400702  57.1777144
  19.3656606  50.5467502  55.9994885  14.7665491  50.3256217  47.8707671
  13.9764545  50.5813745  47.3947782  15.2576738  51.1404555  47.9759712
  28.7829301  57.6661456  50.6212952  29.6046744  57.2641643  50.3395634
  28.7791703  57.5629690  51.5729068  16.7180236  50.6900796  44.8291148
  15.9211400  50.8019490  45.3474644  16.4905829  51.0287448  43.9632039
  22.5485904  57.2145499  52.7773663  22.6130336  57.6765907  53.6131835
  21.8396828  56.5842864  52.9055973  13.0503194  50.5786707  50.3022662
  13.3011232  51.4633717  50.5680238  13.5862742  50.3991309  49.5297754
  36.8735294  54.0100205  46.9697924  36.1199002  53.4407603  46.8141928
  37.0082835  53.9762869  47.9168558  22.2633922  58.8813607  42.6452643
  22.1279596  59.7265143  43.0737491  22.8043734  59.0832884  41.8818577
  18.7501261  44.9605187  59.3066998  18.3568207  44.4071385  59.9814642
  19.5667402  45.2715765  59.6973516  15.7163319  56.3989045  43.2180568
  16.2287840  57.1932295  43.3686133  16.3686032  55.7015335  43.1514170
  17.5258204  59.5154801  45.3003321  17.7024832  60.4372766  45.1124305
  18.3215037  59.2013220  45.7297701  21.6669222  46.3763066  56.8987255
  22.4078936  46.9770219  56.8191717  21.8987145  45.6340704  56.3405297
  16.8110560  51.5619433  55.1765484  16.6964075  50.6604690  55.4772583
  15.9555078  51.8083130  54.8250301  23.8902398  59.5037173  56.7752985
  23.4466252  58.7173552  56.4573890  24.5519612  59.6916324  56.1096876
  18.6489519  61.0332975  51.3013664  19.1996944  60.9050038  50.5290658
  17.8100995  61.3327864  50.9508556  25.9883636  59.7839973  54.8034386
  25.9702111  60.6048854  54.3114656  26.9103556  59.6594048  55.0284528
  22.4456690  57.2984103  55.6457895  22.9785027  56.5372391  55.4157203
  21.9170771  57.0057755  56.3882049  25.6126385  42.4044169  51.1751536
  25.2690655  43.2945810  51.0990647  25.9805348  42.2145826  50.3121121
  13.6812236  54.7277699  43.9940139  14.5187458  55.1374708  43.7773846
  13.8590504  53.7877141  43.9640333  25.5776668  52.3952780  39.6823972
  25.0623291  53.1657384  39.9212359  25.3053976  51.7217916  40.3057033
  23.1623779  47.2402481  44.7409210  22.3065375  46.8509331  44.5614849
  23.5750731  47.3194441  43.8808995  24.6922926  44.7748824  49.1400770
  24.1887721  44.7378959  48.3268575  24.9853532  45.6841567  49.1997426
  20.9365811  44.8587554  48.1466951  21.8018808  44.6630362  47.7872841
  21.0043320  44.6297905  49.0736308  30.5510942  55.1485134  41.6177145
  29.7740385  54.8096294  41.1732307  31.2302423  55.1537758  40.9432110
  25.3662971  50.2679872  41.5083753  25.0613107  50.5826021  42.3593896
  26.3193413  50.3461292  41.5511086  23.8109403  56.4270095  43.1576707
  23.2830765  55.6922855  42.8449944  23.3096906  57.2044772  42.9116675
  28.7902249  54.6219116  48.2743753  28.1325923  55.3118377  48.3623882
  29.5942648  55.0115548  48.6177739  18.5428131  47.0889761  45.5183318
  19.1171882  46.8664943  44.7856511  19.1299113  47.1578456  46.2711920
  27.6007708  52.9763488  46.3247695  28.1139590  53.6093480  46.8269405
  28.2508932  52.3764684  45.9591055  18.8697718  49.1194223  39.5379204
  18.0335030  49.4568909  39.8588478  18.7302487  48.9843202  38.6006341
  20.8450798  43.9631010  44.2458388  20.1915211  43.6480028  43.6215002
  20.8031272  43.3406751  44.9718211  21.9562003  54.2450305  36.1611680
  21.0489065  54.0139559  36.3602829  22.4533035  53.4487925  36.3485661
  24.8630082  62.9547813  39.0808366  24.1891781  63.2579509  39.6893324
  25.2495904  63.7576893  38.7313823  24.0788539  50.4512944  48.5706035
  23.1611100  50.6727891  48.4127723  24.4948682  50.5259254  47.7117743
  24.8623586  51.8504360  43.7008716  25.6095405  52.3625757  43.3915838
  25.1315176  51.5288412  44.5613109  23.1350237  54.3462900  40.6835670
  22.2261456  54.0621933  40.7808140  23.1645320  54.7661979  39.8238977
  28.3669504  57.9569490  44.4526837  27.9131831  57.1160400  44.5092028
  27.7363471  58.5930888  44.7901618  27.3102424  48.8861476  45.6827505
  26.5725180  48.3738862  46.0137747  27.5629197  48.4461857  44.8710782
  26.8102443  59.7945987  45.3876656  27.1025418  60.3551044  44.6689021
  27.3201064  60.0874548  46.1429815  27.4114051  41.6637728  46.2769274
  27.7172928  40.8035091  45.9895189  28.1366656  42.2555348  46.0768268
  13.7038407  52.0668414  44.6650872  13.5062807  51.4737775  43.9401939
  13.1485071  51.7620625  45.3826811  21.6835131  51.9591521  46.7845465
  21.7383740  51.0065357  46.7087942  20.8726333  52.1150960  47.2686764
  22.8326324  55.8871644  38.0223748  22.3945754  55.1707503  37.5629386
  23.5736765  56.1147759  37.4608840  19.6227491  50.5768581  44.5435844
  18.8095356  50.8762751  44.9501036  20.1186485  50.1824269  45.2610326
  21.7736068  60.5726338  46.4770109  21.7312247  60.7987184  45.5478641
  22.6898767  60.3389712  46.6255910  25.2201702  51.0410405  53.3750738
  25.5751090  51.2681878  54.2345204  25.8673833  51.3728782  52.7527993
  30.9499439  54.1628841  44.0800067  30.8117338  54.3530437  43.1521256
  30.5935658  54.9248224  44.5368118  19.1141565  48.1486936  50.1597079
  19.7540945  48.0075695  49.4620042  18.2819096  47.8621450  49.7835681
  30.9768819  56.2305368  49.0911339  31.4105325  56.1380657  49.9394393
  31.6900399  56.2062869  48.4531355  19.8901869  57.4489367  46.2732072
  20.6842468  56.9539687  46.0714646  19.1793562  56.9207230  45.9099777
  24.7096714  59.8307462  50.6244439  24.7633736  60.3998398  51.3922155
  23.8411495  60.0009347  50.2598476  16.1984633  51.5932448  42.3491824
  15.2682221  51.5316904  42.5661786  16.2942105  51.0708401  41.5528465
  16.1170182  48.1187261  44.9370066  16.3776999  49.0332594  44.8279226
  16.9387354  47.6511704  45.0866679  17.5895107  49.5325018  52.1068890
  18.2618160  49.3242380  51.4581539  16.7624894  49.3347104  51.6674123
  23.4920679  46.1586959  54.1234551  22.8448594  46.8576909  54.0299028
  24.2621694  46.5923103  54.4910799  26.8999477  56.4235811  57.1985105
  26.7484983  56.1946363  56.2815188  26.8904156  57.3806413  57.2116450
  23.6684813  53.9967724  52.1831371  24.5976873  54.1478884  52.0100338
  23.2475843  54.0851745  51.3280017  22.4673145  58.0218389  49.9529909
  22.3284231  57.6537173  50.8255847  21.6787741  58.5366028  49.7813866
  23.0621297  63.1227485  41.2955445  23.2373053  62.6515528  42.1101068
  22.3754085  63.7493251  41.5236706  24.0178360  57.3999991  47.3418746
  23.6828193  57.3600761  48.2376396  23.5182306  56.7344707  46.8689157
  17.9922604  52.8067621  52.8671328  17.8542402  52.0747860  53.4682867
  18.9027528  52.7176521  52.5855515  26.9537552  54.7456026  37.6155806
  26.3366723  54.0202854  37.5188859  26.4854040  55.5065386  37.2722880
  20.6204905  52.5187581  52.3555007  21.3304523  51.8780773  52.3141626
  20.5774213  52.7700476  53.2781188  28.6091684  59.4554934  55.2761586
  28.5504230  58.7714154  54.6092169  29.0111202  60.1973924  54.8242212
  19.3333839  49.5052799  54.1750647  18.7971196  49.0543537  54.8272243
  18.7450547  49.6398707  53.4321111  17.6282382  66.2716848  48.0695305
  17.8678981  66.9035372  48.7474324  16.7851579  65.9204888  48.3560665
  18.7436098  48.9641450  36.7377110  17.8665564  48.8430251  36.3739357
  19.2193851  48.1727528  36.4855999  28.6109091  57.4194518  53.5075566
  27.7235870  57.0820440  53.6301965  29.1807642  56.6877549  53.7444331
  10.2638238  53.7518610  46.8318617  10.9509278  53.4380340  46.2439633
  10.1086367  54.6559974  46.5585869  15.0672960  48.6408806  51.2603641
  14.9831149  48.0334476  50.5254051  14.2455667  49.1317825  51.2613137
  22.1410244  62.0795970  50.4736809  22.0680416  62.8850942  50.9856114
  21.6987637  62.2787936  49.6484831  21.9300024  61.3167740  43.9839631
  21.1467546  61.8589421  44.0777855  22.6292769  61.8341720  44.3833872
  25.2396674  47.1262370  46.6273836  25.7365374  46.3732332  46.3074906
  24.4683656  47.1626686  46.0617046  33.0926431  52.8302735  48.2692128
  33.0816308  53.7127451  47.8986061  32.2243811  52.4774286  48.0746665
  24.6008928  61.9782804  52.6294968  25.3136900  62.6130269  52.5570869
  24.1098956  62.0746670  51.8134970  26.3226455  55.8834057  44.2012260
  25.3882733  56.0035519  44.0316964  26.5003123  54.9806524  43.9372269
  21.8231643  49.2679753  46.3545521  21.4529430  48.7150793  47.0426426
  22.3190735  48.6637886  45.8020521  29.7099006  51.7251376  44.7362294
  30.1759458  52.5579368  44.6622596  30.1606507  51.2596358  45.4407552
  19.6520841  59.7277248  53.4500539  20.3530301  60.3613731  53.6029933
  19.1815956  60.0691979  52.6896178  27.7775237  58.0695198  41.7348446
  28.0535081  57.9551792  42.6442320  26.9079736  57.6712682  41.6960619
  27.6815669  44.0931963  48.7753195  26.7678749  44.3236190  48.9435402
  28.1108770  44.1770407  49.6267227  27.4522127  52.2821855  51.2753089
  26.7993578  52.5297763  50.6205542  27.8302507  51.4685993  50.9415566
  24.4129301  62.3181548  45.3781259  24.5951696  61.5003204  45.8409012
  25.2362287  62.5349241  44.9406149  24.7471467  61.2449734  42.6396308
  25.2759233  60.7342188  42.0266470  25.0099686  60.9292264  43.5041841
  23.5009700  53.0241666  57.7619126  22.8250337  52.9235796  58.4321501
  24.3237334  52.8680880  58.2255123  15.2488559  59.2613603  50.3831641
  15.8341996  58.5157291  50.5159546  15.0513398  59.5717560  51.2668305
  18.1027215  62.2964850  45.3994084  17.4337590  62.7810978  44.9158124
  17.9640084  62.5434071  46.3137462   9.8406214  51.8319203  49.1036085
   9.8790314  51.2982794  49.8973203   9.3346507  51.3054409  48.4847062
  22.2432483  64.3308594  51.9976742  22.7950791  64.4940215  52.7625827
  22.5838677  64.9213032  51.3256767  17.2196976  46.6783744  52.5998627
  17.2838303  47.5398574  52.1876025  17.1564097  46.0657745  51.8670985
  16.6949249  48.7506876  56.2471661  17.3221288  48.3683953  56.8609185
  15.8377168  48.5321078  56.6127354  27.0943358  59.1569851  57.8525397
  27.6383262  59.7699810  57.3580351  26.5130202  59.7149430  58.3692410
  13.4714792  50.5583305  42.1790016  13.7668233  49.6493984  42.1257070
  12.5702827  50.5371045  41.8571018  25.3800870  62.2790569  48.9840424
  25.2552010  61.4780309  48.4751370  26.0379962  62.7736763  48.4954394
  17.0009039  48.6339302  48.1617565  16.2795624  49.2475269  48.0225038
  17.7902294  49.1697067  48.0834211  27.4435779  60.0799589  50.6119974
  26.4966114  59.9604941  50.5398301  27.7918552  59.1922087  50.6946236
  19.8035352  45.9693728  54.4358216  20.3269754  46.2156025  55.1984526
  19.5847686  46.8013763  54.0161354  15.2002633  48.2397403  42.3029341
  14.8715339  47.3594782  42.1204447  15.5542004  48.1845072  43.1905730
  24.4482212  59.8752306  46.8124327  24.3007175  58.9469013  46.9931897
  25.2735706  59.8972396  46.3281402  18.3144456  48.5270373  42.6704819
  18.6540529  49.0556294  41.9483427  18.7616577  48.8650779  43.4463385
  28.0516334  60.6980864  47.8989199  28.9762881  60.4923726  47.7613651
  27.8831637  60.4497265  48.8078541  21.0087897  46.9107423  52.1207887
  20.6684718  46.1115236  52.5228567  20.3026904  47.2109134  51.5484720
  21.6604369  43.9956736  50.5735210  22.4830438  43.5217214  50.4514100
  21.9042433  44.7747220  51.0733896  20.3012604  47.0244994  40.8698112
  21.0220966  47.4026247  40.3661828  19.6777908  47.7433871  40.9733090
  24.4443726  47.7290143  41.8056444  24.6607341  48.6114781  41.5045272
  23.9637794  47.3376357  41.0762086  19.1842948  50.6875856  48.3827188
  19.0387529  51.0016160  49.2751470  18.7068151  51.3060757  47.8298087
  21.0439331  47.6778404  48.4308078  21.0300900  46.7819498  48.0940376
  21.7611759  47.6849068  49.0646364  22.8965461  48.1115745  50.4761205
  22.6383239  49.0332815  50.4745536  22.3650502  47.7146179  51.1661670
  27.8411650  61.2166532  43.2551291  28.0148528  60.6512954  42.5025143
  28.3340541  62.0167427  43.0730781  13.6588610  53.2281201  51.3214850
  13.1142078  54.0041009  51.4535124  14.5367960  53.5752005  51.1633971
  20.4476227  46.5592785  43.6995648  20.5692138  45.6309431  43.8986536
  20.1578269  46.5731471  42.7873964  23.3167417  44.2447695  46.8362368
  23.3389114  44.3087028  45.8814348  23.7335476  43.4052204  47.0302874
  33.6951041  53.9802955  44.8741591  34.1382187  53.2310280  44.4760714
  32.8177552  53.9713091  44.4915323  28.8286823  60.5333296  40.3548189
  29.5237727  61.1539989  40.5735504  29.1709973  59.6828647  40.6300567
  14.4454632  52.3551097  54.2145007  13.7036368  52.5033732  54.8009637
  14.1247376  52.6159363  53.3511756  30.7278246  57.9833002  41.8835520
  31.2529570  58.3220274  41.1584840  30.6400598  57.0480017  41.6998655
  22.3898295  61.8967075  54.0125397  22.6985421  61.6516222  54.8848096
  23.1873777  62.1013714  53.5244267  22.4118907  64.0504985  46.2430773
  21.9723897  63.5581364  46.9363630  23.1627024  63.5077953  46.0022848
  14.8911246  60.2416526  46.2455401  15.7169265  59.9420298  45.8654045
  14.5405298  59.4724148  46.6945190  19.8592779  59.5942994  48.3153075
  19.2372788  58.9313699  48.0155303  20.5297646  59.6204126  47.6326723
  13.0919851  58.1602852  47.2044335  12.2551759  57.7325027  47.0228336
  13.0643496  58.3535296  48.1415126  19.9317306  48.0724782  57.9085581
  19.9805462  48.9486905  57.5263350  20.4739820  47.5302175  57.3357224
  30.4172152  58.6165905  57.1886718  29.6267696  58.5990044  56.6491217
  30.1805506  59.1554199  57.9435754  30.5370027  55.4658372  54.5019446
  30.5868032  55.3008379  55.4434969  30.4283950  54.5985631  54.1117327
  19.4206286  58.1446917  41.7911535  19.5694406  58.8282382  41.1378208
  20.2272729  58.1252007  42.3060991  27.8273789  51.4489300  55.8178753
  28.7283652  51.3095765  55.5262751  27.9021764  51.6143755  56.7576931
  22.1616595  48.8256154  54.6631939  21.2919904  49.1189721  54.3914528
  22.3976075  49.4096599  55.3839203  33.2383906  55.4508193  47.2664038
  34.0730797  55.8897997  47.4301599  33.3743035  54.9746846  46.4472284
  30.2875412  53.0087928  53.2141526  30.7629534  53.2015574  52.4060377
  29.3640977  53.0647114  52.9684910  17.1758919  54.1712095  42.7972604
  16.9304961  53.2674425  42.9952814  17.3454833  54.1729245  41.8552082
  24.8655629  45.0435771  52.1797360  25.3837572  45.7796798  51.8543848
  24.5110761  45.3499765  53.0144119  16.4454566  49.9040453  40.2958766
  15.7523811  49.9784808  39.6398802  16.2006318  49.1400796  40.8180283
  25.1168223  41.4636054  47.6998256  25.3969976  40.7959243  48.3258683
  25.9018830  41.6565150  47.1872920  22.9201691  60.6395048  39.2623283
  22.3475658  61.2585235  38.8093755  23.4934485  61.1894410  39.7963205
  28.9877081  49.8853688  51.4469832  29.9394504  49.9851786  51.4682056
  28.8180531  49.0931956  51.9567916  27.0091460  46.9709271  51.6329232
  26.4141393  47.2514284  50.9375721  26.7241157  47.4603172  52.4045974
  26.1398951  60.9232198  40.3931865  27.0729624  60.8577760  40.5964741
  26.0522164  61.7588465  39.9346398  28.7686968  60.2398068  37.3535813
  28.6900599  59.9057932  38.2471570  29.5896634  60.7319836  37.3527285
  31.4665159  53.1059808  50.5612131  31.4341479  52.1675808  50.7471815
  32.0765782  53.1843844  49.8277956  23.3048490  51.9755861  36.6039335
  24.2507594  51.8462069  36.6727753  22.9262735  51.2370523  37.0808763
  31.6159647  49.8970851  50.6070414  31.0998696  49.1129308  50.4200343
  32.4999596  49.5689568  50.7716934  29.2770374  43.6411867  46.5666227
  29.0795195  43.3326955  47.4509559  29.8870080  44.3673506  46.6964157
  35.3657006  52.3083677  50.2992619  34.6390169  52.1739642  49.6909111
  34.9504293  52.6160506  51.1049337  23.1887182  56.0273607  58.0639992
  24.1090192  56.2052206  58.2580039  23.1536765  55.0829652  57.9119691
  21.4891407  49.9005837  36.5394220  20.5822862  49.6038950  36.6156934
  21.7667388  49.6035655  35.6728507  12.4069347  51.2212200  46.9893267
  12.0872132  50.3677509  46.6967641  11.8602775  51.4360779  47.7451234
  16.1849255  53.9374641  50.7062773  16.4035265  54.8691749  50.7250807
  16.5975029  53.5782616  51.4917577  23.1053473  44.4442727  42.6938462
  22.2954201  44.0989812  43.0693708  23.7937889  44.1350270  43.2826073
  25.0344021  43.5220774  44.3162758  25.5875059  43.9416227  44.9752781
  25.2714107  42.5956522  44.3585714  21.0577120  49.5107847  60.0965522
  20.9573847  50.4602204  60.0277613  20.8398662  49.1826086  59.2241592
  20.2590191  46.7592772  36.6806200  21.1209355  47.0847671  36.9402017
  20.4440536  45.9724268  36.1679265  12.2757607  54.8415112  48.9586388
  11.5821079  54.4269065  48.4456343  13.0230598  54.8835648  48.3619807
  28.4122828  45.6321299  43.8241423  27.8321497  46.2906103  43.4419475
  28.1458761  44.8098643  43.4128840  26.8626394  45.0326356  46.0262743
  27.3626173  45.1442891  45.2177062  27.5062002  44.7287409  46.6663551
  20.9208390  52.9404986  58.9130584  20.4375472  53.7405346  59.1194473
  21.0069329  52.9512931  57.9598028  14.1894350  54.7733366  46.8352403
  14.1665038  54.8721053  45.8834286  14.4994986  55.6198516  47.1569569
  16.8481728  56.8309521  50.9499018  17.8024981  56.7993463  50.8828949
  16.6494251  56.3700144  51.7649244  17.4381110  55.4010637  53.5169815
  18.2573999  55.8954715  53.5404653  17.7117917  54.4842605  53.4887383
  27.1947706  47.7921389  42.8797771  26.3073561  48.0771040  42.6617966
  27.6101695  47.6315152  42.0325048  30.5462242  47.8167910  46.5952110
  31.3222632  48.3064362  46.8676727  29.8210376  48.2425964  47.0523980
  32.9834801  48.5295529  47.6526051  33.5779292  48.2891265  46.9419359
  33.0561384  47.8102660  48.2799587  15.2031956  62.3729140  47.9669216
  15.0686424  61.6129541  47.4007214  14.7864019  63.0970040  47.4998004
  26.3390919  57.5566064  36.9745791  27.0426770  57.7616066  37.5903447
  25.6153568  58.1242826  37.2394874  27.1688730  53.3075925  43.0948061
  27.1123931  53.7644476  42.2555693  27.7217072  52.5466610  42.9170904
  30.9793536  49.0965657  43.9198181  30.7230470  48.6962293  44.7506388
  30.3546404  49.8109451  43.7948320  35.2905873  51.8361730  46.4269472
  34.7305431  51.9054919  47.2001034  34.6849377  51.6602715  45.7068968
  18.3601082  63.2698457  48.1787658  18.2433466  64.2143890  48.0766349
  17.5393529  62.9672019  48.5673457  28.2477617  57.9948593  39.0244251
  29.0823221  57.5629791  38.8421726  28.0861960  57.8230607  39.9521145
  27.9023509  54.4980706  40.3900590  27.8472313  54.3324978  39.4489034
  27.2769564  55.2056739  40.5462780  12.6916024  49.7348771  54.2162012
  13.3374888  49.2247725  54.7049238  12.4833175  50.4717452  54.7905438
  25.2169416  56.8029618  59.7154153  26.0860576  56.9770270  59.3540788
  24.7376168  57.6224035  59.5929882  21.2119634  43.9988815  39.9685909
  21.1998304  44.9430655  40.1254180  22.1043056  43.8158961  39.6745370
  19.3855596  63.9226719  51.3943587  20.2882843  63.9550329  51.7110082
  19.1592966  62.9927170  51.4089922  21.1409198  62.6757706  48.0553665
  20.1904829  62.6759567  47.9418038  21.4441685  61.9290440  47.5389700
  25.0271754  40.5931592  44.2231845  24.2604150  40.0390079  44.3688528
  25.4382459  40.6653461  45.0845997  17.0313515  46.8816388  58.3137027
  17.8944977  46.5253193  58.5240351  16.4578926  46.5430283  59.0012431
  29.5438414  70.3181149  45.0457843  28.9803279  70.2271085  44.2774131
  29.4290809  69.4981053  45.5260336  27.0902846  71.8132340  47.8842064
  27.8824138  71.4723165  47.4688363  27.3299496  71.9227315  48.8044217
  35.1237973  73.9852116  40.3572308  34.4725952  74.5706197  39.9706322
  35.9182335  74.5158311  40.4167346  29.0493600  71.0741253  40.7559443
  29.8224476  70.5270240  40.6172318  29.4018999  71.9385503  40.9673904
  31.3859878  67.2333920  38.3877893  31.6385398  66.7115441  37.6261356
  30.4484437  67.0700065  38.4904576  36.6013238  71.6742548  40.8941293
  35.9659071  71.7477175  41.6062197  36.2710644  72.2636147  40.2160372
  31.1056166  69.1362025  40.5902267  30.9892424  68.4606929  41.2583352
  31.2158426  68.6494399  39.7734421  33.0893194  63.6262072  39.2910305
  33.2567597  64.4942309  39.6580776  32.8990363  63.7889354  38.3671594
  29.2981009  68.5392848  46.9912840  28.3731505  68.4069062  47.1990532
  29.5465422  69.3187067  47.4882782  33.0682415  66.0819730  40.2756972
  32.9482040  66.5276781  41.1142452  32.3735003  66.4305047  39.7170510
  26.6589820  68.1826122  47.8256629  26.7882201  68.4360601  48.7396041
  25.9787271  68.7753830  47.5061284  30.8289307  78.8523372  43.9247103
  30.7513337  79.8031197  44.0035584  30.2250951  78.5069244  44.5822030
  32.9265025  71.2741429  45.7600973  33.3903371  71.5529132  44.9705595
  32.6621824  70.3724874  45.5774063  29.8189107  70.8212911  48.6980736
  30.3890464  71.2500179  48.0598220  30.4097218  70.5395496  49.3964922
  31.8633912  67.3964582  42.5690538  32.5657955  67.8485626  43.0364464
  31.5314540  66.7548401  43.1970431  30.3114273  65.9876338  56.9441747
  29.6812934  66.6692619  57.1777144  30.2050361  65.8759420  55.9994885
  25.6059245  65.6548135  47.8707671  24.8158299  65.9105663  47.3947782
  26.0970493  66.4696472  47.9759712  27.5573991  66.0192714  44.8291148
  26.7605154  66.1311408  45.3474644  27.3299583  66.3579366  43.9632039
  23.8896948  65.9078625  50.3022662  24.1404987  66.7925635  50.5680238
  24.4256497  65.7283227  49.5297754  33.1027676  74.2105524  42.6452643
  32.9673351  75.0557060  43.0737491  33.6437489  74.4124802  41.8818577
  26.5557074  71.7280963  43.2180568  27.0681594  72.5224213  43.3686133
  27.2079786  71.0307253  43.1514170  28.3651958  74.8446719  45.3003321
  28.5418587  75.7664683  45.1124305  29.1608792  74.5305138  45.7297701
  27.6504315  66.8911351  55.1765484  27.5357830  65.9896608  55.4772583
  26.7948833  67.1375047  54.8250301  29.4883274  76.3624893  51.3013664
  30.0390699  76.2341956  50.5290658  28.6494750  76.6619782  50.9508556
  24.5205990  70.0569617  43.9940139  25.3581212  70.4666625  43.7773846
  24.6984258  69.1169059  43.9640333  36.4170422  67.7244697  39.6823972
  35.9017046  68.4949302  39.9212359  36.1447731  67.0509834  40.3057033
  41.3904697  70.4777052  41.6177145  40.6134139  70.1388212  41.1732307
  42.0696178  70.4829675  40.9432110  34.6503157  71.7562013  43.1576707
  34.1224519  71.0214772  42.8449944  34.1490660  72.5336689  42.9116675
  29.3821885  62.4181679  45.5183318  29.9565637  62.1956861  44.7856511
  29.9692867  62.4870374  46.2711920  29.7091472  64.4486140  39.5379204
  28.8728784  64.7860827  39.8588478  29.5696242  64.3135120  38.6006341
  32.7955758  69.5742223  36.1611680  31.8882819  69.3431477  36.3602829
  33.2926790  68.7779842  36.3485661  35.7023836  78.2839730  39.0808366
  35.0285535  78.5871427  39.6893324  36.0889658  79.0868811  38.7313823
  33.9743991  69.6754818  40.6835670  33.0655210  69.3913851  40.7808140
  34.0039075  70.0953897  39.8238977  39.2063258  73.2861408  44.4526837
  38.7525586  72.4452317  44.5092028  38.5757225  73.9222806  44.7901618
  37.6496198  75.1237904  45.3876656  37.9419172  75.6842961  44.6689021
  38.1594818  75.4166465  46.1429815  24.5432161  67.3960332  44.6650872
  24.3456561  66.8029693  43.9401939  23.9878825  67.0912542  45.3826811
  33.6720079  71.2163562  38.0223748  33.2339509  70.4999421  37.5629386
  34.4130520  71.4439677  37.4608840  30.4621245  65.9060498  44.5435844
  29.6489111  66.2054669  44.9501036  30.9580239  65.5116187  45.2610326
  32.6129823  75.9018255  46.4770109  32.5706002  76.1279102  45.5478641
  33.5292522  75.6681630  46.6255910  29.9535320  63.4778854  50.1597079
  30.5934699  63.3367613  49.4620042  29.1212850  63.1913367  49.7835681
  30.7295624  72.7781284  46.2732072  31.5236222  72.2831604  46.0714646
  30.0187316  72.2499147  45.9099777  35.5490468  75.1599380  50.6244439
  35.6027490  75.7290316  51.3922155  34.6805250  75.3301265  50.2598476
  27.0378387  66.9224366  42.3491824  26.1075975  66.8608822  42.5661786
  27.1335859  66.4000319  41.5528465  26.9563936  63.4479179  44.9370066
  27.2170753  64.3624512  44.8279226  27.7781109  62.9803621  45.0866679
  28.4288862  64.8616936  52.1068890  29.1011915  64.6534298  51.4581539
  27.6018648  64.6639022  51.6674123  33.3066900  73.3510306  49.9529909
  33.1677985  72.9829091  50.8255847  32.5181496  73.8657946  49.7813866
  33.9015052  78.4519403  41.2955445  34.0766807  77.9807446  42.1101068
  33.2147840  79.0785169  41.5236706  34.8572115  72.7291909  47.3418746
  34.5221947  72.6892679  48.2376396  34.3576060  72.0636625  46.8689157
  28.8316359  68.1359539  52.8671328  28.6936157  67.4039778  53.4682867
  29.7421282  68.0468439  52.5855515  37.7931306  70.0747943  37.6155806
  37.1760477  69.3494771  37.5188859  37.3247795  70.8357304  37.2722880
  30.1727593  64.8344716  54.1750647  29.6364950  64.3835455  54.8272243
  29.5844302  64.9690625  53.4321111  28.4676137  81.6008766  48.0695305
  28.7072735  82.2327290  48.7474324  27.6245333  81.2496806  48.3560665
  29.5829852  64.2933368  36.7377110  28.7059319  64.1722168  36.3739357
  30.0587605  63.5019446  36.4855999  21.1031993  69.0810527  46.8318617
  21.7903032  68.7672257  46.2439633  20.9480121  69.9851892  46.5585869
  25.9066715  63.9700724  51.2603641  25.8224903  63.3626393  50.5254051
  25.0849421  64.4609742  51.2613137  32.9803999  77.4087888  50.4736809
  32.9074170  78.2142859  50.9856114  32.5381392  77.6079854  49.6484831
  32.7693778  76.6459658  43.9839631  31.9861300  77.1881338  44.0777855
  33.4686524  77.1633638  44.3833872  35.4402682  77.3074722  52.6294968
  36.1530655  77.9422187  52.5570869  34.9492711  77.4038588  51.8134970
  37.1620209  71.2125975  44.2012260  36.2276488  71.3327437  44.0316964
  37.3396878  70.3098441  43.9372269  38.6168992  73.3987115  41.7348446
  38.8928836  73.2843710  42.6442320  37.7473490  73.0004600  41.6960619
  35.2523056  77.6473466  45.3781259  35.4345450  76.8295122  45.8409012
  36.0756042  77.8641158  44.9406149  35.5865221  76.5741651  42.6396308
  36.1152988  76.0634106  42.0266470  35.8493441  76.2584181  43.5041841
  26.0882314  74.5905521  50.3831641  26.6735751  73.8449208  50.5159546
  25.8907152  74.9009477  51.2668305  28.9420969  77.6256768  45.3994084
  28.2731344  78.1102896  44.9158124  28.8033839  77.8725988  46.3137462
  20.6799969  67.1611121  49.1036085  20.7184068  66.6274711  49.8973203
  20.1740261  66.6346326  48.4847062  33.0826238  79.6600511  51.9976742
  33.6344546  79.8232133  52.7625827  33.4232431  80.2504949  51.3256767
  28.0590731  62.0075661  52.5998627  28.1232057  62.8690492  52.1876025
  27.9957851  61.3949663  51.8670985  27.5343003  64.0798794  56.2471661
  28.1615042  63.6975871  56.8609185  26.6770922  63.8612996  56.6127354
  24.3108546  65.8875223  42.1790016  24.6061987  64.9785901  42.1257070
  23.4096582  65.8662962  41.8571018  36.2194625  77.6082487  48.9840424
  36.0945764  76.8072227  48.4751370  36.8773716  78.1028680  48.4954394
  27.8402793  63.9631219  48.1617565  27.1189379  64.5767187  48.0225038
  28.6296049  64.4988984  48.0834211  26.0396388  63.5689321  42.3029341
  25.7109094  62.6886699  42.1204447  26.3935758  63.5136989  43.1905730
  35.2875967  75.2044223  46.8124327  35.1400929  74.2760931  46.9931897
  36.1129460  75.2264314  46.3281402  29.1538211  63.8562290  42.6704819
  29.4934283  64.3848212  41.9483427  29.6010331  64.1942696  43.4463385
  38.8910089  76.0272782  47.8989199  39.8156636  75.8215643  47.7613651
  38.7225392  75.7789183  48.8078541  31.1406358  62.3536912  40.8698112
  31.8614721  62.7318165  40.3661828  30.5171662  63.0725789  40.9733090
  35.2837481  63.0582061  41.8056444  35.5001095  63.9406699  41.5045272
  34.8031548  62.6668274  41.0762086  30.0236702  66.0167774  48.3827188
  29.8781283  66.3308077  49.2751470  29.5461906  66.6352674  47.8298087
  38.6805405  76.5458449  43.2551291  38.8542282  75.9804872  42.5025143
  39.1734296  77.3459344  43.0730781  24.4982365  68.5573119  51.3214850
  23.9535833  69.3332926  51.4535124  25.3761714  68.9043923  51.1633971
  31.2869981  61.8884702  43.6995648  31.4085892  60.9601349  43.8986536
  30.9972024  61.9023388  42.7873964  39.6680577  75.8625214  40.3548189
  40.3631482  76.4831907  40.5735504  40.0103727  75.0120565  40.6300567
  25.2848386  67.6843015  54.2145007  24.5430122  67.8325650  54.8009637
  24.9641131  67.9451280  53.3511756  41.5672000  73.3124919  41.8835520
  42.0923324  73.6512192  41.1584840  41.4794353  72.3771935  41.6998655
  33.2292049  77.2258993  54.0125397  33.5379175  76.9808140  54.8848096
  34.0267531  77.4305631  53.5244267  33.2512661  79.3796903  46.2430773
  32.8117651  78.8873281  46.9363630  34.0020778  78.8369870  46.0022848
  25.7305000  75.5708443  46.2455401  26.5563020  75.2712215  45.8654045
  25.3799052  74.8016066  46.6945190  30.6986533  74.9234912  48.3153075
  30.0766543  74.2605617  48.0155303  31.3691400  74.9496044  47.6326723
  23.9313605  73.4894770  47.2044335  23.0945513  73.0616944  47.0228336
  23.9037251  73.6827213  48.1415126  30.2600040  73.4738835  41.7911535
  30.4088161  74.1574299  41.1378208  31.0666484  73.4543925  42.3060991
  28.0152673  69.5004013  42.7972604  27.7698715  68.5966343  42.9952814
  28.1848588  69.5021163  41.8552082  27.2848321  65.2332370  40.2958766
  26.5917566  65.3076725  39.6398802  27.0400073  64.4692714  40.8180283
  33.7595446  75.9686966  39.2623283  33.1869413  76.5877153  38.8093755
  34.3328239  76.5186327  39.7963205  36.9792705  76.2524116  40.3931865
  37.9123379  76.1869677  40.5964741  36.8915918  77.0880383  39.9346398
  39.6080722  75.5689986  37.3535813  39.5294354  75.2349850  38.2471570
  40.4290389  76.0611754  37.3527285  34.1442244  67.3047778  36.6039335
  35.0901349  67.1753986  36.6727753  33.7656489  66.5662440  37.0808763
  32.3285161  65.2297755  36.5394220  31.4216617  64.9330867  36.6156934
  32.6061142  64.9327573  35.6728507  23.2463102  66.5504118  46.9893267
  22.9265886  65.6969426  46.6967641  22.6996530  66.7652696  47.7451234
  27.0243009  69.2666559  50.7062773  27.2429019  70.1983667  50.7250807
  27.4368783  68.9074533  51.4917577  31.0983946  62.0884690  36.6806200
  31.9603110  62.4139588  36.9402017  31.2834290  61.3016186  36.1679265
  23.1151362  70.1707030  48.9586388  22.4214833  69.7560982  48.4456343
  23.8624353  70.2127566  48.3619807  31.7602145  68.2696904  58.9130584
  31.2769226  69.0697264  59.1194473  31.8463084  68.2804849  57.9598028
  25.0288104  70.1025283  46.8352403  25.0058792  70.2012971  45.8834286
  25.3388741  70.9490434  47.1569569  27.6875482  72.1601438  50.9499018
  28.6418736  72.1285381  50.8828949  27.4888006  71.6992062  51.7649244
  28.2774864  70.7302554  53.5169815  29.0967753  71.2246633  53.5404653
  28.5511672  69.8134523  53.4887383  26.0425711  77.7021058  47.9669216
  25.9080179  76.9421459  47.4007214  25.6257773  78.4261958  47.4998004
  37.1784674  72.8857981  36.9745791  37.8820524  73.0907984  37.5903447
  36.4547323  73.4534743  37.2394874  29.1994837  78.5990375  48.1787658
  29.0827221  79.5435807  48.0766349  28.3787283  78.2963936  48.5673457
  39.0871371  73.3240511  39.0244251  39.9216975  72.8921709  38.8421726
  38.9255714  73.1522524  39.9521145  38.7417263  69.8272624  40.3900590
  38.6866067  69.6616895  39.4489034  38.1163319  70.5348657  40.5462780
  23.5309778  65.0640688  54.2162012  24.1768642  64.5539642  54.7049238
  23.3226930  65.8009370  54.7905438  32.0513389  59.3280733  39.9685909
  32.0392059  60.2722573  40.1254180  32.9436811  59.1450878  39.6745370
  30.2249351  79.2518637  51.3943587  31.1276598  79.2842247  51.7110082
  29.9986721  78.3219088  51.4089922  31.9802953  78.0049623  48.0553665
  31.0298584  78.0051485  47.9418038  32.2835439  77.2582358  47.5389700
  35.8665508  55.9223510  44.2231845  35.0997904  55.3681996  44.3688528
  36.2776213  55.9945378  45.0845997  27.8707269  62.2108305  58.3137027
  28.7338731  61.8545110  58.5240351  27.2972680  61.8722200  59.0012431
  47.7155646  83.8410162  49.1199428  48.3534056  83.7216909  48.4162768
  47.5976489  84.7891006  49.1787380  44.5245353  83.7937590  49.0560952
  44.1863864  83.6778655  48.1681487  45.3935121  83.3928755  49.0361959
  40.3832168  85.6473066  45.0457843  39.8197034  85.5563003  44.2774131
  40.2684563  84.8272971  45.5260336  45.0065136  84.9472442  55.0147158
  44.9953776  84.5525240  54.1427662  45.1685775  84.2138514  55.6080929
  37.9296600  87.1424258  47.8842064  38.7217892  86.8015082  47.4688363
  38.1693250  87.2519233  48.8044217  45.9631727  89.3144034  40.3572308
  45.3119707  89.8998114  39.9706322  46.7576090  89.8450229  40.4167346
  39.8887354  86.4033171  40.7559443  40.6618230  85.8562158  40.6172318
  40.2412753  87.2677420  40.9673904  41.7272397  87.7309553  53.9626342
  41.4362263  88.6355184  53.8473008  42.3629381  87.7726081  54.6770411
  42.6528604  85.1086402  50.5527702  43.2492176  84.8842424  49.8384664
  42.7103575  84.3671147  51.1553149  42.2253632  82.5625837  38.3877893
  42.4779153  82.0407358  37.6261356  41.2878191  82.3991983  38.4904576
  47.2696915  81.5661616  46.1952636  48.0560004  81.1481039  45.8443053
  47.5335619  82.4707708  46.3634284  47.4406992  87.0034466  40.8941293
  46.8052825  87.0769092  41.6062197  47.1104399  87.5928065  40.2160372
  52.6705342  81.5036849  47.0985614  53.4030514  80.9336066  47.3323444
  51.9144698  81.1158449  47.5392120  41.9449921  84.4653943  40.5902267
  41.8286179  83.7898847  41.2583352  42.0552181  83.9786317  39.7734421
  44.2881462  83.9264090  44.2948957  43.9239669  83.3994711  45.0061878
  45.1448578  83.5362559  44.1215442  50.1930762  75.2158423  51.5580223
  49.8614087  76.0853834  51.3341438  49.5976376  74.8994707  52.2374253
  43.9286949  78.9553990  39.2910305  44.0961351  79.8234226  39.6580776
  43.7384118  79.1181272  38.3671594  46.6862282  87.4170969  50.9576136
  46.3863005  88.3196008  50.8491943  46.3413341  87.1503152  51.8097288
  40.1374763  83.8684766  46.9912840  39.2125260  83.7360980  47.1990532
  40.3859177  84.6478985  47.4882782  50.0859426  79.9353509  48.6373573
  49.1776303  79.8668917  48.3432334  50.0347021  80.4125454  49.4655398
  43.9076170  81.4111647  40.2756972  43.7875795  81.8568698  41.1142452
  43.2128758  81.7596965  39.7170510  37.4983574  83.5118039  47.8256629
  37.6275956  83.7652518  48.7396041  36.8181026  84.1045747  47.5061284
  41.6683062  94.1815289  43.9247103  41.5907091  95.1323114  44.0035584
  41.0644705  93.8361162  44.5822030  44.1600291  81.3543155  56.5808470
  43.3833626  81.9137075  56.5711335  44.7990855  81.8399938  57.1023340
  51.9521072  78.1369947  50.4151447  51.3095452  78.4302481  49.7691241
  51.4476001  78.0222868  51.2204644  49.6061236  81.8833121  41.1037306
  50.5179092  82.1160507  40.9285004  49.0970883  82.4670165  40.5412385
  42.4146664  84.1628608  56.1426437  43.1561348  84.7013652  55.8661261
  41.7083649  84.7894897  56.2997989  47.8902003  86.3057748  54.7398599
  48.2985359  85.8640159  53.9953231  47.1679265  85.7310376  54.9932792
  44.2433073  81.2430355  52.1132156  45.0894269  81.6669769  52.2566805
  44.1831711  80.5863980  52.8070719  48.2130818  86.8658939  48.4950888
  47.5839680  87.0304653  47.7926955  47.8256480  87.2800549  49.2661852
  52.0920050  87.8013377  45.8495251  51.4071088  88.1812278  45.2992285
  52.1763899  88.4108704  46.5827199  47.3932519  78.9034724  53.7713329
  47.1493451  79.6576784  53.2347605  47.6692449  79.2820071  54.6060576
  49.3470982  85.4473336  52.4490595  49.5587877  86.0905096  51.7724976
  49.3000730  84.6135653  51.9812525  46.9497211  78.0591157  49.3527167
  46.0881690  78.3572410  49.6443905  46.9759645  78.2761555  48.4208200
  43.7658780  86.6033347  45.7600973  44.2297125  86.8821050  44.9705595
  43.5015578  85.7016792  45.5774063  40.6582861  86.1504829  48.6980736
  41.2284218  86.5792097  48.0598220  41.2490973  85.8687413  49.3964922
  42.7027666  82.7256500  42.5690538  43.4051709  83.1777543  43.0364464
  42.3708294  82.0840318  43.1970431  41.1508028  81.3168256  56.9441747
  40.5206688  81.9984537  57.1777144  41.0444115  81.2051338  55.9994885
  36.4453000  80.9840052  47.8707671  35.6552054  81.2397581  47.3947782
  36.9364247  81.7988390  47.9759712  50.4616810  88.3245291  50.6212952
  51.2834253  87.9225479  50.3395634  50.4579212  88.2213526  51.5729068
  38.3967745  81.3484631  44.8291148  37.5998909  81.4603326  45.3474644
  38.1693338  81.6871284  43.9632039  44.2273413  87.8729335  52.7773663
  44.2917845  88.3349742  53.6131835  43.5184337  87.2426700  52.9055973
  34.7290703  81.2370543  50.3022662  34.9798741  82.1217553  50.5680238
  35.2650251  81.0575144  49.5297754  58.5522803  84.6684040  46.9697924
  57.7986511  84.0991438  46.8141928  58.6870344  84.6346704  47.9168558
  43.9421431  89.5397442  42.6452643  43.8067105  90.3848978  43.0737491
  44.4831243  89.7416720  41.8818577  37.3950828  87.0572880  43.2180568
  37.9075349  87.8516130  43.3686133  38.0473541  86.3599171  43.1514170
  39.2045713  90.1738636  45.3003321  39.3812341  91.0956601  45.1124305
  40.0002546  89.8597056  45.7297701  43.3456731  77.0346901  56.8987255
  44.0866445  77.6354054  56.8191717  43.5774654  76.2924539  56.3405297
  38.4898069  82.2203268  55.1765484  38.3751584  81.3188526  55.4772583
  37.6342587  82.4666965  54.8250301  45.5689907  90.1621009  56.7752985
  45.1253761  89.3757387  56.4573890  46.2307121  90.3500159  56.1096876
  40.3277028  91.6916810  51.3013664  40.8784453  91.5633874  50.5290658
  39.4888504  91.9911699  50.9508556  47.6671145  90.4423809  54.8034386
  47.6489620  91.2632690  54.3114656  48.5891065  90.3177884  55.0284528
  44.1244199  87.9567938  55.6457895  44.6572536  87.1956226  55.4157203
  43.5958280  87.6641590  56.3882049  47.2913894  73.0628004  51.1751536
  46.9478164  73.9529646  51.0990647  47.6592857  72.8729662  50.3121121
  35.3599745  85.3861535  43.9940139  36.1974967  85.7958543  43.7773846
  35.5378012  84.4460977  43.9640333  47.2564177  83.0536615  39.6823972
  46.7410800  83.8241220  39.9212359  46.9841485  82.3801751  40.3057033
  44.8411288  77.8986316  44.7409210  43.9852884  77.5093166  44.5614849
  45.2538240  77.9778277  43.8808995  46.3710435  75.4332659  49.1400770
  45.8675230  75.3962794  48.3268575  46.6641041  76.3425402  49.1997426
  52.2298451  85.8068970  41.6177145  51.4527894  85.4680129  41.1732307
  52.9089932  85.8121593  40.9432110  47.0450480  80.9263707  41.5083753
  46.7400616  81.2409856  42.3593896  47.9980922  81.0045127  41.5511086
  45.4896912  87.0853931  43.1576707  44.9618273  86.3506690  42.8449944
  44.9884415  87.8628607  42.9116675  50.4689758  85.2802951  48.2743753
  49.8113432  85.9702212  48.3623882  51.2730157  85.6699383  48.6177739
  40.2215640  77.7473597  45.5183318  40.7959391  77.5248778  44.7856511
  40.8086622  77.8162291  46.2711920  49.2795217  83.6347324  46.3247695
  49.7927098  84.2677316  46.8269405  49.9296441  83.0348519  45.9591055
  40.5485227  79.7778058  39.5379204  39.7122539  80.1152744  39.8588478
  40.4089996  79.6427038  38.6006341  42.5238307  74.6214846  44.2458388
  41.8702720  74.3063863  43.6215002  42.4818781  73.9990586  44.9718211
  43.6349512  84.9034141  36.1611680  42.7276574  84.6723394  36.3602829
  44.1320544  84.1071760  36.3485661  46.5417591  93.6131648  39.0808366
  45.8679290  93.9163345  39.6893324  46.9283413  94.4160728  38.7313823
  45.7576048  81.1096779  48.5706035  44.8398609  81.3311726  48.4127723
  46.1736191  81.1843090  47.7117743  46.5411095  82.5088195  43.7008716
  47.2882914  83.0209592  43.3915838  46.8102685  82.1872248  44.5613109
  44.8137746  85.0046736  40.6835670  43.9048965  84.7205769  40.7808140
  44.8432829  85.4245814  39.8238977  50.0457013  88.6153325  44.4526837
  49.5919340  87.7744235  44.5092028  49.4150980  89.2514724  44.7901618
  48.9889933  79.5445311  45.6827505  48.2512689  79.0322697  46.0137747
  49.2416706  79.1045693  44.8710782  48.4889952  90.4529822  45.3876656
  48.7812927  91.0134879  44.6689021  48.9988573  90.7458383  46.1429815
  49.0901560  72.3221563  46.2769274  49.3960437  71.4618927  45.9895189
  49.8154165  72.9139183  46.0768268  35.3825916  82.7252250  44.6650872
  35.1850316  82.1321611  43.9401939  34.8272580  82.4204460  45.3826811
  43.3622640  82.6175356  46.7845465  43.4171249  81.6649193  46.7087942
  42.5513842  82.7734795  47.2686764  44.5113833  86.5455479  38.0223748
  44.0733263  85.8291338  37.5629386  45.2524274  86.7731594  37.4608840
  41.3014999  81.2352416  44.5435844  40.4882865  81.5346587  44.9501036
  41.7973994  80.8408105  45.2610326  43.4523577  91.2310173  46.4770109
  43.4099756  91.4571019  45.5478641  44.3686276  90.9973548  46.6255910
  46.8989211  81.6994241  53.3750738  47.2538599  81.9265714  54.2345204
  47.5461342  82.0312617  52.7527993  52.6286948  84.8212676  44.0800067
  52.4904847  85.0114272  43.1521256  52.2723167  85.5832059  44.5368118
  40.7929074  78.8070772  50.1597079  41.4328454  78.6659531  49.4620042
  39.9606605  78.5205285  49.7835681  52.6556328  86.8889203  49.0911339
  53.0892834  86.7964493  49.9394393  53.3687908  86.8646704  48.4531355
  41.5689378  88.1073202  46.2732072  42.3629977  87.6123522  46.0714646
  40.8581071  87.5791065  45.9099777  46.3884223  90.4891298  50.6244439
  46.4421245  91.0582234  51.3922155  45.5199004  90.6593183  50.2598476
  37.8772142  82.2516284  42.3491824  36.9469730  82.1900739  42.5661786
  37.9729614  81.7292236  41.5528465  37.7957691  78.7771097  44.9370066
  38.0564508  79.6916430  44.8279226  38.6174863  78.3095539  45.0866679
  39.2682616  80.1908854  52.1068890  39.9405669  79.9826216  51.4581539
  38.4412403  79.9930940  51.6674123  53.5171877  86.9312904  51.6244224
  53.7107767  87.8358715  51.8703499  53.4172495  86.4720323  52.4582809
  45.1708188  76.8170795  54.1234551  44.5236103  77.5160744  54.0299028
  45.9409203  77.2506939  54.4910799  45.3472322  84.6551560  52.1831371
  46.2764382  84.8062719  52.0100338  44.9263352  84.7435580  51.3280017
  44.1460654  88.6802224  49.9529909  44.0071740  88.3121008  50.8255847
  43.3575250  89.1949863  49.7813866  44.7408806  93.7811320  41.2955445
  44.9160562  93.3099364  42.1101068  44.0541594  94.4077087  41.5236706
  45.6965869  88.0583827  47.3418746  45.3615702  88.0184597  48.2376396
  45.1969815  87.3928543  46.8689157  39.6710113  83.4651457  52.8671328
  39.5329911  82.7331696  53.4682867  40.5815037  83.3760357  52.5855515
  48.6325061  85.4039861  37.6155806  48.0154232  84.6786689  37.5188859
  48.1641549  86.1649221  37.2722880  42.2992414  83.1771416  52.3555007
  43.0092032  82.5364608  52.3141626  42.2561722  83.4284311  53.2781188
  50.2879193  90.1138769  55.2761586  50.2291739  89.4297989  54.6092169
  50.6898711  90.8557759  54.8242212  41.0121348  80.1636634  54.1750647
  40.4758705  79.7127372  54.8272243  40.4238056  80.2982543  53.4321111
  39.3069891  96.9300683  48.0695305  39.5466490  97.5619207  48.7474324
  38.4639088  96.5788723  48.3560665  40.4223607  79.6225285  36.7377110
  39.5453073  79.5014086  36.3739357  40.8981360  78.8311364  36.4855999
  50.2896600  88.0778353  53.5075566  49.4023379  87.7404275  53.6301965
  50.8595151  87.3461385  53.7444331  31.9425747  84.4102445  46.8318617
  32.6296787  84.0964175  46.2439633  31.7873876  85.3143810  46.5585869
  36.7460469  79.2992642  51.2603641  36.6618658  78.6918311  50.5254051
  35.9243176  79.7901660  51.2613137  43.8197753  92.7379806  50.4736809
  43.7467925  93.5434777  50.9856114  43.3775146  92.9371771  49.6484831
  43.6087533  91.9751576  43.9839631  42.8255055  92.5173256  44.0777855
  44.3080278  92.4925555  44.3833872  46.9184183  77.7846205  46.6273836
  47.4152883  77.0316167  46.3074906  46.1471165  77.8210522  46.0617046
  54.7713940  83.4886571  48.2692128  54.7603817  84.3711286  47.8986061
  53.9031320  83.1358121  48.0746665  46.2796437  92.6366640  52.6294968
  46.9924409  93.2714104  52.5570869  45.7886465  92.7330506  51.8134970
  48.0013964  86.5417892  44.2012260  47.0670242  86.6619355  44.0316964
  48.1790632  85.6390359  43.9372269  43.5019152  79.9263588  46.3545521
  43.1316939  79.3734629  47.0426426  43.9978244  79.3221722  45.8020521
  51.3886515  82.3835212  44.7362294  51.8546967  83.2163203  44.6622596
  51.8394016  81.9180193  45.4407552  41.3308350  90.3861083  53.4500539
  42.0317810  91.0197566  53.6029933  40.8603465  90.7275815  52.6896178
  49.4562746  88.7279033  41.7348446  49.7322590  88.6135628  42.6442320
  48.5867245  88.3296518  41.6960619  49.3603178  74.7515799  48.7753195
  48.4466258  74.9820025  48.9435402  49.7896279  74.8354243  49.6267227
  49.1309636  82.9405691  51.2753089  48.4781087  83.1881598  50.6205542
  49.5090016  82.1269829  50.9415566  46.0916810  92.9765384  45.3781259
  46.2739205  92.1587040  45.8409012  46.9149796  93.1933076  44.9406149
  46.4258976  91.9033569  42.6396308  46.9546742  91.3926023  42.0266470
  46.6887195  91.5876099  43.5041841  45.1797209  83.6825502  57.7619126
  44.5037846  83.5819631  58.4321501  46.0024843  83.5264715  58.2255123
  36.9276068  89.9197438  50.3831641  37.5129505  89.1741126  50.5159546
  36.7300907  90.2301395  51.2668305  39.7814724  92.9548686  45.3994084
  39.1125099  93.4394813  44.9158124  39.6427593  93.2017906  46.3137462
  31.5193723  82.4903038  49.1036085  31.5577823  81.9566629  49.8973203
  31.0134016  81.9638244  48.4847062  43.9219992  94.9892429  51.9976742
  44.4738300  95.1524051  52.7625827  44.2626186  95.5796867  51.3256767
  38.3736758  79.4090711  56.2471661  39.0008797  79.0267789  56.8609185
  37.5164677  79.1904913  56.6127354  48.7730867  89.8153687  57.8525397
  49.3170770  90.4283645  57.3580351  48.1917711  90.3733265  58.3692410
  35.1502301  81.2167141  42.1790016  35.4455742  80.3077819  42.1257070
  34.2490336  81.1954880  41.8571018  47.0588379  92.9374405  48.9840424
  46.9339519  92.1364144  48.4751370  47.7167471  93.4320598  48.4954394
  38.6796548  79.2923137  48.1617565  37.9583133  79.9059105  48.0225038
  39.4689803  79.8280902  48.0834211  49.1223288  90.7383425  50.6119974
  48.1753623  90.6188776  50.5398301  49.4706061  89.8505923  50.6946236
  41.4822861  76.6277564  54.4358216  42.0057263  76.8739860  55.1984526
  41.2635194  77.4597598  54.0161354  36.8790142  78.8981238  42.3029341
  36.5502848  78.0178617  42.1204447  37.2329513  78.8428907  43.1905730
  46.1269721  90.5336141  46.8124327  45.9794684  89.6052848  46.9931897
  46.9523215  90.5556232  46.3281402  39.9931965  79.1854208  42.6704819
  40.3328038  79.7140129  41.9483427  40.4404086  79.5234614  43.4463385
  49.7303843  91.3564700  47.8989199  50.6550390  91.1507561  47.7613651
  49.5619146  91.1081101  48.8078541  42.6875406  77.5691259  52.1207887
  42.3472227  76.7699072  52.5228567  41.9814413  77.8692970  51.5484720
  41.9800113  77.6828830  40.8698112  42.7008475  78.0610082  40.3661828
  41.3565417  78.4017706  40.9733090  46.1231235  78.3873979  41.8056444
  46.3394850  79.2698616  41.5045272  45.6425303  77.9960192  41.0762086
  40.8630457  81.3459692  48.3827188  40.7175038  81.6599995  49.2751470
  40.3855660  81.9644592  47.8298087  42.7226840  78.3362240  48.4308078
  42.7088408  77.4403333  48.0940376  43.4399268  78.3432904  49.0646364
  44.5752970  78.7699580  50.4761205  44.3170748  79.6916651  50.4745536
  44.0438011  78.3730015  51.1661670  49.5199159  91.8750367  43.2551291
  49.6936037  91.3096790  42.5025143  50.0128050  92.6751262  43.0730781
  35.3376119  83.8865036  51.3214850  34.7929587  84.6624844  51.4535124
  36.2155469  84.2335841  51.1633971  42.1263736  77.2176620  43.6995648
  42.2479647  76.2893266  43.8986536  41.8365778  77.2315306  42.7873964
  55.3738550  84.6386790  44.8741591  55.8169696  83.8894115  44.4760714
  54.4965061  84.6296926  44.4915323  50.5074332  91.1917132  40.3548189
  51.2025236  91.8123824  40.5735504  50.8497482  90.3412483  40.6300567
  36.1242141  83.0134932  54.2145007  35.3823877  83.1617568  54.8009637
  35.8034885  83.2743198  53.3511756  52.4065755  88.6416837  41.8835520
  52.9317079  88.9804110  41.1584840  52.3188107  87.7063852  41.6998655
  44.0685804  92.5550911  54.0125397  44.3772930  92.3100057  54.8848096
  44.8661286  92.7597549  53.5244267  44.0906416  94.7088820  46.2430773
  43.6511406  94.2165199  46.9363630  44.8414533  94.1661788  46.0022848
  36.5698755  90.9000361  46.2455401  37.3956774  90.6004133  45.8654045
  36.2192807  90.1307984  46.6945190  41.5380288  90.2526829  48.3153075
  40.9160297  89.5897534  48.0155303  42.2085155  90.2787961  47.6326723
  34.7707360  88.8186688  47.2044335  33.9339268  88.3908862  47.0228336
  34.7431005  89.0119131  48.1415126  41.6104815  78.7308617  57.9085581
  41.6592971  79.6070740  57.5263350  42.1527329  78.1886010  57.3357224
  52.0959661  89.2749741  57.1886718  51.3055205  89.2573880  56.6491217
  51.8593015  89.8138034  57.9435754  52.2157536  86.1242207  54.5019446
  52.2655541  85.9592214  55.4434969  52.1071459  85.2569466  54.1117327
  41.0993795  88.8030753  41.7911535  41.2481915  89.4866217  41.1378208
  41.9060238  88.7835843  42.3060991  43.8404104  79.4839990  54.6631939
  42.9707413  79.7773556  54.3914528  44.0763584  80.0680435  55.3839203
  54.9171415  86.1092028  47.2664038  55.7518306  86.5481832  47.4301599
  55.0530544  85.6330682  46.4472284  51.9662921  83.6671763  53.2141526
  52.4417043  83.8599410  52.4060377  51.0428486  83.7230949  52.9684910
  38.8546428  84.8295930  42.7972604  38.6092470  83.9258260  42.9952814
  39.0242342  84.8313081  41.8552082  46.5443137  75.7019607  52.1797360
  47.0625081  76.4380634  51.8543848  46.1898270  76.0083600  53.0144119
  38.1242075  80.5624288  40.2958766  37.4311320  80.6368643  39.6398802
  37.8793827  79.7984632  40.8180283  46.7955732  72.1219889  47.6998256
  47.0757485  71.4543078  48.3258683  47.5806339  72.3148985  47.1872920
  44.5989200  91.2978883  39.2623283  44.0263167  91.9169070  38.8093755
  45.1721994  91.8478245  39.7963205  50.6664590  80.5437523  51.4469832
  51.6182013  80.6435621  51.4682056  50.4968040  79.7515792  51.9567916
  48.6878969  77.6293107  51.6329232  48.0928902  77.9098119  50.9375721
  48.4028666  78.1187007  52.4045974  47.8186460  91.5816033  40.3931865
  48.7517133  91.5161595  40.5964741  47.7309673  92.4172300  39.9346398
  50.4474477  90.8981904  37.3535813  50.3688108  90.5641767  38.2471570
  51.2684143  91.3903672  37.3527285  53.1452668  83.7643643  50.5612131
  53.1128988  82.8259644  50.7471815  53.7553291  83.8427680  49.8277956
  44.9835999  82.6339696  36.6039335  45.9295103  82.5045904  36.6727753
  44.6050244  81.8954358  37.0808763  53.2947156  80.5554686  50.6070414
  52.7786205  79.7713143  50.4200343  54.1787105  80.2273403  50.7716934
  50.9557883  74.2995702  46.5666227  50.7582704  73.9910790  47.4509559
  51.5657589  75.0257341  46.6964157  58.9629218  84.8259650  49.7018168
  59.6932606  84.5644938  50.2625871  58.3536163  84.0888372  49.7420236
  57.0444515  82.9667512  50.2992619  56.3177678  82.8323477  49.6909111
  56.6291802  83.2744341  51.1049337  44.8674691  86.6857442  58.0639992
  45.7877701  86.8636041  58.2580039  44.8324274  85.7413487  57.9119691
  43.1678916  80.5589672  36.5394220  42.2610371  80.2622785  36.6156934
  43.4454897  80.2619490  35.6728507  34.0856856  81.8796036  46.9893267
  33.7659641  81.0261344  46.6967641  33.5390284  82.0944614  47.7451234
  37.8636764  84.5958477  50.7062773  38.0822774  85.5275585  50.7250807
  38.2762538  84.2366451  51.4917577  44.7840982  75.1026562  42.6938462
  43.9741710  74.7573647  43.0693708  45.4725398  74.7934106  43.2826073
  46.7131530  74.1804609  44.3162758  47.2662568  74.6000062  44.9752781
  46.9501616  73.2540357  44.3585714  42.7364629  80.1691682  60.0965522
  42.6361356  81.1186039  60.0277613  42.5186171  79.8409921  59.2241592
  41.9377700  77.4176608  36.6806200  42.7996864  77.7431506  36.9402017
  42.1228045  76.6308103  36.1679265  33.9545116  85.4998947  48.9586388
  33.2608588  85.0852900  48.4456343  34.7018107  85.5419484  48.3619807
  50.0910337  76.2905134  43.8241423  49.5109006  76.9489938  43.4419475
  49.8246270  75.4682479  43.4128840  48.5413903  75.6910192  46.0262743
  49.0413682  75.8026726  45.2177062  49.1849511  75.3871245  46.6663551
  42.5995899  83.5988821  58.9130584  42.1162981  84.3989181  59.1194473
  42.6856838  83.6096766  57.9598028  35.8681859  85.4317201  46.8352403
  35.8452547  85.5304888  45.8834286  36.1782495  86.2782352  47.1569569
  38.5269237  87.4893356  50.9499018  39.4812490  87.4577298  50.8828949
  38.3281760  87.0283980  51.7649244  39.1168619  86.0594472  53.5169815
  39.9361508  86.5538551  53.5404653  39.3905426  85.1426440  53.4887383
  48.8735215  78.4505224  42.8797771  47.9861070  78.7354875  42.6617966
  49.2889204  78.2898988  42.0325048  52.2249751  78.4751745  46.5952110
  53.0010141  78.9648198  46.8676727  51.4997885  78.9009800  47.0523980
  54.6622310  79.1879365  47.6526051  55.2566800  78.9475101  46.9419359
  54.7348893  78.4686495  48.2799587  36.8819465  93.0312976  47.9669216
  36.7473933  92.2713376  47.4007214  36.4651528  93.7553875  47.4998004
  48.0178428  88.2149899  36.9745791  48.7214279  88.4199902  37.5903447
  47.2941077  88.7826661  37.2394874  48.8476239  83.9659760  43.0948061
  48.7911440  84.4228312  42.2555693  49.4004581  83.2050445  42.9170904
  52.6581045  79.7549492  43.9198181  52.4017979  79.3546128  44.7506388
  52.0333913  80.4693286  43.7948320  56.9693382  82.4945565  46.4269472
  56.4092940  82.5638755  47.2001034  56.3636886  82.3186550  45.7068968
  40.0388591  93.9282293  48.1787658  39.9220975  94.8727725  48.0766349
  39.2181038  93.6255854  48.5673457  49.9265126  88.6532428  39.0244251
  50.7610730  88.2213627  38.8421726  49.7649469  88.4814442  39.9521145
  49.5811018  85.1564542  40.3900590  49.5259822  84.9908813  39.4489034
  48.9557073  85.8640574  40.5462780  34.3703533  80.3932606  54.2162012
  35.0162397  79.8831560  54.7049238  34.1620684  81.1301288  54.7905438
  42.8907143  74.6572651  39.9685909  42.8785813  75.6014491  40.1254180
  43.7830565  74.4742796  39.6745370  41.0643105  94.5810554  51.3943587
  41.9670352  94.6134165  51.7110082  40.8380475  93.6511005  51.4089922
  42.8196707  93.3341541  48.0553665  41.8692338  93.3343403  47.9418038
  43.1229194  92.5874276  47.5389700  46.7059263  71.2515427  44.2231845
  45.9391659  70.6973914  44.3688528  47.1169968  71.3237296  45.0845997
  58.5549401  99.1702079  49.1199428  59.1927811  99.0508827  48.4162768
  58.4370244 100.1182923  49.1787380  55.3639107  99.1229507  49.0560952
  55.0257619  99.0070572  48.1681487  56.2328875  98.7220673  49.0361959
  51.2225923 100.9764984  45.0457843  50.6590788 100.8854921  44.2774131
  51.1078318 100.1564888  45.5260336  55.8458890 100.2764359  55.0147158
  55.8347531  99.8817157  54.1427662  56.0079530  99.5430432  55.6080929
  48.7690355 102.4716176  47.8842064  49.5611647 102.1307000  47.4688363
  49.0087005 102.5811151  48.8044217  56.8025482 104.6435952  40.3572308
  56.1513461 105.2290032  39.9706322  57.5969844 105.1742147  40.4167346
  50.7281109 101.7325089  40.7559443  51.5011985 101.1854076  40.6172318
  51.0806508 102.5969338  40.9673904  52.5666151 103.0601471  53.9626342
  52.2756017 103.9647102  53.8473008  53.2023136 103.1017999  54.6770411
  53.4922358 100.4378320  50.5527702  54.0885930 100.2134342  49.8384664
  53.5497330  99.6963065  51.1553149  53.0647387  97.8917755  38.3877893
  53.3172907  97.3699276  37.6261356  52.1271946  97.7283900  38.4904576
  58.1090669  96.8953533  46.1952636  58.8953759  96.4772956  45.8443053
  58.3729374  97.7999625  46.3634284  58.2800747 102.3326384  40.8941293
  57.6446580 102.4061010  41.6062197  57.9498153 102.9219982  40.2160372
  63.5099097  96.8328766  47.0985614  64.2424268  96.2627983  47.3323444
  62.7538452  96.4450367  47.5392120  52.7843675  99.7945861  40.5902267
  52.6679933  99.1190764  41.2583352  52.8945935  99.3078235  39.7734421
  55.1275216  99.2556008  44.2948957  54.7633423  98.7286629  45.0061878
  55.9842332  98.8654477  44.1215442  61.0324517  90.5450341  51.5580223
  60.7007842  91.4145752  51.3341438  60.4370130  90.2286625  52.2374253
  54.7680703  94.2845908  39.2910305  54.9355106  95.1526144  39.6580776
  54.5777872  94.4473189  38.3671594  57.5256036 102.7462887  50.9576136
  57.2256759 103.6487925  50.8491943  57.1807096 102.4795070  51.8097288
  50.9768518  99.1976683  46.9912840  50.0519014  99.0652897  47.1990532
  51.2252931  99.9770903  47.4882782  60.9253180  95.2645427  48.6373573
  60.0170058  95.1960835  48.3432334  60.8740776  95.7417372  49.4655398
  54.7469924  96.7403565  40.2756972  54.6269549  97.1860616  41.1142452
  54.0522512  97.0888883  39.7170510  48.3377329  98.8409957  47.8256629
  48.4669710  99.0944436  48.7396041  47.6574780  99.4337665  47.5061284
  52.5076816 109.5107207  43.9247103  52.4300846 110.4615032  44.0035584
  51.9038460 109.1653079  44.5822030  54.9994046  96.6835072  56.5808470
  54.2227380  97.2428992  56.5711335  55.6384609  97.1691855  57.1023340
  62.7914827  93.4661865  50.4151447  62.1489207  93.7594398  49.7691241
  62.2869755  93.3514785  51.2204644  60.4454990  97.2125038  41.1037306
  61.3572846  97.4452425  40.9285004  59.9364637  97.7962083  40.5412385
  53.2540418  99.4920526  56.1426437  53.9955103 100.0305570  55.8661261
  52.5477404 100.1186814  56.2997989  58.7295758 101.6349666  54.7398599
  59.1379114 101.1932077  53.9953231  58.0073019 101.0602294  54.9932792
  55.0826828  96.5722273  52.1132156  55.9288023  96.9961686  52.2566805
  55.0225466  95.9155897  52.8070719  59.0524573 102.1950857  48.4950888
  58.4233435 102.3596571  47.7926955  58.6650235 102.6092466  49.2661852
  62.9313804 103.1305295  45.8495251  62.2464843 103.5104196  45.2992285
  63.0157654 103.7400621  46.5827199  58.2326273  94.2326641  53.7713329
  57.9887205  94.9868702  53.2347605  58.5086204  94.6111989  54.6060576
  60.1864736 100.7765254  52.4490595  60.3981631 101.4197014  51.7724976
  60.1394484  99.9427570  51.9812525  57.7890965  93.3883074  49.3527167
  56.9275444  93.6864328  49.6443905  57.8153400  93.6053473  48.4208200
  54.6052534 101.9325265  45.7600973  55.0690880 102.2112968  44.9705595
  54.3409333 101.0308709  45.5774063  51.4976615 101.4796746  48.6980736
  52.0677973 101.9084015  48.0598220  52.0884727 101.1979331  49.3964922
  53.5421420  98.0548417  42.5690538  54.2445464  98.5069461  43.0364464
  53.2102049  97.4132236  43.1970431  51.9901782  96.6460174  56.9441747
  51.3600443  97.3276455  57.1777144  51.8837870  96.5343255  55.9994885
  47.2846754  96.3131970  47.8707671  46.4945808  96.5689498  47.3947782
  47.7758002  97.1280308  47.9759712  61.3010564 103.6537209  50.6212952
  62.1228008 103.2517396  50.3395634  61.2972967 103.5505443  51.5729068
  49.2361500  96.6776549  44.8291148  48.4392663  96.7895243  45.3474644
  49.0087092  97.0163201  43.9632039  55.0667167 103.2021252  52.7773663
  55.1311600 103.6641660  53.6131835  54.3578091 102.5718617  52.9055973
  45.5684457  96.5662460  50.3022662  45.8192496  97.4509470  50.5680238
  46.1044006  96.3867062  49.5297754  69.3916557  99.9975958  46.9697924
  68.6380265  99.4283356  46.8141928  69.5264098  99.9638622  47.9168558
  54.7815185 104.8689360  42.6452643  54.6460860 105.7140896  43.0737491
  55.3224998 105.0708637  41.8818577  51.2682525  90.9480940  59.3066998
  50.8749470  90.3947138  59.9814642  52.0848665  91.2591518  59.6973516
  48.2344582 102.3864798  43.2180568  48.7469103 103.1808048  43.3686133
  48.8867295 101.6891088  43.1514170  50.0439467 105.5030554  45.3003321
  50.2206096 106.4248519  45.1124305  50.8396301 105.1888973  45.7297701
  54.1850486  92.3638819  56.8987255  54.9260199  92.9645972  56.8191717
  54.4168409  91.6216457  56.3405297  49.3291824  97.5495186  55.1765484
  49.2145339  96.6480443  55.4772583  48.4736341  97.7958883  54.8250301
  56.4083661 105.4912926  56.7752985  55.9647516 104.7049305  56.4573890
  57.0700875 105.6792077  56.1096876  51.1670783 107.0208728  51.3013664
  51.7178208 106.8925791  50.5290658  50.3282259 107.3203617  50.9508556
  58.5064900 105.7715726  54.8034386  58.4883375 106.5924607  54.3114656
  59.4284820 105.6469801  55.0284528  54.9637954 103.2859856  55.6457895
  55.4966290 102.5248144  55.4157203  54.4352035 102.9933508  56.3882049
  58.1307649  88.3919922  51.1751536  57.7871918  89.2821563  51.0990647
  58.4986611  88.2021579  50.3121121  46.1993499 100.7153452  43.9940139
  47.0368721 101.1250461  43.7773846  46.3771767  99.7752894  43.9640333
  58.0957931  98.3828533  39.6823972  57.5804555  99.1533137  39.9212359
  57.8235240  97.7093669  40.3057033  55.6805042  93.2278234  44.7409210
  54.8246639  92.8385084  44.5614849  56.0931994  93.3070194  43.8808995
  57.2104189  90.7624577  49.1400770  56.7068985  90.7254712  48.3268575
  57.5034796  91.6717320  49.1997426  53.4547075  90.8463307  48.1466951
  54.3200072  90.6506115  47.7872841  53.5224584  90.6173658  49.0736308
  63.0692206 101.1360887  41.6177145  62.2921648 100.7972047  41.1732307
  63.7483686 101.1413511  40.9432110  57.8844235  96.2555625  41.5083753
  57.5794370  96.5701774  42.3593896  58.8374677  96.3337045  41.5511086
  56.3290666 102.4145848  43.1576707  55.8012028 101.6798608  42.8449944
  55.8278169 103.1920525  42.9116675  61.3083512 100.6094869  48.2743753
  60.6507187 101.2994130  48.3623882  62.1123912 100.9991301  48.6177739
  51.0609394  93.0765515  45.5183318  51.6353146  92.8540696  44.7856511
  51.6480376  93.1454209  46.2711920  60.1188971  98.9639241  46.3247695
  60.6320853  99.5969233  46.8269405  60.7690195  98.3640437  45.9591055
  51.3878981  95.1069976  39.5379204  50.5516293  95.4444662  39.8588478
  51.2483751  94.9718955  38.6006341  53.3632062  89.9506763  44.2458388
  52.7096474  89.6355781  43.6215002  53.3212536  89.3282504  44.9718211
  54.4743267 100.2326059  36.1611680  53.5670328 100.0015312  36.3602829
  54.9714299  99.4363678  36.3485661  57.3811345 108.9423566  39.0808366
  56.7073044 109.2455262  39.6893324  57.7677167 109.7452646  38.7313823
  56.5969802  96.4388697  48.5706035  55.6792363  96.6603644  48.4127723
  57.0129946  96.5135007  47.7117743  57.3804850  97.8380113  43.7008716
  58.1276669  98.3501510  43.3915838  57.6496439  97.5164165  44.5613109
  55.6531500 100.3338653  40.6835670  54.7442719 100.0497686  40.7808140
  55.6826584 100.7537732  39.8238977  60.8850767 103.9445243  44.4526837
  60.4313095 103.1036153  44.5092028  60.2544734 104.5806641  44.7901618
  59.8283687  94.8737229  45.6827505  59.0906444  94.3614615  46.0137747
  60.0810461  94.4337611  44.8710782  59.3283707 105.7821740  45.3876656
  59.6206681 106.3426797  44.6689021  59.8382327 106.0750301  46.1429815
  59.9295314  87.6513481  46.2769274  60.2354191  86.7910844  45.9895189
  60.6547919  88.2431101  46.0768268  46.2219670  98.0544167  44.6650872
  46.0244070  97.4613528  43.9401939  45.6666334  97.7496378  45.3826811
  54.2016394  97.9467274  46.7845465  54.2565004  96.9941110  46.7087942
  53.3907596  98.1026713  47.2686764  55.3507588 101.8747397  38.0223748
  54.9127018 101.1583256  37.5629386  56.0918029 102.1023512  37.4608840
  52.1408754  96.5644334  44.5435844  51.3276620  96.8638504  44.9501036
  52.6367748  96.1700022  45.2610326  54.2917332 106.5602091  46.4770109
  54.2493511 106.7862937  45.5478641  55.2080031 106.3265465  46.6255910
  57.7382966  97.0286158  53.3750738  58.0932353  97.2557631  54.2345204
  58.3855097  97.3604535  52.7527993  63.4680703 100.1504594  44.0800067
  63.3298601 100.3406190  43.1521256  63.1116921 100.9123977  44.5368118
  51.6322829  94.1362689  50.1597079  52.2722208  93.9951448  49.4620042
  50.8000359  93.8497203  49.7835681  63.4950082 102.2181121  49.0911339
  63.9286589 102.1256410  49.9394393  64.2081663 102.1938622  48.4531355
  52.4083133 103.4365120  46.2732072  53.2023731 102.9415440  46.0714646
  51.6974825 102.9082983  45.9099777  57.2277977 105.8183215  50.6244439
  57.2814999 106.3874152  51.3922155  56.3592758 105.9885100  50.2598476
  48.7165896  97.5808201  42.3491824  47.7863484  97.5192657  42.5661786
  48.8123368  97.0584154  41.5528465  48.6351445  94.1063014  44.9370066
  48.8958262  95.0208347  44.8279226  49.4568617  93.6387457  45.0866679
  50.1076370  95.5200771  52.1068890  50.7799424  95.3118134  51.4581539
  49.2806157  95.3222857  51.6674123  64.3565632 102.2604822  51.6244224
  64.5501522 103.1650632  51.8703499  64.2566250 101.8012241  52.4582809
  56.0101943  92.1462712  54.1234551  55.3629858  92.8452662  54.0299028
  56.7802958  92.5798856  54.4910799  59.4180740 102.4111564  57.1985105
  59.2666247 102.1822116  56.2815188  59.4085420 103.3682166  57.2116450
  56.1866077  99.9843477  52.1831371  57.1158137 100.1354637  52.0100338
  55.7657107 100.0727498  51.3280017  54.9854409 104.0094142  49.9529909
  54.8465494 103.6412926  50.8255847  54.1969005 104.5241781  49.7813866
  55.5802561 109.1103238  41.2955445  55.7554316 108.6391281  42.1101068
  54.8935349 109.7369004  41.5236706  56.5359624 103.3875744  47.3418746
  56.2009456 103.3476514  48.2376396  56.0363569 102.7220460  46.8689157
  50.5103868  98.7943374  52.8671328  50.3723666  98.0623613  53.4682867
  51.4208791  98.7052274  52.5855515  59.4718815 100.7331779  37.6155806
  58.8547986 100.0078607  37.5188859  59.0035304 101.4941139  37.2722880
  53.1386168  98.5063334  52.3555007  53.8485787  97.8656526  52.3141626
  53.0955477  98.7576229  53.2781188  61.1272947 105.4430687  55.2761586
  61.0685493 104.7589907  54.6092169  61.5292465 106.1849677  54.8242212
  51.8515102  95.4928552  54.1750647  51.3152459  95.0419290  54.8272243
  51.2631811  95.6274460  53.4321111  50.1463646 112.2592601  48.0695305
  50.3860244 112.8911125  48.7474324  49.3032842 111.9080641  48.3560665
  51.2617361  94.9517203  36.7377110  50.3846828  94.8306004  36.3739357
  51.7375114  94.1603281  36.4855999  61.1290354 103.4070271  53.5075566
  60.2417133 103.0696193  53.6301965  61.6988905 102.6753302  53.7444331
  42.7819501  99.7394363  46.8318617  43.4690541  99.4256093  46.2439633
  42.6267630 100.6435727  46.5585869  47.5854224  94.6284559  51.2603641
  47.5012412  94.0210229  50.5254051  46.7636930  95.1193578  51.2613137
  54.6591508 108.0671723  50.4736809  54.5861679 108.8726695  50.9856114
  54.2168901 108.2663689  49.6484831  54.4481287 107.3043493  43.9839631
  53.6648809 107.8465174  44.0777855  55.1474033 107.8217473  44.3833872
  57.7577937  93.1138123  46.6273836  58.2546637  92.3608085  46.3074906
  56.9864919  93.1502439  46.0617046  65.6107695  98.8178488  48.2692128
  65.5997571  99.7003204  47.8986061  64.7425074  98.4650039  48.0746665
  57.1190191 107.9658557  52.6294968  57.8318163 108.6006022  52.5570869
  56.6280220 108.0622423  51.8134970  58.8407718 101.8709810  44.2012260
  57.9063997 101.9911272  44.0316964  59.0184387 100.9682277  43.9372269
  54.3412906  95.2555506  46.3545521  53.9710694  94.7026546  47.0426426
  54.8371999  94.6513639  45.8020521  62.2280270  97.7127129  44.7362294
  62.6940722  98.5455121  44.6622596  62.6787770  97.2472111  45.4407552
  52.1702105 105.7153001  53.4500539  52.8711564 106.3489484  53.6029933
  51.6997220 106.0567732  52.6896178  60.2956501 104.0570951  41.7348446
  60.5716345 103.9427545  42.6442320  59.4260999 103.6588435  41.6960619
  60.1996932  90.0807716  48.7753195  59.2860012  90.3111943  48.9435402
  60.6290034  90.1646160  49.6267227  59.9703391  98.2697608  51.2753089
  59.3174841  98.5173516  50.6205542  60.3483771  97.4561746  50.9415566
  56.9310565 108.3057301  45.3781259  57.1132959 107.4878957  45.8409012
  57.7543551 108.5224994  44.9406149  57.2652730 107.2325487  42.6396308
  57.7940497 106.7217941  42.0266470  57.5280950 106.9168017  43.5041841
  56.0190964  99.0117419  57.7619126  55.3431601  98.9111549  58.4321501
  56.8418598  98.8556633  58.2255123  47.7669823 105.2489356  50.3831641
  48.3523260 104.5033044  50.5159546  47.5694661 105.5593313  51.2668305
  50.6208478 108.2840603  45.3994084  49.9518853 108.7686731  44.9158124
  50.4821348 108.5309824  46.3137462  42.3587478  97.8194956  49.1036085
  42.3971577  97.2858547  49.8973203  41.8527770  97.2930162  48.4847062
  54.7613747 110.3184347  51.9976742  55.3132055 110.4815968  52.7625827
  55.1019940 110.9088785  51.3256767  49.7378240  92.6659497  52.5998627
  49.8019566  93.5274327  52.1876025  49.6745360  92.0533498  51.8670985
  49.2130512  94.7382629  56.2471661  49.8402551  94.3559706  56.8609185
  48.3558431  94.5196831  56.6127354  59.6124621 105.1445604  57.8525397
  60.1564525 105.7575563  57.3580351  59.0311466 105.7025183  58.3692410
  45.9896055  96.5459058  42.1790016  46.2849496  95.6369737  42.1257070
  45.0884091  96.5246798  41.8571018  57.8982134 108.2666322  48.9840424
  57.7733273 107.4656062  48.4751370  58.5561225 108.7612516  48.4954394
  49.5190302  94.6215055  48.1617565  48.7976888  95.2351023  48.0225038
  50.3083558  95.1572820  48.0834211  59.9617042 106.0675342  50.6119974
  59.0147378 105.9480694  50.5398301  60.3099815 105.1797840  50.6946236
  52.3216616  91.9569481  54.4358216  52.8451018  92.2031778  55.1984526
  52.1028949  92.7889516  54.0161354  47.7183897  94.2273156  42.3029341
  47.3896603  93.3470535  42.1204447  48.0723267  94.1720825  43.1905730
  56.9663476 105.8628059  46.8124327  56.8188438 104.9344766  46.9931897
  57.7916969 105.8848149  46.3281402  50.8325720  94.5146126  42.6704819
  51.1721792  95.0432047  41.9483427  51.2797840  94.8526532  43.4463385
  60.5697597 106.6856617  47.8989199  61.4944145 106.4799479  47.7613651
  60.4012901 106.4373018  48.8078541  53.5269161  92.8983176  52.1207887
  53.1865981  92.0990989  52.5228567  52.8208167  93.1984887  51.5484720
  54.1785633  89.9832489  50.5735210  55.0011702  89.5092967  50.4514100
  54.4223696  90.7622973  51.0733896  52.8193867  93.0120747  40.8698112
  53.5402230  93.3902000  40.3661828  52.1959171  93.7309624  40.9733090
  56.9624990  93.7165896  41.8056444  57.1788604  94.5990534  41.5045272
  56.4819057  93.3252110  41.0762086  51.7024211  96.6751609  48.3827188
  51.5568792  96.9891913  49.2751470  51.2249415  97.2936510  47.8298087
  53.5620594  93.6654157  48.4308078  53.5482163  92.7695251  48.0940376
  54.2793022  93.6724821  49.0646364  55.4146725  94.0991498  50.4761205
  55.1564503  95.0208568  50.4745536  54.8831765  93.7021932  51.1661670
  60.3592914 107.2042285  43.2551291  60.5329791 106.6388707  42.5025143
  60.8521805 108.0043180  43.0730781  46.1769873  99.2156954  51.3214850
  45.6323342  99.9916762  51.4535124  47.0549223  99.5627758  51.1633971
  52.9657490  92.5468538  43.6995648  53.0873401  91.6185184  43.8986536
  52.6759533  92.5607224  42.7873964  55.8348681  90.2323448  46.8362368
  55.8570377  90.2962781  45.8814348  56.2516740  89.3927957  47.0302874
  66.2132305  99.9678708  44.8741591  66.6563451  99.2186033  44.4760714
  65.3358815  99.9588844  44.4915323  61.3468086 106.5209049  40.3548189
  62.0418991 107.1415742  40.5735504  61.6891236 105.6704400  40.6300567
  46.9635895  98.3426850  54.2145007  46.2217631  98.4909485  54.8009637
  46.6428640  98.6035116  53.3511756  63.2459509 103.9708755  41.8835520
  63.7710833 104.3096027  41.1584840  63.1581862 103.0355770  41.6998655
  54.9079558 107.8842828  54.0125397  55.2166684 107.6391975  54.8848096
  55.7055040 108.0889467  53.5244267  54.9300170 110.0380738  46.2430773
  54.4905160 109.5457117  46.9363630  55.6808287 109.4953706  46.0022848
  47.4092509 106.2292279  46.2455401  48.2350529 105.9296051  45.8654045
  47.0586561 105.4599901  46.6945190  52.3774042 105.5818747  48.3153075
  51.7554051 104.9189452  48.0155303  53.0478909 105.6079879  47.6326723
  45.6101114 104.1478605  47.2044335  44.7733022 103.7200780  47.0228336
  45.5824760 104.3411049  48.1415126  52.4498570  94.0600535  57.9085581
  52.4986725  94.9362658  57.5263350  52.9921084  93.5177928  57.3357224
  62.9353415 104.6041658  57.1886718  62.1448959 104.5865797  56.6491217
  62.6986770 105.1429952  57.9435754  63.0551290 101.4534125  54.5019446
  63.1049295 101.2884132  55.4434969  62.9465214 100.5861384  54.1117327
  51.9387549 104.1322670  41.7911535  52.0875669 104.8158135  41.1378208
  52.7453993 104.1127760  42.3060991  60.3455053  97.4365053  55.8178753
  61.2464916  97.2971518  55.5262751  60.4203027  97.6019508  56.7576931
  54.6797858  94.8131908  54.6631939  53.8101168  95.1065474  54.3914528
  54.9157339  95.3972353  55.3839203  64.5569487 103.8731066  54.7461468
  64.2654296 104.2361047  55.5824929  63.9441619 103.1598075  54.5674800
  65.7565170 101.4383946  47.2664038  66.5912061 101.8773750  47.4301599
  65.8924298 100.9622599  46.4472284  62.8056675  98.9963681  53.2141526
  63.2810797  99.1891327  52.4060377  61.8822241  99.0522867  52.9684910
  49.6940182 100.1587848  42.7972604  49.4486224  99.2550178  42.9952814
  49.8636097 100.1604999  41.8552082  57.3836892  91.0311524  52.1797360
  57.9018836  91.7672551  51.8543848  57.0292025  91.3375518  53.0144119
  48.9635830  95.8916206  40.2958766  48.2705075  95.9660561  39.6398802
  48.7187582  95.1276549  40.8180283  57.6349486  87.4511807  47.6998256
  57.9151240  86.7834996  48.3258683  58.4200093  87.6440903  47.1872920
  55.4382955 106.6270801  39.2623283  54.8656922 107.2460988  38.8093755
  56.0115748 107.1770163  39.7963205  61.5058344  95.8729441  51.4469832
  62.4575767  95.9727539  51.4682056  61.3361795  95.0807710  51.9567916
  59.5272724  92.9585024  51.6329232  58.9322656  93.2390037  50.9375721
  59.2422421  93.4478925  52.4045974  58.6580214 106.9107951  40.3931865
  59.5910888 106.8453513  40.5964741  58.5703427 107.7464218  39.9346398
  61.2868231 106.2273821  37.3535813  61.2081863 105.8933685  38.2471570
  62.1077898 106.7195589  37.3527285  63.9846422  99.0935561  50.5612131
  63.9522742  98.1551561  50.7471815  64.5947046  99.1719597  49.8277956
  55.8229753  97.9631614  36.6039335  56.7688858  97.8337822  36.6727753
  55.4443998  97.2246276  37.0808763  64.1340911  95.8846604  50.6070414
  63.6179959  95.1005061  50.4200343  65.0180859  95.5565321  50.7716934
  61.7951638  89.6287620  46.5666227  61.5976459  89.3202708  47.4509559
  62.4051343  90.3549259  46.6964157  69.8022972 100.1551567  49.7018168
  70.5326361  99.8936856  50.2625871  69.1929918  99.4180289  49.7420236
  67.8838269  98.2959430  50.2992619  67.1571433  98.1615395  49.6909111
  67.4685556  98.6036259  51.1049337  55.7068446 102.0149360  58.0639992
  56.6271455 102.1927959  58.2580039  55.6718029 101.0705405  57.9119691
  54.0072670  95.8881590  36.5394220  53.1004126  95.5914703  36.6156934
  54.2848651  95.5911408  35.6728507  44.9250611  97.2087953  46.9893267
  44.6053395  96.3553262  46.6967641  44.3784039  97.4236532  47.7451234
  48.7030518  99.9250394  50.7062773  48.9216528 100.8567502  50.7250807
  49.1156292  99.5658369  51.4917577  55.6234736  90.4318480  42.6938462
  54.8135464  90.0865565  43.0693708  56.3119153  90.1226023  43.2826073
  57.5525284  89.5096527  44.3162758  58.1056323  89.9291980  44.9752781
  57.7895371  88.5832275  44.3585714  53.5758384  95.4983600  60.0965522
  53.4755110  96.4477957  60.0277613  53.3579926  95.1701839  59.2241592
  52.7771455  92.7468525  36.6806200  53.6390619  93.0723424  36.9402017
  52.9621799  91.9600021  36.1679265  44.7938871 100.8290865  48.9586388
  44.1002342 100.4144818  48.4456343  45.5411862 100.8711401  48.3619807
  60.9304091  91.6197052  43.8241423  60.3502760  92.2781856  43.4419475
  60.6640024  90.7974396  43.4128840  59.3807658  91.0202109  46.0262743
  59.8807436  91.1318644  45.2177062  60.0243266  90.7163162  46.6663551
  53.4389654  98.9280739  58.9130584  52.9556735  99.7281099  59.1194473
  53.5250593  98.9388684  57.9598028  46.7075613 100.7609119  46.8352403
  46.6846301 100.8596806  45.8834286  47.0176250 101.6074269  47.1569569
  49.3662991 102.8185274  50.9499018  50.3206245 102.7869216  50.8828949
  49.1675515 102.3575897  51.7649244  49.9562373 101.3886390  53.5169815
  50.7755262 101.8830468  53.5404653  50.2299181 100.4718358  53.4887383
  59.7128969  93.7797142  42.8797771  58.8254824  94.0646793  42.6617966
  60.1282958  93.6190905  42.0325048  63.0643506  93.8043663  46.5952110
  63.8403896  94.2940116  46.8676727  62.3391640  94.2301717  47.0523980
  65.5016064  94.5171282  47.6526051  66.0960555  94.2767018  46.9419359
  65.5742648  93.7978413  48.2799587  47.7213220 108.3604893  47.9669216
  47.5867688 107.6005294  47.4007214  47.3045282 109.0845793  47.4998004
  58.8572183 103.5441817  36.9745791  59.5608033 103.7491819  37.5903447
  58.1334832 104.1118579  37.2394874  59.6869993  99.2951678  43.0948061
  59.6305195  99.7520229  42.2555693  60.2398336  98.5342363  42.9170904
  63.4974799  95.0841410  43.9198181  63.2411733  94.6838046  44.7506388
  62.8727667  95.7985204  43.7948320  67.8087137  97.8237483  46.4269472
  67.2486695  97.8930672  47.2001034  67.2030640  97.6478468  45.7068968
  50.8782346 109.2574210  48.1787658  50.7614730 110.2019643  48.0766349
  50.0574792 108.9547772  48.5673457  60.7658880 103.9824346  39.0244251
  61.6004484 103.5505544  38.8421726  60.6043223 103.8106360  39.9521145
  60.4204772 100.4856459  40.3900590  60.3653576 100.3200731  39.4489034
  59.7950828 101.1932492  40.5462780  45.2097287  95.7224524  54.2162012
  45.8556151  95.2123478  54.7049238  45.0014439  96.4593205  54.7905438
  57.7350680 102.7905371  59.7154153  58.6041839 102.9646023  59.3540788
  57.2557431 103.6099788  59.5929882  53.7300898  89.9864568  39.9685909
  53.7179568  90.9306408  40.1254180  54.6224320  89.8034714  39.6745370
  51.9036860 109.9102472  51.3943587  52.8064107 109.9426082  51.7110082
  51.6774230 108.9802923  51.4089922  53.6590462 108.6633459  48.0553665
  52.7086093 108.6635320  47.9418038  53.9622948 107.9166193  47.5389700
  57.5453017  86.5807345  44.2231845  56.7785413  86.0265832  44.3688528
  57.9563722  86.6529214  45.0845997  49.5494778  92.8692141  58.3137027
  50.4126240  92.5128946  58.5240351  48.9760189  92.5306036  59.0012431
  69.3943155 114.4993997  49.1199428  70.0321565 114.3800744  48.4162768
  69.2763998 115.4474841  49.1787380  66.2032862 114.4521425  49.0560952
  65.8651373 114.3362490  48.1681487  67.0722630 114.0512590  49.0361959
  62.0619677 116.3056902  45.0457843  61.4984542 116.2146839  44.2774131
  61.9472072 115.4856806  45.5260336  66.6852645 115.6056277  55.0147158
  66.6741285 115.2109075  54.1427662  66.8473284 114.8722350  55.6080929
  59.6084109 117.8008093  47.8842064  60.4005401 117.4598918  47.4688363
  59.8480759 117.9103068  48.8044217  67.6419236 119.9727869  40.3572308
  66.9907216 120.5581950  39.9706322  68.4363599 120.5034064  40.4167346
  61.5674863 117.0617006  40.7559443  62.3405739 116.5145994  40.6172318
  61.9200262 117.9261256  40.9673904  63.4059906 118.3893389  53.9626342
  63.1149772 119.2939020  53.8473008  64.0416890 118.4309916  54.6770411
  64.3316113 115.7670237  50.5527702  64.9279685 115.5426260  49.8384664
  64.3891084 115.0254983  51.1553149  63.9041141 113.2209673  38.3877893
  64.1566662 112.6991194  37.6261356  62.9665700 113.0575818  38.4904576
  68.9484424 112.2245451  46.1952636  69.7347513 111.8064874  45.8443053
  69.2123128 113.1291543  46.3634284  69.1194501 117.6618301  40.8941293
  68.4840334 117.7352928  41.6062197  68.7891908 118.2511900  40.2160372
  74.3492851 112.1620684  47.0985614  75.0818023 111.5919901  47.3323444
  73.5932207 111.7742285  47.5392120  63.6237430 115.1237779  40.5902267
  63.5073688 114.4482682  41.2583352  63.7339690 114.6370152  39.7734421
  65.9668971 114.5847926  44.2948957  65.6027178 114.0578547  45.0061878
  66.8236087 114.1946395  44.1215442  71.8718271 105.8742258  51.5580223
  71.5401596 106.7437669  51.3341438  71.2763885 105.5578542  52.2374253
  65.6074458 109.6137825  39.2910305  65.7748860 110.4818062  39.6580776
  65.4171627 109.7765107  38.3671594  68.3649791 118.0754804  50.9576136
  68.0650514 118.9779843  50.8491943  68.0200850 117.8086987  51.8097288
  61.8162272 114.5268601  46.9912840  60.8912769 114.3944815  47.1990532
  62.0646686 115.3062820  47.4882782  71.7646935 110.5937344  48.6373573
  70.8563812 110.5252753  48.3432334  71.7134530 111.0709289  49.4655398
  65.5863679 112.0695483  40.2756972  65.4663304 112.5152534  41.1142452
  64.8916267 112.4180800  39.7170510  59.1771083 114.1701875  47.8256629
  59.3063465 114.4236354  48.7396041  58.4968535 114.7629583  47.5061284
  63.3470571 124.8399125  43.9247103  63.2694600 125.7906950  44.0035584
  62.7432214 124.4944997  44.5822030  65.8387800 112.0126990  56.5808470
  65.0621135 112.5720910  56.5711335  66.4778363 112.4983773  57.1023340
  73.6308581 108.7953783  50.4151447  72.9882961 109.0886316  49.7691241
  73.1263510 108.6806703  51.2204644  71.2848745 112.5416956  41.1037306
  72.1966601 112.7744343  40.9285004  70.7758392 113.1254000  40.5412385
  64.0934173 114.8212443  56.1426437  64.8348857 115.3597487  55.8661261
  63.3871158 115.4478732  56.2997989  69.5689512 116.9641584  54.7398599
  69.9772868 116.5223994  53.9953231  68.8466774 116.3894211  54.9932792
  65.9220582 111.9014191  52.1132156  66.7681778 112.3253604  52.2566805
  65.8619220 111.2447815  52.8070719  69.8918327 117.5242774  48.4950888
  69.2627189 117.6888489  47.7926955  69.5043989 117.9384384  49.2661852
  73.7707559 118.4597212  45.8495251  73.0858597 118.8396114  45.2992285
  73.8551408 119.0692539  46.5827199  69.0720028 109.5618559  53.7713329
  68.8280960 110.3160619  53.2347605  69.3479958 109.9403907  54.6060576
  71.0258491 116.1057171  52.4490595  71.2375386 116.7488931  51.7724976
  70.9788239 115.2719488  51.9812525  68.6284719 108.7174992  49.3527167
  67.7669199 109.0156246  49.6443905  68.6547154 108.9345391  48.4208200
  65.4446289 117.2617183  45.7600973  65.9084634 117.5404886  44.9705595
  65.1803087 116.3600627  45.5774063  62.3370370 116.8088664  48.6980736
  62.9071727 117.2375932  48.0598220  62.9278482 116.5271249  49.3964922
  64.3815175 113.3840335  42.5690538  65.0839218 113.8361379  43.0364464
  64.0495803 112.7424154  43.1970431  62.8295536 111.9752092  56.9441747
  62.1994197 112.6568372  57.1777144  62.7231624 111.8635173  55.9994885
  58.1240509 111.6423888  47.8707671  57.3339563 111.8981416  47.3947782
  58.6151756 112.4572225  47.9759712  72.1404318 118.9829127  50.6212952
  72.9621762 118.5809314  50.3395634  72.1366721 118.8797361  51.5729068
  60.0755254 112.0068467  44.8291148  59.2786418 112.1187161  45.3474644
  59.8480847 112.3455119  43.9632039  65.9060922 118.5313170  52.7773663
  65.9705354 118.9933577  53.6131835  65.1971846 117.9010535  52.9055973
  56.4078212 111.8954378  50.3022662  56.6586250 112.7801388  50.5680238
  56.9437760 111.7158980  49.5297754  80.2310312 115.3267875  46.9697924
  79.4774020 114.7575273  46.8141928  80.3657853 115.2930540  47.9168558
  65.6208940 120.1981278  42.6452643  65.4854614 121.0432813  43.0737491
  66.1618752 120.4000555  41.8818577  62.1076279 106.2772857  59.3066998
  61.7143225 105.7239056  59.9814642  62.9242420 106.5883436  59.6973516
  59.0738337 117.7156716  43.2180568  59.5862858 118.5099966  43.3686133
  59.7261050 117.0183006  43.1514170  60.8833222 120.8322472  45.3003321
  61.0599850 121.7540437  45.1124305  61.6790055 120.5180891  45.7297701
  65.0244240 107.6930736  56.8987255  65.7653954 108.2937890  56.8191717
  65.2562163 106.9508374  56.3405297  60.1685578 112.8787104  55.1765484
  60.0539093 111.9772361  55.4772583  59.3130096 113.1250800  54.8250301
  67.2477416 120.8204844  56.7752985  66.8041270 120.0341223  56.4573890
  67.9094630 121.0083995  56.1096876  62.0064537 122.3500646  51.3013664
  62.5571962 122.2217709  50.5290658  61.1676013 122.6495535  50.9508556
  69.3458654 121.1007644  54.8034386  69.3277129 121.9216525  54.3114656
  70.2678574 120.9761719  55.0284528  65.8031708 118.6151773  55.6457895
  66.3360045 117.8540062  55.4157203  65.2745789 118.3225425  56.3882049
  68.9701403 103.7211839  51.1751536  68.6265673 104.6113481  51.0990647
  69.3380366 103.5313497  50.3121121  57.0387254 116.0445370  43.9940139
  57.8762476 116.4542378  43.7773846  57.2165521 115.1044812  43.9640333
  68.9351686 113.7120450  39.6823972  68.4198309 114.4825055  39.9212359
  68.6628994 113.0385587  40.3057033  66.5198797 108.5570151  44.7409210
  65.6640393 108.1677002  44.5614849  66.9325749 108.6362112  43.8808995
  68.0497944 106.0916495  49.1400770  67.5462739 106.0546630  48.3268575
  68.3428550 107.0009237  49.1997426  64.2940829 106.1755224  48.1466951
  65.1593826 105.9798033  47.7872841  64.3618338 105.9465576  49.0736308
  73.9085960 116.4652805  41.6177145  73.1315403 116.1263965  41.1732307
  74.5877441 116.4705428  40.9432110  68.7237989 111.5847543  41.5083753
  68.4188125 111.8993692  42.3593896  69.6768431 111.6628962  41.5511086
  67.1684421 117.7437766  43.1576707  66.6405782 117.0090525  42.8449944
  66.6671924 118.5212442  42.9116675  72.1477267 115.9386786  48.2743753
  71.4900941 116.6286048  48.3623882  72.9517666 116.3283218  48.6177739
  61.9003149 108.4057432  45.5183318  62.4746900 108.1832614  44.7856511
  62.4874131 108.4746127  46.2711920  70.9582726 114.2931159  46.3247695
  71.4714607 114.9261151  46.8269405  71.6083950 113.6932355  45.9591055
  62.2272736 110.4361893  39.5379204  61.3910048 110.7736580  39.8588478
  62.0877505 110.3010873  38.6006341  64.2025816 105.2798681  44.2458388
  63.5490229 104.9647698  43.6215002  64.1606290 104.6574422  44.9718211
  65.3137021 115.5617976  36.1611680  64.4064083 115.3307230  36.3602829
  65.8108053 114.7655595  36.3485661  68.2205100 124.2715483  39.0808366
  67.5466799 124.5747180  39.6893324  68.6070922 125.0744564  38.7313823
  67.4363557 111.7680615  48.5706035  66.5186118 111.9895562  48.4127723
  67.8523700 111.8426925  47.7117743  68.2198604 113.1672030  43.7008716
  68.9670423 113.6793428  43.3915838  68.4890194 112.8456083  44.5613109
  66.4925255 115.6630571  40.6835670  65.5836474 115.3789604  40.7808140
  66.5220338 116.0829650  39.8238977  71.7244522 119.2737161  44.4526837
  71.2706849 118.4328070  44.5092028  71.0938489 119.9098559  44.7901618
  70.6677441 110.2029147  45.6827505  69.9300198 109.6906533  46.0137747
  70.9204215 109.7629528  44.8710782  70.1677461 121.1113657  45.3876656
  70.4600436 121.6718714  44.6689021  70.6776082 121.4042218  46.1429815
  70.7689069 102.9805399  46.2769274  71.0747946 102.1202762  45.9895189
  71.4941674 103.5723019  46.0768268  57.0613425 113.3836085  44.6650872
  56.8637825 112.7905446  43.9401939  56.5060089 113.0788295  45.3826811
  65.0410149 113.2759192  46.7845465  65.0958758 112.3233028  46.7087942
  64.2301351 113.4318631  47.2686764  66.1901342 117.2039315  38.0223748
  65.7520772 116.4875174  37.5629386  66.9311783 117.4315430  37.4608840
  62.9802508 111.8936251  44.5435844  62.1670374 112.1930422  44.9501036
  63.4761503 111.4991940  45.2610326  65.1311086 121.8894008  46.4770109
  65.0887265 122.1154855  45.5478641  66.0473785 121.6557383  46.6255910
  68.5776720 112.3578076  53.3750738  68.9326108 112.5849549  54.2345204
  69.2248851 112.6896453  52.7527993  74.3074457 115.4796512  44.0800067
  74.1692356 115.6698108  43.1521256  73.9510676 116.2415895  44.5368118
  62.4716583 109.4654607  50.1597079  63.1115963 109.3243366  49.4620042
  61.6394114 109.1789120  49.7835681  74.3343837 117.5473039  49.0911339
  74.7680343 117.4548328  49.9394393  75.0475417 117.5230539  48.4531355
  63.2476887 118.7657037  46.2732072  64.0417486 118.2707357  46.0714646
  62.5368580 118.2374900  45.9099777  68.0671732 121.1475133  50.6244439
  68.1208754 121.7166069  51.3922155  67.1986513 121.3177018  50.2598476
  59.5559651 112.9100119  42.3491824  58.6257239 112.8484575  42.5661786
  59.6517123 112.3876072  41.5528465  59.4745200 109.4354932  44.9370066
  59.7352017 110.3500265  44.8279226  60.2962372 108.9679374  45.0866679
  60.9470125 110.8492689  52.1068890  61.6193178 110.6410051  51.4581539
  60.1199912 110.6514775  51.6674123  75.1959386 117.5896739  51.6244224
  75.3895276 118.4942550  51.8703499  75.0960004 117.1304158  52.4582809
  66.8495697 107.4754630  54.1234551  66.2023612 108.1744580  54.0299028
  67.6196712 107.9090774  54.4910799  70.2574495 117.7403482  57.1985105
  70.1060001 117.5114034  56.2815188  70.2479174 118.6974084  57.2116450
  67.0259831 115.3135395  52.1831371  67.9551891 115.4646555  52.0100338
  66.6050861 115.4019416  51.3280017  65.8248163 119.3386059  49.9529909
  65.6859249 118.9704844  50.8255847  65.0362759 119.8533699  49.7813866
  66.4196315 124.4395156  41.2955445  66.5948071 123.9683199  42.1101068
  65.7329103 125.0660922  41.5236706  67.3753378 118.7167662  47.3418746
  67.0403211 118.6768432  48.2376396  66.8757324 118.0512378  46.8689157
  61.3497622 114.1235292  52.8671328  61.2117420 113.3915531  53.4682867
  62.2602546 114.0344192  52.5855515  70.3112570 116.0623696  37.6155806
  69.6941741 115.3370525  37.5188859  69.8429058 116.8233057  37.2722880
  63.9779923 113.8355251  52.3555007  64.6879541 113.1948444  52.3141626
  63.9349231 114.0868146  53.2781188  71.9666702 120.7722605  55.2761586
  71.9079248 120.0881825  54.6092169  72.3686220 121.5141595  54.8242212
  62.6908857 110.8220469  54.1750647  62.1546214 110.3711208  54.8272243
  62.1025565 110.9566378  53.4321111  62.1011116 110.2809121  36.7377110
  61.2240582 110.1597921  36.3739357  62.5768869 109.4895199  36.4855999
  71.9684109 118.7362189  53.5075566  71.0810888 118.3988110  53.6301965
  72.5382660 118.0045220  53.7444331  53.6213256 115.0686280  46.8318617
  54.3084296 114.7548010  46.2439633  53.4661385 115.9727645  46.5585869
  58.4247978 109.9576477  51.2603641  58.3406167 109.3502147  50.5254051
  57.6030685 110.4485495  51.2613137  65.4985262 123.3963641  50.4736809
  65.4255434 124.2018612  50.9856114  65.0562655 123.5955607  49.6484831
  65.2875042 122.6335411  43.9839631  64.5042564 123.1757091  44.0777855
  65.9867787 123.1509391  44.3833872  68.5971692 108.4430040  46.6273836
  69.0940392 107.6900003  46.3074906  67.8258673 108.4794357  46.0617046
  76.4501449 114.1470406  48.2692128  76.4391326 115.0295121  47.8986061
  75.5818829 113.7941957  48.0746665  67.9583946 123.2950475  52.6294968
  68.6711918 123.9297940  52.5570869  67.4673974 123.3914341  51.8134970
  69.6801473 117.2001728  44.2012260  68.7457751 117.3203190  44.0316964
  69.8578141 116.2974194  43.9372269  65.1806661 110.5847423  46.3545521
  64.8104448 110.0318464  47.0426426  65.6765753 109.9805557  45.8020521
  73.0674024 113.0419047  44.7362294  73.5334476 113.8747039  44.6622596
  73.5181525 112.5764029  45.4407552  63.0095859 121.0444918  53.4500539
  63.7105319 121.6781401  53.6029933  62.5390974 121.3859650  52.6896178
  71.1350255 119.3862868  41.7348446  71.4110099 119.2719463  42.6442320
  70.2654754 118.9880353  41.6960619  71.0390687 105.4099634  48.7753195
  70.1253767 105.6403861  48.9435402  71.4683788 105.4938078  49.6267227
  70.8097145 113.5989526  51.2753089  70.1568596 113.8465433  50.6205542
  71.1877525 112.7853664  50.9415566  67.7704319 123.6349219  45.3781259
  67.9526714 122.8170875  45.8409012  68.5937305 123.8516911  44.9406149
  68.1046485 122.5617404  42.6396308  68.6334251 122.0509859  42.0266470
  68.3674704 122.2459934  43.5041841  66.8584718 114.3409337  57.7619126
  66.1825355 114.2403466  58.4321501  67.6812352 114.1848551  58.2255123
  58.6063577 120.5781274  50.3831641  59.1917014 119.8324961  50.5159546
  58.4088416 120.8885230  51.2668305  61.4602233 123.6132521  45.3994084
  60.7912608 124.0978649  44.9158124  61.3215102 123.8601741  46.3137462
  53.1981232 113.1486874  49.1036085  53.2365332 112.6150464  49.8973203
  52.6921525 112.6222079  48.4847062  65.6007501 125.6476264  51.9976742
  66.1525809 125.8107886  52.7625827  65.9413695 126.2380702  51.3256767
  60.5771994 107.9951414  52.5998627  60.6413321 108.8566245  52.1876025
  60.5139115 107.3825416  51.8670985  60.0524267 110.0674547  56.2471661
  60.6796306 109.6851624  56.8609185  59.1952186 109.8488749  56.6127354
  70.4518375 120.4737522  57.8525397  70.9958279 121.0867480  57.3580351
  69.8705220 121.0317100  58.3692410  56.8289810 111.8750976  42.1790016
  57.1243251 110.9661654  42.1257070  55.9277845 111.8538715  41.8571018
  68.7375888 123.5958240  48.9840424  68.6127028 122.7947980  48.4751370
  69.3954980 124.0904433  48.4954394  60.3584057 109.9506972  48.1617565
  59.6370642 110.5642940  48.0225038  61.1477312 110.4864737  48.0834211
  70.8010797 121.3967260  50.6119974  69.8541132 121.2772611  50.5398301
  71.1493570 120.5089758  50.6946236  63.1610370 107.2861399  54.4358216
  63.6844772 107.5323696  55.1984526  62.9422703 108.1181434  54.0161354
  58.5577651 109.5565074  42.3029341  58.2290357 108.6762452  42.1204447
  58.9117022 109.5012742  43.1905730  67.8057230 121.1919976  46.8124327
  67.6582193 120.2636684  46.9931897  68.6310724 121.2140067  46.3281402
  61.6719474 109.8438043  42.6704819  62.0115547 110.3723965  41.9483427
  62.1191595 110.1818449  43.4463385  71.4091352 122.0148535  47.8989199
  72.3337899 121.8091396  47.7613651  71.2406655 121.7664936  48.8078541
  64.3662915 108.2275094  52.1207887  64.0259736 107.4282907  52.5228567
  63.6601922 108.5276805  51.5484720  65.0179387 105.3124406  50.5735210
  65.8405456 104.8384885  50.4514100  65.2617451 106.0914890  51.0733896
  63.6587622 108.3412665  40.8698112  64.3795984 108.7193918  40.3661828
  63.0352926 109.0601542  40.9733090  67.8018744 109.0457814  41.8056444
  68.0182359 109.9282452  41.5045272  67.3212812 108.6544027  41.0762086
  62.5417966 112.0043527  48.3827188  62.3962547 112.3183830  49.2751470
  62.0643169 112.6228427  47.8298087  64.4014349 108.9946075  48.4308078
  64.3875917 108.0987168  48.0940376  65.1186777 109.0016739  49.0646364
  66.2540479 109.4283415  50.4761205  65.9958257 110.3500486  50.4745536
  65.7225520 109.0313850  51.1661670  71.1986668 122.5334202  43.2551291
  71.3723546 121.9680625  42.5025143  71.6915559 123.3335097  43.0730781
  57.0163628 114.5448872  51.3214850  56.4717096 115.3208680  51.4535124
  57.8942978 114.8919676  51.1633971  63.8051245 107.8760455  43.6995648
  63.9267156 106.9477102  43.8986536  63.5153287 107.8899141  42.7873964
  66.6742435 105.5615366  46.8362368  66.6964132 105.6254699  45.8814348
  67.0910494 104.7219874  47.0302874  77.0526059 115.2970625  44.8741591
  77.4957205 114.5477951  44.4760714  76.1752570 115.2880762  44.4915323
  72.1861841 121.8500967  40.3548189  72.8812745 122.4707660  40.5735504
  72.5284991 120.9996318  40.6300567  57.8029650 113.6718768  54.2145007
  57.0611386 113.8201403  54.8009637  57.4822394 113.9327033  53.3511756
  74.0853264 119.3000672  41.8835520  74.6104588 119.6387945  41.1584840
  73.9975616 118.3647688  41.6998655  65.7473312 123.2134746  54.0125397
  66.0560439 122.9683893  54.8848096  66.5448795 123.4181385  53.5244267
  65.7693925 125.3672656  46.2430773  65.3298915 124.8749034  46.9363630
  66.5202041 124.8245623  46.0022848  58.2486264 121.5584197  46.2455401
  59.0744283 121.2587968  45.8654045  57.8980316 120.7891819  46.6945190
  63.2167797 120.9110665  48.3153075  62.5947806 120.2481370  48.0155303
  63.8872664 120.9371797  47.6326723  56.4494869 119.4770523  47.2044335
  55.6126777 119.0492697  47.0228336  56.4218514 119.6702966  48.1415126
  63.2892324 109.3892453  57.9085581  63.3380480 110.2654576  57.5263350
  63.8314838 108.8469846  57.3357224  73.7747170 119.9333576  57.1886718
  72.9842714 119.9157715  56.6491217  73.5380524 120.4721870  57.9435754
  73.8945045 116.7826042  54.5019446  73.9443050 116.6176050  55.4434969
  73.7858968 115.9153301  54.1117327  62.7781304 119.4614588  41.7911535
  62.9269424 120.1450052  41.1378208  63.5847747 119.4419678  42.3060991
  71.1848807 112.7656970  55.8178753  72.0858670 112.6263435  55.5262751
  71.2596782 112.9311425  56.7576931  65.5191613 110.1423825  54.6631939
  64.6494922 110.4357391  54.3914528  65.7551093 110.7264270  55.3839203
  75.3963242 119.2022984  54.7461468  75.1048050 119.5652964  55.5824929
  74.7835373 118.4889992  54.5674800  76.5958924 116.7675864  47.2664038
  77.4305815 117.2065668  47.4301599  76.7318053 116.2914517  46.4472284
  73.6450430 114.3255599  53.2141526  74.1204552 114.5183245  52.4060377
  72.7215995 114.3814784  52.9684910  60.5333937 115.4879766  42.7972604
  60.2879979 114.5842096  42.9952814  60.7029851 115.4896916  41.8552082
  68.2230646 106.3603442  52.1797360  68.7412590 107.0964469  51.8543848
  67.8685779 106.6667435  53.0144119  59.8029584 111.2208123  40.2958766
  59.1098829 111.2952478  39.6398802  59.5581336 110.4568467  40.8180283
  68.4743241 102.7803725  47.6998256  68.7544994 102.1126914  48.3258683
  69.2593848 102.9732820  47.1872920  66.2776709 121.9562719  39.2623283
  65.7050676 122.5752906  38.8093755  66.8509503 122.5062080  39.7963205
  72.3452099 111.2021359  51.4469832  73.2969522 111.3019456  51.4682056
  72.1755549 110.4099627  51.9567916  70.3666478 108.2876942  51.6329232
  69.7716411 108.5681955  50.9375721  70.0816175 108.7770843  52.4045974
  69.4973969 122.2399869  40.3931865  70.4304642 122.1745430  40.5964741
  69.4097182 123.0756136  39.9346398  72.1261986 121.5565739  37.3535813
  72.0475617 121.2225603  38.2471570  72.9471652 122.0487507  37.3527285
  74.8240177 114.4227478  50.5612131  74.7916497 113.4843479  50.7471815
  75.4340800 114.5011515  49.8277956  66.6623508 113.2923531  36.6039335
  67.6082612 113.1629739  36.6727753  66.2837753 112.5538193  37.0808763
  74.9734665 111.2138522  50.6070414  74.4573714 110.4296978  50.4200343
  75.8574614 110.8857238  50.7716934  72.6345392 104.9579537  46.5666227
  72.4370213 104.6494626  47.4509559  73.2445098 105.6841176  46.6964157
  80.6416727 115.4843485  49.7018168  81.3720115 115.2228773  50.2625871
  80.0323672 114.7472207  49.7420236  78.7232024 113.6251348  50.2992619
  77.9965187 113.4907313  49.6909111  78.3079311 113.9328176  51.1049337
  66.5462200 117.3441277  58.0639992  67.4665210 117.5219876  58.2580039
  66.5111783 116.3997323  57.9119691  64.8466425 111.2173508  36.5394220
  63.9397880 110.9206620  36.6156934  65.1242406 110.9203326  35.6728507
  55.7644365 112.5379871  46.9893267  55.4447150 111.6845179  46.6967641
  55.2177793 112.7528449  47.7451234  59.5424273 115.2542312  50.7062773
  59.7610282 116.1859420  50.7250807  59.9550047 114.8950286  51.4917577
  66.4628491 105.7610397  42.6938462  65.6529219 105.4157482  43.0693708
  67.1512907 105.4517941  43.2826073  68.3919039 104.8388444  44.3162758
  68.9450077 105.2583898  44.9752781  68.6289125 103.9124192  44.3585714
  64.4152138 110.8275518  60.0965522  64.3148865 111.7769875  60.0277613
  64.1973680 110.4993757  59.2241592  63.6165209 108.0760443  36.6806200
  64.4784373 108.4015341  36.9402017  63.8015554 107.2891939  36.1679265
  55.6332625 116.1582783  48.9586388  54.9396097 115.7436735  48.4456343
  56.3805616 116.2003319  48.3619807  71.7697846 106.9488969  43.8241423
  71.1896515 107.6073773  43.4419475  71.5033779 106.1266314  43.4128840
  70.2201412 106.3494027  46.0262743  70.7201191 106.4610562  45.2177062
  70.8637020 106.0455080  46.6663551  64.2783408 114.2572657  58.9130584
  63.7950490 115.0573017  59.1194473  64.3644347 114.2680602  57.9598028
  57.5469368 116.0901036  46.8352403  57.5240056 116.1888724  45.8834286
  57.8570004 116.9366187  47.1569569  60.2056746 118.1477191  50.9499018
  61.1599999 118.1161134  50.8828949  60.0069269 117.6867815  51.7649244
  60.7956128 116.7178307  53.5169815  61.6149017 117.2122386  53.5404653
  61.0692935 115.8010276  53.4887383  70.5522724 109.1089060  42.8797771
  69.6648579 109.3938710  42.6617966  70.9676713 108.9482823  42.0325048
  73.9037260 109.1335581  46.5952110  74.6797650 109.6232033  46.8676727
  73.1785394 109.5593635  47.0523980  76.3409819 109.8463200  47.6526051
  76.9354309 109.6058936  46.9419359  76.4136402 109.1270331  48.2799587
  69.6965937 118.8733734  36.9745791  70.4001787 119.0783737  37.5903447
  68.9728586 119.4410496  37.2394874  70.5263748 114.6243596  43.0948061
  70.4698949 115.0812147  42.2555693  71.0792090 113.8634280  42.9170904
  74.3368554 110.4133328  43.9198181  74.0805488 110.0129963  44.7506388
  73.7121422 111.1277121  43.7948320  78.6480891 113.1529401  46.4269472
  78.0880449 113.2222590  47.2001034  78.0424395 112.9770385  45.7068968
  71.6052635 119.3116264  39.0244251  72.4398239 118.8797462  38.8421726
  71.4436978 119.1398277  39.9521145  71.2598527 115.8148377  40.3900590
  71.2047331 115.6492648  39.4489034  70.6344582 116.5224410  40.5462780
  56.0491042 111.0516441  54.2162012  56.6949906 110.5415395  54.7049238
  55.8408193 111.7885123  54.7905438  68.5744434 118.1197289  59.7154153
  69.4435594 118.2937941  59.3540788  68.0951186 118.9391706  59.5929882
  64.5694652 105.3156486  39.9685909  64.5573322 106.2598326  40.1254180
  65.4618074 105.1326631  39.6745370  62.7430614 125.2394390  51.3943587
  63.6457861 125.2718000  51.7110082  62.5167984 124.3094841  51.4089922
  64.4984216 123.9925376  48.0553665  63.5479847 123.9927238  47.9418038
  64.8016703 123.2458111  47.5389700  68.3846772 101.9099263  44.2231845
  67.6179168 101.3557749  44.3688528  68.7957477 101.9821131  45.0845997
  60.3888533 108.1984058  58.3137027  61.2519994 107.8420863  58.5240351
  59.8153944 107.8597953  59.0012431  80.2336910 129.8285915  49.1199428
  80.8715320 129.7092662  48.4162768  80.1157753 130.7766759  49.1787380
  77.0426616 129.7813343  49.0560952  76.7045128 129.6654408  48.1681487
  77.9116384 129.3804508  49.0361959  77.5246399 130.9348195  55.0147158
  77.5135040 130.5400993  54.1427662  77.6867039 130.2014267  55.6080929
  74.7434896 128.5501590  38.3877893  74.9960416 128.0283111  37.6261356
  73.8059455 128.3867736  38.4904576  79.7878178 127.5537369  46.1952636
  80.5741268 127.1356792  45.8443053  80.0516883 128.4583461  46.3634284
  85.1886605 127.4912602  47.0985614  85.9211777 126.9211819  47.3323444
  84.4325961 127.1034202  47.5392120  76.8062725 129.9139843  44.2948957
  76.4420932 129.3870464  45.0061878  77.6629841 129.5238312  44.1215442
  82.7112026 121.2034176  51.5580223  82.3795351 122.0729587  51.3341438
  82.1157639 120.8870460  52.2374253  76.4468212 124.9429743  39.2910305
  76.6142615 125.8109979  39.6580776  76.2565381 125.1057025  38.3671594
  82.6040689 125.9229262  48.6373573  81.6957566 125.8544671  48.3432334
  82.5528285 126.4001207  49.4655398  76.4257433 127.3987400  40.2756972
  76.3057058 127.8444451  41.1142452  75.7310021 127.7472718  39.7170510
  76.6781555 127.3418908  56.5808470  75.9014889 127.9012828  56.5711335
  77.3172118 127.8275691  57.1023340  84.4702336 124.1245700  50.4151447
  83.8276716 124.4178234  49.7691241  83.9657264 124.0098621  51.2204644
  82.1242499 127.8708874  41.1037306  83.0360355 128.1036260  40.9285004
  81.6152146 128.4545918  40.5412385  76.7614337 127.2306108  52.1132156
  77.6075532 127.6545522  52.2566805  76.7012975 126.5739733  52.8070719
  79.9113782 124.8910477  53.7713329  79.6674714 125.6452537  53.2347605
  80.1873713 125.2695824  54.6060576  79.4678474 124.0466910  49.3527167
  78.6062953 124.3448163  49.6443905  79.4940909 124.2637309  48.4208200
  75.2208929 128.7132253  42.5690538  75.9232973 129.1653296  43.0364464
  74.8889558 128.0716071  43.1970431  73.6689291 127.3044009  56.9441747
  73.0387952 127.9860290  57.1777144  73.5625379 127.1927091  55.9994885
  68.9634263 126.9715805  47.8707671  68.1733317 127.2273334  47.3947782
  69.4545511 127.7864143  47.9759712  70.9149009 127.3360384  44.8291148
  70.1180172 127.4479079  45.3474644  70.6874601 127.6747037  43.9632039
  72.9470034 121.6064775  59.3066998  72.5536979 121.0530974  59.9814642
  73.7636174 121.9175354  59.6973516  75.8637995 123.0222654  56.8987255
  76.6047708 123.6229807  56.8191717  76.0955918 122.2800292  56.3405297
  79.8095158 119.0503757  51.1751536  79.4659427 119.9405399  51.0990647
  80.1774120 118.8605415  50.3121121  79.7745440 129.0412368  39.6823972
  79.2592064 129.8116973  39.9212359  79.5022749 128.3677504  40.3057033
  77.3592551 123.8862069  44.7409210  76.5034148 123.4968919  44.5614849
  77.7719503 123.9654030  43.8808995  78.8891698 121.4208412  49.1400770
  78.3856494 121.3838547  48.3268575  79.1822305 122.3301155  49.1997426
  75.1334584 121.5047142  48.1466951  75.9987581 121.3089951  47.7872841
  75.2012093 121.2757494  49.0736308  79.5631744 126.9139460  41.5083753
  79.2581879 127.2285609  42.3593896  80.5162186 126.9920880  41.5511086
  72.7396903 123.7349350  45.5183318  73.3140655 123.5124531  44.7856511
  73.3267885 123.8038044  46.2711920  81.7976480 129.6223077  46.3247695
  82.3108362 130.2553069  46.8269405  82.4477704 129.0224272  45.9591055
  73.0666490 125.7653811  39.5379204  72.2303802 126.1028497  39.8588478
  72.9271260 125.6302791  38.6006341  75.0419571 120.6090599  44.2458388
  74.3883983 120.2939616  43.6215002  75.0000045 119.9866339  44.9718211
  78.2757311 127.0972532  48.5706035  77.3579872 127.3187479  48.4127723
  78.6917455 127.1718843  47.7117743  79.0592359 128.4963948  43.7008716
  79.8064178 129.0085345  43.3915838  79.3283948 128.1748001  44.5613109
  81.5071196 125.5321064  45.6827505  80.7693953 125.0198450  46.0137747
  81.7597970 125.0921446  44.8710782  81.6082823 118.3097316  46.2769274
  81.9141700 117.4494680  45.9895189  82.3335428 118.9014936  46.0768268
  75.8803903 128.6051109  46.7845465  75.9352513 127.6524946  46.7087942
  75.0695105 128.7610548  47.2686764  73.8196263 127.2228169  44.5435844
  73.0064129 127.5222340  44.9501036  74.3155257 126.8283858  45.2610326
  79.4170475 127.6869994  53.3750738  79.7719862 127.9141467  54.2345204
  80.0642606 128.0188370  52.7527993  73.3110338 124.7946525  50.1597079
  73.9509717 124.6535284  49.4620042  72.4787868 124.5081038  49.7835681
  70.3953405 128.2392037  42.3491824  69.4650993 128.1776492  42.5661786
  70.4910877 127.7167990  41.5528465  70.3138954 124.7646850  44.9370066
  70.5745771 125.6792183  44.8279226  71.1356126 124.2971292  45.0866679
  71.7863879 126.1784607  52.1068890  72.4586933 125.9701969  51.4581539
  70.9593666 125.9806693  51.6674123  77.6889451 122.8046548  54.1234551
  77.0417367 123.5036497  54.0299028  78.4590467 123.2382692  54.4910799
  77.8653586 130.6427313  52.1831371  78.7945646 130.7938472  52.0100338
  77.4444616 130.7311333  51.3280017  81.1506324 131.3915614  37.6155806
  80.5335495 130.6662442  37.5188859  80.6822813 132.1524974  37.2722880
  74.8173677 129.1647169  52.3555007  75.5273296 128.5240361  52.3141626
  74.7742986 129.4160064  53.2781188  73.5302611 126.1512387  54.1750647
  72.9939968 125.7003125  54.8272243  72.9419320 126.2858296  53.4321111
  72.9404870 125.6101038  36.7377110  72.0634337 125.4889839  36.3739357
  73.4162623 124.8187117  36.4855999  69.2641733 125.2868395  51.2603641
  69.1799921 124.6794064  50.5254051  68.4424439 125.7777413  51.2613137
  79.4365446 123.7721958  46.6273836  79.9334146 123.0191920  46.3074906
  78.6652428 123.8086275  46.0617046  76.0200415 125.9139341  46.3545521
  75.6498203 125.3610382  47.0426426  76.5159508 125.3097475  45.8020521
  83.9067779 128.3710965  44.7362294  84.3728231 129.2038956  44.6622596
  84.3575279 127.9055946  45.4407552  81.8784441 120.7391552  48.7753195
  80.9647521 120.9695779  48.9435402  82.3077543 120.8229996  49.6267227
  81.6490900 128.9281444  51.2753089  80.9962350 129.1757351  50.6205542
  82.0271280 128.1145582  50.9415566  77.6978473 129.6701255  57.7619126
  77.0219110 129.5695384  58.4321501  78.5206107 129.5140468  58.2255123
  71.4165749 123.3243332  52.5998627  71.4807075 124.1858163  52.1876025
  71.3532869 122.7117334  51.8670985  70.8918021 125.3966464  56.2471661
  71.5190060 125.0143542  56.8609185  70.0345940 125.1780666  56.6127354
  67.6683564 127.2042894  42.1790016  67.9637005 126.2953572  42.1257070
  66.7671600 127.1830633  41.8571018  71.1977811 125.2798890  48.1617565
  70.4764397 125.8934858  48.0225038  71.9871067 125.8156655  48.0834211
  74.0004125 122.6153317  54.4358216  74.5238527 122.8615613  55.1984526
  73.7816458 123.4473351  54.0161354  69.3971406 124.8856991  42.3029341
  69.0684112 124.0054370  42.1204447  69.7510776 124.8304660  43.1905730
  72.5113229 125.1729961  42.6704819  72.8509301 125.7015882  41.9483427
  72.9585349 125.5110367  43.4463385  75.2056670 123.5567012  52.1207887
  74.8653490 122.7574825  52.5228567  74.4995676 123.8568723  51.5484720
  75.8573142 120.6416324  50.5735210  76.6799211 120.1676802  50.4514100
  76.1011205 121.4206808  51.0733896  74.4981376 123.6704583  40.8698112
  75.2189739 124.0485835  40.3661828  73.8746680 124.3893459  40.9733090
  78.6412499 124.3749732  41.8056444  78.8576113 125.2574369  41.5045272
  78.1606566 123.9835945  41.0762086  73.3811720 127.3335445  48.3827188
  73.2356301 127.6475748  49.2751470  72.9036924 127.9520345  47.8298087
  75.2408103 124.3237993  48.4308078  75.2269672 123.4279086  48.0940376
  75.9580531 124.3308657  49.0646364  77.0934234 124.7575333  50.4761205
  76.8352012 125.6792404  50.4745536  76.5619274 124.3605768  51.1661670
  74.6444999 123.2052373  43.6995648  74.7660910 122.2769019  43.8986536
  74.3547042 123.2191059  42.7873964  77.5136190 120.8907284  46.8362368
  77.5357886 120.9546617  45.8814348  77.9304249 120.0511792  47.0302874
  74.1286079 124.7184370  57.9085581  74.1774234 125.5946493  57.5263350
  74.6708593 124.1761764  57.3357224  82.0242562 128.0948888  55.8178753
  82.9252425 127.9555353  55.5262751  82.0990536 128.2603343  56.7576931
  76.3585367 125.4715743  54.6631939  75.4888677 125.7649309  54.3914528
  76.5944847 126.0556188  55.3839203  79.0624401 121.6895360  52.1797360
  79.5806345 122.4256387  51.8543848  78.7079534 121.9959353  53.0144119
  70.6423339 126.5500041  40.2958766  69.9492584 126.6244396  39.6398802
  70.3975091 125.7860385  40.8180283  79.3136995 118.1095642  47.6998256
  79.5938749 117.4418831  48.3258683  80.0987602 118.3024738  47.1872920
  83.1845853 126.5313276  51.4469832  84.1363276 126.6311374  51.4682056
  83.0149304 125.7391545  51.9567916  81.2060233 123.6168860  51.6329232
  80.6110165 123.8973872  50.9375721  80.9209930 124.1062760  52.4045974
  77.5017262 128.6215449  36.6039335  78.4476367 128.4921657  36.6727753
  77.1231507 127.8830111  37.0808763  85.8128420 126.5430439  50.6070414
  85.2967468 125.7588896  50.4200343  86.6968368 126.2149156  50.7716934
  83.4739147 120.2871455  46.5666227  83.2763968 119.9786543  47.4509559
  84.0838852 121.0133094  46.6964157  75.6860179 126.5465425  36.5394220
  74.7791635 126.2498538  36.6156934  75.9636160 126.2495243  35.6728507
  77.3022245 121.0902315  42.6938462  76.4922973 120.7449400  43.0693708
  77.9906662 120.7809859  43.2826073  79.2312793 120.1680362  44.3162758
  79.7843832 120.5875815  44.9752781  79.4682880 119.2416110  44.3585714
  75.2545893 126.1567436  60.0965522  75.1542619 127.1061792  60.0277613
  75.0367435 125.8285674  59.2241592  74.4558964 123.4052361  36.6806200
  75.3178128 123.7307259  36.9402017  74.6409308 122.6183856  36.1679265
  82.6091600 122.2780887  43.8241423  82.0290269 122.9365691  43.4419475
  82.3427533 121.4558232  43.4128840  81.0595167 121.6785945  46.0262743
  81.5594945 121.7902479  45.2177062  81.7030775 121.3746998  46.6663551
  81.3916478 124.4380977  42.8797771  80.5042333 124.7230628  42.6617966
  81.8070467 124.2774741  42.0325048  84.7431015 124.4627498  46.5952110
  85.5191405 124.9523951  46.8676727  84.0179149 124.8885553  47.0523980
  87.1803573 125.1755118  47.6526051  87.7748064 124.9350854  46.9419359
  87.2530157 124.4562248  48.2799587  81.3657502 129.9535513  43.0948061
  81.3092704 130.4104065  42.2555693  81.9185845 129.1926198  42.9170904
  85.1762308 125.7425245  43.9198181  84.9199242 125.3421881  44.7506388
  84.5515176 126.4569039  43.7948320  82.0992281 131.1440295  40.3900590
  82.0441085 130.9784566  39.4489034  81.4738337 131.8516328  40.5462780
  66.8884796 126.3808359  54.2162012  67.5343660 125.8707313  54.7049238
  66.6801948 127.1177041  54.7905438  75.4088407 120.6448404  39.9685909
  75.3967077 121.5890244  40.1254180  76.3011829 120.4618549  39.6745370
  79.2240526 117.2391180  44.2231845  78.4572922 116.6849667  44.3688528
  79.6351231 117.3113049  45.0845997  71.2282287 123.5275976  58.3137027
  72.0913749 123.1712781  58.5240351  70.6547698 123.1889871  59.0012431
  15.1974384  14.8596531  35.8444734  15.8352794  14.7403279  35.1408074
  15.0795227  15.8077375  35.9032686  12.0064090  14.8123959  35.7806259
  11.6682602  14.6965024  34.8926794  12.8753859  14.4115124  35.7607265
  12.4883873  15.9658811  41.7392465  12.4772514  15.5711609  40.8672968
  12.6504513  15.2324884  42.3326236   5.4115338  18.1610627  34.6087370
   6.2036630  17.8201452  34.1933670   5.6511988  18.2705602  35.5289524
   9.2091135  18.7495923  40.6871649   8.9181001  19.6541554  40.5718315
   9.8448119  18.7912451  41.4015718  10.1347341  16.1272771  37.2773008
  10.7310914  15.9028794  36.5629971  10.1922313  15.3857517  37.8798456
  20.1524080  12.5223218  33.8230921  20.8849252  11.9522435  34.0568750
  19.3963436  12.1344819  34.2637426  14.1681020  18.4357338  37.6821442
  13.8681743  19.3382377  37.5737249  13.8232079  18.1689522  38.5342595
  17.5678163  10.9539879  35.3618880  16.6595041  10.8855287  35.0677641
  17.5165759  11.4311824  36.1900705   9.1501799  25.2001659  30.6492410
   9.0725829  26.1509484  30.7280890   8.5463443  24.8547531  31.3067336
  11.6419029  12.3729524  43.3053777  10.8652363  12.9323444  43.2956641
  12.2809592  12.8586307  43.8268647  19.4339810   9.1556317  37.1396753
  18.7914190   9.4488850  36.4936548  18.9294738   9.0409237  37.9449950
   9.8965402  15.1814978  42.8671744  10.6380086  15.7200022  42.5906567
   9.1902387  15.8081266  43.0243296  15.3720741  17.3244118  41.4643905
  15.7804097  16.8826529  40.7198538  14.6498003  16.7496746  41.7178098
  11.7251811  12.2616725  38.8377462  12.5713006  12.6856138  38.9812111
  11.6650449  11.6050349  39.5316025  15.6949556  17.8845309  35.2196194
  15.0658418  18.0491023  34.5172262  15.3075218  18.2986918  35.9907158
  19.5738788  18.8199746  32.5740558  18.8889826  19.1998648  32.0237591
  19.6582637  19.4295073  33.3072506  14.8751257   9.9221093  40.4958636
  14.6312188  10.6763154  39.9592912  15.1511187  10.3006441  41.3305883
  16.8289719  16.4659706  39.1735901  17.0406615  17.1091465  38.4970283
  16.7819468  15.6322022  38.7057832   8.1401599  17.1691198  35.4226043
   8.7102956  17.5978467  34.7843527   8.7309711  16.8873783  36.1210228
  17.9435547  19.3431661  37.3458259  18.7652991  18.9411848  37.0640940
  17.9397950  19.2399895  38.2974375  11.7092151  18.8915704  39.5018969
  11.7736583  19.3536111  40.3377141  11.0003075  18.2613069  39.6301279
  26.0341540  15.6870409  33.6943230  25.2805249  15.1177807  33.5387235
  26.1689082  15.6533074  34.6413865   6.6864450  21.1925006  32.0248628
   6.8631079  22.1142971  31.8369612   7.4821284  20.8783425  32.4543008
  13.0508645  21.1807378  43.4998292  12.6072499  20.3943757  43.1819196
  13.7125858  21.3686529  42.8342183   7.8095766  22.7103180  38.0258970
   8.3603191  22.5820243  37.2535964   6.9707242  23.0098069  37.6753863
  15.1489883  21.4610178  41.5279693  15.1308358  22.2819059  41.0359962
  16.0709803  21.3364253  41.7529834  11.6062937  18.9754308  42.3703201
  12.1391274  18.2142596  42.1402509  11.0777018  18.6827959  43.1127356
  17.9508496  16.2989321  34.9989060  17.2932170  16.9888582  35.0869188
  18.7548895  16.6885753  35.3423046  16.7613955  14.6533693  33.0493001
  17.2745836  15.2863685  33.5514711  17.4115178  14.0534889  32.6836361
  13.2394785  12.1283149  35.2951342  12.3217347  12.3498096  35.1373030
  13.6554929  12.2029459  34.4363049  17.5275751  19.6339695  31.1772144
  17.0738078  18.7930605  31.2337335  16.8969717  20.2701093  31.5146924
  15.9708690  21.4716191  32.1121962  16.2631664  22.0321249  31.3934328
  16.4807311  21.7644752  32.8675121  10.9342315  22.2496543  33.2015415
  10.8918494  22.4757389  32.2723947  11.8505014  22.0159917  33.3501217
  14.3807949  12.7180610  40.0996045  14.7357337  12.9452083  40.9590510
  15.0280080  13.0498987  39.4773300  20.1105686  15.8399046  30.8045374
  19.9723584  16.0300642  29.8766563  19.7541905  16.6018429  31.2613425
  20.1375066  17.9075573  35.8156645  20.5711572  17.8150862  36.6639699
  20.8506646  17.8833073  35.1776661  13.8702960  21.5077667  37.3489746
  13.9239983  22.0768603  38.1167462  13.0017742  21.6779552  36.9843783
  20.9990615  17.9499274  38.3489531  21.1926505  18.8545084  38.5948805
  20.8991233  17.4906693  39.1828116  16.0605724  18.1006016  43.9230411
  15.9091230  17.8716568  43.0060495  16.0510403  19.0576618  43.9361756
  12.8291060  15.6737929  38.9076678  13.7583120  15.8249089  38.7345645
  12.4082090  15.7621950  38.0525324  11.6279392  19.6988594  36.6775215
  11.4890478  19.3307378  37.5501153  10.8393988  20.2136233  36.5059173
  12.2227544  24.7997690  28.0200752  12.3979300  24.3285733  28.8346374
  11.5360332  25.4263456  28.2482012  13.1784607  19.0770196  34.0664053
  12.8434440  19.0370966  34.9621703  12.6788553  18.4114912  33.5934463
   7.1528851  14.4837826  39.5916634   7.0148649  13.7518065  40.1928173
   8.0633775  14.3946726  39.3100822   9.7811152  14.1957786  39.0800314
  10.4910770  13.5550978  39.0386932   9.7380460  14.4470680  40.0026495
  17.7697930  21.1325139  42.0006893  17.7110477  20.4484359  41.3337476
  18.1717449  21.8744129  41.5487519   6.7888629  27.9487053  34.7940612
   7.0285227  28.5805577  35.4719630   5.9457826  27.5975093  35.0805971
  17.7715338  19.0964723  40.2320873  16.8842116  18.7590645  40.3547272
  18.3413889  18.3647754  40.4689638  11.3016491  23.7566175  37.1982116
  11.2286663  24.5621147  37.7101420  10.8593884  23.9558141  36.3730137
  11.0906271  22.9937945  30.7084937  10.3073793  23.5359625  30.8023162
  11.7899016  23.5111925  31.1079179  22.2532678  14.5072940  34.9937434
  22.2422554  15.3897656  34.6231367  21.3850058  14.1544491  34.7991971
  13.7615175  23.6553009  39.3540275  14.4743147  24.2900474  39.2816176
  13.2705203  23.7516875  38.5380276   8.8127088  21.4047453  40.1745845
   9.5136548  22.0383936  40.3275240   8.3422203  21.7462184  39.4141485
  16.6128374  13.9592060  37.9998396  15.9599824  14.2067968  37.3450849
  16.9908754  13.1456198  37.6660873  13.5735548  23.9951753  32.1026566
  13.7557942  23.1773409  32.5654318  14.3968534  24.2119446  31.6651456
  13.9077713  22.9219938  29.3641615  14.4365480  22.4112393  28.7511777
  14.1705933  22.6062469  30.2287148  12.6615947  14.7011871  44.4864433
  11.9856584  14.6006001  45.1566808  13.4843581  14.5451085  44.9500430
   4.4094806  20.9383808  37.1076948   4.9948243  20.1927496  37.2404852
   4.2119645  21.2487764  37.9913612   7.2633461  23.9735055  32.1239390
   6.5943837  24.4581183  31.6403431   7.1246331  24.2204276  33.0382769
  11.4038730  26.0078799  38.7222049  11.9557038  26.1710420  39.4871134
  11.7444923  26.5983236  38.0502074  16.2549604  20.8340056  44.5770703
  16.7989508  21.4470014  44.0825658  15.6736449  21.3919635  45.0937716
  14.5407117  23.9560774  35.7085731  14.4158257  23.1550514  35.1996676
  15.1986208  24.4506968  35.2199701  16.6042026  21.7569794  37.3365281
  15.6572361  21.6375145  37.2643608  16.9524799  20.8692292  37.4191543
  13.6088459  21.5522510  33.5369633  13.4613421  20.6239218  33.7177203
  14.4341952  21.5742601  33.0526709  17.2122581  22.3751069  34.6234506
  18.1369128  22.1693931  34.4858957  17.0437884  22.1267470  35.5323848
  17.0017897  22.8936737  29.9796598  17.1754775  22.3283159  29.2270450
  17.4946788  23.6937632  29.7976087  22.8557288  15.6573160  31.5986897
  23.2988434  14.9080485  31.2006021  21.9783798  15.6483296  31.2160629
  17.9893069  22.2103501  27.0793496  18.6843974  22.8310194  27.2980810
  18.3316220  21.3598852  27.3545874  19.8884493  19.6603207  28.6080827
  20.4135817  19.9990479  27.8830147  19.8006845  18.7250222  28.4243961
  11.5504541  23.5737280  40.7370703  11.8591668  23.3286427  41.6093403
  12.3480023  23.7783919  40.2489573  11.5725153  25.7275190  32.9676080
  11.1330144  25.2351569  33.6608936  12.3233270  25.1848158  32.7268155
   4.0517492  21.9186731  32.9700708   4.8775512  21.6190503  32.5899351
   3.7011544  21.1494353  33.4190496   9.0199026  21.2713199  35.0398381
   8.3979035  20.6083904  34.7400609   9.6903892  21.2974331  34.3572029
  19.5778399  20.2936110  43.9132025  18.7873942  20.2760249  43.3736524
  19.3411753  20.8324404  44.6681061  19.6976274  17.1428577  41.2264753
  19.7474279  16.9778584  42.1680276  19.5890197  16.2755836  40.8362634
  16.9880036  13.1259505  42.5424060  17.8889899  12.9865970  42.2508058
  17.0628011  13.2913959  43.4822237  21.1994471  19.5625518  41.4706775
  20.9079279  19.9255499  42.3070236  20.5866602  18.8492526  41.2920107
  22.3990153  17.1278398  33.9909345  23.2337044  17.5668202  34.1546905
  22.5349282  16.6517051  33.1717591  19.4481659  14.6858133  39.9386833
  19.9235780  14.8785779  39.1305684  18.5247224  14.7417319  39.6930216
  18.1483328  11.5623893  38.1715138  19.1000751  11.6621991  38.1927362
  17.9786778  10.7702161  38.6813223  16.1697707   8.6479476  38.3574539
  15.5747639   8.9284489  37.6621028  15.8847404   9.1373377  39.1291280
  20.6271406  14.7830013  37.2857438  20.5947726  13.8446013  37.4717122
  21.2372029  14.8614049  36.5523263  20.7765894  11.5741056  37.3315721
  20.2604943  10.7899513  37.1445650  21.6605843  11.2459773  37.4962240
  26.4447955  15.8446019  36.4263475  27.1751344  15.5831308  36.9871178
  25.8354901  15.1074741  36.4665543  24.5263253  13.9853882  37.0237926
  23.7996416  13.8509847  36.4154417  24.1110539  14.2930711  37.8294644
  12.3493429  17.7043812  44.7885299  13.2696438  17.8822411  44.9825345
  12.3143012  16.7599857  44.6364998   5.3455502  15.6144846  37.4308080
   5.5641511  16.5461954  37.4496114   5.7581275  15.2552821  38.2162884
  10.0814637  14.6175191  45.6375891   9.5981719  15.4175551  45.8439780
  10.1675576  14.6283136  44.6843335   6.0087974  18.5079726  37.6744324
   6.9631228  18.4763668  37.6074256   5.8100498  18.0470349  38.4894550
   6.5987357  17.0780842  40.2415122   7.4180245  17.5724920  40.2649959
   6.8724164  16.1612810  40.2132690  22.1441047  10.2065734  34.3771357
  22.7385538   9.9661470  33.6664666  22.2167631   9.4872865  35.0044894
   4.3638203  24.0499345  34.6914522   4.2292671  23.2899746  34.1252520
   3.9470265  24.7740245  34.2243311  24.4512120  13.5131935  33.1514779
  23.8911678  13.5825124  33.9246341  23.8455624  13.3372920  32.4314275
   7.5207329  24.9468662  34.9032965   7.4039713  25.8914095  34.8011655
   6.6999775  24.6442224  35.2918764  14.3775663  18.4799823  46.4399460
  15.2466823  18.6540475  46.0786095  13.8982414  19.2994240  46.3175189
   8.5461843  25.5996924  38.1188893   9.4489090  25.6320534  38.4355388
   8.3199213  24.6697375  38.1335229  10.3015445  24.3527911  34.7798972
   9.3511076  24.3529772  34.6663344  10.6047931  23.6060645  34.2635007
  26.0368139  30.1888449  35.8444734  26.6746549  30.0695196  35.1408074
  25.9188982  31.1369293  35.9032686  22.8457845  30.1415877  35.7806259
  22.5076356  30.0256942  34.8926794  23.7147613  29.7407042  35.7607265
  18.7044661  31.9951353  31.7703150  18.1409526  31.9041290  31.0019438
  18.5897056  31.1751258  32.2505643  23.3277628  31.2950729  41.7392465
  23.3166269  30.9003527  40.8672968  23.4898267  30.5616801  42.3326236
  16.2509093  33.4902545  34.6087370  17.0430385  33.1493370  34.1933670
  16.4905743  33.5997520  35.5289524  24.2844219  35.6622321  27.0817615
  23.6332199  36.2476402  26.6951629  25.0788582  36.1928516  27.1412652
  18.2099847  32.7511458  27.4804749  18.9830723  32.2040445  27.3417625
  18.5625245  33.6155708  27.6919211  20.0484889  34.0787841  40.6871649
  19.7574755  34.9833471  40.5718315  20.6841873  34.1204368  41.4015718
  20.9741096  31.4564689  37.2773008  21.5704668  31.2320712  36.5629971
  21.0316067  30.7149435  37.8798456  20.5466124  28.9104124  25.1123199
  20.7991645  28.3885646  24.3506662  19.6090683  28.7470270  25.2149883
  25.5909407  27.9139903  32.9197942  26.3772496  27.4959326  32.5688359
  25.8548111  28.8185995  33.0879591  25.7619485  33.3512753  27.6186599
  25.1265317  33.4247380  28.3307504  25.4316891  33.9406352  26.9405678
  30.9917834  27.8515136  33.8230921  31.7243006  27.2814353  34.0568750
  30.2357190  27.4636736  34.2637426  20.2662413  30.8132230  27.3147574
  20.1498671  30.1377134  27.9828658  20.3764673  30.3264604  26.4979727
  22.6093954  30.2742377  31.0194263  22.2452161  29.7472998  31.7307185
  23.4661070  29.8840847  30.8460749  28.5143255  21.5636710  38.2825529
  28.1826579  22.4332121  38.0586744  27.9188868  21.2472994  38.9619560
  22.2499441  25.3032277  26.0155612  22.4173843  26.1712514  26.3826083
  22.0596610  25.4659559  25.0916901  25.0074774  33.7649256  37.6821442
  24.7075497  34.6674295  37.5737249  24.6625834  33.4981439  38.5342595
  18.4587256  30.2163053  33.7158147  17.5337752  30.0839267  33.9235838
  18.7071669  30.9957272  34.2128089  28.4071918  26.2831796  35.3618880
  27.4988795  26.2147205  35.0677641  28.3559514  26.7603741  36.1900705
  22.2288662  27.7589935  27.0002279  22.1088287  28.2046985  27.8387759
  21.5341250  28.1075252  26.4415817  15.8196067  29.8596326  34.5501936
  15.9488448  30.1130805  35.4641347  15.1393518  30.4524034  34.2306591
  19.9895554  40.5293576  30.6492410  19.9119584  41.4801402  30.7280890
  19.3857198  40.1839449  31.3067336  22.4812784  27.7021442  43.3053777
  21.7046118  28.2615362  43.2956641  23.1203347  28.1878225  43.8268647
  30.2733564  24.4848235  37.1396753  29.6307945  24.7780768  36.4936548
  29.7688493  24.3701155  37.9449950  27.9273728  28.2311408  27.8282613
  28.8391584  28.4638795  27.6530310  27.4183375  28.8148452  27.2657691
  20.7359156  30.5106895  42.8671744  21.4773840  31.0491939  42.5906567
  20.0296142  31.1373184  43.0243296  26.2114496  32.6536036  41.4643905
  26.6197852  32.2118446  40.7198538  25.4891757  32.0788663  41.7178098
  22.5645566  27.5908642  38.8377462  23.4106761  28.0148056  38.9812111
  22.5044203  26.9342267  39.5316025  26.5343310  33.2137226  35.2196194
  25.9052173  33.3782940  34.5172262  26.1468972  33.6278836  35.9907158
  30.4132542  34.1491664  32.5740558  29.7283580  34.5290566  32.0237591
  30.4976392  34.7586991  33.3072506  25.7145011  25.2513011  40.4958636
  25.4705943  26.0055071  39.9592912  25.9904942  25.6298358  41.3305883
  27.6683474  31.7951623  39.1735901  27.8800369  32.4383383  38.4970283
  27.6213222  30.9613940  38.7057832  25.2709703  24.4069444  36.0772474
  24.4094182  24.7050697  36.3689211  25.2972137  24.6239843  35.1453506
  22.0871272  32.9511634  32.4846279  22.5509618  33.2299337  31.6950902
  21.8228070  32.0495079  32.3019370  18.9795353  32.4983116  35.4226043
  19.5496710  32.9270384  34.7843527  19.5703465  32.2165701  36.1210228
  21.0240158  29.0734787  29.2935844  21.7264202  29.5255830  29.7609771
  20.6920787  28.4318606  29.9215738  19.4720520  27.6646543  43.6687054
  18.8419180  28.3462824  43.9022451  19.3656608  27.5529625  42.7240192
  14.7665492  27.3318339  34.5952978  13.9764546  27.5875868  34.1193089
  15.2576740  28.1466677  34.7005019  28.7829302  34.6723579  37.3458259
  29.6046746  34.2703766  37.0640940  28.7791705  34.5691813  38.2974375
  16.7180238  27.6962919  31.5536455  15.9211401  27.8081613  32.0719950
  16.4905830  28.0349571  30.6877345  22.5485905  34.2207622  39.5018969
  22.6130338  34.6828029  40.3377141  21.8396829  33.5904987  39.6301279
  13.0503195  27.5848830  37.0267969  13.3011234  28.4695840  37.2925545
  13.5862744  27.4053431  36.2543061  36.8735295  31.0162327  33.6943230
  36.1199003  30.4469725  33.5387235  37.0082836  30.9824992  34.6413865
  22.2633923  35.8875729  29.3697950  22.1279598  36.7327265  29.7982797
  22.8043735  36.0895007  28.6063883  18.7501263  21.9667309  46.0312305
  18.3568208  21.4133508  46.7059949  19.5667403  22.2777888  46.4218822
  15.7163320  33.4051167  29.9425875  16.2287841  34.1994418  30.0931439
  16.3686033  32.7077458  29.8759476  17.5258205  36.5216924  32.0248628
  17.7024833  37.4434888  31.8369612  18.3215039  36.2075343  32.4543008
  21.6669224  23.3825188  43.6232561  22.4078937  23.9832341  43.5437024
  21.8987146  22.6402826  43.0650604  16.8110562  28.5681556  41.9010791
  16.6964077  27.6666813  42.2017890  15.9555079  28.8145252  41.5495608
  23.8902399  36.5099296  43.4998292  23.4466253  35.7235674  43.1819196
  24.5519613  36.6978446  42.8342183  18.6489520  38.0395098  38.0258970
  19.1996946  37.9112161  37.2535964  17.8100996  38.3389987  37.6753863
  25.9883637  36.7902096  41.5279693  25.9702113  37.6110977  41.0359962
  26.9103557  36.6656171  41.7529834  22.4456691  34.3046225  42.3703201
  22.9785028  33.5434514  42.1402509  21.9170773  34.0119877  43.1127356
  25.6126386  19.4106291  37.8996843  25.2690656  20.3007933  37.8235954
  25.9805349  19.2207949  37.0366428  13.6812237  31.7339822  30.7185445
  14.5187459  32.1436830  30.5019153  13.8590505  30.7939264  30.6885639
  25.5776669  29.4014902  26.4069278  25.0623293  30.1719507  26.6457666
  25.3053978  28.7280039  27.0302340  23.1623780  24.2464603  31.4654517
  22.3065377  23.8571454  31.2860155  23.5750732  24.3256564  30.6054302
  24.6922927  21.7810946  35.8646076  24.1887722  21.7441082  35.0513882
  24.9853534  22.6903689  35.9242733  20.9365813  21.8649676  34.8712258
  21.8018810  21.6692485  34.5118148  21.0043322  21.6360028  35.7981615
  30.5510943  32.1547257  28.3422452  29.7740386  31.8158417  27.8977614
  31.2302424  32.1599880  27.6677417  25.3662972  27.2741994  28.2329059
  25.0613108  27.5888144  29.0839203  26.3193414  27.3523414  28.2756392
  23.8109404  33.4332218  29.8822013  23.2830766  32.6984977  29.5695251
  23.3096907  34.2106894  29.6361982  28.7902250  31.6281238  34.9989060
  28.1325925  32.3180500  35.0869188  29.5942649  32.0177670  35.3423046
  18.5428132  24.0951884  32.2428625  19.1171884  23.8727066  31.5101818
  19.1299114  24.1640579  32.9957226  27.6007709  29.9825611  33.0493001
  28.1139591  30.6155603  33.5514711  28.2508933  29.3826806  32.6836361
  18.8697719  26.1256345  26.2624510  18.0335031  26.4631032  26.5833785
  18.7302489  25.9905325  25.3251647  20.8450800  20.9693133  30.9703694
  20.1915212  20.6542150  30.3460309  20.8031274  20.3468873  31.6963517
  21.9562004  31.2512428  22.8856986  21.0489066  31.0201682  23.0848135
  22.4533036  30.4550047  23.0730968  24.8630083  39.9609935  25.8053673
  24.1891782  40.2641632  26.4138630  25.2495905  40.7639016  25.4559130
  24.0788540  27.4575067  35.2951342  23.1611101  27.6790014  35.1373030
  24.4948684  27.5321377  34.4363049  24.8623588  28.8566482  30.4254022
  25.6095407  29.3687879  30.1161144  25.1315177  28.5350535  31.2858416
  23.1350238  31.3525023  27.4080977  22.2261457  31.0684056  27.5053446
  23.1645322  31.7724101  26.5484283  28.3669505  34.9631612  31.1772144
  27.9131832  34.1222522  31.2337335  27.7363472  35.5993011  31.5146924
  27.3102425  25.8923598  32.4072812  26.5725182  25.3800985  32.7383054
  27.5629198  25.4523980  31.5956088  26.8102444  36.8008109  32.1121962
  27.1025419  37.3613166  31.3934328  27.3201065  37.0936670  32.8675121
  27.4114052  18.6699850  33.0014581  27.7172929  17.8097214  32.7140496
  28.1366657  19.2617471  32.8013575  13.7038408  29.0730537  31.3896179
  13.5062808  28.4799898  30.6647245  13.1485072  28.7682747  32.1072118
  21.6835132  28.9653644  33.5090772  21.7383742  28.0127480  33.4333248
  20.8726334  29.1213083  33.9932070  22.8326326  32.8933767  24.7469055
  22.3945756  32.1769626  24.2874692  23.5736766  33.1209881  24.1854146
  19.6227492  27.5830703  31.2681151  18.8095357  27.8824874  31.6746343
  20.1186486  27.1886392  31.9855633  21.7736070  37.5788460  33.2015415
  21.7312248  37.8049307  32.2723947  22.6898769  37.3451835  33.3501217
  25.2201703  28.0472528  40.0996045  25.5751091  28.2744001  40.9590510
  25.8673835  28.3790905  39.4773300  30.9499440  31.1690964  30.8045374
  30.8117339  31.3592560  29.8766563  30.5935659  31.9310346  31.2613425
  19.1141567  25.1549059  36.8842386  19.7540946  25.0137818  36.1865349
  18.2819097  24.8683572  36.5080988  30.9768820  33.2367491  35.8156645
  31.4105327  33.1442780  36.6639699  31.6900401  33.2124991  35.1776661
  19.8901870  34.4551489  32.9977378  20.6842469  33.9601809  32.7959953
  19.1793563  33.9269352  32.6345084  24.7096715  36.8369585  37.3489746
  24.7633737  37.4060521  38.1167462  23.8411496  37.0071470  36.9843783
  16.1984634  28.5994571  29.0737131  15.2682222  28.5379026  29.2907093
  16.2942106  28.0770524  28.2773772  16.1170183  25.1249384  31.6615372
  16.3777000  26.0394717  31.5524533  16.9387355  24.6573826  31.8111985
  17.5895108  26.5387141  38.8314197  18.2618162  26.3304503  38.1826846
  16.7624895  26.3409227  38.3919429  31.8384370  33.2791191  38.3489531
  32.0320260  34.1837002  38.5948805  31.7384988  32.8198610  39.1828116
  23.4920680  23.1649082  40.8479858  22.8448595  23.8639032  40.7544334
  24.2621696  23.5985226  41.2156106  26.8999478  33.4297934  43.9230411
  26.7484985  33.2008486  43.0060495  26.8904158  34.3868535  43.9361756
  23.6684815  31.0029847  38.9076678  24.5976875  31.1541006  38.7345645
  23.2475845  31.0913868  38.0525324  22.4673146  35.0280511  36.6775215
  22.3284232  34.6599296  37.5501153  21.6787743  35.5428151  36.5059173
  23.0621298  40.1289608  28.0200752  23.2373054  39.6577651  28.8346374
  22.3754086  40.7555374  28.2482012  24.0178362  34.4062114  34.0664053
  23.6828194  34.3662884  34.9621703  23.5182307  33.7406830  33.5934463
  17.9922606  29.8129744  39.5916634  17.8542403  29.0809983  40.1928173
  18.9027529  29.7238644  39.3100822  26.9537553  31.7518148  24.3401113
  26.3366724  31.0264976  24.2434165  26.4854042  32.5127509  23.9968187
  20.6204906  29.5249703  39.0800314  21.3304525  28.8842895  39.0386932
  20.5774214  29.7762598  40.0026495  28.6091685  36.4617057  42.0006893
  28.5504231  35.7776277  41.3337476  29.0111203  37.2036047  41.5487519
  19.3333840  26.5114921  40.8995953  18.7971197  26.0605660  41.5517550
  18.7450549  26.6460830  40.1566418  17.6282384  43.2778970  34.7940612
  17.8678982  43.9097495  35.4719630  16.7851580  42.9267010  35.0805971
  28.6109092  34.4256641  40.2320873  27.7235871  34.0882562  40.3547272
  29.1807643  33.6939672  40.4689638  10.2638239  30.7580732  33.5563924
  10.9509279  30.4442462  32.9684939  10.1086368  31.6622097  33.2831176
  15.0672961  25.6470929  37.9848948  14.9831150  25.0396598  37.2499358
  14.2455668  26.1379947  37.9858444  22.1410246  39.0858093  37.1982116
  22.0680417  39.8913064  37.7101420  21.6987639  39.2850059  36.3730137
  21.9300025  38.3229863  30.7084937  21.1467547  38.8651543  30.8023162
  22.6292770  38.8403843  31.1079179  25.2396675  24.1324492  33.3519143
  25.7365375  23.3794455  33.0320213  24.4683657  24.1688809  32.7862352
  33.0926433  29.8364858  34.9937434  33.0816309  30.7189573  34.6231367
  32.2243812  29.4836409  34.7991971  24.6008929  38.9844927  39.3540275
  25.3136901  39.6192392  39.2816176  24.1098958  39.0808793  38.5380276
  26.3226456  32.8896180  30.9257566  25.3882735  33.0097642  30.7562271
  26.5003124  31.9868646  30.6617576  21.8231644  26.2741875  33.0790827
  21.4529432  25.7212916  33.7671733  22.3190736  25.6700009  32.5265827
  29.7099007  28.7313499  31.4607600  30.1759460  29.5641490  31.3867903
  30.1606508  28.2658480  32.1652859  19.6520843  36.7339370  40.1745845
  20.3530302  37.3675853  40.3275240  19.1815958  37.0754102  39.4141485
  27.7775238  35.0757320  28.4593752  28.0535082  34.9613915  29.3687626
  26.9079737  34.6774805  28.4205926  27.6815670  21.0994086  35.4998502
  26.7678750  21.3298313  35.6680709  28.1108772  21.1832530  36.3512534
  27.4522129  29.2883978  37.9998396  26.7993579  29.5359885  37.3450849
  27.8302508  28.4748116  37.6660873  24.4129302  39.3243671  32.1026566
  24.5951697  38.5065327  32.5654318  25.2362288  39.5411363  31.6651456
  24.7471468  38.2511856  29.3641615  25.2759234  37.7404311  28.7511777
  25.0099688  37.9354386  30.2287148  23.5009702  30.0303789  44.4864433
  22.8250339  29.9297918  45.1566808  24.3237335  29.8743003  44.9500430
  15.2488561  36.2675725  37.1076948  15.8341997  35.5219413  37.2404852
  15.0513399  36.5779682  37.9913612  18.1027216  39.3026973  32.1239390
  17.4337591  39.7873100  31.6403431  17.9640086  39.5496193  33.0382769
   9.8406215  28.8381326  35.8281391   9.8790315  28.3044916  36.6218509
   9.3346508  28.3116531  35.2092368  22.2432484  41.3370716  38.7222049
  22.7950793  41.5002338  39.4871134  22.5838678  41.9275154  38.0502074
  17.2196978  23.6845866  39.3243934  17.2838304  24.5460697  38.9121331
  17.1564098  23.0719868  38.5916292  16.6949250  25.7568999  42.9716968
  17.3221289  25.3746076  43.5854492  15.8377169  25.5383201  43.3372660
  27.0943359  36.1631974  44.5770703  27.6383263  36.7761932  44.0825658
  26.5130204  36.7211552  45.0937716  13.4714793  27.5645428  28.9035323
  13.7668234  26.6556106  28.8502376  12.5702829  27.5433167  28.5816325
  25.3800872  39.2852692  35.7085731  25.2552011  38.4842432  35.1996676
  26.0379963  39.7798885  35.2199701  17.0009040  25.6401424  34.8862871
  16.2795626  26.2537392  34.7470345  17.7902296  26.1759189  34.8079517
  27.4435780  37.0861712  37.3365281  26.4966116  36.9667063  37.2643608
  27.7918553  36.1984210  37.4191543  19.8035354  22.9755851  41.1603523
  20.3269755  23.2218147  41.9229832  19.5847687  23.8075886  40.7406660
  15.2002635  25.2459525  29.0274648  14.8715341  24.3656904  28.8449754
  15.5542005  25.1907194  29.9151037  24.4482213  36.8814428  33.5369633
  24.3007176  35.9531136  33.7177203  25.2735707  36.9034519  33.0526709
  18.3144458  25.5332495  29.3950125  18.6540530  26.0618417  28.6728734
  18.7616578  25.8712901  30.1708692  28.0516335  37.7042987  34.6234506
  28.9762883  37.4985848  34.4858957  27.8831639  37.4559388  35.5323848
  21.0087899  23.9169546  38.8453194  20.6684719  23.1177359  39.2473873
  20.3026905  24.2171257  38.2730027  21.6604370  21.0018858  37.2980517
  22.4830440  20.5279337  37.1759407  21.9042434  21.7809342  37.7979203
  20.3012605  24.0307117  27.5943418  21.0220967  24.4088370  27.0907135
  19.6777909  24.7495994  27.6978396  24.4443728  24.7352266  28.5301751
  24.6607342  25.6176904  28.2290579  23.9637795  24.3438479  27.8007393
  19.1842949  27.6937979  35.1072495  19.0387530  28.0078282  35.9996777
  18.7068153  28.3122879  34.5543394  21.0439332  24.6840527  35.1553385
  21.0300901  23.7881620  34.8185683  21.7611760  24.6911191  35.7891671
  22.8965463  25.1177867  37.2006512  22.6383241  26.0394938  37.1990843
  22.3650503  24.7208302  37.8906976  27.8411651  38.2228654  29.9796598
  28.0148529  37.6575077  29.2270450  28.3340543  39.0229549  29.7976087
  13.6588611  30.2343323  38.0460156  13.1142079  31.0103131  38.1780431
  14.5367961  30.5814128  37.8879278  20.4476228  23.5654907  30.4240955
  20.5692139  22.6371553  30.6231842  20.1578270  23.5793593  29.5119270
  23.3167418  21.2509818  33.5607675  23.3389115  21.3149151  32.6059654
  23.7335477  20.4114326  33.7548181  33.6951043  30.9865077  31.5986897
  34.1382189  30.2372402  31.2006021  32.8177553  30.9775214  31.2160629
  28.8286824  37.5395419  27.0793496  29.5237729  38.1602111  27.2980810
  29.1709974  36.6890770  27.3545874  14.4454633  29.3613220  40.9390313
  13.7036369  29.5095855  41.5254944  14.1247377  29.6221485  40.0757063
  30.7278247  34.9895124  28.6080827  31.2529571  35.3282397  27.8830147
  30.6400600  34.0542140  28.4243961  22.3898296  38.9029198  40.7370703
  22.6985422  38.6578345  41.6093403  23.1873778  39.1075836  40.2489573
  22.4118908  41.0567108  32.9676080  21.9723898  40.5643486  33.6608936
  23.1627025  40.5140075  32.7268155  14.8911247  37.2478648  32.9700708
  15.7169267  36.9482420  32.5899351  14.5405299  36.4786271  33.4190496
  19.8592780  36.6005117  35.0398381  19.2372789  35.9375822  34.7400609
  20.5297647  36.6266249  34.3572029  13.0919852  35.1664975  33.9289641
  12.2551760  34.7387149  33.7473643  13.0643497  35.3597418  34.8660433
  19.9317307  25.0786905  44.6330887  19.9805463  25.9549027  44.2508657
  20.4739822  24.5364298  44.0602531  30.4172153  35.6228028  43.9132025
  29.6267697  35.6052167  43.3736524  30.1805508  36.1616322  44.6681061
  30.5370028  32.4720494  41.2264753  30.5868033  32.3070502  42.1680276
  30.4283952  31.6047753  40.8362634  19.4206287  35.1509040  28.5156842
  19.5694407  35.8344504  27.8623515  20.2272730  35.1314130  29.0306298
  27.8273791  28.4551422  42.5424060  28.7283653  28.3157887  42.2508058
  27.9021765  28.6205877  43.4822237  22.1616596  25.8318277  41.3877246
  21.2919905  26.1251843  41.1159835  22.3976076  26.4158722  42.1084510
  32.0388225  34.8917436  41.4706775  31.7473033  35.2547416  42.3070236
  31.4260356  34.1784444  41.2920107  33.2383907  32.4570316  33.9909345
  34.0730799  32.8960120  34.1546905  33.3743036  31.9808969  33.1717591
  30.2875413  30.0150050  39.9386833  30.7629535  30.2077697  39.1305684
  29.3640979  30.0709236  39.6930216  17.1758920  31.1774218  29.5217911
  16.9304962  30.2736548  29.7198121  17.3454834  31.1791368  28.5797389
  24.8655630  22.0497894  38.9042666  25.3837574  22.7858921  38.5789155
  24.5110763  22.3561887  39.7389426  16.4454567  26.9102575  27.0204072
  15.7523812  26.9846930  26.3644108  16.2006319  26.1462919  27.5425589
  25.1168224  18.4698177  34.4243563  25.3969978  17.8021366  35.0503990
  25.9018831  18.6627272  33.9118227  22.9201692  37.6457170  25.9868589
  22.3475660  38.2647358  25.5339061  23.4934486  38.1956532  26.5208511
  28.9877082  26.8915811  38.1715138  29.9394505  26.9913908  38.1927362
  28.8180533  26.0994079  38.6813223  27.0091462  23.9771394  38.3574539
  26.4141394  24.2576406  37.6621028  26.7241158  24.4665295  39.1291280
  26.1398952  37.9294321  27.1177172  27.0729625  37.8639882  27.3210047
  26.0522165  38.7650587  26.6591704  28.7686969  37.2460191  24.0781119
  28.6900600  36.9120055  24.9716877  29.5896636  37.7381959  24.0772592
  31.4665160  30.1121930  37.2857438  31.4341480  29.1737931  37.4717122
  32.0765784  30.1905967  36.5523263  23.3048491  28.9817983  23.3284642
  24.2507596  28.8524191  23.3973060  22.9262736  28.2432645  23.8054070
  31.6159649  26.9032974  37.3315721  31.0998697  26.1191430  37.1445650
  32.4999597  26.5751690  37.4962240  29.2770375  20.6473989  33.2911534
  29.0795197  20.3389077  34.1754866  29.8870081  21.3735628  33.4209464
  37.2841710  31.1737937  36.4263475  38.0145098  30.9123225  36.9871178
  36.6748655  30.4366659  36.4665543  35.3657007  29.3145800  37.0237926
  34.6390171  29.1801765  36.4154417  34.9504294  29.6222628  37.8294644
  23.1887183  33.0335729  44.7885299  24.1090193  33.2114328  44.9825345
  23.1536767  32.0891775  44.6364998  12.4069348  28.2274323  33.7138573
  12.0872133  27.3739631  33.4212947  11.8602777  28.4422901  34.4696541
  16.1849256  30.9436764  37.4308080  16.4035266  31.8753872  37.4496114
  16.5975030  30.5844738  38.2162884  23.1053474  21.4504849  29.4183768
  22.2954202  21.1051934  29.7939014  23.7937891  21.1412393  30.0071380
  25.0344022  20.5282896  31.0408065  25.5875061  20.9478350  31.6998088
  25.2714108  19.6018644  31.0831021  21.0577121  26.5169970  46.8210829
  20.9573848  27.4664327  46.7522920  20.8398663  26.1888209  45.9486899
  12.2757608  31.8477234  35.6831695  11.5821080  31.4331187  35.1701649
  13.0230599  31.8897771  35.0865114  28.4122829  22.6383421  30.5486729
  27.8321498  23.2968225  30.1664782  28.1458762  21.8160766  30.1374147
  26.8626396  22.0388479  32.7508050  27.3626174  22.1505013  31.9422368
  27.5062003  21.7349532  33.3908858  20.9208391  29.9467109  45.6375891
  20.4375473  30.7467469  45.8439780  21.0069330  29.9575053  44.6843335
  14.1894351  31.7795488  33.5597710  14.1665039  31.8783176  32.6079593
  14.4994987  32.6260639  33.8814876  16.8481729  33.8371643  37.6744324
  17.8024982  33.8055586  37.6074256  16.6494252  33.3762267  38.4894550
  17.4381111  32.4072759  40.2415122  18.2574000  32.9016838  40.2649959
  17.7117919  31.4904727  40.2132690  27.1947707  24.7983512  29.6043078
  26.3073562  25.0833162  29.3863272  27.6101696  24.6377275  28.7570354
  30.5462243  24.8230033  33.3197417  31.3222633  25.3126485  33.5922034
  29.8210378  25.2488087  33.7769286  32.9834802  25.5357652  34.3771357
  33.5779293  25.2953388  33.6664666  33.0561386  24.8164782  35.0044894
  15.2031958  39.3791263  34.6914522  15.0686426  38.6191664  34.1252520
  14.7864020  40.1032163  34.2243311  26.3390921  34.5628186  23.6991098
  27.0426771  34.7678189  24.3148753  25.6153569  35.1304948  23.9640181
  27.1688731  30.3138048  29.8193368  27.1123932  30.7706599  28.9801000
  27.7217073  29.5528732  29.6416210  30.9793537  26.1027779  30.6443487
  30.7230471  25.7024415  31.4751695  30.3546405  26.8171573  30.5193626
  35.2905875  28.8423853  33.1514779  34.7305433  28.9117042  33.9246341
  34.6849378  28.6664837  32.4314275  18.3601084  40.2760580  34.9032965
  18.2433468  41.2206012  34.8011655  17.5393530  39.9734141  35.2918764
  28.2477618  35.0010716  25.7489558  29.0823222  34.5691914  25.5667032
  28.0861961  34.8292729  26.6766452  27.9023510  31.5042829  27.1145897
  27.8472314  31.3387100  26.1734341  27.2769566  32.2118862  27.2708087
  12.6916025  26.7410893  40.9407319  13.3374889  26.2309847  41.4294544
  12.4833176  27.4779575  41.5150744  25.2169417  33.8091741  46.4399460
  26.0860577  33.9832393  46.0786095  24.7376169  34.6286158  46.3175189
  21.2119636  21.0050938  26.6931215  21.1998306  21.9492778  26.8499486
  22.1043058  20.8221083  26.3990676  19.3855598  40.9288842  38.1188893
  20.2882844  40.9612452  38.4355388  19.1592968  39.9989293  38.1335229
  21.1409200  39.6819828  34.7798972  20.1904831  39.6821690  34.6663344
  21.4441686  38.9352563  34.2635007  25.0271755  17.5993714  30.9477152
  24.2604151  17.0452201  31.0933834  25.4382460  17.6715583  31.8091304
  17.0313516  23.8878510  45.0382333  17.8944978  23.5315315  45.2485658
  16.4578927  23.5492405  45.7257738  36.8761893  45.5180367  35.8444734
  37.5140303  45.3987114  35.1408074  36.7582736  46.4661211  35.9032686
  33.6851599  45.4707795  35.7806259  33.3470111  45.3548859  34.8926794
  34.5541368  45.0698960  35.7607265  29.5438415  47.3243271  31.7703150
  28.9803280  47.2333208  31.0019438  29.4290810  46.5043176  32.2505643
  34.1671382  46.6242646  41.7392465  34.1560023  46.2295445  40.8672968
  34.3292022  45.8908719  42.3326236  27.0902847  48.8194463  34.6087370
  27.8824139  48.4785287  34.1933670  27.3299497  48.9289438  35.5289524
  35.1237974  50.9914239  27.0817615  34.4725954  51.5768319  26.6951629
  35.9182337  51.5220434  27.1412652  29.0493601  48.0803376  27.4804749
  29.8224477  47.5332363  27.3417625  29.4019000  48.9447625  27.6919211
  30.8878644  49.4079758  40.6871649  30.5968510  50.3125389  40.5718315
  31.5235628  49.4496286  41.4015718  31.8134850  46.7856607  37.2773008
  32.4098423  46.5612629  36.5629971  31.8709822  46.0441352  37.8798456
  31.3859879  44.2396042  25.1123199  31.6385400  43.7177563  24.3506662
  30.4484438  44.0762188  25.2149883  36.4303162  43.2431820  32.9197942
  37.2166251  42.8251244  32.5688359  36.6941866  44.1477913  33.0879591
  36.6013239  48.6804671  27.6186599  35.9659072  48.7539297  28.3307504
  36.2710645  49.2698270  26.9405678  41.8311589  43.1807054  33.8230921
  42.5636761  42.6106270  34.0568750  41.0750944  42.7928654  34.2637426
  31.1056168  46.1424148  27.3147574  30.9892426  45.4669051  27.9828658
  31.2158427  45.6556522  26.4979727  33.4487709  45.6034295  31.0194263
  33.0845916  45.0764916  31.7307185  34.3054824  45.2132764  30.8460749
  39.3537009  36.8928628  38.2825529  39.0220334  37.7624039  38.0586744
  38.7582623  36.5764912  38.9619560  33.0893195  40.6324195  26.0155612
  33.2567598  41.5004431  26.3826083  32.8990365  40.7951477  25.0916901
  35.8468529  49.0941174  37.6821442  35.5469252  49.9966213  37.5737249
  35.5019588  48.8273357  38.5342595  29.2981010  45.5454971  33.7158147
  28.3731507  45.4131185  33.9235838  29.5465423  46.3249190  34.2128089
  39.2465672  41.6123714  35.3618880  38.3382550  41.5439122  35.0677641
  39.1953268  42.0895659  36.1900705  33.0682416  43.0881852  27.0002279
  32.9482042  43.5338903  27.8387759  32.3735005  43.4367170  26.4415817
  26.6589821  45.1888244  34.5501936  26.7882202  45.4422723  35.4641347
  25.9787272  45.7815952  34.2306591  30.8289308  55.8585494  30.6492410
  30.7513338  56.8093319  30.7280890  30.2250952  55.5131367  31.3067336
  33.3206538  43.0313360  43.3053777  32.5439872  43.5907280  43.2956641
  33.9597101  43.5170143  43.8268647  41.1127319  39.8140152  37.1396753
  40.4701699  40.1072686  36.4936548  40.6082247  39.6993073  37.9449950
  38.7667483  43.5603326  27.8282613  39.6785339  43.7930712  27.6530310
  38.2577130  44.1440370  27.2657691  31.5752911  45.8398813  42.8671744
  32.3167595  46.3783857  42.5906567  30.8689896  46.4665102  43.0243296
  37.0508250  47.9827953  41.4643905  37.4591606  47.5410364  40.7198538
  36.3285512  47.4080581  41.7178098  33.4039320  42.9200560  38.8377462
  34.2500515  43.3439974  38.9812111  33.3437958  42.2634184  39.5316025
  37.3737065  48.5429144  35.2196194  36.7445927  48.7074858  34.5172262
  36.9862727  48.9570754  35.9907158  41.2526297  49.4783582  32.5740558
  40.5677335  49.8582483  32.0237591  41.3370146  50.0878909  33.3072506
  36.5538766  40.5804929  40.4958636  36.3099697  41.3346989  39.9592912
  36.8298696  40.9590276  41.3305883  38.5077228  47.1243541  39.1735901
  38.7194124  47.7675301  38.4970283  38.4606977  46.2905857  38.7057832
  36.1103457  39.7361362  36.0772474  35.2487936  40.0342615  36.3689211
  36.1365892  39.9531760  35.1453506  32.9265027  48.2803552  32.4846279
  33.3903372  48.5591255  31.6950902  32.6621825  47.3786997  32.3019370
  29.8189108  47.8275034  35.4226043  30.3890465  48.2562302  34.7843527
  30.4097220  47.5457618  36.1210228  31.8633913  44.4026704  29.2935844
  32.5657956  44.8547748  29.7609771  31.5314541  43.7610523  29.9215738
  30.3114274  42.9938461  43.6687054  29.6812935  43.6754742  43.9022451
  30.2050362  42.8821543  42.7240192  25.6059247  42.6610257  34.5952978
  24.8158301  42.9167786  34.1193089  26.0970494  43.4758595  34.7005019
  39.6223056  50.0015496  37.3458259  40.4440500  49.5995684  37.0640940
  39.6185459  49.8983730  38.2974375  27.5573992  43.0254836  31.5536455
  26.7605155  43.1373531  32.0719950  27.3299584  43.3641489  30.6877345
  33.3879660  49.5499540  39.5018969  33.4524092  50.0119947  40.3377141
  32.6790584  48.9196905  39.6301279  23.8896950  42.9140748  37.0267969
  24.1404988  43.7987757  37.2925545  24.4256498  42.7345349  36.2543061
  47.7129049  46.3454245  33.6943230  46.9592758  45.7761643  33.5387235
  47.8476591  46.3116909  34.6413865  33.1027677  51.2167647  29.3697950
  32.9673352  52.0619183  29.7982797  33.6437490  51.4186925  28.6063883
  29.5895017  37.2959227  46.0312305  29.1961963  36.7425425  46.7059949
  30.4061157  37.6069805  46.4218822  26.5557075  48.7343085  29.9425875
  27.0681595  49.5286335  30.0931439  27.2079788  48.0369376  29.8759476
  28.3651959  51.8508841  32.0248628  28.5418588  52.7726806  31.8369612
  29.1608793  51.5367261  32.4543008  32.5062978  38.7117106  43.6232561
  33.2472691  39.3124259  43.5437024  32.7380901  37.9694744  43.0650604
  27.6504316  43.8973473  41.9010791  27.5357831  42.9958731  42.2017890
  26.7948834  44.1437170  41.5495608  34.7296154  51.8391214  43.4998292
  34.2860008  51.0527592  43.1819196  35.3913367  52.0270364  42.8342183
  29.4883275  53.3687015  38.0258970  30.0390700  53.2404079  37.2535964
  28.6494751  53.6681904  37.6753863  36.8277392  52.1194014  41.5279693
  36.8095867  52.9402895  41.0359962  37.7497312  51.9948089  41.7529834
  33.2850446  49.6338143  42.3703201  33.8178783  48.8726431  42.1402509
  32.7564527  49.3411795  43.1127356  36.4520141  34.7398209  37.8996843
  36.1084410  35.6299851  37.8235954  36.8199104  34.5499867  37.0366428
  24.5205992  47.0631739  30.7185445  25.3581214  47.4728748  30.5019153
  24.6984259  46.1231182  30.6885639  36.4170424  44.7306820  26.4069278
  35.9017047  45.5011425  26.6457666  36.1447732  44.0571956  27.0302340
  34.0017535  39.5756521  31.4654517  33.1459131  39.1863371  31.2860155
  34.4144486  39.6548482  30.6054302  35.5316681  37.1102864  35.8646076
  35.0281477  37.0732999  35.0513882  35.8247288  38.0195607  35.9242733
  31.7759567  37.1941594  34.8712258  32.6412564  36.9984403  34.5118148
  31.8437076  36.9651946  35.7981615  41.3904698  47.4839175  28.3422452
  40.6134141  47.1450334  27.8977614  42.0696179  47.4891798  27.6677417
  36.2056727  42.6033912  28.2329059  35.9006862  42.9180061  29.0839203
  37.1587169  42.6815332  28.2756392  34.6503159  48.7624135  29.8822013
  34.1224520  48.0276895  29.5695251  34.1490661  49.5398812  29.6361982
  39.6296005  46.9573156  34.9989060  38.9719679  47.6472417  35.0869188
  40.4336404  47.3469588  35.3423046  29.3821886  39.4243802  32.2428625
  29.9565638  39.2018983  31.5101818  29.9692869  39.4932496  32.9957226
  38.4401464  45.3117529  33.0493001  38.9533345  45.9447520  33.5514711
  39.0902687  44.7118724  32.6836361  29.7091473  41.4548263  26.2624510
  28.8728786  41.7922949  26.5833785  29.5696243  41.3197243  25.3251647
  31.6844554  36.2985051  30.9703694  31.0308966  35.9834068  30.3460309
  31.6425028  35.6760791  31.6963517  32.7955759  46.5804346  22.8856986
  31.8882821  46.3493599  23.0848135  33.2926791  45.7841965  23.0730968
  35.7023838  55.2901853  25.8053673  35.0285537  55.5933550  26.4138630
  36.0889660  56.0930933  25.4559130  34.9182294  42.7866984  35.2951342
  34.0004856  43.0081931  35.1373030  35.3342438  42.8613295  34.4363049
  35.7017342  44.1858400  30.4254022  36.4489161  44.6979797  30.1161144
  35.9708932  43.8642453  31.2858416  33.9743992  46.6816941  27.4080977
  33.0655212  46.3975973  27.5053446  34.0039076  47.1016019  26.5484283
  39.2063260  50.2923530  31.1772144  38.7525587  49.4514440  31.2337335
  38.5757226  50.9284928  31.5146924  38.1496179  41.2215516  32.4072812
  37.4118936  40.7092902  32.7383054  38.4022953  40.7815898  31.5956088
  37.6496199  52.1300027  32.1121962  37.9419173  52.6905084  31.3934328
  38.1594820  52.4228588  32.8675121  38.2507807  33.9991768  33.0014581
  38.5566683  33.1389132  32.7140496  38.9760411  34.5909388  32.8013575
  24.5432163  44.4022455  31.3896179  24.3456563  43.8091815  30.6647245
  23.9878827  44.0974665  32.1072118  32.5228886  44.2945561  33.5090772
  32.5777496  43.3419398  33.4333248  31.7120088  44.4505000  33.9932070
  33.6720080  48.2225684  24.7469055  33.2339510  47.5061543  24.2874692
  34.4130521  48.4501799  24.1854146  30.4621246  42.9122621  31.2681151
  29.6489112  43.2116792  31.6746343  30.9580240  42.5178310  31.9855633
  32.6129824  52.9080378  33.2015415  32.5706003  53.1341224  32.2723947
  33.5292523  52.6743752  33.3501217  36.0595458  43.3764445  40.0996045
  36.4144846  43.6035919  40.9590510  36.7067589  43.7082822  39.4773300
  41.7893195  46.4982881  30.8045374  41.6511093  46.6884477  29.8766563
  41.4329414  47.2602264  31.2613425  29.9535321  40.4840976  36.8842386
  30.5934700  40.3429736  36.1865349  29.1212852  40.1975490  36.5080988
  41.8162574  48.5659408  35.8156645  42.2499081  48.4734697  36.6639699
  42.5294155  48.5416909  35.1776661  30.7295625  49.7843407  32.9977378
  31.5236223  49.2893727  32.7959953  30.0187317  49.2561270  32.6345084
  35.5490469  52.1661502  37.3489746  35.6027492  52.7352439  38.1167462
  34.6805251  52.3363387  36.9843783  27.0378388  43.9286489  29.0737131
  26.1075976  43.8670944  29.2907093  27.1335860  43.4062441  28.2773772
  26.9563937  40.4541301  31.6615372  27.2170755  41.3686635  31.5524533
  27.7781110  39.9865744  31.8111985  28.4288863  41.8679059  38.8314197
  29.1011916  41.6596421  38.1826846  27.6018649  41.6701145  38.3919429
  42.6778124  48.6083109  38.3489531  42.8714014  49.5128919  38.5948805
  42.5778742  48.1490528  39.1828116  34.3314435  38.4941000  40.8479858
  33.6842350  39.1930949  40.7544334  35.1015450  38.9277143  41.2156106
  37.7393233  48.7589852  43.9230411  37.5878739  48.5300403  43.0060495
  37.7297912  49.7160453  43.9361756  34.5078569  46.3321764  38.9076678
  35.4370629  46.4832924  38.7345645  34.0869599  46.4205785  38.0525324
  33.3066901  50.3572429  36.6775215  33.1677987  49.9891213  37.5501153
  32.5181497  50.8720068  36.5059173  33.9015053  55.4581525  28.0200752
  34.0766809  54.9869569  28.8346374  33.2147841  56.0847292  28.2482012
  34.8572116  49.7354032  34.0664053  34.5221949  49.6954802  34.9621703
  34.3576062  49.0698748  33.5934463  28.8316360  45.1421662  39.5916634
  28.6936158  44.4101900  40.1928173  29.7421283  45.0530562  39.3100822
  37.7931308  47.0810066  24.3401113  37.1760478  46.3556894  24.2434165
  37.3247796  47.8419426  23.9968187  31.4598661  44.8541621  39.0800314
  32.1698279  44.2134813  39.0386932  31.4167969  45.1054516  40.0026495
  39.4485439  51.7908974  42.0006893  39.3897986  51.1068194  41.3337476
  39.8504958  52.5327964  41.5487519  30.1727595  41.8406839  40.8995953
  29.6364952  41.3897577  41.5517550  29.5844303  41.9752748  40.1566418
  28.4676138  58.6070888  34.7940612  28.7072736  59.2389412  35.4719630
  27.6245335  58.2558928  35.0805971  29.5829854  41.2995490  23.4622417
  28.7059320  41.1784291  23.0984664  30.0587607  40.5081569  23.2101306
  39.4502847  49.7548558  40.2320873  38.5629625  49.4174480  40.3547272
  40.0201398  49.0231589  40.4689638  21.1031994  46.0872650  33.5563924
  21.7903034  45.7734380  32.9684939  20.9480122  46.9914015  33.2831176
  25.9066716  40.9762847  37.9848948  25.8224905  40.3688516  37.2499358
  25.0849422  41.4671865  37.9858444  32.9804000  54.4150011  37.1982116
  32.9074172  55.2204982  37.7101420  32.5381393  54.6141976  36.3730137
  32.7693780  53.6521781  30.7084937  31.9861302  54.1943461  30.8023162
  33.4686525  54.1695760  31.1079179  36.0790430  39.4616410  33.3519143
  36.5759129  38.7086372  33.0320213  35.3077411  39.4980727  32.7862352
  43.9320187  45.1656776  34.9937434  43.9210063  46.0481491  34.6231367
  43.0637567  44.8128326  34.7991971  35.4402684  54.3136845  39.3540275
  36.1530656  54.9484309  39.2816176  34.9492712  54.4100711  38.5380276
  37.1620210  48.2188097  30.9257566  36.2276489  48.3389560  30.7562271
  37.3396879  47.3160564  30.6617576  32.6625399  41.6033793  33.0790827
  32.2923186  41.0504833  33.7671733  33.1584491  40.9991927  32.5265827
  40.5492762  44.0605417  31.4607600  41.0153214  44.8933408  31.3867903
  41.0000262  43.5950398  32.1652859  30.4914597  52.0631288  40.1745845
  31.1924057  52.6967771  40.3275240  30.0209712  52.4046020  39.4141485
  38.6168993  50.4049238  28.4593752  38.8928837  50.2905832  29.3687626
  37.7473492  50.0066723  28.4205926  38.5209425  36.4286004  35.4998502
  37.6072504  36.6590230  35.6680709  38.9502526  36.5124448  36.3512534
  38.2915883  44.6175896  37.9998396  37.6387333  44.8651803  37.3450849
  38.6696263  43.8040034  37.6660873  35.2523057  54.6535589  32.1026566
  35.4345451  53.8357245  32.5654318  36.0756043  54.8703281  31.6651456
  35.5865222  53.5803774  29.3641615  36.1152989  53.0696228  28.7511777
  35.8493442  53.2646304  30.2287148  34.3403456  45.3595707  44.4864433
  33.6644093  45.2589836  45.1566808  35.1631090  45.2034920  44.9500430
  26.0882315  51.5967643  37.1076948  26.6735752  50.8511331  37.2404852
  25.8907154  51.9071600  37.9913612  28.9420970  54.6318890  32.1239390
  28.2731346  55.1165018  31.6403431  28.8033840  54.8788111  33.0382769
  20.6799970  44.1673243  35.8281391  20.7184069  43.6336834  36.6218509
  20.1740263  43.6408449  35.2092368  33.0826239  56.6662634  38.7222049
  33.6344547  56.8294256  39.4871134  33.4232432  57.2567072  38.0502074
  28.0590732  39.0137784  39.3243934  28.1232059  39.8752615  38.9121331
  27.9957852  38.4011785  38.5916292  27.5343005  41.0860916  42.9716968
  28.1615044  40.7037994  43.5854492  26.6770924  40.8675118  43.3372660
  37.9337113  51.4923892  44.5770703  38.4777017  52.1053850  44.0825658
  37.3523958  52.0503470  45.0937716  24.3108547  42.8937345  28.9035323
  24.6061989  41.9848024  28.8502376  23.4096583  42.8725085  28.5816325
  36.2194626  54.6144610  35.7085731  36.0945766  53.8134349  35.1996676
  36.8773717  55.1090803  35.2199701  27.8402794  40.9693342  34.8862871
  27.1189380  41.5829310  34.7470345  28.6296050  41.5051107  34.8079517
  38.2829535  52.4153630  37.3365281  37.3359870  52.2958981  37.2643608
  38.6312308  51.5276128  37.4191543  30.6429108  38.3047769  41.1603523
  31.1663510  38.5510065  41.9229832  30.4241441  39.1367803  40.7406660
  26.0396389  40.5751443  29.0274648  25.7109095  39.6948822  28.8449754
  26.3935760  40.5199112  29.9151037  35.2875968  52.2106346  33.5369633
  35.1400930  51.2823053  33.7177203  36.1129461  52.2326437  33.0526709
  29.1538212  40.8624413  29.3950125  29.4934285  41.3910334  28.6728734
  29.6010333  41.2004819  30.1708692  38.8910090  53.0334905  34.6234506
  39.8156637  52.8277766  34.4858957  38.7225393  52.7851306  35.5323848
  31.8481653  39.2461464  38.8453194  31.5078473  38.4469277  39.2473873
  31.1420659  39.5463174  38.2730027  32.4998125  36.3310776  37.2980517
  33.3224194  35.8571254  37.1759407  32.7436188  37.1101260  37.7979203
  31.1406359  39.3599035  27.5943418  31.8614722  39.7380287  27.0907135
  30.5171663  40.0787911  27.6978396  35.2837482  40.0644183  28.5301751
  35.5001097  40.9468821  28.2290579  34.8031549  39.6730397  27.8007393
  30.0236704  43.0229897  35.1072495  29.8781284  43.3370200  35.9996777
  29.5461907  43.6414797  34.5543394  31.8833087  40.0132445  35.1553385
  31.8694655  39.1173538  34.8185683  32.6005515  40.0203108  35.7891671
  33.7359217  40.4469785  37.2006512  33.4776995  41.3686856  37.1990843
  33.2044258  40.0500219  37.8906976  38.6805406  53.5520572  29.9796598
  38.8542284  52.9866995  29.2270450  39.1734297  54.3521467  29.7976087
  24.4982366  45.5635241  38.0460156  23.9535834  46.3395049  38.1780431
  25.3761716  45.9106046  37.8879278  31.2869982  38.8946825  30.4240955
  31.4085894  37.9663471  30.6231842  30.9972025  38.9085511  29.5119270
  34.1561173  36.5801735  33.5607675  34.1782870  36.6441069  32.6059654
  34.5729232  35.7406244  33.7548181  44.5344797  46.3156995  31.5986897
  44.9775943  45.5664320  31.2006021  43.6571307  46.3067131  31.2160629
  39.6680578  52.8687336  27.0793496  40.3631483  53.4894029  27.2980810
  40.0103729  52.0182688  27.3545874  25.2848388  44.6905137  40.9390313
  24.5430124  44.8387773  41.5254944  24.9641132  44.9513403  40.0757063
  41.5672002  50.3187042  28.6080827  42.0923326  50.6574315  27.8830147
  41.4794354  49.3834057  28.4243961  33.2292050  54.2321116  40.7370703
  33.5379177  53.9870262  41.6093403  34.0267532  54.4367754  40.2489573
  33.2512662  56.3859025  32.9676080  32.8117653  55.8935404  33.6608936
  34.0020779  55.8431993  32.7268155  25.7305001  52.5770566  32.9700708
  26.5563021  52.2774338  32.5899351  25.3799053  51.8078189  33.4190496
  30.6986534  51.9297034  35.0398381  30.0766544  51.2667739  34.7400609
  31.3691401  51.9558166  34.3572029  23.9313606  50.4956893  33.9289641
  23.0945515  50.0679067  33.7473643  23.9037252  50.6889336  34.8660433
  30.7711062  40.4078822  44.6330887  30.8199217  41.2840945  44.2508657
  31.3133576  39.8656215  44.0602531  41.3763783  47.8012412  41.2264753
  41.4261788  47.6362419  42.1680276  41.2677706  46.9339671  40.8362634
  30.2600041  50.4800958  28.5156842  30.4088162  51.1636422  27.8623515
  31.0666485  50.4606048  29.0306298  38.6667545  43.7843340  42.5424060
  39.5677408  43.6449805  42.2508058  38.7415520  43.9497795  43.4822237
  33.0010350  41.1610195  41.3877246  32.1313660  41.4543761  41.1159835
  33.2369831  41.7450640  42.1084510  42.8781980  50.2209353  41.4706775
  42.5866788  50.5839334  42.3070236  42.2654111  49.5076362  41.2920107
  44.0777662  47.7862233  33.9909345  44.9124553  48.2252037  34.1546905
  44.2136791  47.3100886  33.1717591  41.1269168  45.3441968  39.9386833
  41.6023289  45.5369614  39.1305684  40.2034733  45.4001154  39.6930216
  28.0152674  46.5066135  29.5217911  27.7698716  45.6028465  29.7198121
  28.1848589  46.5083286  28.5797389  35.7049384  37.3789812  38.9042666
  36.2231328  38.1150839  38.5789155  35.3504517  37.6853805  39.7389426
  27.2848322  42.2394493  27.0204072  26.5917567  42.3138848  26.3644108
  27.0400074  41.4754837  27.5425589  35.9561978  33.7990094  34.4243563
  36.2363732  33.1313283  35.0503990  36.7412585  33.9919190  33.9118227
  33.7595447  52.9749088  25.9868589  33.1869414  53.5939275  25.5339061
  34.3328241  53.5248450  26.5208511  39.8270837  42.2207728  38.1715138
  40.7788260  42.3205826  38.1927362  39.6574287  41.4285997  38.6813223
  37.8485216  39.3063311  38.3574539  37.2535148  39.5868324  37.6621028
  37.5634913  39.7957212  39.1291280  36.9792707  53.2586238  27.1177172
  37.9123380  53.1931800  27.3210047  36.8915920  54.0942505  26.6591704
  39.6080723  52.5752109  24.0781119  39.5294355  52.2411972  24.9716877
  40.4290390  53.0673876  24.0772592  42.3058915  45.4413848  37.2857438
  42.2735235  44.5029849  37.4717122  42.9159538  45.5197885  36.5523263
  34.1442245  44.3109901  23.3284642  35.0901350  44.1816109  23.3973060
  33.7656490  43.5724563  23.8054070  42.4553403  42.2324891  37.3315721
  41.9392452  41.4483348  37.1445650  43.3393352  41.9043608  37.4962240
  40.1164130  35.9765907  33.2911534  39.9188951  35.6680995  34.1754866
  40.7263836  36.7027546  33.4209464  48.1235464  46.5029855  36.4263475
  48.8538853  46.2415143  36.9871178  47.5142410  45.7658577  36.4665543
  46.2050762  44.6437717  37.0237926  45.4783925  44.5093682  36.4154417
  45.7898048  44.9514546  37.8294644  34.0280938  48.3627647  44.7885299
  34.9483947  48.5406246  44.9825345  33.9930521  47.4183692  44.6364998
  32.3285163  42.2359877  23.2639527  31.4216618  41.9392990  23.3402241
  32.6061144  41.9389695  22.3973813  23.2463103  43.5566241  33.7138573
  22.9265887  42.7031549  33.4212947  22.6996531  43.7714819  34.4696541
  27.0243011  46.2728682  37.4308080  27.2429020  47.2045789  37.4496114
  27.4368784  45.9136656  38.2162884  33.9447228  36.7796767  29.4183768
  33.1347957  36.4343852  29.7939014  34.6331645  36.4704311  30.0071380
  35.8737777  35.8574814  31.0408065  36.4268815  36.2770267  31.6998088
  36.1107863  34.9310562  31.0831021  31.8970876  41.8461887  46.8210829
  31.7967603  42.7956244  46.7522920  31.6792418  41.5180126  45.9486899
  31.0983947  39.0946812  23.4051506  31.9603111  39.4201711  23.6647324
  31.2834291  38.3078308  22.8924572  23.1151363  47.1769152  35.6831695
  22.4214834  46.7623105  35.1701649  23.8624354  47.2189689  35.0865114
  39.2516584  37.9675339  30.5486729  38.6715253  38.6260143  30.1664782
  38.9852516  37.1452684  30.1374147  37.7020150  37.3680397  32.7508050
  38.2019928  37.4796931  31.9422368  38.3455758  37.0641449  33.3908858
  31.7602146  45.2759026  45.6375891  31.2769228  46.0759386  45.8439780
  31.8463085  45.2866971  44.6843335  25.0288105  47.1087406  33.5597710
  25.0058794  47.2075093  32.6079593  25.3388742  47.9552557  33.8814876
  27.6875483  49.1663561  37.6744324  28.6418737  49.1347503  37.6074256
  27.4888007  48.7054185  38.4894550  28.2774865  47.7364677  40.2415122
  29.0967754  48.2308756  40.2649959  28.5511673  46.8196645  40.2132690
  38.0341462  40.1275429  29.6043078  37.1467317  40.4125080  29.3863272
  38.4495451  39.9669193  28.7570354  41.3855998  40.1521950  33.3197417
  42.1616388  40.6418403  33.5922034  40.6604132  40.5780004  33.7769286
  43.8228556  40.8649570  34.3771357  44.4173047  40.6245305  33.6664666
  43.8955140  40.1456700  35.0044894  26.0425712  54.7083180  34.6914522
  25.9080180  53.9483581  34.1252520  25.6257774  55.4324080  34.2243311
  37.1784675  49.8920104  23.6991098  37.8820525  50.0970106  24.3148753
  36.4547324  50.4596866  23.9640181  38.0082485  45.6429965  29.8193368
  37.9517687  46.0998517  28.9801000  38.5610828  44.8820650  29.6416210
  41.8187291  41.4319697  30.6443487  41.5624226  41.0316333  31.4751695
  41.1940159  42.1463491  30.5193626  46.1299629  44.1715770  33.1514779
  45.5699187  44.2408960  33.9246341  45.5243133  43.9956755  32.4314275
  29.1994838  55.6052497  34.9032965  29.0827222  56.5497930  34.8011655
  28.3787284  55.3026059  35.2918764  39.0871373  50.3302633  25.7489558
  39.9216976  49.8983832  25.5667032  38.9255715  50.1584647  26.6766452
  38.7417265  46.8334747  27.1145897  38.6866069  46.6679018  26.1734341
  38.1163320  47.5410779  27.2708087  23.5309780  42.0702811  40.9407319
  24.1768643  41.5601765  41.4294544  23.3226931  42.8071493  41.5150744
  36.0563172  49.1383658  46.4399460  36.9254332  49.3124311  46.0786095
  35.5769923  49.9578075  46.3175189  32.0513390  36.3342856  26.6931215
  32.0392060  37.2784695  26.8499486  32.9436812  36.1513001  26.3990676
  30.2249352  56.2580759  38.1188893  31.1276599  56.2904370  38.4355388
  29.9986722  55.3281210  38.1335229  31.9802954  55.0111746  34.7798972
  31.0298585  55.0113608  34.6663344  32.2835440  54.2644480  34.2635007
  35.8665510  32.9285632  30.9477152  35.0997905  32.3744119  31.0933834
  36.2776215  33.0007501  31.8091304  27.8707271  39.2170428  45.0382333
  28.7338732  38.8607233  45.2485658  27.2972681  38.8784323  45.7257738
  44.5245354  60.7999712  35.7806259  44.1863865  60.6840777  34.8926794
  45.3935122  60.3990877  35.7607265  40.3832170  62.6535189  31.7703150
  39.8197035  62.5625126  31.0019438  40.2684565  61.8335093  32.2505643
  37.9296602  64.1486380  34.6087370  38.7217893  63.8077205  34.1933670
  38.1693252  64.2581355  35.5289524  45.9631728  66.3206157  27.0817615
  45.3119708  66.9060237  26.6951629  46.7576091  66.8512351  27.1412652
  39.8887355  63.4095294  27.4804749  40.6618231  62.8624281  27.3417625
  40.2412754  64.2739543  27.6919211  42.6528605  62.1148524  37.2773008
  43.2492177  61.8904547  36.5629971  42.7103576  61.3733270  37.8798456
  42.2253633  59.5687960  25.1123199  42.4779154  59.0469481  24.3506662
  41.2878192  59.4054105  25.2149883  47.2696916  58.5723738  32.9197942
  48.0560005  58.1543161  32.5688359  47.5335620  59.4769830  33.0879591
  47.4406993  64.0096588  27.6186599  46.8052826  64.0831215  28.3307504
  47.1104400  64.5990187  26.9405678  41.9449922  61.4716066  27.3147574
  41.8286180  60.7960969  27.9828658  42.0552182  60.9848440  26.4979727
  44.2881463  60.9326213  31.0194263  43.9239670  60.4056834  31.7307185
  45.1448579  60.5424682  30.8460749  50.1930764  52.2220545  38.2825529
  49.8614088  53.0915956  38.0586744  49.5976377  51.9056829  38.9619560
  43.9286950  55.9616113  26.0155612  44.0961352  56.8296349  26.3826083
  43.7384119  56.1243394  25.0916901  40.1374765  60.8746888  33.7158147
  39.2125261  60.7423102  33.9235838  40.3859178  61.6541108  34.2128089
  43.9076171  58.4173770  27.0002279  43.7875796  58.8630821  27.8387759
  43.2128759  58.7659088  26.4415817  37.4983576  60.5180162  34.5501936
  37.6275957  60.7714641  35.4641347  36.8181027  61.1107870  34.2306591
  41.6683063  71.1877412  30.6492410  41.5907093  72.1385237  30.7280890
  41.0644707  70.8423284  31.3067336  49.6061237  58.8895243  27.8282613
  50.5179093  59.1222630  27.6530310  49.0970884  59.4732287  27.2657691
  44.2433075  58.2492478  38.8377462  45.0894270  58.6731891  38.9812111
  44.1831712  57.5926102  39.5316025  46.9497212  55.0653279  36.0772474
  46.0881691  55.3634533  36.3689211  46.9759646  55.2823678  35.1453506
  43.7658781  63.6095470  32.4846279  44.2297127  63.8883173  31.6950902
  43.5015579  62.7078914  32.3019370  40.6582862  63.1566951  35.4226043
  41.2284219  63.5854220  34.7843527  41.2490974  62.8749536  36.1210228
  42.7027667  59.7318622  29.2935844  43.4051711  60.1839666  29.7609771
  42.3708296  59.0902441  29.9215738  36.4453001  57.9902175  34.5952978
  35.6552055  58.2459703  34.1193089  36.9364249  58.8050513  34.7005019
  38.3967747  58.3546754  31.5536455  37.5998910  58.4665448  32.0719950
  38.1693339  58.6933406  30.6877345  44.2273414  64.8791457  39.5018969
  44.2917847  65.3411865  40.3377141  43.5184338  64.2488822  39.6301279
  34.7290704  58.2432665  37.0267969  34.9798743  59.1279675  37.2925545
  35.2650253  58.0637267  36.2543061  43.9421432  66.5459565  29.3697950
  43.8067107  67.3911100  29.7982797  44.4831244  66.7478842  28.6063883
  37.3950829  64.0635003  29.9425875  37.9075350  64.8578253  30.0931439
  38.0473542  63.3661293  29.8759476  39.2045714  67.1800759  32.0248628
  39.3812342  68.1018724  31.8369612  40.0002547  66.8659178  32.4543008
  40.3277029  68.6978933  38.0258970  40.8784455  68.5695996  37.2535964
  39.4888505  68.9973822  37.6753863  47.6671146  67.4485931  41.5279693
  47.6489622  68.2694812  41.0359962  48.5891066  67.3240006  41.7529834
  47.2913895  50.0690127  37.8996843  46.9478165  50.9591768  37.8235954
  47.6592858  49.8791784  37.0366428  35.3599746  62.3923657  30.7185445
  36.1974968  62.8020665  30.5019153  35.5378014  61.4523099  30.6885639
  47.2564178  60.0598738  26.4069278  46.7410802  60.8303342  26.6457666
  46.9841487  59.3863874  27.0302340  44.8411289  54.9048439  31.4654517
  43.9852886  54.5155289  31.2860155  45.2538241  54.9840399  30.6054302
  46.3710436  52.4394782  35.8646076  45.8675231  52.4024917  35.0513882
  46.6641043  53.3487525  35.9242733  42.6153322  52.5233512  34.8712258
  43.4806318  52.3276320  34.5118148  42.6830831  52.2943863  35.7981615
  47.0450481  57.9325830  28.2329059  46.7400617  58.2471979  29.0839203
  47.9980923  58.0107250  28.2756392  45.4896913  64.0916053  29.8822013
  44.9618275  63.3568813  29.5695251  44.9884416  64.8690730  29.6361982
  40.2215641  54.7535719  32.2428625  40.7959393  54.5310901  31.5101818
  40.8086623  54.8224414  32.9957226  40.5485228  56.7840180  26.2624510
  39.7122540  57.1214867  26.5833785  40.4089998  56.6489160  25.3251647
  42.5238308  51.6276968  30.9703694  41.8702721  51.3125986  30.3460309
  42.4818783  51.0052709  31.6963517  43.6349513  61.9096263  22.8856986
  42.7276575  61.6785517  23.0848135  44.1320545  61.1133883  23.0730968
  46.5417592  70.6193771  25.8053673  45.8679291  70.9225467  26.4138630
  46.9283414  71.4222851  25.4559130  45.7576049  58.1158902  35.2951342
  44.8398610  58.3373849  35.1373030  46.1736192  58.1905212  34.4363049
  46.5411097  59.5150318  30.4254022  47.2882916  60.0271715  30.1161144
  46.8102686  59.1934370  31.2858416  44.8137747  62.0108858  27.4080977
  43.9048966  61.7267891  27.5053446  44.8432831  62.4307937  26.5484283
  48.4889953  67.4591944  32.1121962  48.7812928  68.0197002  31.3934328
  48.9988574  67.7520505  32.8675121  49.0901561  49.3283686  33.0014581
  49.3960438  48.4681049  32.7140496  49.8154166  49.9201306  32.8013575
  35.3825917  59.7314372  31.3896179  35.1850317  59.1383733  30.6647245
  34.8272581  59.4266583  32.1072118  43.3622641  59.6237479  33.5090772
  43.4171251  58.6711315  33.4333248  42.5513843  59.7796918  33.9932070
  44.5113835  63.5517602  24.7469055  44.0733265  62.8353461  24.2874692
  45.2524275  63.7793717  24.1854146  41.3015001  58.2414539  31.2681151
  40.4882866  58.5408709  31.6746343  41.7973995  57.8470227  31.9855633
  43.4523579  68.2372296  33.2015415  43.4099757  68.4633142  32.2723947
  44.3686278  68.0035670  33.3501217  40.7929076  55.8132894  36.8842386
  41.4328455  55.6721653  36.1865349  39.9606606  55.5267408  36.5080988
  41.5689379  65.1135325  32.9977378  42.3629978  64.6185645  32.7959953
  40.8581072  64.5853188  32.6345084  46.3884224  67.4953420  37.3489746
  46.4421246  68.0644356  38.1167462  45.5199005  67.6655305  36.9843783
  37.8772143  59.2578406  29.0737131  36.9469731  59.1962862  29.2907093
  37.9729615  58.7354359  28.2773772  37.7957692  55.7833219  31.6615372
  38.0564509  56.6978552  31.5524533  38.6174864  55.3157662  31.8111985
  39.2682617  57.1970976  38.8314197  39.9405671  56.9888338  38.1826846
  38.4412404  56.9993062  38.3919429  44.1460655  65.6864347  36.6775215
  44.0071741  65.3183131  37.5501153  43.3575252  66.2011986  36.5059173
  44.7408807  70.7873443  28.0200752  44.9160563  70.3161486  28.8346374
  44.0541595  71.4139209  28.2482012  45.6965871  65.0645949  34.0664053
  45.3615703  65.0246719  34.9621703  45.1969816  64.3990665  33.5934463
  39.6710115  60.4713579  39.5916634  39.5329912  59.7393818  40.1928173
  40.5815038  60.3822479  39.3100822  48.6325062  62.4101984  24.3401113
  48.0154233  61.6848812  24.2434165  48.1641551  63.1711344  23.9968187
  42.2992415  60.1833539  39.0800314  43.0092034  59.5426731  39.0386932
  42.2561723  60.4346433  40.0026495  50.2879194  67.1200892  42.0006893
  50.2291740  66.4360112  41.3337476  50.6898712  67.8619882  41.5487519
  39.3069893  73.9362806  34.7940612  39.5466491  74.5681330  35.4719630
  38.4639089  73.5850846  35.0805971  40.4223608  56.6287408  23.4622417
  39.5453074  56.5076209  23.0984664  40.8981361  55.8373486  23.2101306
  31.9425748  61.4164568  33.5563924  32.6296788  61.1026298  32.9684939
  31.7873877  62.3205932  33.2831176  36.7460470  56.3054764  37.9848948
  36.6618659  55.6980434  37.2499358  35.9243177  56.7963783  37.9858444
  43.8197755  69.7441928  37.1982116  43.7467926  70.5496900  37.7101420
  43.3775148  69.9433894  36.3730137  43.6087534  68.9813698  30.7084937
  42.8255056  69.5235378  30.8023162  44.3080279  69.4987678  31.1079179
  46.9184184  54.7908328  33.3519143  47.4152884  54.0378290  33.0320213
  46.1471166  54.8272644  32.7862352  46.2796438  69.6428762  39.3540275
  46.9924410  70.2776227  39.2816176  45.7886467  69.7392628  38.5380276
  43.5019153  56.9325711  33.0790827  43.1316941  56.3796751  33.7671733
  43.9978245  56.3283844  32.5265827  41.3308352  67.3923206  40.1745845
  42.0317811  68.0259689  40.3275240  40.8603467  67.7337937  39.4141485
  49.4562747  65.7341156  28.4593752  49.7322591  65.6197750  29.3687626
  48.5867246  65.3358640  28.4205926  49.3603179  51.7577921  35.4998502
  48.4466259  51.9882148  35.6680709  49.7896281  51.8416365  36.3512534
  46.0916811  69.9827506  32.1026566  46.2739206  69.1649162  32.5654318
  46.9149797  70.1995199  31.6651456  46.4258977  68.9095691  29.3641615
  46.9546743  68.3988146  28.7511777  46.6887197  68.5938222  30.2287148
  36.9276070  66.9259561  37.1076948  37.5129506  66.1803249  37.2404852
  36.7300908  67.2363517  37.9913612  39.7814725  69.9610808  32.1239390
  39.1125100  70.4456936  31.6403431  39.6427595  70.2080029  33.0382769
  31.5193724  59.4965161  35.8281391  31.5577824  58.9628752  36.6218509
  31.0134017  58.9700367  35.2092368  43.9219993  71.9954552  38.7222049
  44.4738301  72.1586173  39.4871134  44.2626187  72.5858990  38.0502074
  38.8984487  54.3429702  39.3243934  38.9625813  55.2044532  38.9121331
  38.8351607  53.7303703  38.5916292  48.7730868  66.8215809  44.5770703
  49.3170772  67.4345767  44.0825658  48.1917713  67.3795388  45.0937716
  35.1502302  58.2229263  28.9035323  35.4455743  57.3139942  28.8502376
  34.2490338  58.2017003  28.5816325  47.0588381  69.9436527  35.7085731
  46.9339520  69.1426267  35.1996676  47.7167472  70.4382721  35.2199701
  38.6796549  56.2985260  34.8862871  37.9583135  56.9121227  34.7470345
  39.4689805  56.8343025  34.8079517  41.4822862  53.6339686  41.1603523
  42.0057264  53.8801983  41.9229832  41.2635196  54.4659721  40.7406660
  36.8790144  55.9043361  29.0274648  36.5502850  55.0240740  28.8449754
  37.2329514  55.8491030  29.9151037  46.1269722  67.5398264  33.5369633
  45.9794685  66.6114971  33.7177203  46.9523216  67.5618354  33.0526709
  39.9931967  56.1916331  29.3950125  40.3328039  56.7202252  28.6728734
  40.4404087  56.5296737  30.1708692  49.7303844  68.3626822  34.6234506
  50.6550392  68.1569684  34.4858957  49.5619148  68.1143223  35.5323848
  42.6875408  54.5753381  38.8453194  42.3472228  53.7761194  39.2473873
  41.9814414  54.8755092  38.2730027  43.3391879  51.6602694  37.2980517
  44.1617949  51.1863172  37.1759407  43.5829943  52.4393178  37.7979203
  41.9800114  54.6890952  27.5943418  42.7008476  55.0672205  27.0907135
  41.3565418  55.4079829  27.6978396  46.1231237  55.3936101  28.5301751
  46.3394851  56.2760739  28.2290579  45.6425304  55.0022315  27.8007393
  40.8630458  58.3521814  35.1072495  40.7175039  58.6662117  35.9996777
  40.3855662  58.9706715  34.5543394  42.7226841  55.3424362  35.1553385
  42.7088410  54.4465456  34.8185683  43.4399269  55.3495026  35.7891671
  44.5752972  55.7761703  37.2006512  44.3170750  56.6978773  37.1990843
  44.0438012  55.3792137  37.8906976  49.5199160  68.8812490  29.9796598
  49.6936038  68.3158912  29.2270450  50.0128052  69.6813385  29.7976087
  35.3376120  60.8927159  38.0460156  34.7929588  61.6686967  38.1780431
  36.2155470  61.2397963  37.8879278  42.1263737  54.2238743  30.4240955
  42.2479648  53.2955389  30.6231842  41.8365779  54.2377429  29.5119270
  44.9954927  51.9093653  33.5607675  45.0176624  51.9732986  32.6059654
  45.4122986  51.0698162  33.7548181  50.5074333  68.1979254  27.0793496
  51.2025238  68.8185947  27.2980810  50.8497483  67.3474605  27.3545874
  36.1242142  60.0197055  40.9390313  35.3823878  60.1679690  41.5254944
  35.8034886  60.2805321  40.0757063  52.4065756  65.6478960  28.6080827
  52.9317080  65.9866232  27.8830147  52.3188109  64.7125975  28.4243961
  44.0685805  69.5613033  40.7370703  44.3772931  69.3162180  41.6093403
  44.8661287  69.7659672  40.2489573  44.0906417  71.7150943  32.9676080
  43.6511407  71.2227322  33.6608936  44.8414534  71.1723911  32.7268155
  36.5698756  67.9062484  32.9700708  37.3956776  67.6066256  32.5899351
  36.2192808  67.1370106  33.4190496  41.5380289  67.2588952  35.0398381
  40.9160298  66.5959657  34.7400609  42.2085156  67.2850084  34.3572029
  34.7707361  65.8248810  33.9289641  33.9339269  65.3970985  33.7473643
  34.7431006  66.0181254  34.8660433  52.0959662  66.2811863  43.9132025
  51.3055206  66.2636002  43.3736524  51.8593017  66.8200157  44.6681061
  41.0993796  65.8092875  28.5156842  41.2481916  66.4928340  27.8623515
  41.9060239  65.7897965  29.0306298  38.8546429  61.8358053  29.5217911
  38.6092471  60.9320383  29.7198121  39.0242343  61.8375203  28.5797389
  46.5443139  52.7081729  38.9042666  47.0625083  53.4442756  38.5789155
  46.1898272  53.0145723  39.7389426  38.1242076  57.5686411  27.0204072
  37.4311321  57.6430766  26.3644108  37.8793828  56.8046754  27.5425589
  46.7955733  49.1282012  34.4243563  47.0757487  48.4605201  35.0503990
  47.5806340  49.3211108  33.9118227  44.5989201  68.3041006  25.9868589
  44.0263168  68.9231193  25.5339061  45.1721995  68.8540367  26.5208511
  48.6878971  54.6355229  38.3574539  48.0928903  54.9160242  37.6621028
  48.4028667  55.1249130  39.1291280  47.8186461  68.5878156  27.1177172
  48.7517134  68.5223718  27.3210047  47.7309674  69.4234423  26.6591704
  50.4474478  67.9044026  24.0781119  50.3688109  67.5703890  24.9716877
  51.2684145  68.3965794  24.0772592  44.9836000  59.6401819  23.3284642
  45.9295105  59.5108027  23.3973060  44.6050245  58.9016480  23.8054070
  50.9557884  51.3057825  33.2911534  50.7582706  50.9972913  34.1754866
  51.5657590  52.0319463  33.4209464  43.1678917  57.5651795  23.2639527
  42.2610372  57.2684908  23.3402241  43.4454898  57.2681613  22.3973813
  34.0856857  58.8858158  33.7138573  33.7659642  58.0323467  33.4212947
  33.5390286  59.1006736  34.4696541  37.8636765  61.6020599  37.4308080
  38.0822775  62.5337707  37.4496114  38.2762539  61.2428574  38.2162884
  44.7840983  52.1088685  29.4183768  43.9741711  51.7635770  29.7939014
  45.4725400  51.7996228  30.0071380  46.7131531  51.1866731  31.0408065
  47.2662570  51.6062185  31.6998088  46.9501617  50.2602480  31.0831021
  41.9377702  54.4238730  23.4051506  42.7996866  54.7493628  23.6647324
  42.1228046  53.6370226  22.8924572  33.9545117  62.5061070  35.6831695
  33.2608589  62.0915023  35.1701649  34.7018108  62.5481606  35.0865114
  50.0910338  53.2967257  30.5486729  49.5109007  53.9552061  30.1664782
  49.8246271  52.4744601  30.1374147  48.5413905  52.6972314  32.7508050
  49.0413683  52.8088849  31.9422368  49.1849512  52.3933367  33.3908858
  35.8681860  62.4379324  33.5597710  35.8452548  62.5367011  32.6079593
  36.1782496  63.2844474  33.8814876  38.5269238  64.4955479  37.6744324
  39.4812491  64.4639421  37.6074256  38.3281761  64.0346102  38.4894550
  39.1168620  63.0656595  40.2415122  39.9361509  63.5600673  40.2649959
  39.3905428  62.1488563  40.2132690  48.8735216  55.4567347  29.6043078
  47.9861071  55.7416998  29.3863272  49.2889205  55.2961110  28.7570354
  52.2249752  55.4813868  33.3197417  53.0010142  55.9710320  33.5922034
  51.4997886  55.9071922  33.7769286  36.8819467  70.0375098  34.6914522
  36.7473935  69.2775499  34.1252520  36.4651529  70.7615998  34.2243311
  48.0178430  65.2212022  23.6991098  48.7214280  65.4262024  24.3148753
  47.2941078  65.7888784  23.9640181  40.0388593  70.9344415  34.9032965
  39.9220977  71.8789848  34.8011655  39.2181039  70.6317977  35.2918764
  49.9265127  65.6594551  25.7489558  50.7610731  65.2275749  25.5667032
  49.7649470  65.4876565  26.6766452  49.5811019  62.1626664  27.1145897
  49.5259823  61.9970936  26.1734341  48.9557075  62.8702697  27.2708087
  34.3703534  57.3994729  40.9407319  35.0162398  56.8893683  41.4294544
  34.1620685  58.1363410  41.5150744  42.8907145  51.6634773  26.6931215
  42.8785815  52.6076613  26.8499486  43.7830567  51.4804919  26.3990676
  41.0643107  71.5872677  38.1188893  41.9670353  71.6196287  38.4355388
  40.8380477  70.6573128  38.1335229  42.8196709  70.3403664  34.7798972
  41.8692340  70.3405525  34.6663344  43.1229195  69.5936398  34.2635007
  46.7059264  48.2577550  30.9477152  45.9391660  47.7036037  31.0933834
  47.1169969  48.3299419  31.8091304  58.5549402  76.1764202  35.8444734
  59.1927812  76.0570949  35.1408074  58.4370245  77.1245046  35.9032686
  55.3639108  76.1291630  35.7806259  55.0257620  76.0132695  34.8926794
  56.2328877  75.7282795  35.7607265  51.2225924  77.9827106  31.7703150
  50.6590789  77.8917043  31.0019438  51.1078319  77.1627011  32.2505643
  55.8458891  77.2826482  41.7392465  55.8347532  76.8879280  40.8672968
  56.0079531  76.5492554  42.3326236  48.7690356  79.4778298  34.6087370
  49.5611648  79.1369123  34.1933670  49.0087006  79.5873273  35.5289524
  56.8025483  81.6498074  27.0817615  56.1513463  82.2352155  26.6951629
  57.5969846  82.1804269  27.1412652  50.7281110  78.7387211  27.4804749
  51.5011986  78.1916198  27.3417625  51.0806509  79.6031461  27.6919211
  52.5666153  80.0663594  40.6871649  52.2756019  80.9709224  40.5718315
  53.2023137  80.1080121  41.4015718  53.4922359  77.4440442  37.2773008
  54.0885932  77.2196465  36.5629971  53.5497331  76.7025188  37.8798456
  53.0647388  74.8979877  25.1123199  53.3172908  74.3761399  24.3506662
  52.1271947  74.7346023  25.2149883  58.1090671  73.9015656  32.9197942
  58.8953760  73.4835079  32.5688359  58.3729375  74.8061748  33.0879591
  58.2800748  79.3388506  27.6186599  57.6446581  79.4123133  28.3307504
  57.9498154  79.9282105  26.9405678  52.7843677  76.8007983  27.3147574
  52.6679935  76.1252887  27.9828658  52.8945936  76.3140357  26.4979727
  55.1275217  76.2618131  31.0194263  54.7633425  75.7348751  31.7307185
  55.9842333  75.8716600  30.8460749  54.7680704  71.2908030  26.0155612
  54.9355107  72.1588267  26.3826083  54.5777874  71.4535312  25.0916901
  57.5256038  79.7525009  37.6821442  57.2256761  80.6550048  37.5737249
  57.1807097  79.4857192  38.5342595  50.9768519  76.2038806  33.7158147
  50.0519016  76.0715020  33.9235838  51.2252932  76.9833025  34.2128089
  54.7469925  73.7465688  27.0002279  54.6269551  74.1922738  27.8387759
  54.0522514  74.0951005  26.4415817  48.3377330  75.8472080  34.5501936
  48.4669711  76.1006558  35.4641347  47.6574781  76.4399788  34.2306591
  52.5076817  86.5169329  30.6492410  52.4300847  87.4677155  30.7280890
  51.9038461  86.1715202  31.3067336  54.9994047  73.6897195  43.3053777
  54.2227381  74.2491115  43.2956641  55.6384610  74.1753978  43.8268647
  60.4454991  74.2187161  27.8282613  61.3572848  74.4514548  27.6530310
  59.9364639  74.8024205  27.2657691  53.2540420  76.4982648  42.8671744
  53.9955104  77.0367692  42.5906567  52.5477405  77.1248937  43.0243296
  58.7295759  78.6411789  41.4643905  59.1379115  78.1994199  40.7198538
  58.0073021  78.0664416  41.7178098  55.0826829  73.5784395  38.8377462
  55.9288024  74.0023809  38.9812111  55.0225467  72.9218020  39.5316025
  59.0524574  79.2012979  35.2196194  58.4233436  79.3658693  34.5172262
  58.6650236  79.6154589  35.9907158  62.9313806  80.1367417  32.5740558
  62.2464844  80.5166319  32.0237591  63.0157655  80.7462744  33.3072506
  58.2326275  71.2388764  40.4958636  57.9887206  71.9930824  39.9592912
  58.5086205  71.6174111  41.3305883  60.1864737  77.7827376  39.1735901
  60.3981633  78.4259136  38.4970283  60.1394486  76.9489693  38.7057832
  57.7890966  70.3945197  36.0772474  56.9275445  70.6926450  36.3689211
  57.8153401  70.6115596  35.1453506  54.6052536  78.9387387  32.4846279
  55.0690881  79.2175090  31.6950902  54.3409334  78.0370832  32.3019370
  51.4976617  78.4858869  35.4226043  52.0677974  78.9146137  34.7843527
  52.0884729  78.2041454  36.1210228  53.5421422  75.0610540  29.2935844
  54.2445465  75.5131583  29.7609771  53.2102050  74.4194359  29.9215738
  51.9901783  73.6522296  43.6687054  51.3600444  74.3338577  43.9022451
  51.8837871  73.5405378  42.7240192  47.2846756  73.3194092  34.5952978
  46.4945810  73.5751621  34.1193089  47.7758003  74.1342430  34.7005019
  61.3010565  80.6599332  37.3458259  62.1228009  80.2579519  37.0640940
  61.2972968  80.5567566  38.2974375  49.2361501  73.6838672  31.5536455
  48.4392664  73.7957366  32.0719950  49.0087093  74.0225324  30.6877345
  55.0667169  80.2083375  39.5018969  55.1311601  80.6703782  40.3377141
  54.3578093  79.5780740  39.6301279  45.5684459  73.5724583  37.0267969
  45.8192497  74.4571593  37.2925545  46.1044007  73.3929184  36.2543061
  69.3916558  77.0038080  33.6943230  68.6380267  76.4345478  33.5387235
  69.5264100  76.9700745  34.6413865  54.7815186  81.8751482  29.3697950
  54.6460861  82.7203018  29.7982797  55.3224999  82.0770760  28.6063883
  51.2682526  67.9543062  46.0312305  50.8749472  67.4009261  46.7059949
  52.0848666  68.2653641  46.4218822  48.2344584  79.3926920  29.9425875
  48.7469104  80.1870171  30.0931439  48.8867297  78.6953211  29.8759476
  50.0439468  82.5092677  32.0248628  50.2206097  83.4310641  31.8369612
  50.8396302  82.1951096  32.4543008  54.1850487  69.3700941  43.6232561
  54.9260200  69.9708095  43.5437024  54.4168410  68.6278579  43.0650604
  49.3291825  74.5557309  41.9010791  49.2145340  73.6542566  42.2017890
  48.4736343  74.8021005  41.5495608  56.4083663  82.4975049  43.4998292
  55.9647517  81.7111428  43.1819196  57.0700876  82.6854199  42.8342183
  51.1670784  84.0270851  38.0258970  51.7178209  83.8987914  37.2535964
  50.3282260  84.3265740  37.6753863  58.5064901  82.7777849  41.5279693
  58.4883376  83.5986730  41.0359962  59.4284821  82.6531924  41.7529834
  54.9637955  80.2921978  42.3703201  55.4966292  79.5310267  42.1402509
  54.4352036  79.9995630  43.1127356  46.1993501  77.7215575  30.7185445
  47.0368723  78.1312583  30.5019153  46.3771768  76.7815017  30.6885639
  58.0957933  75.3890655  26.4069278  57.5804556  76.1595260  26.6457666
  57.8235241  74.7155792  27.0302340  55.6805044  70.2340356  31.4654517
  54.8246640  69.8447207  31.2860155  56.0931995  70.3132317  30.6054302
  57.2104190  67.7686699  35.8646076  56.7068986  67.7316835  35.0513882
  57.5034797  68.6779442  35.9242733  53.4547076  67.8525429  34.8712258
  54.3200073  67.6568238  34.5118148  53.5224585  67.6235781  35.7981615
  63.0692207  78.1423010  28.3422452  62.2921650  77.8034170  27.8977614
  63.7483688  78.1475633  27.6677417  57.8844236  73.2617748  28.2329059
  57.5794371  73.5763897  29.0839203  58.8374678  73.3399167  28.2756392
  56.3290668  79.4207971  29.8822013  55.8012029  78.6860730  29.5695251
  55.8278170  80.1982647  29.6361982  61.3083514  77.6156991  34.9989060
  60.6507188  78.3056253  35.0869188  62.1123913  78.0053423  35.3423046
  51.0609395  70.0827637  32.2428625  51.6353147  69.8602819  31.5101818
  51.6480378  70.1516332  32.9957226  60.1188972  75.9701364  33.0493001
  60.6320854  76.6031356  33.5514711  60.7690196  75.3702560  32.6836361
  51.3878982  72.1132098  26.2624510  50.5516295  72.4506785  26.5833785
  51.2483752  71.9781078  25.3251647  53.3632063  66.9568886  30.9703694
  52.7096475  66.6417903  30.3460309  53.3212537  66.3344626  31.6963517
  54.4743268  77.2388181  22.8856986  53.5670330  77.0077435  23.0848135
  54.9714300  76.4425800  23.0730968  57.3811347  85.9485688  25.8053673
  56.7073045  86.2517385  26.4138630  57.7677169  86.7514769  25.4559130
  56.5969803  73.4450820  35.2951342  55.6792365  73.6665767  35.1373030
  57.0129947  73.5197130  34.4363049  57.3804851  74.8442235  30.4254022
  58.1276670  75.3563632  30.1161144  57.6496441  74.5226288  31.2858416
  55.6531501  77.3400776  27.4080977  54.7442721  77.0559809  27.5053446
  55.6826585  77.7599855  26.5484283  60.8850769  80.9507365  31.1772144
  60.4313096  80.1098275  31.2337335  60.2544735  81.5868764  31.5146924
  59.3283708  82.7883862  32.1121962  59.6206682  83.3488919  31.3934328
  59.8382329  83.0812423  32.8675121  46.2219672  75.0606290  31.3896179
  46.0244071  74.4675651  30.6647245  45.6666336  74.7558500  32.1072118
  54.2016395  74.9529397  33.5090772  54.2565005  74.0003233  33.4333248
  53.3907597  75.1088836  33.9932070  55.3507589  78.8809520  24.7469055
  54.9127019  78.1645379  24.2874692  56.0918030  79.1085634  24.1854146
  52.1408755  73.5706456  31.2681151  51.3276621  73.8700627  31.6746343
  52.6367749  73.1762145  31.9855633  54.2917333  83.5664213  33.2015415
  54.2493512  83.7925060  32.2723947  55.2080032  83.3327588  33.3501217
  57.7382967  74.0348281  40.0996045  58.0932355  74.2619754  40.9590510
  58.3855098  74.3666658  39.4773300  63.4680704  77.1566717  30.8045374
  63.3298602  77.3468313  29.8766563  63.1116923  77.9186099  31.2613425
  51.6322830  71.1424812  36.8842386  52.2722209  71.0013571  36.1865349
  50.8000361  70.8559325  36.5080988  63.4950083  79.2243244  35.8156645
  63.9286590  79.1318533  36.6639699  64.2081664  79.2000744  35.1776661
  52.4083134  80.4427242  32.9977378  53.2023732  79.9477562  32.7959953
  51.6974826  79.9145105  32.6345084  57.2277978  82.8245338  37.3489746
  57.2815001  83.3936274  38.1167462  56.3592760  82.9947223  36.9843783
  48.7165897  74.5870324  29.0737131  47.7863485  74.5254779  29.2907093
  48.8123369  74.0646277  28.2773772  48.6351446  71.1125137  31.6615372
  48.8958264  72.0270470  31.5524533  49.4568619  70.6449579  31.8111985
  50.1076372  72.5262894  38.8314197  50.7799425  72.3180256  38.1826846
  49.2806158  72.3284980  38.3919429  64.3565633  79.2666944  38.3489531
  64.5501523  80.1712755  38.5948805  64.2566251  78.8074363  39.1828116
  56.0101944  69.1524835  40.8479858  55.3629859  69.8514785  40.7544334
  56.7802959  69.5860979  41.2156106  59.4180742  79.4173687  43.9230411
  59.2666248  79.1884239  43.0060495  59.4085421  80.3744289  43.9361756
  56.1866078  76.9905600  38.9076678  57.1158138  77.1416759  38.7345645
  55.7657108  77.0789621  38.0525324  54.9854410  81.0156264  36.6775215
  54.8465496  80.6475049  37.5501153  54.1969006  81.5303904  36.5059173
  55.5802562  86.1165361  28.0200752  55.7554318  85.6453404  28.8346374
  54.8935350  86.7431127  28.2482012  56.5359625  80.3937867  34.0664053
  56.2009458  80.3538637  34.9621703  56.0363571  79.7282583  33.5934463
  50.5103869  75.8005497  39.5916634  50.3723667  75.0685736  40.1928173
  51.4208792  75.7114397  39.3100822  59.4718817  77.7393901  24.3401113
  58.8547987  77.0140729  24.2434165  59.0035305  78.5003262  23.9968187
  53.1386170  75.5125456  39.0800314  53.8485788  74.8718648  39.0386932
  53.0955478  75.7638351  40.0026495  61.1272948  82.4492810  42.0006893
  61.0685495  81.7652030  41.3337476  61.5292467  83.1911800  41.5487519
  51.8515104  72.4990674  40.8995953  51.3152461  72.0481413  41.5517550
  51.2631812  72.6336583  40.1566418  50.1463647  89.2654723  34.7940612
  50.3860245  89.8973248  35.4719630  49.3032844  88.9142763  35.0805971
  51.2617363  71.9579326  23.4622417  50.3846829  71.8368126  23.0984664
  51.7375116  71.1665404  23.2101306  61.1290356  80.4132394  40.2320873
  60.2417134  80.0758315  40.3547272  61.6988907  79.6815425  40.4689638
  42.7819503  76.7456485  33.5563924  43.4690543  76.4318215  32.9684939
  42.6267631  77.6497850  33.2831176  47.5854225  71.6346682  37.9848948
  47.5012414  71.0272351  37.2499358  46.7636931  72.1255700  37.9858444
  54.6591509  85.0733846  37.1982116  54.5861681  85.8788817  37.7101420
  54.2168902  85.2725812  36.3730137  54.4481289  84.3105616  30.7084937
  53.6648811  84.8527296  30.8023162  55.1474034  84.8279596  31.1079179
  65.6107696  75.8240611  34.9937434  65.5997572  76.7065326  34.6231367
  64.7425076  75.4712162  34.7991971  57.1190193  84.9720680  39.3540275
  57.8318165  85.6068145  39.2816176  56.6280221  85.0684546  38.5380276
  58.8407719  78.8771933  30.9257566  57.9063998  78.9973395  30.7562271
  59.0184388  77.9744399  30.6617576  54.3412908  72.2617628  33.0790827
  53.9710695  71.7088669  33.7671733  54.8372000  71.6575762  32.5265827
  62.2280271  74.7189252  31.4607600  62.6940723  75.5517243  31.3867903
  62.6787771  74.2534233  32.1652859  52.1702106  82.7215123  40.1745845
  52.8711566  83.3551606  40.3275240  51.6997221  83.0629855  39.4141485
  60.2956502  81.0633073  28.4593752  60.5716346  80.9489668  29.3687626
  59.4261001  80.6650558  28.4205926  59.9703392  75.2759731  37.9998396
  59.3174842  75.5235638  37.3450849  60.3483772  74.4623869  37.6660873
  56.9310566  85.3119424  32.1026566  57.1132960  84.4941080  32.5654318
  57.7543552  85.5287116  31.6651456  57.2652731  84.2387609  29.3641615
  57.7940498  83.7280064  28.7511777  57.5280951  83.9230139  30.2287148
  56.0190965  76.0179542  44.4864433  55.3431602  75.9173671  45.1566808
  56.8418599  75.8618756  44.9500430  47.7669824  82.2551478  37.1076948
  48.3523261  81.5095166  37.2404852  47.5694663  82.5655435  37.9913612
  50.6208479  85.2902726  32.1239390  49.9518855  85.7748853  31.6403431
  50.4821349  85.5371946  33.0382769  42.3587479  74.8257079  35.8281391
  42.3971578  74.2920669  36.6218509  41.8527772  74.2992284  35.2092368
  54.7613748  87.3246469  38.7222049  55.3132056  87.4878091  39.4871134
  55.1019941  87.9150907  38.0502074  49.7378241  69.6721619  39.3243934
  49.8019568  70.5336450  38.9121331  49.6745361  69.0595621  38.5916292
  49.2130514  71.7444752  42.9716968  49.8402553  71.3621829  43.5854492
  48.3558433  71.5258954  43.3372660  59.6124622  82.1507727  44.5770703
  60.1564526  82.7637685  44.0825658  59.0311467  82.7087305  45.0937716
  45.9896056  73.5521181  28.9035323  46.2849498  72.6431859  28.8502376
  45.0884092  73.5308920  28.5816325  57.8982135  85.2728445  35.7085731
  57.7733275  84.4718185  35.1996676  58.5561226  85.7674638  35.2199701
  49.5190303  71.6277177  34.8862871  48.7976889  72.2413145  34.7470345
  50.3083559  72.1634942  34.8079517  59.9617044  83.0737465  37.3365281
  59.0147379  82.9542816  37.2643608  60.3099817  82.1859963  37.4191543
  52.3216617  68.9631604  41.1603523  52.8451019  69.2093900  41.9229832
  52.1028950  69.7951639  40.7406660  47.7183898  71.2335278  29.0274648
  47.3896604  70.3532657  28.8449754  48.0723269  71.1782947  29.9151037
  56.9663477  82.8690181  33.5369633  56.8188439  81.9406889  33.7177203
  57.7916970  82.8910272  33.0526709  50.8325721  71.5208248  29.3950125
  51.1721794  72.0494170  28.6728734  51.2797842  71.8588654  30.1708692
  60.5697599  83.6918740  34.6234506  61.4944146  83.4861601  34.4858957
  60.4012902  83.4435141  35.5323848  53.5269162  69.9045299  38.8453194
  53.1865982  69.1053112  39.2473873  52.8208168  70.2047010  38.2730027
  54.1785634  66.9894611  37.2980517  55.0011703  66.5155090  37.1759407
  54.4223697  67.7685095  37.7979203  52.8193868  70.0182870  27.5943418
  53.5402231  70.3964123  27.0907135  52.1959172  70.7371747  27.6978396
  56.9624991  70.7228019  28.5301751  57.1788606  71.6052657  28.2290579
  56.4819058  70.3314232  27.8007393  51.7024213  73.6813732  35.1072495
  51.5568793  73.9954035  35.9996777  51.2249416  74.2998632  34.5543394
  53.5620595  70.6716280  35.1553385  53.5482164  69.7757373  34.8185683
  54.2793024  70.6786944  35.7891671  55.4146726  71.1053620  37.2006512
  55.1564504  72.0270691  37.1990843  54.8831767  70.7084055  37.8906976
  60.3592915  84.2104407  29.9796598  60.5329792  83.6450830  29.2270450
  60.8521806  85.0105302  29.7976087  46.1769875  76.2219076  38.0460156
  45.6323343  76.9978884  38.1780431  47.0549225  76.5689881  37.8879278
  52.9657491  69.5530660  30.4240955  53.0873403  68.6247307  30.6231842
  52.6759534  69.5669346  29.5119270  55.8348682  67.2385571  33.5607675
  55.8570379  67.3024904  32.6059654  56.2516741  66.3990079  33.7548181
  66.2132306  76.9740830  31.5986897  66.6563452  76.2248156  31.2006021
  65.3358816  76.9650967  31.2160629  61.3468087  83.5271172  27.0793496
  62.0418992  84.1477864  27.2980810  61.6891238  82.6766523  27.3545874
  46.9635897  75.3488973  40.9390313  46.2217633  75.4971608  41.5254944
  46.6428641  75.6097238  40.0757063  63.2459511  80.9770877  28.6080827
  63.7710835  81.3158150  27.8830147  63.1581863  80.0417893  28.4243961
  54.9079559  84.8904951  40.7370703  55.2166686  84.6454098  41.6093403
  55.7055041  85.0951589  40.2489573  54.9300171  87.0442861  32.9676080
  54.4905162  86.5519239  33.6608936  55.6808288  86.5015828  32.7268155
  47.4092510  83.2354401  32.9700708  48.2350530  82.9358173  32.5899351
  47.0586562  82.4662024  33.4190496  52.3774043  82.5880870  35.0398381
  51.7554053  81.9251575  34.7400609  53.0478910  82.6142002  34.3572029
  45.6101115  81.1540728  33.9289641  44.7733024  80.7262902  33.7473643
  45.5824761  81.3473171  34.8660433  52.4498571  71.0662658  44.6330887
  52.4986726  71.9424781  44.2508657  52.9921085  70.5240051  44.0602531
  62.9353417  81.6103781  43.9132025  62.1448960  81.5927920  43.3736524
  62.6986771  82.1492075  44.6681061  63.0551292  78.4596247  41.2264753
  63.1049297  78.2946255  42.1680276  62.9465215  77.5923506  40.8362634
  51.9387550  81.1384793  28.5156842  52.0875671  81.8220257  27.8623515
  52.7453994  81.1189883  29.0306298  60.3455054  74.4427175  42.5424060
  61.2464917  74.3033640  42.2508058  60.4203029  74.6081630  43.4822237
  54.6797859  71.8194030  41.3877246  53.8101169  72.1127596  41.1159835
  54.9157340  72.4034475  42.1084510  64.5569489  80.8793189  41.4706775
  64.2654297  81.2423169  42.3070236  63.9441620  80.1660197  41.2920107
  65.7565171  78.4446069  33.9909345  66.5912062  78.8835873  34.1546905
  65.8924300  77.9684722  33.1717591  62.8056677  76.0025803  39.9386833
  63.2810798  76.1953450  39.1305684  61.8822242  76.0584989  39.6930216
  49.6940183  77.1649971  29.5217911  49.4486225  76.2612301  29.7198121
  49.8636098  77.1667121  28.5797389  48.9635831  72.8978328  27.0204072
  48.2705076  72.9722683  26.3644108  48.7187583  72.1338672  27.5425589
  55.4382956  83.6332923  25.9868589  54.8656923  84.2523111  25.5339061
  56.0115750  84.1832285  26.5208511  58.6580216  83.9170074  27.1177172
  59.5910889  83.8515635  27.3210047  58.5703429  84.7526340  26.6591704
  61.2868232  83.2335944  24.0781119  61.2081864  82.8995808  24.9716877
  62.1077899  83.7257712  24.0772592  63.9846424  76.0997683  37.2857438
  63.9522744  75.1613684  37.4717122  64.5947047  76.1781720  36.5523263
  55.8229754  74.9693736  23.3284642  56.7688859  74.8399944  23.3973060
  55.4443999  74.2308398  23.8054070  69.8022973  77.1613690  36.4263475
  70.5326362  76.8998978  36.9871178  69.1929919  76.4242412  36.4665543
  55.7068447  79.0211482  44.7885299  56.6271456  79.1990081  44.9825345
  55.6718030  78.0767528  44.6364998  54.0072672  72.8943713  23.2639527
  53.1004127  72.5976825  23.3402241  54.2848653  72.5973531  22.3973813
  44.9250612  74.2150076  33.7138573  44.6053396  73.3615384  33.4212947
  44.3784040  74.4298654  34.4696541  48.7030519  76.9312517  37.4308080
  48.9216529  77.8629625  37.4496114  49.1156293  76.5720491  38.2162884
  55.6234737  67.4380602  29.4183768  54.8135466  67.0927687  29.7939014
  56.3119154  67.1288146  30.0071380  53.5758385  72.5045723  46.8210829
  53.4755112  73.4540080  46.7522920  53.3579927  72.1763962  45.9486899
  52.7771456  69.7530648  23.4051506  53.6390620  70.0785546  23.6647324
  52.9621800  68.9662144  22.8924572  44.7938872  77.8352988  35.6831695
  44.1002343  77.4206940  35.1701649  45.5411863  77.8773524  35.0865114
  53.4389655  75.9342862  45.6375891  52.9556737  76.7343222  45.8439780
  53.5250594  75.9450806  44.6843335  46.7075614  77.7671241  33.5597710
  46.6846303  77.8658929  32.6079593  47.0176251  78.6136392  33.8814876
  49.3662992  79.8247396  37.6744324  50.3206246  79.7931339  37.6074256
  49.1675516  79.3638020  38.4894550  49.9562374  78.3948512  40.2415122
  50.7755263  78.8892591  40.2649959  50.2299182  77.4780481  40.2132690
  47.7213221  85.3667016  34.6914522  47.5867689  84.6067417  34.1252520
  47.3045283  86.0907916  34.2243311  58.8572184  80.5503939  23.6991098
  59.5608034  80.7553942  24.3148753  58.1334833  81.1180701  23.9640181
  59.6869994  76.3013801  29.8193368  59.6305196  76.7582352  28.9801000
  60.2398337  75.5404485  29.6416210  50.8782347  86.2636333  34.9032965
  50.7614731  87.2081765  34.8011655  50.0574793  85.9609894  35.2918764
  60.7658882  80.9886469  25.7489558  61.6004485  80.5567667  25.5667032
  60.6043224  80.8168482  26.6766452  60.4204774  77.4918582  27.1145897
  60.3653578  77.3262853  26.1734341  59.7950829  78.1994615  27.2708087
  45.2097289  72.7286646  40.9407319  45.8556152  72.2185600  41.4294544
  45.0014440  73.4655328  41.5150744  57.7350681  79.7967494  46.4399460
  58.6041841  79.9708146  46.0786095  57.2557432  80.6161911  46.3175189
  53.7300899  66.9926691  26.6931215  53.7179569  67.9368531  26.8499486
  54.6224321  66.8096836  26.3990676  51.9036861  86.9164595  38.1188893
  52.8064108  86.9488205  38.4355388  51.6774231  85.9865046  38.1335229
  53.6590463  85.6695581  34.7798972  52.7086094  85.6697443  34.6663344
  53.9622949  84.9228316  34.2635007  49.5494780  69.8754263  45.0382333
  50.4126241  69.5191068  45.2485658  48.9760190  69.5368158  45.7257738
  69.3943157  91.5056120  35.8444734  70.0321567  91.3862867  35.1408074
  69.2764000  92.4536964  35.9032686  66.2032863  91.4583548  35.7806259
  65.8651374  91.3424612  34.8926794  67.0722631  91.0574713  35.7607265
  62.0619679  93.3119024  31.7703150  61.4984544  93.2208961  31.0019438
  61.9472074  92.4918929  32.2505643  66.6852646  92.6118399  41.7392465
  66.6741287  92.2171198  40.8672968  66.8473285  91.8784472  42.3326236
  59.6084111  94.8070216  34.6087370  60.4005402  94.4661040  34.1933670
  59.8480761  94.9165191  35.5289524  67.6419237  96.9789992  27.0817615
  66.9907217  97.5644072  26.6951629  68.4363600  97.5096187  27.1412652
  61.5674864  94.0679129  27.4804749  62.3405740  93.5208116  27.3417625
  61.9200263  94.9323378  27.6919211  63.4059907  95.3955511  40.6871649
  63.1149773  96.3001142  40.5718315  64.0416891  95.4372039  41.4015718
  64.3316114  92.7732360  37.2773008  64.9279686  92.5488382  36.5629971
  64.3891085  92.0317105  37.8798456  63.9041142  90.2271795  25.1123199
  64.1566663  89.7053316  24.3506662  62.9665701  90.0637941  25.2149883
  68.9484425  89.2307574  32.9197942  69.7347514  88.8126997  32.5688359
  69.2123129  90.1353666  33.0879591  69.1194502  94.6680424  27.6186599
  68.4840335  94.7415050  28.3307504  68.7891909  95.2574023  26.9405678
  74.3492852  89.1682807  33.8230921  75.0818024  88.5982024  34.0568750
  73.5932208  88.7804407  34.2637426  63.6237431  92.1299901  27.3147574
  63.5073689  91.4544804  27.9828658  63.7339691  91.6432275  26.4979727
  65.9668972  91.5910048  31.0194263  65.6027179  91.0640669  31.7307185
  66.8236088  91.2008517  30.8460749  71.8718273  82.8804381  38.2825529
  71.5401597  83.7499792  38.0586744  71.2763886  82.5640665  38.9619560
  65.6074459  86.6199948  26.0155612  65.7748861  87.4880184  26.3826083
  65.4171628  86.7827230  25.0916901  68.3649792  95.0816927  37.6821442
  68.0650515  95.9841966  37.5737249  68.0200852  94.8149110  38.5342595
  61.8162274  91.5330724  33.7158147  60.8912770  91.4006938  33.9235838
  62.0646687  92.3124943  34.2128089  71.7646936  87.5999467  35.3618880
  70.8563813  87.5314875  35.0677641  71.7134532  88.0771412  36.1900705
  65.5863680  89.0757605  27.0002279  65.4663305  89.5214656  27.8387759
  64.8916268  89.4242923  26.4415817  59.1771085  91.1763997  34.5501936
  59.3063466  91.4298476  35.4641347  58.4968536  91.7691705  34.2306591
  63.3470572 101.8461247  30.6492410  63.2694602 102.7969072  30.7280890
  62.7432216 101.5007120  31.3067336  65.8387802  89.0189113  43.3053777
  65.0621136  89.5783033  43.2956641  66.4778365  89.5045896  43.8268647
  73.6308582  85.8015905  37.1396753  72.9882963  86.0948439  36.4936548
  73.1263511  85.6868826  37.9449950  71.2848746  89.5479079  27.8282613
  72.1966602  89.7806465  27.6530310  70.7758393  90.1316123  27.2657691
  64.0934174  91.8274566  42.8671744  64.8348858  92.3659610  42.5906567
  63.3871159  92.4540855  43.0243296  69.5689514  93.9703706  41.4643905
  69.9772870  93.5286117  40.7198538  68.8466775  93.3956334  41.7178098
  65.9220584  88.9076313  38.8377462  66.7681779  89.3315727  38.9812111
  65.8619221  88.2509937  39.5316025  69.8918328  94.5304897  35.2196194
  69.2627191  94.6950611  34.5172262  69.5043990  94.9446507  35.9907158
  73.7707560  95.4659335  32.5740558  73.0858598  95.8458236  32.0237591
  73.8551410  96.0754662  33.3072506  69.0720029  86.5680682  40.4958636
  68.8280961  87.3222742  39.9592912  69.3479960  86.9466029  41.3305883
  71.0258492  93.1119294  39.1735901  71.2375387  93.7551054  38.4970283
  70.9788240  92.2781610  38.7057832  68.6284721  85.7237115  36.0772474
  67.7669200  86.0218368  36.3689211  68.6547155  85.9407513  35.1453506
  65.4446290  94.2679305  32.4846279  65.9084636  94.5467008  31.6950902
  65.1803088  93.3662750  32.3019370  62.3370371  93.8150787  35.4226043
  62.9071728  94.2438055  34.7843527  62.9278483  93.5333371  36.1210228
  64.3815176  90.3902457  29.2935844  65.0839220  90.8423501  29.7609771
  64.0495805  89.7486276  29.9215738  62.8295538  88.9814214  43.6687054
  62.1994198  89.6630495  43.9022451  62.7231626  88.8697296  42.7240192
  58.1240510  88.6486010  34.5952978  57.3339564  88.9043539  34.1193089
  58.6151758  89.4634348  34.7005019  72.1404320  95.9891249  37.3458259
  72.9621763  95.5871437  37.0640940  72.1366723  95.8859483  38.2974375
  60.0755256  89.0130589  31.5536455  59.2786419  89.1249284  32.0719950
  59.8480848  89.3517242  30.6877345  65.9060923  95.5375293  39.5018969
  65.9705356  95.9995700  40.3377141  65.1971847  94.9072658  39.6301279
  56.4078213  88.9016501  37.0267969  56.6586252  89.7863511  37.2925545
  56.9437762  88.7221102  36.2543061  80.2310313  92.3329998  33.6943230
  79.4774021  91.7637396  33.5387235  80.3657854  92.2992662  34.6413865
  65.6208941  97.2043400  29.3697950  65.4854616  98.0494936  29.7982797
  66.1618753  97.4062678  28.6063883  62.1076280  83.2834980  46.0312305
  61.7143226  82.7301179  46.7059949  62.9242421  83.5945558  46.4218822
  59.0738338  94.7218838  29.9425875  59.5862859  95.5162088  30.0931439
  59.7261051  94.0245129  29.8759476  60.8833223  97.8384594  32.0248628
  61.0599851  98.7602559  31.8369612  61.6790056  97.5243014  32.4543008
  65.0244241  84.6992859  43.6232561  65.7653955  85.3000012  43.5437024
  65.2562164  83.9570497  43.0650604  60.1685579  89.8849226  41.9010791
  60.0539095  88.9834484  42.2017890  59.3130097  90.1312923  41.5495608
  67.2477417  97.8266967  43.4998292  66.8041271  97.0403345  43.1819196
  67.9094631  98.0146117  42.8342183  62.0064538  99.3562768  38.0258970
  62.5571964  99.2279832  37.2535964  61.1676014  99.6557657  37.6753863
  69.3458655  98.1069767  41.5279693  69.3277131  98.9278648  41.0359962
  70.2678575  97.9823842  41.7529834  65.8031709  95.6213896  42.3703201
  66.3360046  94.8602184  42.1402509  65.2745791  95.3287548  43.1127356
  68.9701404  80.7273962  37.8996843  68.6265674  81.6175604  37.8235954
  69.3380367  80.5375620  37.0366428  57.0387255  93.0507492  30.7185445
  57.8762477  93.4604501  30.5019153  57.2165523  92.1106935  30.6885639
  68.9351687  90.7182573  26.4069278  68.4198311  91.4887178  26.6457666
  68.6628996  90.0447709  27.0302340  66.5198798  85.5632274  31.4654517
  65.6640395  85.1739124  31.2860155  66.9325750  85.6424235  30.6054302
  68.0497945  83.0978617  35.8646076  67.5462740  83.0608752  35.0513882
  68.3428552  84.0071360  35.9242733  64.2940831  83.1817347  34.8712258
  65.1593827  82.9860156  34.5118148  64.3618340  82.9527699  35.7981615
  73.9085961  93.4714928  28.3422452  73.1315404  93.1326087  27.8977614
  74.5877442  93.4767551  27.6677417  68.7237990  88.5909665  28.2329059
  68.4188126  88.9055814  29.0839203  69.6768432  88.6691085  28.2756392
  67.1684422  94.7499889  29.8822013  66.6405784  94.0152648  29.5695251
  66.6671925  95.5274565  29.6361982  72.1477268  92.9448909  34.9989060
  71.4900943  93.6348170  35.0869188  72.9517667  93.3345341  35.3423046
  61.9003150  85.4119555  32.2428625  62.4746902  85.1894736  31.5101818
  62.4874132  85.4808249  32.9957226  70.9582727  91.2993282  33.0493001
  71.4714609  91.9323274  33.5514711  71.6083951  90.6994477  32.6836361
  62.2272737  87.4424016  26.2624510  61.3910049  87.7798702  26.5833785
  62.0877507  87.3072996  25.3251647  64.2025817  82.2860804  30.9703694
  63.5490230  81.9709821  30.3460309  64.1606292  81.6636544  31.6963517
  65.3137022  92.5680099  22.8856986  64.4064084  92.3369352  23.0848135
  65.8108054  91.7717718  23.0730968  68.2205101 101.2777606  25.8053673
  67.5466800 101.5809303  26.4138630  68.6070923 102.0806686  25.4559130
  67.4363558  88.7742737  35.2951342  66.5186119  88.9957684  35.1373030
  67.8523701  88.8489048  34.4363049  68.2198606  90.1734153  30.4254022
  68.9670425  90.6855550  30.1161144  68.4890195  89.8518206  31.2858416
  66.4925256  92.6692694  27.4080977  65.5836475  92.3851726  27.5053446
  66.5220340  93.0891772  26.5484283  71.7244523  96.2799283  31.1772144
  71.2706850  95.4390193  31.2337335  71.0938490  96.9160682  31.5146924
  70.6677443  87.2091269  32.4072812  69.9300200  86.6968655  32.7383054
  70.9204216  86.7691651  31.5956088  70.1677462  98.1175780  32.1121962
  70.4600437  98.6780837  31.3934328  70.6776083  98.4104341  32.8675121
  70.7689070  79.9867521  33.0014581  71.0747947  79.1264885  32.7140496
  71.4941675  80.5785141  32.8013575  57.0613426  90.3898208  31.3896179
  56.8637826  89.7967568  30.6647245  56.5060090  90.0850418  32.1072118
  65.0410150  90.2821314  33.5090772  65.0958760  89.3295151  33.4333248
  64.2301352  90.4380753  33.9932070  66.1901344  94.2101437  24.7469055
  65.7520774  93.4937296  24.2874692  66.9311784  94.4377552  24.1854146
  62.9802510  88.8998374  31.2681151  62.1670375  89.1992545  31.6746343
  63.4761504  88.5054063  31.9855633  65.1311088  98.8956131  33.2015415
  65.0887266  99.1216977  32.2723947  66.0473786  98.6619506  33.3501217
  68.5776721  89.3640198  40.0996045  68.9326109  89.5911672  40.9590510
  69.2248853  89.6958575  39.4773300  74.3074458  92.4858634  30.8045374
  74.1692357  92.6760230  29.8766563  73.9510677  93.2478017  31.2613425
  62.4716584  86.4716730  36.8842386  63.1115964  86.3305489  36.1865349
  61.6394115  86.1851243  36.5080988  74.3343838  94.5535161  35.8156645
  74.7680345  94.4610450  36.6639699  75.0475419  94.5292662  35.1776661
  63.2476888  95.7719160  32.9977378  64.0417487  95.2769480  32.7959953
  62.5368581  95.2437023  32.6345084  68.0671733  98.1537255  37.3489746
  68.1208755  98.7228192  38.1167462  67.1986514  98.3239141  36.9843783
  59.5559652  89.9162242  29.0737131  58.6257240  89.8546697  29.2907093
  59.6517124  89.3938194  28.2773772  59.4745201  86.4417055  31.6615372
  59.7352018  87.3562388  31.5524533  60.2962373  85.9741497  31.8111985
  60.9470126  87.8554812  38.8314197  61.6193180  87.6472174  38.1826846
  60.1199913  87.6576898  38.3919429  75.1959388  94.5958862  38.3489531
  75.3895278  95.5004673  38.5948805  75.0960006  94.1366281  39.1828116
  66.8495698  84.4816753  40.8479858  66.2023613  85.1806702  40.7544334
  67.6196714  84.9152897  41.2156106  70.2574496  94.7465605  43.9230411
  70.1060003  94.5176156  43.0060495  70.2479176  95.7036206  43.9361756
  67.0259833  92.3197518  38.9076678  67.9551893  92.4708677  38.7345645
  66.6050863  92.4081538  38.0525324  65.8248164  96.3448182  36.6775215
  65.6859250  95.9766966  37.5501153  65.0362761  96.8595821  36.5059173
  66.4196316 101.4457278  28.0200752  66.5948072 100.9745322  28.8346374
  65.7329104 102.0723045  28.2482012  67.3753380  95.7229785  34.0664053
  67.0403212  95.6830555  34.9621703  66.8757325  95.0574501  33.5934463
  61.3497624  91.1297415  39.5916634  61.2117421  90.3977653  40.1928173
  62.2602547  91.0406315  39.3100822  70.3112571  93.0685819  24.3401113
  69.6941742  92.3432647  24.2434165  69.8429060  93.8295179  23.9968187
  63.9779924  90.8417374  39.0800314  64.6879543  90.2010566  39.0386932
  63.9349232  91.0930269  40.0026495  71.9666703  97.7784727  42.0006893
  71.9079249  97.0943947  41.3337476  72.3686221  98.5203717  41.5487519
  62.6908858  87.8282592  40.8995953  62.1546215  87.3773330  41.5517550
  62.1025567  87.9628501  40.1566418  60.9857402 104.5946641  34.7940612
  61.2254000 105.2265165  35.4719630  60.1426598 104.2434681  35.0805971
  62.1011117  87.2871243  23.4622417  61.2240583  87.1660044  23.0984664
  62.5768870  86.4957322  23.2101306  71.9684110  95.7424311  40.2320873
  71.0810889  95.4050233  40.3547272  72.5382661  95.0107342  40.4689638
  53.6213257  92.0748403  33.5563924  54.3084297  91.7610133  32.9684939
  53.4661386  92.9789768  33.2831176  58.4247979  86.9638600  37.9848948
  58.3406168  86.3564269  37.2499358  57.6030686  87.4547618  37.9858444
  65.4985264 100.4025764  37.1982116  65.4255435 101.2080735  37.7101420
  65.0562657 100.6017729  36.3730137  65.2875043  99.6397534  30.7084937
  64.5042565 100.1819214  30.8023162  65.9867788 100.1571513  31.1079179
  68.5971693  85.4492163  33.3519143  69.0940393  84.6962125  33.0320213
  67.8258675  85.4856480  32.7862352  76.4501451  91.1532529  34.9937434
  76.4391327  92.0357244  34.6231367  75.5818830  90.8004079  34.7991971
  67.9583947 100.3012598  39.3540275  68.6711919 100.9360062  39.2816176
  67.4673976 100.3976464  38.5380276  69.6801474  94.2063850  30.9257566
  68.7457753  94.3265313  30.7562271  69.8578142  93.3036317  30.6617576
  65.1806662  87.5909546  33.0790827  64.8104450  87.0380586  33.7671733
  65.6765754  86.9867680  32.5265827  73.0674025  90.0481170  31.4607600
  73.5334477  90.8809161  31.3867903  73.5181526  89.5826151  32.1652859
  63.0095861  98.0507041  40.1745845  63.7105320  98.6843524  40.3275240
  62.5390976  98.3921773  39.4141485  71.1350256  96.3924991  28.4593752
  71.4110100  96.2781585  29.3687626  70.2654755  95.9942476  28.4205926
  71.0390688  82.4161757  35.4998502  70.1253768  82.6465983  35.6680709
  71.4683789  82.5000201  36.3512534  70.8097147  90.6051649  37.9998396
  70.1568597  90.8527556  37.3450849  71.1877526  89.7915787  37.6660873
  67.7704320 100.6411342  32.1026566  67.9526715  99.8232998  32.5654318
  68.5937306 100.8579034  31.6651456  68.1046486  99.5679527  29.3641615
  68.6334252  99.0571981  28.7511777  68.3674705  99.2522057  30.2287148
  66.8584720  91.3471460  44.4864433  66.1825357  91.2465589  45.1566808
  67.6812353  91.1910673  44.9500430  58.6063579  97.5843396  37.1076948
  59.1917015  96.8387084  37.2404852  58.4088417  97.8947353  37.9913612
  61.4602234 100.6194644  32.1239390  60.7912609 101.1040771  31.6403431
  61.3215104 100.8663864  33.0382769  53.1981233  90.1548996  35.8281391
  53.2365333  89.6212587  36.6218509  52.6921526  89.6284202  35.2092368
  65.6007502 102.6538387  38.7222049  66.1525810 102.8170009  39.4871134
  65.9413696 103.2442825  38.0502074  60.5771996  85.0013537  39.3243934
  60.6413322  85.8628368  38.9121331  60.5139116  84.3887539  38.5916292
  60.0524268  87.0736669  42.9716968  60.6796307  86.6913747  43.5854492
  59.1952187  86.8550871  43.3372660  70.4518377  97.4799645  44.5770703
  70.9958281  98.0929603  44.0825658  69.8705222  98.0379223  45.0937716
  56.8289811  88.8813099  28.9035323  57.1243252  87.9723777  28.8502376
  55.9277847  88.8600838  28.5816325  68.7375890 100.6020363  35.7085731
  68.6127029  99.8010102  35.1996676  69.3954981 101.0966556  35.2199701
  60.3584058  86.9569095  34.8862871  59.6370644  87.5705063  34.7470345
  61.1477314  87.4926860  34.8079517  70.8010798  98.4029383  37.3365281
  69.8541134  98.2834734  37.2643608  71.1493571  97.5151881  37.4191543
  63.1610371  84.2923522  41.1603523  63.6844773  84.5385818  41.9229832
  62.9422705  85.1243556  40.7406660  58.5577653  86.5627196  29.0274648
  58.2290359  85.6824575  28.8449754  58.9117023  86.5074865  29.9151037
  67.8057231  98.1982099  33.5369633  67.6582194  97.2698806  33.7177203
  68.6310725  98.2202190  33.0526709  61.6719476  86.8500166  29.3950125
  62.0115548  87.3786087  28.6728734  62.1191596  87.1880572  30.1708692
  71.4091353  99.0210658  34.6234506  72.3337901  98.8153519  34.4858957
  71.2406657  98.7727059  35.5323848  64.3662917  85.2337217  38.8453194
  64.0259737  84.4345030  39.2473873  63.6601923  85.5338928  38.2730027
  65.0179388  82.3186529  37.2980517  65.8405458  81.8447007  37.1759407
  65.2617452  83.0977013  37.7979203  63.6587623  85.3474788  27.5943418
  64.3795985  85.7256040  27.0907135  63.0352927  86.0663664  27.6978396
  67.8018746  86.0519937  28.5301751  68.0182360  86.9344574  28.2290579
  67.3212813  85.6606150  27.8007393  62.5417967  89.0105650  35.1072495
  62.3962548  89.3245953  35.9996777  62.0643171  89.6290550  34.5543394
  64.4014350  86.0008198  35.1553385  64.3875919  85.1049291  34.8185683
  65.1186778  86.0078861  35.7891671  66.2540481  86.4345538  37.2006512
  65.9958259  87.3562609  37.1990843  65.7225521  86.0375972  37.8906976
  71.1986669  99.5396325  29.9796598  71.3723547  98.9742748  29.2270450
  71.6915561 100.3397220  29.7976087  57.0163629  91.5510994  38.0460156
  56.4717097  92.3270802  38.1780431  57.8942979  91.8981799  37.8879278
  63.8051246  84.8822578  30.4240955  63.9267157  83.9539224  30.6231842
  63.5153288  84.8961264  29.5119270  66.6742436  82.5677488  33.5607675
  66.6964133  82.6316822  32.6059654  67.0910495  81.7281997  33.7548181
  77.0526061  92.3032748  31.5986897  77.4957207  91.5540073  31.2006021
  76.1752571  92.2942884  31.2160629  72.1861842  98.8563089  27.0793496
  72.8812747  99.4769782  27.2980810  72.5284992  98.0058441  27.3545874
  57.8029651  90.6780890  40.9390313  57.0611387  90.8263526  41.5254944
  57.4822395  90.9389156  40.0757063  74.0853265  96.3062795  28.6080827
  74.6104589  96.6450068  27.8830147  73.9975618  95.3709810  28.4243961
  65.7473314 100.2196869  40.7370703  66.0560440  99.9746015  41.6093403
  66.5448796 100.4243507  40.2489573  65.7693926 102.3734778  32.9676080
  65.3298916 101.8811157  33.6608936  66.5202043 101.8307746  32.7268155
  58.2486265  98.5646319  32.9700708  59.0744285  98.2650091  32.5899351
  57.8980317  97.7953942  33.4190496  63.2167798  97.9172787  35.0398381
  62.5947807  97.2543492  34.7400609  63.8872665  97.9433919  34.3572029
  56.4494870  96.4832646  33.9289641  55.6126778  96.0554820  33.7473643
  56.4218515  96.6765089  34.8660433  63.2892325  86.3954575  44.6330887
  63.3380481  87.2716698  44.2508657  63.8314840  85.8531968  44.0602531
  73.7747171  96.9395699  43.9132025  72.9842715  96.9219837  43.3736524
  73.5380526  97.4783992  44.6681061  73.8945046  93.7888165  41.2264753
  73.9443051  93.6238172  42.1680276  73.7858970  92.9215424  40.8362634
  62.7781305  96.4676711  28.5156842  62.9269425  97.1512175  27.8623515
  63.5847748  96.4481801  29.0306298  71.1848809  89.7719093  42.5424060
  72.0858671  89.6325558  42.2508058  71.2596783  89.9373548  43.4822237
  65.5191614  87.1485948  41.3877246  64.6494923  87.4419514  41.1159835
  65.7551094  87.7326393  42.1084510  75.3963243  96.2085107  41.4706775
  75.1048051  96.5715087  42.3070236  74.7835374  95.4952115  41.2920107
  76.5958925  93.7737986  33.9909345  77.4305817  94.2127790  34.1546905
  76.7318054  93.2976640  33.1717591  73.6450431  91.3317721  39.9386833
  74.1204553  91.5245367  39.1305684  72.7215997  91.3876907  39.6930216
  60.5333938  92.4941888  29.5217911  60.2879980  91.5904218  29.7198121
  60.7029852  92.4959039  28.5797389  68.2230648  83.3665565  38.9042666
  68.7412592  84.1026592  38.5789155  67.8685781  83.6729558  39.7389426
  59.8029585  88.2270246  27.0204072  59.1098830  88.3014601  26.3644108
  59.5581337  87.4630590  27.5425589  68.4743242  79.7865847  34.4243563
  68.7544996  79.1189036  35.0503990  69.2593849  79.9794943  33.9118227
  66.2776710  98.9624841  25.9868589  65.7050677  99.5815028  25.5339061
  66.8509504  99.5124203  26.5208511  72.3452100  88.2083481  38.1715138
  73.2969523  88.3081579  38.1927362  72.1755551  87.4161750  38.6813223
  70.3666480  85.2939064  38.3574539  69.7716412  85.5744077  37.6621028
  70.0816176  85.7832965  39.1291280  69.4973970  99.2461991  27.1177172
  70.4304643  99.1807553  27.3210047  69.4097183 100.0818258  26.6591704
  72.1261987  98.5627862  24.0781119  72.0475618  98.2287725  24.9716877
  72.9471654  99.0549630  24.0772592  74.8240178  91.4289601  37.2857438
  74.7916498  90.4905602  37.4717122  75.4340802  91.5073638  36.5523263
  66.6623509  90.2985654  23.3284642  67.6082614  90.1691862  23.3973060
  66.2837754  89.5600316  23.8054070  74.9734667  88.2200644  37.3315721
  74.4573715  87.4359101  37.1445650  75.8574615  87.8919361  37.4962240
  72.6345393  81.9641660  33.2911534  72.4370215  81.6556748  34.1754866
  73.2445099  82.6903299  33.4209464  80.6416728  92.4905608  36.4263475
  81.3720116  92.2290896  36.9871178  80.0323673  91.7534330  36.4665543
  78.7232025  90.6313470  37.0237926  77.9965189  90.4969435  36.4154417
  78.3079312  90.9390299  37.8294644  66.5462201  94.3503400  44.7885299
  67.4665211  94.5281999  44.9825345  66.5111784  93.4059445  44.6364998
  64.8466426  88.2235630  23.2639527  63.9397881  87.9268743  23.3402241
  65.1242407  87.9265448  22.3973813  55.7644366  89.5441994  33.7138573
  55.4447151  88.6907302  33.4212947  55.2177795  89.7590572  34.4696541
  59.5424274  92.2604435  37.4308080  59.7610284  93.1921543  37.4496114
  59.9550048  91.9012409  38.2162884  66.4628492  82.7672520  29.4183768
  65.6529220  82.4219605  29.7939014  67.1512909  82.4580064  30.0071380
  68.3919040  81.8450567  31.0408065  68.9450079  82.2646020  31.6998088
  68.6289126  80.9186315  31.0831021  64.4152139  87.8337640  46.8210829
  64.3148866  88.7831997  46.7522920  64.1973681  87.5055879  45.9486899
  63.6165211  85.0822566  23.4051506  64.4784375  85.4077464  23.6647324
  63.8015555  84.2954061  22.8924572  55.6332626  93.1644905  35.6831695
  54.9396098  92.7498858  35.1701649  56.3805617  93.2065442  35.0865114
  71.7697847  83.9551092  30.5486729  71.1896516  84.6135896  30.1664782
  71.5033780  83.1328437  30.1374147  70.2201414  83.3556150  32.7508050
  70.7201192  83.4672684  31.9422368  70.8637021  83.0517203  33.3908858
  64.2783409  91.2634779  45.6375891  63.7950491  92.0635139  45.8439780
  64.3644348  91.2742724  44.6843335  57.5469369  93.0963159  33.5597710
  57.5240057  93.1950846  32.6079593  57.8570005  93.9428310  33.8814876
  60.2056747  95.1539314  37.6744324  61.1600000  95.1223256  37.6074256
  60.0069270  94.6929938  38.4894550  60.7956129  93.7240430  40.2415122
  61.6149018  94.2184509  40.2649959  61.0692937  92.8072398  40.2132690
  70.5522725  86.1151182  29.6043078  69.6648580  86.4000833  29.3863272
  70.9676714  85.9544946  28.7570354  73.9037261  86.1397703  33.3197417
  74.6797651  86.6294156  33.5922034  73.1785395  86.5655758  33.7769286
  76.3409820  86.8525323  34.3771357  76.9354311  86.6121059  33.6664666
  76.4136404  86.1332453  35.0044894  58.5606976 100.6958933  34.6914522
  58.4261444  99.9359334  34.1252520  58.1439038 101.4199833  34.2243311
  69.6965939  95.8795857  23.6991098  70.4001789  96.0845860  24.3148753
  68.9728587  96.4472619  23.9640181  70.5263749  91.6305718  29.8193368
  70.4698950  92.0874270  28.9801000  71.0792091  90.8696403  29.6416210
  74.3368555  87.4195450  30.6443487  74.0805489  87.0192086  31.4751695
  73.7121423  88.1339244  30.5193626  78.6480893  90.1591523  33.1514779
  78.0880451  90.2284713  33.9246341  78.0424396  89.9832508  32.4314275
  61.7176101 101.5928251  34.9032965  61.6008486 102.5373683  34.8011655
  60.8968548 101.2901812  35.2918764  71.6052636  96.3178386  25.7489558
  72.4398240  95.8859585  25.5667032  71.4436979  96.1460400  26.6766452
  71.2598528  92.8210500  27.1145897  71.2047332  92.6554771  26.1734341
  70.6344583  93.5286532  27.2708087  56.0491043  88.0578564  40.9407319
  56.6949907  87.5477518  41.4294544  55.8408194  88.7947246  41.5150744
  68.5744435  95.1259411  46.4399460  69.4435595  95.3000064  46.0786095
  68.0951187  95.9453828  46.3175189  64.5694654  82.3218609  26.6931215
  64.5573324  83.2660448  26.8499486  65.4618076  82.1388754  26.3990676
  62.7430616 102.2456512  38.1188893  63.6457862 102.2780123  38.4355388
  62.5167986 101.3156963  38.1335229  64.4984218 100.9987499  34.7798972
  63.5479849 100.9989361  34.6663344  64.8016704 100.2520234  34.2635007
  68.3846773  78.9161385  30.9477152  67.6179169  78.3619872  31.0933834
  68.7957478  78.9883254  31.8091304  60.3888534  85.2046181  45.0382333
  61.2519996  84.8482986  45.2485658  59.8153945  84.8660076  45.7257738
  80.2336911 106.8348037  35.8444734  80.8715321 106.7154785  35.1408074
  80.1157754 107.7828881  35.9032686  77.0426617 106.7875465  35.7806259
  76.7045129 106.6716530  34.8926794  77.9116386 106.3866631  35.7607265
  72.9013433 108.6410942  31.7703150  72.3378298 108.5500879  31.0019438
  72.7865828 107.8210846  32.2505643  77.5246400 107.9410317  41.7392465
  77.5135041 107.5463115  40.8672968  77.6867040 107.2076390  42.3326236
  70.4477865 110.1362133  34.6087370  71.2399157 109.7952958  34.1933670
  70.6874515 110.2457108  35.5289524  78.4812992 112.3081910  27.0817615
  77.8300972 112.8935990  26.6951629  79.2757355 112.8388104  27.1412652
  72.4068619 109.3971047  27.4804749  73.1799495 108.8500034  27.3417625
  72.7594018 110.2615296  27.6919211  74.2453662 110.7247429  40.6871649
  73.9543528 111.6293060  40.5718315  74.8810646 110.7663957  41.4015718
  75.1709868 108.1024277  37.2773008  75.7673441 107.8780300  36.5629971
  75.2284840 107.3609023  37.8798456  74.7434897 105.5563713  25.1123199
  74.9960417 105.0345234  24.3506662  73.8059456 105.3929858  25.2149883
  79.7878180 104.5599491  32.9197942  80.5741269 104.1418914  32.5688359
  80.0516884 105.4645583  33.0879591  79.9588257 109.9972341  27.6186599
  79.3234090 110.0706968  28.3307504  79.6285663 110.5865940  26.9405678
  85.1886607 104.4974724  33.8230921  85.9211779 103.9273941  34.0568750
  84.4325962 104.1096325  34.2637426  74.4631186 107.4591819  27.3147574
  74.3467444 106.7836722  27.9828658  74.5733445 106.9724193  26.4979727
  76.8062726 106.9201966  31.0194263  76.4420934 106.3932587  31.7307185
  77.6629842 106.5300435  30.8460749  82.7112027  98.2096298  38.2825529
  82.3795352  99.0791709  38.0586744  82.1157640  97.8932582  38.9619560
  76.4468213 101.9491866  26.0155612  76.6142616 102.8172102  26.3826083
  76.2565383 102.1119147  25.0916901  79.2043547 110.4108844  37.6821442
  78.9044270 111.3133883  37.5737249  78.8594606 110.1441028  38.5342595
  72.6556028 106.8622641  33.7158147  71.7306525 106.7298855  33.9235838
  72.9040441 107.6416861  34.2128089  82.6040690 102.9291385  35.3618880
  81.6957568 102.8606793  35.0677641  82.5528286 103.4063330  36.1900705
  76.4257434 104.4049523  27.0002279  76.3057060 104.8506574  27.8387759
  75.7310023 104.7534841  26.4415817  70.0164839 106.5055915  34.5501936
  70.1457220 106.7590394  35.4641347  69.3362290 107.0983623  34.2306591
  74.1864326 117.1753165  30.6492410  74.1088356 118.1260990  30.7280890
  73.5825970 116.8299037  31.3067336  76.6781556 104.3481030  43.3053777
  75.9014890 104.9074950  43.2956641  77.3172119 104.8337813  43.8268647
  84.4702337 101.1307823  37.1396753  83.8276717 101.4240356  36.4936548
  83.9657265 101.0160743  37.9449950  82.1242500 104.8770996  27.8282613
  83.0360357 105.1098383  27.6530310  81.6152148 105.4608040  27.2657691
  74.9327928 107.1566484  42.8671744  75.6742613 107.6951528  42.5906567
  74.2264914 107.7832772  43.0243296  80.4083268 109.2995624  41.4643905
  80.8166624 108.8578035  40.7198538  79.6860530 108.7248252  41.7178098
  76.7614338 104.2368231  38.8377462  77.6075533 104.6607644  38.9812111
  76.7012976 103.5801855  39.5316025  80.7312083 109.8596815  35.2196194
  80.1020945 110.0242529  34.5172262  80.3437745 110.2738424  35.9907158
  84.6101315 110.7951253  32.5740558  83.9252353 111.1750154  32.0237591
  84.6945164 111.4046579  33.3072506  79.9113784 101.8972599  40.4958636
  79.6674715 102.6514660  39.9592912  80.1873714 102.2757947  41.3305883
  81.8652246 108.4411212  39.1735901  82.0769142 109.0842971  38.4970283
  81.8181995 107.6073528  38.7057832  79.4678475 101.0529032  36.0772474
  78.6062954 101.3510286  36.3689211  79.4940910 101.2699431  35.1453506
  76.2840045 109.5971223  32.4846279  76.7478390 109.8758926  31.6950902
  76.0196843 108.6954667  32.3019370  73.1764126 109.1442704  35.4226043
  73.7465483 109.5729973  34.7843527  73.7672238 108.8625289  36.1210228
  75.2208931 105.7194375  29.2935844  75.9232974 106.1715419  29.7609771
  74.8889559 105.0778194  29.9215738  73.6689292 104.3106132  43.6687054
  73.0387953 104.9922413  43.9022451  73.5625380 104.1989213  42.7240192
  68.9634265 103.9777928  34.5952978  68.1733319 104.2335456  34.1193089
  69.4545512 104.7926266  34.7005019  82.9798074 111.3183167  37.3458259
  83.8015518 110.9163354  37.0640940  82.9760477 111.2151401  38.2974375
  70.9149010 104.3422507  31.5536455  70.1180173 104.4541201  32.0719950
  70.6874602 104.6809159  30.6877345  76.7454678 110.8667210  39.5018969
  76.8099110 111.3287618  40.3377141  76.0365602 110.2364575  39.6301279
  67.2471968 104.2308418  37.0267969  67.4980006 105.1155428  37.2925545
  67.7831516 104.0513020  36.2543061  91.0704067 107.6621915  33.6943230
  90.3167776 107.0929314  33.5387235  91.2051608 107.6284580  34.6413865
  76.4602695 112.5335318  29.3697950  76.3248370 113.3786854  29.7982797
  77.0012508 112.7354595  28.6063883  72.9470035  98.6126898  46.0312305
  72.5536981  98.0593096  46.7059949  73.7636175  98.9237476  46.4218822
  69.9132093 110.0510756  29.9425875  70.4256613 110.8454006  30.0931439
  70.5654806 109.3537046  29.8759476  71.7226977 113.1676512  32.0248628
  71.8993606 114.0894477  31.8369612  72.5183811 112.8534931  32.4543008
  75.8637996 100.0284777  43.6232561  76.6047709 100.6291930  43.5437024
  76.0955919  99.2862415  43.0650604  71.0079334 105.2141144  41.9010791
  70.8932849 104.3126401  42.2017890  70.1523852 105.4604841  41.5495608
  78.0871172 113.1558884  43.4998292  77.6435026 112.3695263  43.1819196
  78.7488385 113.3438035  42.8342183  72.8458293 114.6854686  38.0258970
  73.3965718 114.5571749  37.2535964  72.0069769 114.9849575  37.6753863
  80.1852410 113.4361684  41.5279693  80.1670885 114.2570565  41.0359962
  81.1072330 113.3115759  41.7529834  76.6425464 110.9505814  42.3703201
  77.1753801 110.1894102  42.1402509  76.1139545 110.6579466  43.1127356
  79.8095159  96.0565880  37.8996843  79.4659428  96.9467521  37.8235954
  80.1774122  95.8667537  37.0366428  67.8781010 108.3799410  30.7185445
  68.7156232 108.7896418  30.5019153  68.0559277 107.4398852  30.6885639
  79.7745442 106.0474491  26.4069278  79.2592065 106.8179095  26.6457666
  79.5022750 105.3739627  27.0302340  77.3592553 100.8924192  31.4654517
  76.5034149 100.5031042  31.2860155  77.7719504 100.9716152  30.6054302
  78.8891699  98.4270535  35.8646076  78.3856495  98.3900670  35.0513882
  79.1822306  99.3363278  35.9242733  75.1334585  98.5109265  34.8712258
  75.9987582  98.3152073  34.5118148  75.2012094  98.2819616  35.7981615
  84.7479716 108.8006845  28.3422452  83.9709159 108.4618005  27.8977614
  85.4271197 108.8059469  27.6677417  79.5631745 103.9201583  28.2329059
  79.2581880 104.2347732  29.0839203  80.5162187 103.9983003  28.2756392
  78.0078177 110.0791806  29.8822013  77.4799538 109.3444566  29.5695251
  77.5065679 110.8566483  29.6361982  82.9871023 108.2740827  34.9989060
  82.3294697 108.9640088  35.0869188  83.7911422 108.6637259  35.3423046
  72.7396904 100.7411472  32.2428625  73.3140656 100.5186654  31.5101818
  73.3267887 100.8100167  32.9957226  81.7976481 106.6285199  33.0493001
  82.3108363 107.2615191  33.5514711  82.4477705 106.0286395  32.6836361
  73.0666491 102.7715934  26.2624510  72.2303804 103.1090620  26.5833785
  72.9271261 102.6364913  25.3251647  75.0419572  97.6152721  30.9703694
  74.3883984  97.3001739  30.3460309  75.0000046  96.9928462  31.6963517
  76.1530777 107.8972016  22.8856986  75.2457839 107.6661270  23.0848135
  76.6501809 107.1009636  23.0730968  78.2757312 104.1034655  35.2951342
  77.3579874 104.3249602  35.1373030  78.6917456 104.1780965  34.4363049
  79.0592360 105.5026071  30.4254022  79.8064179 106.0147468  30.1161144
  79.3283950 105.1810123  31.2858416  77.3319010 107.9984611  27.4080977
  76.4230230 107.7143644  27.5053446  77.3614094 108.4183690  26.5484283
  82.5638278 111.6091201  31.1772144  82.1100605 110.7682111  31.2337335
  81.9332244 112.2452599  31.5146924  81.5071197 102.5383187  32.4072812
  80.7693954 102.0260573  32.7383054  81.7597971 102.0983568  31.5956088
  81.0071217 113.4467698  32.1121962  81.2994191 114.0072755  31.3934328
  81.5169837 113.7396259  32.8675121  81.6082825  95.3159439  33.0014581
  81.9141701  94.4556802  32.7140496  82.3335429  95.9077059  32.8013575
  67.9007181 105.7190125  31.3896179  67.7031580 105.1259486  30.6647245
  67.3453845 105.4142336  32.1072118  75.8803904 105.6113232  33.5090772
  75.9352514 104.6587068  33.4333248  75.0695106 105.7672671  33.9932070
  77.0295098 109.5393355  24.7469055  76.5914528 108.8229214  24.2874692
  77.7705539 109.7669470  24.1854146  73.8196264 104.2290292  31.2681151
  73.0064130 104.5284462  31.6746343  74.3155258 103.8345980  31.9855633
  75.9704842 114.2248049  33.2015415  75.9281021 114.4508895  32.2723947
  76.8867541 113.9911423  33.3501217  79.4170476 104.6932116  40.0996045
  79.7719864 104.9203589  40.9590510  80.0642607 105.0250493  39.4773300
  85.1468213 107.8150552  30.8045374  85.0086111 108.0052148  29.8766563
  84.7904432 108.5769935  31.2613425  73.3110339 101.8008647  36.8842386
  73.9509718 101.6597406  36.1865349  72.4787870 101.5143161  36.5080988
  85.1737592 109.8827079  35.8156645  85.6074099 109.7902368  36.6639699
  85.8869173 109.8584580  35.1776661  74.0870643 111.1011078  32.9977378
  74.8811241 110.6061398  32.7959953  73.3762335 110.5728941  32.6345084
  78.9065487 113.4829173  37.3489746  78.9602510 114.0520109  38.1167462
  78.0380269 113.6531058  36.9843783  70.3953406 105.2454159  29.0737131
  69.4650994 105.1838615  29.2907093  70.4910878 104.7230112  28.2773772
  70.3138955 101.7708972  31.6615372  70.5745773 102.6854305  31.5524533
  71.1356128 101.3033415  31.8111985  71.7863881 103.1846729  38.8314197
  72.4586934 102.9764091  38.1826846  70.9593667 102.9868815  38.3919429
  86.0353142 109.9250780  38.3489531  86.2289032 110.8296590  38.5948805
  85.9353760 109.4658199  39.1828116  77.6889453  99.8108670  40.8479858
  77.0417368 100.5098620  40.7544334  78.4590468 100.2444814  41.2156106
  81.0968251 110.0757522  43.9230411  80.9453757 109.8468074  43.0060495
  81.0872930 111.0328124  43.9361756  77.8653587 107.6489435  38.9076678
  78.7945647 107.8000595  38.7345645  77.4444617 107.7373456  38.0525324
  76.6641919 111.6740100  36.6775215  76.5253005 111.3058884  37.5501153
  75.8756515 112.1887739  36.5059173  77.2590071 116.7749196  28.0200752
  77.4341827 116.3037239  28.8346374  76.5722859 117.4014962  28.2482012
  78.2147134 111.0521702  34.0664053  77.8796967 111.0122472  34.9621703
  77.7151080 110.3866418  33.5934463  72.1891378 106.4589332  39.5916634
  72.0511176 105.7269571  40.1928173  73.0996301 106.3698232  39.3100822
  81.1506326 108.3977737  24.3401113  80.5335496 107.6724565  24.2434165
  80.6822814 109.1587097  23.9968187  74.8173679 106.1709292  39.0800314
  75.5273297 105.5302484  39.0386932  74.7742987 106.4222186  40.0026495
  82.8060457 113.1076645  42.0006893  82.7473003 112.4235865  41.3337476
  83.2079976 113.8495635  41.5487519  73.5302613 103.1574510  40.8995953
  72.9939970 102.7065248  41.5517550  72.9419321 103.2920418  40.1566418
  71.8251156 119.9238559  34.7940612  72.0647754 120.5557083  35.4719630
  70.9820353 119.5726599  35.0805971  72.9404872 102.6163161  23.4622417
  72.0634338 102.4951962  23.0984664  73.4162625 101.8249239  23.2101306
  82.8077865 111.0716229  40.2320873  81.9204643 110.7342151  40.3547272
  83.3776416 110.3399260  40.4689638  64.4607012 107.4040321  33.5563924
  65.1478052 107.0902051  32.9684939  64.3055140 108.3081685  33.2831176
  69.2641734 102.2930517  37.9848948  69.1799923 101.6856187  37.2499358
  68.4424440 102.7839536  37.9858444  76.3379018 115.7317681  37.1982116
  76.2649189 116.5372653  37.7101420  75.8956411 115.9309647  36.3730137
  76.1268798 114.9689451  30.7084937  75.3436320 115.5111131  30.8023162
  76.8261543 115.4863431  31.1079179  79.4365448 100.7784081  33.3519143
  79.9334147 100.0254043  33.0320213  78.6652429 100.8148397  32.7862352
  87.2895205 106.4824446  34.9937434  87.2785081 107.3649162  34.6231367
  86.4212585 106.1295997  34.7991971  78.7977702 115.6304515  39.3540275
  79.5105674 116.2651980  39.2816176  78.3067730 115.7268381  38.5380276
  80.5195228 109.5355768  30.9257566  79.5851507 109.6557230  30.7562271
  80.6971897 108.6328235  30.6617576  76.0200416 102.9201464  33.0790827
  75.6498204 102.3672504  33.7671733  76.5159509 102.3159597  32.5265827
  83.9067780 105.3773087  31.4607600  84.3728232 106.2101079  31.3867903
  84.3575280 104.9118069  32.1652859  73.8489615 113.3798959  40.1745845
  74.5499075 114.0135442  40.3275240  73.3784730 113.7213690  39.4141485
  81.9744011 111.7216909  28.4593752  82.2503855 111.6073503  29.3687626
  81.1048510 111.3234393  28.4205926  81.8784443  97.7453674  35.4998502
  80.9647522  97.9757901  35.6680709  82.3077544  97.8292118  36.3512534
  81.6490901 105.9343566  37.9998396  80.9962351 106.1819474  37.3450849
  82.0271281 105.1207704  37.6660873  78.6098075 115.9703259  32.1026566
  78.7920469 115.1524915  32.5654318  79.4331061 116.1870952  31.6651456
  78.9440240 114.8971445  29.3641615  79.4728007 114.3863899  28.7511777
  79.2068460 114.5813975  30.2287148  77.6978474 106.6763377  44.4864433
  77.0219111 106.5757507  45.1566808  78.5206108 106.5202591  44.9500430
  69.4457333 112.9135314  37.1076948  70.0310770 112.1679002  37.2404852
  69.2482172 113.2239271  37.9913612  72.2995988 115.9486561  32.1239390
  71.6306364 116.4332689  31.6403431  72.1608858 116.1955782  33.0382769
  64.0374988 105.4840914  35.8281391  64.0759087 104.9504505  36.6218509
  63.5315281 104.9576120  35.2092368  76.4401257 117.9830305  38.7222049
  76.9919565 118.1461926  39.4871134  76.7807450 118.5734743  38.0502074
  71.4165750 100.3305455  39.3243934  71.4807077 101.1920285  38.9121331
  71.3532870  99.7179456  38.5916292  70.8918023 102.4028587  42.9716968
  71.5190061 102.0205664  43.5854492  70.0345942 102.1842789  43.3372660
  81.2912131 112.8091562  44.5770703  81.8352035 113.4221521  44.0825658
  80.7098976 113.3671141  45.0937716  67.6683565 104.2105016  28.9035323
  67.9637007 103.3015695  28.8502376  66.7671601 104.1892756  28.5816325
  79.5769644 115.9312280  35.7085731  79.4520784 115.1302020  35.1996676
  80.2348735 116.4258474  35.2199701  71.1977812 102.2861013  34.8862871
  70.4764398 102.8996980  34.7470345  71.9871068 102.8218778  34.8079517
  81.6404553 113.7321300  37.3365281  80.6934888 113.6126652  37.2643608
  81.9887326 112.8443798  37.4191543  74.0004126  99.6215439  41.1603523
  74.5238528  99.8677736  41.9229832  73.7816459 100.4535474  40.7406660
  69.3971407 101.8919114  29.0274648  69.0684113 101.0116493  28.8449754
  69.7510778 101.8366783  29.9151037  78.6450986 113.5274017  33.5369633
  78.4975948 112.5990724  33.7177203  79.4704479 113.5494107  33.0526709
  72.5113230 102.1792084  29.3950125  72.8509303 102.7078005  28.6728734
  72.9585351 102.5172490  30.1708692  82.2485108 114.3502575  34.6234506
  83.1731655 114.1445437  34.4858957  82.0800411 114.1018976  35.5323848
  75.2056671 100.5629134  38.8453194  74.8653491  99.7636947  39.2473873
  74.4995677 100.8630845  38.2730027  75.8573143  97.6478447  37.2980517
  76.6799212  97.1738925  37.1759407  76.1011206  98.4268931  37.7979203
  74.4981377 100.6766705  27.5943418  75.2189740 101.0547958  27.0907135
  73.8746681 101.3955582  27.6978396  78.6412500 101.3811854  28.5301751
  78.8576115 102.2636492  28.2290579  78.1606567 100.9898068  27.8007393
  73.3811722 104.3397567  35.1072495  73.2356302 104.6537870  35.9996777
  72.9036925 104.9582468  34.5543394  75.2408104 101.3300115  35.1553385
  75.2269673 100.4341209  34.8185683  75.9580533 101.3370779  35.7891671
  77.0934235 101.7637456  37.2006512  76.8352013 102.6854526  37.1990843
  76.5619276 101.3667890  37.8906976  82.0380424 114.8688243  29.9796598
  82.2117301 114.3034665  29.2270450  82.5309315 115.6689138  29.7976087
  67.8557384 106.8802912  38.0460156  67.3110852 107.6562720  38.1780431
  68.7336734 107.2273716  37.8879278  74.6445000 100.2114496  30.4240955
  74.7660912  99.2831142  30.6231842  74.3547043 100.2253182  29.5119270
  77.5136191  97.8969406  33.5607675  77.5357888  97.9608739  32.6059654
  77.9304250  97.0573915  33.7548181  87.8919815 107.6324666  31.5986897
  88.3350961 106.8831991  31.2006021  87.0146325 107.6234802  31.2160629
  83.0255596 114.1855007  27.0793496  83.7206501 114.8061700  27.2980810
  83.3678747 113.3350358  27.3545874  68.6423406 106.0072808  40.9390313
  67.9005142 106.1555443  41.5254944  68.3216150 106.2681074  40.0757063
  84.9247020 111.6354713  28.6080827  85.4498344 111.9741985  27.8830147
  84.8369372 110.7001728  28.4243961  76.5867068 115.5488786  40.7370703
  76.8954195 115.3037933  41.6093403  77.3842550 115.7535425  40.2489573
  76.6087680 117.7026696  32.9676080  76.1692671 117.2103075  33.6608936
  77.3595797 117.1599664  32.7268155  69.0880019 113.8938237  32.9700708
  69.9138039 113.5942009  32.5899351  68.7374071 113.1245859  33.4190496
  74.0561552 113.2464705  35.0398381  73.4341562 112.5835410  34.7400609
  74.7266419 113.2725837  34.3572029  67.2888624 111.8124563  33.9289641
  66.4520533 111.3846738  33.7473643  67.2612270 112.0057007  34.8660433
  74.1286080 101.7246493  44.6330887  74.1774235 102.6008616  44.2508657
  74.6708594 101.1823886  44.0602531  84.6140926 112.2687616  43.9132025
  83.8236469 112.2511755  43.3736524  84.3774280 112.8075910  44.6681061
  84.7338801 109.1180083  41.2264753  84.7836806 108.9530090  42.1680276
  84.6252724 108.2507342  40.8362634  73.6175059 111.7968628  28.5156842
  73.7663180 112.4804093  27.8623515  74.4241503 111.7773718  29.0306298
  82.0242563 105.1011011  42.5424060  82.9252426 104.9617476  42.2508058
  82.0990538 105.2665466  43.4822237  76.3585368 102.4777865  41.3877246
  75.4888678 102.7711432  41.1159835  76.5944849 103.0618310  42.1084510
  86.2356997 111.5377024  41.4706775  85.9441806 111.9007005  42.3070236
  85.6229129 110.8244032  41.2920107  87.4352680 109.1029904  33.9909345
  88.2699571 109.5419708  34.1546905  87.5711809 108.6268557  33.1717591
  84.4844186 106.6609639  39.9386833  84.9598307 106.8537285  39.1305684
  83.5609751 106.7168825  39.6930216  71.3727692 107.8233806  29.5217911
  71.1273734 106.9196136  29.7198121  71.5423607 107.8250956  28.5797389
  79.0624402  98.6957482  38.9042666  79.5806346  99.4318509  38.5789155
  78.7079535  99.0021476  39.7389426  70.6423340 103.5562164  27.0204072
  69.9492585 103.6306519  26.3644108  70.3975092 102.7922507  27.5425589
  79.3136996  95.1157765  34.4243563  79.5938750  94.4480954  35.0503990
  80.0987603  95.3086861  33.9118227  77.1170465 114.2916759  25.9868589
  76.5444432 114.9106946  25.5339061  77.6903259 114.8416121  26.5208511
  83.1845855 103.5375399  38.1715138  84.1363278 103.6373497  38.1927362
  83.0149305 102.7453667  38.6813223  81.2060234 100.6230982  38.3574539
  80.6110166 100.9035995  37.6621028  80.9209931 101.1124883  39.1291280
  80.3367725 114.5753909  27.1177172  81.2698398 114.5099471  27.3210047
  80.2490937 115.4110176  26.6591704  85.6633933 106.7581519  37.2857438
  85.6310253 105.8197519  37.4717122  86.2734556 106.8365555  36.5523263
  77.5017263 105.6277572  23.3284642  78.4476368 105.4983780  23.3973060
  77.1231508 104.8892233  23.8054070  85.8128421 103.5492562  37.3315721
  85.2967470 102.7651019  37.1445650  86.6968370 103.2211279  37.4962240
  83.4739148  97.2933578  33.2911534  83.2763969  96.9848666  34.1754866
  84.0838853  98.0195217  33.4209464  91.4810482 107.8197525  36.4263475
  92.2113871 107.5582814  36.9871178  90.8717428 107.0826247  36.4665543
  89.5625779 105.9605388  37.0237926  88.8358943 105.8261353  36.4154417
  89.1473066 106.2682217  37.8294644  77.3855956 109.6795318  44.7885299
  78.3058965 109.8573917  44.9825345  77.3505539 108.7351363  44.6364998
  75.6860181 103.5527548  23.2639527  74.7791636 103.2560661  23.3402241
  75.9636162 103.2557366  22.3973813  66.6038121 104.8733911  33.7138573
  66.2840905 104.0199220  33.4212947  66.0571549 105.0882490  34.4696541
  70.3818028 107.5896352  37.4308080  70.6004038 108.5213460  37.4496114
  70.7943802 107.2304327  38.2162884  77.3022246  98.0964438  29.4183768
  76.4922975  97.7511523  29.7939014  77.9906663  97.7871981  30.0071380
  79.2312795  97.1742484  31.0408065  79.7843833  97.5937938  31.6998088
  79.4682881  96.2478233  31.0831021  75.2545894 103.1629558  46.8210829
  75.1542621 104.1123915  46.7522920  75.0367436 102.8347797  45.9486899
  74.4558965 100.4114483  23.4051506  75.3178129 100.7369382  23.6647324
  74.6409309  99.6245979  22.8924572  66.4726381 108.4936823  35.6831695
  65.7789852 108.0790776  35.1701649  67.2199372 108.5357359  35.0865114
  82.6091602  99.2843010  30.5486729  82.0290271  99.9427814  30.1664782
  82.3427534  98.4620354  30.1374147  81.0595168  98.6848067  32.7508050
  81.5594946  98.7964602  31.9422368  81.7030776  98.3809120  33.3908858
  75.1177164 106.5926697  45.6375891  74.6344246 107.3927057  45.8439780
  75.2038103 106.6034642  44.6843335  68.3863123 108.4255077  33.5597710
  68.3633812 108.5242764  32.6079593  68.6963760 109.2720227  33.8814876
  71.0450501 110.4831232  37.6744324  71.9993755 110.4515174  37.6074256
  70.8463025 110.0221855  38.4894550  71.6349883 109.0532348  40.2415122
  72.4542772 109.5476426  40.2649959  71.9086691 108.1364316  40.2132690
  81.3916480 101.4443100  29.6043078  80.5042335 101.7292751  29.3863272
  81.8070469 101.2836863  28.7570354  84.7431016 101.4689621  33.3197417
  85.5191406 101.9586073  33.5922034  84.0179150 101.8947675  33.7769286
  87.1803574 102.1817240  34.3771357  87.7748065 101.9412976  33.6664666
  87.2530158 101.4624371  35.0044894  69.4000730 116.0250851  34.6914522
  69.2655198 115.2651252  34.1252520  68.9832792 116.7491751  34.2243311
  81.3657503 106.9597636  29.8193368  81.3092705 107.4166187  28.9801000
  81.9185846 106.1988321  29.6416210  85.1762309 102.7487368  30.6443487
  84.9199244 102.3484003  31.4751695  84.5515177 103.4631162  30.5193626
  89.4874647 105.4883441  33.1514779  88.9274205 105.5576630  33.9246341
  88.8818151 105.3124426  32.4314275  72.5569856 116.9220168  34.9032965
  72.4402240 117.8665601  34.8011655  71.7362302 116.6193730  35.2918764
  82.4446391 111.6470304  25.7489558  83.2791994 111.2151502  25.5667032
  82.2830733 111.4752318  26.6766452  82.0992283 108.1502417  27.1145897
  82.0441086 107.9846689  26.1734341  81.4738338 108.8578450  27.2708087
  66.8884798 103.3870482  40.9407319  67.5343661 102.8769436  41.4294544
  66.6801949 104.1239163  41.5150744  79.4138190 110.4551329  46.4399460
  80.2829350 110.6291981  46.0786095  78.9344941 111.2745746  46.3175189
  75.4088408  97.6510526  26.6931215  75.3967078  98.5952366  26.8499486
  76.3011830  97.4680672  26.3990676  73.5824370 117.5748430  38.1188893
  74.4851617 117.6072040  38.4355388  73.3561740 116.6448881  38.1335229
  75.3377972 116.3279417  34.7798972  74.3873603 116.3281278  34.6663344
  75.6410458 115.5812151  34.2635007  79.2240528  94.2453303  30.9477152
  78.4572923  93.6911790  31.0933834  79.6351233  94.3175172  31.8091304
  71.2282289 100.5338099  45.0382333  72.0913750 100.1774904  45.2485658
  70.6547699 100.1951993  45.7257738  91.0730666 122.1639955  35.8444734
  91.7109076 122.0446702  35.1408074  90.9551509 123.1120799  35.9032686
  87.8820372 122.1167383  35.7806259  87.5438883 122.0008448  34.8926794
  88.7510140 121.7158548  35.7607265  88.3640155 123.2702235  41.7392465
  88.3528796 122.8755033  40.8672968  88.5260794 122.5368307  42.3326236
  81.2871620 125.4654051  34.6087370  82.0792911 125.1244876  34.1933670
  81.5268270 125.5749026  35.5289524  85.0847416 126.0539347  40.6871649
  84.7937282 126.9584977  40.5718315  85.7204400 126.0955874  41.4015718
  86.0103623 123.4316195  37.2773008  86.6067195 123.2072218  36.5629971
  86.0678594 122.6900941  37.8798456  93.5505782 113.5388216  38.2825529
  93.2189106 114.4083627  38.0586744  92.9551395 113.2224500  38.9619560
  83.4949783 122.1914559  33.7158147  82.5700279 122.0590773  33.9235838
  83.7434196 122.9708778  34.2128089  93.4434445 118.2583302  35.3618880
  92.5351322 118.1898711  35.0677641  93.3922041 118.7355247  36.1900705
  80.8558594 121.8347833  34.5501936  80.9850975 122.0882311  35.4641347
  80.1756045 122.4275541  34.2306591  87.5175311 119.6772948  43.3053777
  86.7408645 120.2366868  43.2956641  88.1565874 120.1629731  43.8268647
  95.3096091 116.4599741  37.1396753  94.6670472 116.7532274  36.4936548
  94.8051020 116.3452661  37.9449950  85.7721683 122.4858401  42.8671744
  86.5136367 123.0243445  42.5906567  85.0658668 123.1124690  43.0243296
  91.2477023 124.6287542  41.4643905  91.6560379 124.1869952  40.7198538
  90.5254284 124.0540169  41.7178098  87.6008093 119.5660149  38.8377462
  88.4469288 119.9899562  38.9812111  87.5406730 118.9093773  39.5316025
  90.7507538 117.2264517  40.4958636  90.5068470 117.9806577  39.9592912
  91.0267469 117.6049864  41.3305883  90.3072230 116.3820950  36.0772474
  89.4456709 116.6802203  36.3689211  90.3334664 116.5991349  35.1453506
  84.0157880 124.4734622  35.4226043  84.5859237 124.9021890  34.7843527
  84.6065992 124.1917207  36.1210228  84.5083047 119.6398049  43.6687054
  83.8781707 120.3214330  43.9022451  84.4019135 119.5281131  42.7240192
  79.8028019 119.3069845  34.5952978  79.0127073 119.5627374  34.1193089
  80.2939267 120.1218183  34.7005019  81.7542765 119.6714425  31.5536455
  80.9573928 119.7833119  32.0719950  81.5268357 120.0101077  30.6877345
  87.5848432 126.1959128  39.5018969  87.6492865 126.6579535  40.3377141
  86.8759356 125.5656493  39.6301279  78.0865722 119.5600336  37.0267969
  78.3373761 120.4447346  37.2925545  78.6225271 119.3804937  36.2543061
  83.7863789 113.9418815  46.0312305  83.3930735 113.3885014  46.7059949
  84.6029930 114.2529394  46.4218822  86.7031750 115.3576694  43.6232561
  87.4441464 115.9583848  43.5437024  86.9349673 114.6154332  43.0650604
  81.8473088 120.5433062  41.9010791  81.7326604 119.6418319  42.2017890
  80.9917606 120.7896758  41.5495608  83.6852047 130.0146604  38.0258970
  84.2359473 129.8863667  37.2535964  82.8463523 130.3141493  37.6753863
  87.4819218 126.2797731  42.3703201  88.0147555 125.5186020  42.1402509
  86.9533300 125.9871383  43.1127356  90.6488913 111.3857797  37.8996843
  90.3053183 112.2759439  37.8235954  91.0167876 111.1959455  37.0366428
  88.1986307 116.2216109  31.4654517  87.3427903 115.8322960  31.2860155
  88.6113259 116.3008070  30.6054302  89.7285454 113.7562453  35.8646076
  89.2250249 113.7192588  35.0513882  90.0216061 114.6655195  35.9242733
  85.9728340 113.8401182  34.8712258  86.8381336 113.6443991  34.5118148
  86.0405849 113.6111534  35.7981615  83.5790659 116.0703390  32.2428625
  84.1534411 115.8478572  31.5101818  84.1661641 116.1392085  32.9957226
  85.8813326 112.9444639  30.9703694  85.2277739 112.6293656  30.3460309
  85.8393801 112.3220380  31.6963517  89.1151067 119.4326573  35.2951342
  88.1973628 119.6541520  35.1373030  89.5311210 119.5072883  34.4363049
  92.4476579 110.6451357  33.0014581  92.7535456 109.7848720  32.7140496
  93.1729184 111.2368977  32.8013575  78.7400935 121.0482043  31.3896179
  78.5425335 120.4551404  30.6647245  78.1847599 120.7434253  32.1072118
  86.7197659 120.9405150  33.5090772  86.7746269 119.9878986  33.4333248
  85.9088861 121.0964589  33.9932070  84.6590019 119.5582209  31.2681151
  83.8457884 119.8576380  31.6746343  85.1549013 119.1637898  31.9855633
  90.2564230 120.0224034  40.0996045  90.6113618 120.2495507  40.9590510
  90.9036362 120.3542411  39.4773300  84.1504093 117.1300565  36.8842386
  84.7903473 116.9889324  36.1865349  83.3181624 116.8435078  36.5080988
  81.1532710 117.1000890  31.6615372  81.4139527 118.0146223  31.5524533
  81.9749882 116.6325332  31.8111985  82.6257635 118.5138647  38.8314197
  83.2980689 118.3056009  38.1826846  81.7987422 118.3160733  38.3919429
  88.5283207 115.1400588  40.8479858  87.8811122 115.8390538  40.7544334
  89.2984223 115.5736732  41.2156106  88.7047342 122.9781353  38.9076678
  89.6339402 123.1292512  38.7345645  88.2838372 123.0665374  38.0525324
  87.5035673 127.0032017  36.6775215  87.3646759 126.6350802  37.5501153
  86.7150270 127.5179657  36.5059173  83.0285132 121.7881250  39.5916634
  82.8904930 121.0561489  40.1928173  83.9390056 121.6990150  39.3100822
  85.6567433 121.5001209  39.0800314  86.3667052 120.8594402  39.0386932
  85.6136741 121.7514104  40.0026495  84.3696367 118.4866427  40.8995953
  83.8333724 118.0357166  41.5517550  83.7813076 118.6212336  40.1566418
  75.3000766 122.7332238  33.5563924  75.9871806 122.4193968  32.9684939
  75.1448895 123.6373603  33.2831176  80.1035488 117.6222435  37.9848948
  80.0193677 117.0148104  37.2499358  79.2818195 118.1131453  37.9858444
  90.2759202 116.1075998  33.3519143  90.7727902 115.3545961  33.0320213
  89.5046184 116.1440315  32.7862352  86.8594171 118.2493381  33.0790827
  86.4891959 117.6964422  33.7671733  87.3553263 117.6451515  32.5265827
  84.6883370 128.7090876  40.1745845  85.3892829 129.3427359  40.3275240
  84.2178485 129.0505608  39.4141485  92.7178197 113.0745592  35.4998502
  91.8041277 113.3049819  35.6680709  93.1471298 113.1584036  36.3512534
  92.4884656 121.2635484  37.9998396  91.8356106 121.5111391  37.3450849
  92.8665035 120.4499622  37.6660873  88.5372229 122.0055295  44.4864433
  87.8612866 121.9049424  45.1566808  89.3599862 121.8494509  44.9500430
  80.2851088 128.2427231  37.1076948  80.8704524 127.4970919  37.2404852
  80.0875926 128.5531188  37.9913612  74.8768742 120.8132832  35.8281391
  74.9152842 120.2796422  36.6218509  74.3709035 120.2868037  35.2092368
  82.2559505 115.6597372  39.3243934  82.3200831 116.5212203  38.9121331
  82.1926625 115.0471374  38.5916292  81.7311777 117.7320505  42.9716968
  82.3583816 117.3497582  43.5854492  80.8739696 117.5134707  43.3372660
  78.5077320 119.5396934  28.9035323  78.8030761 118.6307612  28.8502376
  77.6065356 119.5184673  28.5816325  82.0371567 117.6152930  34.8862871
  81.3158153 118.2288898  34.7470345  82.8264823 118.1510695  34.8079517
  84.8397880 114.9507357  41.1603523  85.3632282 115.1969653  41.9229832
  84.6210214 115.7827392  40.7406660  80.2365162 117.2211032  29.0274648
  79.9077868 116.3408410  28.8449754  80.5904532 117.1658700  29.9151037
  86.0450425 115.8921052  38.8453194  85.7047246 115.0928865  39.2473873
  85.3389432 116.1922763  38.2730027  86.6966897 112.9770364  37.2980517
  87.5192967 112.5030843  37.1759407  86.9404961 113.7560848  37.7979203
  84.2205476 119.6689485  35.1072495  84.0750057 119.9829788  35.9996777
  83.7430680 120.2874385  34.5543394  86.0801859 116.6592033  35.1553385
  86.0663428 115.7633126  34.8185683  86.7974287 116.6662697  35.7891671
  87.9327990 117.0929373  37.2006512  87.6745767 118.0146444  37.1990843
  87.4013030 116.6959808  37.8906976  78.6951138 122.2094829  38.0460156
  78.1504606 122.9854637  38.1780431  79.5730488 122.5565634  37.8879278
  85.4838755 115.5406413  30.4240955  85.6054666 114.6123060  30.6231842
  85.1940797 115.5545099  29.5119270  88.3529945 113.2261324  33.5607675
  88.3751642 113.2900657  32.6059654  88.7698004 112.3865832  33.7548181
  79.4817160 121.3364726  40.9390313  78.7398896 121.4847361  41.5254944
  79.1609904 121.5972991  40.0757063  78.1282379 127.1416481  33.9289641
  77.2914287 126.7138655  33.7473643  78.1006024 127.3348924  34.8660433
  84.9679834 117.0538411  44.6330887  85.0167990 117.9300534  44.2508657
  85.5102349 116.5115804  44.0602531  92.8636318 120.4302928  42.5424060
  93.7646180 120.2909393  42.2508058  92.9384292 120.5957383  43.4822237
  87.1979123 117.8069783  41.3877246  86.3282432 118.1003349  41.1159835
  87.4338603 118.3910228  42.1084510  89.9018157 114.0249400  38.9042666
  90.4200101 114.7610427  38.5789155  89.5473289 114.3313393  39.7389426
  90.1530751 110.4449683  34.4243563  90.4332505 109.7772872  35.0503990
  90.9381358 110.6378778  33.9118227  94.0239609 118.8667317  38.1715138
  94.9757032 118.9665414  38.1927362  93.8543060 118.0745585  38.6813223
  92.0453989 115.9522900  38.3574539  91.4503921 116.2327913  37.6621028
  91.7603685 116.4416801  39.1291280  96.6522175 118.8784480  37.3315721
  96.1361224 118.0942936  37.1445650  97.5362124 118.5503196  37.4962240
  94.3132902 112.6225495  33.2911534  94.1157724 112.3140583  34.1754866
  94.9232608 113.3487134  33.4209464  88.2249710 125.0087235  44.7885299
  89.1452720 125.1865834  44.9825345  88.1899293 124.0643281  44.6364998
  77.4431875 120.2025829  33.7138573  77.1234660 119.3491137  33.4212947
  76.8965304 120.4174407  34.4696541  81.2211783 122.9188270  37.4308080
  81.4397793 123.8505378  37.4496114  81.6337557 122.5596244  38.2162884
  88.1416001 113.4256355  29.4183768  87.3316729 113.0803440  29.7939014
  88.8300418 113.1163899  30.0071380  90.0706549 112.5034402  31.0408065
  90.6237588 112.9229856  31.6998088  90.3076635 111.5770150  31.0831021
  86.0939648 118.4921476  46.8210829  85.9936375 119.4415833  46.7522920
  85.8761190 118.1639715  45.9486899  77.3120135 123.8228741  35.6831695
  76.6183607 123.4082693  35.1701649  78.0593126 123.8649277  35.0865114
  91.8988922 114.0139985  32.7508050  92.3988701 114.1256520  31.9422368
  92.5424530 113.7101038  33.3908858  85.9570918 121.9218615  45.6375891
  85.4738000 122.7218975  45.8439780  86.0431857 121.9326560  44.6843335
  79.2256878 123.7546994  33.5597710  79.2027566 123.8534682  32.6079593
  79.5357514 124.6012145  33.8814876  81.8844256 125.8123149  37.6744324
  82.8387509 125.7807092  37.6074256  81.6856779 125.3513773  38.4894550
  82.4743638 124.3824265  40.2415122  83.2936527 124.8768344  40.2649959
  82.7480446 123.4656234  40.2132690  77.7278552 118.7162399  40.9407319
  78.3737416 118.2061353  41.4294544  77.5195703 119.4531081  41.5150744
  90.0634282 109.5745221  30.9477152  89.2966678 109.0203707  31.0933834
  90.4744987 109.6467089  31.8091304  82.0676043 115.8630016  45.0382333
  82.9307505 115.5066821  45.2485658  81.4941454 115.5243911  45.7257738
  28.6091686  13.4679179  28.7252200  28.5504232  12.7838399  28.0582783
  29.0111205  14.2098169  28.2732826  27.0943360  13.1694096  31.3016010
  27.6383264  13.7824055  30.8070965  26.5130205  13.7273675  31.8183023
  30.4172154  12.6290151  30.6377331  29.6267698  12.6114289  30.0981831
  30.1805509  13.1678444  31.3926368  32.0388226  11.8979558  28.1952081
  31.7473035  12.2609539  29.0315542  31.4260358  11.1846567  28.0165413
  25.2169419  10.8153863  33.1644766  26.0860578  10.9894516  32.8031401
  24.7376170  11.6348280  33.0420496  36.8761894  22.5242489  22.5690041
  37.5140304  22.4049237  21.8653381  36.7582737  23.4723333  22.6277993
  33.6851601  22.4769917  22.5051566  33.3470112  22.3610982  21.6172101
  34.5541369  22.0761082  22.4852572  34.1671384  23.6304769  28.4637771
  34.1560024  23.2357567  27.5918275  34.3292023  22.8970842  29.0571543
  27.0902848  25.8256585  21.3332677  27.8824140  25.4847410  20.9178976
  27.3299498  25.9351560  22.2534830  30.8878645  26.4141881  27.4116955
  30.5968511  27.3187512  27.2963621  31.5235629  26.4558408  28.1261025
  31.8134852  23.7918729  24.0018315  32.4098424  23.5674752  23.2875278
  31.8709823  23.0503475  24.6043763  41.8311590  20.1869176  20.5476228
  42.5636762  19.6168393  20.7814057  41.0750946  19.7990777  20.9882733
  39.3537010  13.8990750  25.0070836  39.0220335  14.7686161  24.7832051
  38.7582624  13.5827034  25.6864867  35.8468530  26.1003296  24.4066749
  35.5469253  27.0028335  24.2982556  35.5019589  25.8335480  25.2587902
  39.2465674  18.6185837  22.0864186  38.3382551  18.5501245  21.7922947
  39.1953269  19.0957781  22.9146012  30.8289310  32.8647617  17.3737717
  30.7513339  33.8155442  17.4526197  30.2250953  32.5193489  18.0312643
  33.3206539  20.0375482  30.0299083  32.5439874  20.5969402  30.0201948
  33.9597103  20.5232265  30.5513954  41.1127320  16.8202275  23.8642060
  40.4701700  17.1134808  23.2181855  40.6082249  16.7055195  24.6695257
  31.5752912  22.8460936  29.5917050  32.3167596  23.3845979  29.3151874
  30.8689897  23.4727224  29.7488602  37.0508251  24.9890076  28.1889212
  37.4591607  24.5472486  27.4443844  36.3285513  24.4142703  28.4423405
  33.4039321  19.9262683  25.5622769  34.2500517  20.3502096  25.7057418
  33.3437959  19.2696307  26.2561332  37.3737066  25.5491267  21.9441501
  36.7445929  25.7136981  21.2417569  36.9862728  25.9632876  22.7152465
  41.2526298  26.4845704  19.2985865  40.5677336  26.8644606  18.7482898
  41.3370147  27.0941031  20.0317812  36.5538767  17.5867051  27.2203943
  36.3099699  18.3409112  26.6838218  36.8298697  17.9652399  28.0551190
  38.5077230  24.1305663  25.8981208  38.7194125  24.7737423  25.2215589
  38.4606978  23.2967980  25.4303138  29.8189109  24.8337156  22.1471349
  30.3890466  25.2624425  21.5088834  30.4097221  24.5519741  22.8455535
  30.3114276  20.0000584  30.3932360  29.6812936  20.6816865  30.6267757
  30.2050363  19.8883665  29.4485499  39.6223058  27.0077619  24.0703565
  40.4440501  26.6057806  23.7886247  39.6185460  26.9045853  25.0219681
  33.3879661  26.5561662  26.2264276  33.4524093  27.0182069  27.0622448
  32.6790585  25.9259027  26.3546586  47.7129051  23.3516367  20.4188537
  46.9592759  22.7823765  20.2632541  47.8476592  23.3179032  21.3659172
  29.5895018  14.3021350  32.7557612  29.1961964  13.7487548  33.4305256
  30.4061159  14.6131928  33.1464129  28.3651961  28.8570964  18.7493935
  28.5418589  29.7788929  18.5614918  29.1608794  28.5429383  19.1788314
  32.5062979  15.7179229  30.3477868  33.2472693  16.3186382  30.2682331
  32.7380902  14.9756866  29.7895911  27.6504317  20.9035596  28.6256098
  27.5357832  20.0020853  28.9263197  26.7948835  21.1499293  28.2740914
  34.7296155  28.8453336  30.2243598  34.2860009  28.0589715  29.9064503
  35.3913369  29.0332487  29.5587489  29.4883276  30.3749138  24.7504277
  30.0390701  30.2466201  23.9781271  28.6494752  30.6744027  24.3999170
  36.8277393  29.1256136  28.2525000  36.8095868  29.9465017  27.7605269
  37.7497313  29.0010211  28.4775141  33.2850447  26.6400266  29.0948508
  33.8178784  25.8788554  28.8647816  32.7564528  26.3473917  29.8372662
  39.6296006  23.9635279  21.7234366  38.9719680  24.6534540  21.8114495
  40.4336405  24.3531711  22.0668353  38.4401465  22.3179651  19.7738308
  38.9533347  22.9509643  20.2760018  39.0902689  21.7180847  19.4081668
  34.9182296  19.7929107  22.0196649  34.0004857  20.0144054  21.8618337
  35.3342439  19.8675417  21.1608356  39.2063261  27.2985653  17.9017451
  38.7525588  26.4576563  17.9582641  38.5757228  27.9347051  18.2392231
  37.6496200  29.1362149  18.8367269  37.9419175  29.6967207  18.1179634
  38.1594821  29.4290710  19.5920428  32.6129825  29.9142500  19.9260722
  32.5706004  30.1403347  18.9969254  33.5292524  29.6805875  20.0746523
  36.0595459  20.3826568  26.8241351  36.4144847  20.6098041  27.6835817
  36.7067590  20.7144945  26.2018607  41.7893196  23.5045004  17.5290680
  41.6511095  23.6946600  16.6011870  41.4329415  24.2664387  17.9858731
  41.8162576  25.5721531  22.5401952  42.2499082  25.4796820  23.3885006
  42.5294156  25.5479031  21.9021968  35.5490471  29.1723625  24.0735052
  35.6027493  29.7414561  24.8412768  34.6805252  29.3425510  23.7089090
  28.4288864  18.8741181  25.5559504  29.1011917  18.6658543  24.9072153
  27.6018651  18.6763267  25.1164736  42.6778125  25.6145232  25.0734837
  42.8714015  26.5191042  25.3194112  42.5778743  25.1552651  25.9073422
  34.3314436  15.5003122  27.5725165  33.6842351  16.1993072  27.4789641
  35.1015451  15.9339266  27.9401413  37.7393234  25.7651974  30.6475718
  37.5878740  25.5362526  29.7305802  37.7297913  26.7222576  30.6607063
  34.5078570  23.3383887  25.6321984  35.4370630  23.4895047  25.4590952
  34.0869600  23.4267908  24.7770631  33.3066902  27.3634551  23.4020522
  33.1677988  26.9953336  24.2746460  32.5181498  27.8782191  23.2304480
  33.9015054  32.4643648  14.7446058  34.0766810  31.9931691  15.5591681
  33.2147842  33.0909414  14.9727319  34.8572117  26.7416154  20.7909360
  34.5221950  26.7016924  21.6867010  34.3576063  26.0760870  20.3179770
  28.8316361  22.1483784  26.3161941  28.6936159  21.4164023  26.9173480
  29.7421285  22.0592684  26.0346129  31.4598662  21.8603744  25.8045620
  32.1698280  21.2196936  25.7632239  31.4167970  22.1116638  26.7271801
  39.4485441  28.7971097  28.7252200  39.3897987  28.1130317  28.0582783
  39.8504959  29.5390087  28.2732826  30.1727596  18.8468961  27.6241260
  29.6364953  18.3959700  28.2762856  29.5844304  18.9814870  26.8811724
  28.4676139  35.6133011  21.5185919  28.7072738  36.2451535  22.1964937
  27.6245336  35.2621051  21.8051278  39.4502848  26.7610681  26.9566179
  38.5629627  26.4236603  27.0792578  40.0201399  26.0293712  27.1934945
  32.9804001  31.4212133  23.9227423  32.9074173  32.2267105  24.4346727
  32.5381394  31.6204099  23.0975444  32.7693781  30.6583903  17.4330244
  31.9861303  31.2005583  17.5268469  33.4686526  31.1757883  17.8324485
  43.9320188  22.1718898  21.7182741  43.9210065  23.0543614  21.3476674
  43.0637568  21.8190449  21.5237278  35.4402685  31.3198967  26.0785581
  36.1530657  31.9546432  26.0061483  34.9492713  31.4162833  25.2625583
  30.4914598  29.0693411  26.8991152  31.1924058  29.7029894  27.0520546
  30.0209713  29.4108142  26.1386791  38.2915884  21.6238018  24.7243702
  37.6387335  21.8713926  24.0696155  38.6696264  20.8102156  24.3906180
  35.2523058  31.6597711  18.8271873  35.4345453  30.8419367  19.2899625
  36.0756044  31.8765404  18.3896763  35.5865224  30.5865896  16.0886921
  36.1152990  30.0758351  15.4757083  35.8493443  30.2708427  16.9532454
  34.3403457  22.3657829  31.2109739  33.6644094  22.2651958  31.8812115
  35.1631091  22.2097043  31.6745737  26.0882316  28.6029766  23.8322255
  26.6735753  27.8573454  23.9650159  25.8907155  28.9133722  24.7158919
  28.9420972  31.6381013  18.8484697  28.2731347  32.1227141  18.3648737
  28.8033841  31.8850234  19.7628076  33.0826240  33.6724757  25.4467355
  33.6344548  33.8356378  26.2116441  33.4232434  34.2629194  24.7747380
  27.5343006  18.0923039  29.6962274  28.1615045  17.7100116  30.3099799
  26.6770925  17.8737241  30.0617967  37.9337115  28.4986014  31.3016010
  38.4777019  29.1115972  30.8070965  37.3523959  29.0565593  31.8183023
  36.2194627  31.6206732  22.4331038  36.0945767  30.8196472  21.9241983
  36.8773719  32.1152926  21.9445008  38.2829536  29.4215752  24.0610588
  37.3359871  29.3021103  23.9888914  38.6312309  28.5338250  24.1436849
  30.6429109  15.3109891  27.8848830  31.1663511  15.5572188  28.6475139
  30.4241443  16.1429926  27.4651967  35.2875969  29.2168468  20.2614940
  35.1400932  28.2885176  20.4422510  36.1129463  29.2388559  19.7772015
  38.8910091  30.0397027  21.3479813  39.8156638  29.8339889  21.2104264
  38.7225394  29.7913428  22.2569154  31.8481654  16.2523586  25.5698500
  31.5078475  15.4531399  25.9719180  31.1420661  16.5525297  24.9975333
  33.7359218  17.4531908  23.9251819  33.4776996  18.3748978  23.9236149
  33.2044259  17.0562342  24.6152283  38.6805407  30.5582695  16.7041904
  38.8542285  29.9929117  15.9515757  39.1734298  31.3583590  16.5221394
  24.4982367  22.5697364  24.7705463  23.9535835  23.3457172  24.9025737
  25.3761717  22.9168168  24.6124584  44.5344798  23.3219118  18.3232204
  44.9775944  22.5726443  17.9251327  43.6571309  23.3129254  17.9405936
  39.6680580  29.8749459  13.8038802  40.3631484  30.4956152  14.0226117
  40.0103730  29.0244810  14.0791180  25.2848389  21.6967260  27.6635620
  24.5430125  21.8449895  28.2500250  24.9641133  21.9575526  26.8002369
  41.5672003  27.3249165  15.3326133  42.0923327  27.6636437  14.6075453
  41.4794355  26.3896180  15.1489268  33.2292052  31.2383238  27.4616010
  33.5379178  30.9932385  28.3338709  34.0267534  31.4429877  26.9734880
  33.2512664  33.3921148  19.6921386  32.8117654  32.8997527  20.3854243
  34.0020781  32.8494116  19.4513462  25.7305003  29.5832689  19.6946014
  26.5563022  29.2836461  19.3144658  25.3799055  28.8140311  20.1435803
  30.6986536  28.9359157  21.7643688  30.0766545  28.2729862  21.4645916
  31.3691403  28.9620289  21.0817336  30.7711063  17.4140945  31.3576194
  30.8199219  18.2903068  30.9753964  31.3133577  16.8718338  30.7847837
  41.2565909  27.9582068  30.6377331  40.4661453  27.9406207  30.0981831
  41.0199263  28.4970362  31.3926368  41.3763784  24.8074535  27.9510060
  41.4261789  24.6424542  28.8925582  41.2677707  23.9401794  27.5607940
  38.6667546  20.7905463  29.2669366  39.5677409  20.6511927  28.9753364
  38.7415521  20.9559917  30.2067544  33.0010352  18.1672317  28.1122553
  32.1313661  18.4605883  27.8405141  33.2369832  18.7512762  28.8329816
  42.8781981  27.2271476  28.1952081  42.5866789  27.5901457  29.0315542
  42.2654112  26.5138484  28.0165413  44.0777663  24.7924356  20.7154651
  44.9124554  25.2314160  20.8792212  44.2136792  24.3163009  19.8962897
  41.1269169  22.3504091  26.6632139  41.6023291  22.5431737  25.8550991
  40.2034734  22.4063277  26.4175523  35.7049386  14.3851934  25.6287973
  36.2231329  15.1212961  25.3034462  35.3504518  14.6915928  26.4634732
  39.8270838  19.2269851  24.8960445  40.7788261  19.3267948  24.9172669
  39.6574288  18.4348119  25.4058529  37.8485217  16.3125434  25.0819846
  37.2535150  16.5930447  24.3866334  37.5634914  16.8019335  25.8536587
  42.3058916  22.4475970  24.0102744  42.2735236  21.5091971  24.1962428
  42.9159539  22.5260007  23.2768569  42.4553404  19.2387014  24.0561028
  41.9392453  18.4545471  23.8690957  43.3393353  18.9105731  24.2207547
  48.1235466  23.5091977  23.1508781  48.8538854  23.2477265  23.7116485
  47.5142411  22.7720699  23.1910849  46.2050763  21.6499840  23.7483232
  45.4783926  21.5155805  23.1399724  45.7898050  21.9576669  24.5539951
  34.0280939  25.3689770  31.5130605  34.9483949  25.5468369  31.7070652
  33.9930522  24.4245815  31.3610305  27.0243012  23.2790804  24.1553387
  27.2429022  24.2107912  24.1741420  27.4368786  22.9198779  24.9408190
  31.8970877  18.8524010  33.5456136  31.7967604  19.8018367  33.4768227
  31.6792419  18.5242249  32.6732206  31.7602147  22.2821149  32.3621197
  31.2769229  23.0821509  32.5685086  31.8463086  22.2929094  31.4088641
  27.6875485  26.1725684  24.3989631  28.6418738  26.1409626  24.3319563
  27.4888008  25.7116307  25.2139857  28.2774867  24.7426800  26.9660429
  29.0967756  25.2370878  26.9895266  28.5511674  23.8258768  26.9377996
  43.8228558  17.8711692  21.1016664  44.4173049  17.6307428  20.3909972
  43.8955141  17.1518823  21.7290200  26.0425713  31.7145303  21.4159829
  25.9080181  30.9545704  20.8497827  25.6257776  32.4386203  20.9488618
  46.1299630  21.1777893  19.8760085  45.5699188  21.2471082  20.6491647
  45.5243134  21.0018878  19.1559581  29.1994839  32.6114620  21.6278272
  29.0827223  33.5560053  21.5256962  28.3787286  32.3088182  22.0164071
  23.5309781  19.0764933  27.6652626  24.1768645  18.5663887  28.1539851
  23.3226932  19.8133615  28.2396051  36.0563173  26.1445781  33.1644766
  36.9254333  26.3186433  32.8031401  35.5769925  26.9640198  33.0420496
  30.2249353  33.2642882  24.8434200  31.1276600  33.2966492  25.1600695
  29.9986723  32.3343333  24.8580536  31.9802955  32.0173869  21.5044279
  31.0298586  32.0175730  21.3908651  32.2835442  31.2706603  20.9880313
  27.8707272  16.2232551  31.7627640  28.7338734  15.8669355  31.9730965
  27.2972683  15.8846445  32.4503044  47.7155649  37.8534407  22.5690041
  48.3534059  37.7341154  21.8653381  47.5976492  38.8015251  22.6277993
  44.5245355  37.8061835  22.5051566  44.1863867  37.6902900  21.6172101
  45.3935123  37.4053000  22.4852572  40.3832171  39.6597311  18.4948457
  39.8197036  39.5687248  17.7264744  40.2684566  38.8397216  18.9750949
  45.0065138  38.9596687  28.4637771  44.9953779  38.5649485  27.5918275
  45.1685778  38.2262759  29.0571543  37.9296603  41.1548503  21.3332677
  38.7217895  40.8139328  20.9178976  38.1693253  41.2643478  22.2534830
  45.9631730  43.3268279  13.8062922  45.3119709  43.9122360  13.4196935
  46.7576092  43.8574474  13.8657959  39.8887357  40.4157416  14.2050056
  40.6618233  39.8686403  14.0662932  40.2412756  41.2801666  14.4164517
  41.7272399  41.7433799  27.4116955  41.4362265  42.6479429  27.2963621
  42.3629384  41.7850326  28.1261025  42.6528606  39.1210647  24.0018315
  43.2492178  38.8966669  23.2875278  42.7103578  38.3795393  24.6043763
  42.2253635  36.5750082  11.8368506  42.4779155  36.0531604  11.0751969
  41.2878194  36.4116228  11.9395189  47.2696917  35.5785861  19.6443249
  48.0560007  35.1605284  19.2933666  47.5335622  36.4831953  19.8124897
  47.4406995  41.0158711  14.3431906  46.8052828  41.0893338  15.0552810
  47.1104401  41.6052310  13.6650985  52.6705345  35.5161094  20.5476228
  53.4030516  34.9460311  20.7814057  51.9144700  35.1282694  20.9882733
  41.9449923  38.4778188  14.0392881  41.8286181  37.8023092  14.7073965
  42.0552183  37.9910562  13.2225034  44.2881464  37.9388335  17.7439570
  43.9239671  37.4118956  18.4552491  45.1448580  37.5486805  17.5706055
  50.1930765  29.2282668  25.0070836  49.8614090  30.0978079  24.7832051
  49.5976378  28.9118952  25.6864867  43.9286951  32.9678235  12.7400919
  44.0961354  33.8358472  13.1071390  43.7384120  33.1305517  11.8162208
  46.6862284  41.4295214  24.4066749  46.3863007  42.3320253  24.2982556
  46.3413344  41.1627397  25.2587902  40.1374766  37.8809011  20.4403453
  39.2125262  37.7485225  20.6481145  40.3859179  38.6603230  20.9373396
  50.0859428  33.9477754  22.0864186  49.1776306  33.8793163  21.7922947
  50.0347024  34.4249699  22.9146012  43.9076172  35.4235893  13.7247585
  43.7875797  35.8692943  14.5633066  43.2128760  35.7721210  13.1661123
  37.4983577  37.5242284  21.2747242  37.6275958  37.7776763  22.1886654
  36.8181028  38.1169992  20.9551897  41.6683064  48.1939534  17.3737717
  41.5907094  49.1447359  17.4526197  41.0644708  47.8485407  18.0312643
  44.1600294  35.3667400  30.0299083  43.3833628  35.9261320  30.0201948
  44.7990857  35.8524183  30.5513954  51.9521075  32.1494193  23.8642060
  51.3095455  32.4426726  23.2181855  51.4476003  32.0347113  24.6695257
  49.6061238  35.8957366  14.5527919  50.5179094  36.1284753  14.3775617
  49.0970885  36.4794410  13.9902998  42.4146666  38.1752853  29.5917050
  43.1561351  38.7137897  29.3151874  41.7083652  38.8019142  29.7488602
  47.8902006  40.3181994  28.1889212  48.2985362  39.8764404  27.4443844
  47.1679267  39.7434621  28.4423405  44.2433076  35.2554600  25.5622769
  45.0894271  35.6794014  25.7057418  44.1831714  34.5988225  26.2561332
  48.2130821  40.8783184  21.9441501  47.5839683  41.0428898  21.2417569
  47.8256483  41.2924794  22.7152465  52.0920052  41.8137622  19.2985865
  51.4071091  42.1936523  18.7482898  52.1763902  42.4232949  20.0317812
  47.3932521  32.9158969  27.2203943  47.1493453  33.6701029  26.6838218
  47.6692452  33.2944316  28.0551190  49.3470984  39.4597581  25.8981208
  49.5587879  40.1029341  25.2215589  49.3000732  38.6259898  25.4303138
  46.9497213  32.0715402  22.8017780  46.0881692  32.3696655  23.0934518
  46.9759648  32.2885801  21.8698813  43.7658782  40.6157592  19.2091586
  44.2297128  40.8945295  18.4196208  43.5015581  39.7141037  19.0264677
  40.6582864  40.1629074  22.1471349  41.2284221  40.5916342  21.5088834
  41.2490975  39.8811659  22.8455535  42.7027669  36.7380745  16.0181151
  43.4051712  37.1901788  16.4855077  42.3708297  36.0964564  16.6461044
  41.1508030  35.3292501  30.3932360  40.5206691  36.0108782  30.6267757
  41.0444118  35.2175583  29.4485499  36.4453002  34.9964297  21.3198285
  35.6552056  35.2521826  20.8438395  36.9364250  35.8112635  21.4250325
  50.4616812  42.3369537  24.0703565  51.2834256  41.9349724  23.7886247
  50.4579215  42.2337771  25.0219681  38.3967748  35.3608877  18.2781761
  37.5998911  35.4727571  18.7965257  38.1693340  35.6995529  17.4122652
  44.2273415  41.8853580  26.2264276  44.2917848  42.3473987  27.0622448
  43.5184339  41.2550945  26.3546586  34.7290705  35.2494788  23.7513275
  34.9798744  36.1341798  24.0170851  35.2650254  35.0699389  22.9788367
  58.5522805  38.6808285  20.4188537  57.7986513  38.1115683  20.2632541
  58.6870346  38.6470950  21.3659172  43.9421433  43.5521687  16.0943256
  43.8067108  44.3973223  16.5228104  44.4831246  43.7540965  15.3309190
  40.4288773  29.6313267  32.7557612  40.0355718  29.0779466  33.4305256
  41.2454913  29.9423846  33.1464129  37.3950831  41.0697125  16.6671181
  37.9075351  41.8640376  16.8176746  38.0473543  40.3723416  16.6004783
  39.2045715  44.1862882  18.7493935  39.3812344  45.1080846  18.5614918
  40.0002549  43.8721301  19.1788314  43.3456734  31.0471146  30.3477868
  44.0866447  31.6478299  30.2682331  43.5774657  30.3048784  29.7895911
  38.4898072  36.2327514  28.6256098  38.3751587  35.3312771  28.9263197
  37.6342590  36.4791210  28.2740914  45.5689910  44.1745254  30.2243598
  45.1253764  43.3881632  29.9064503  46.2307123  44.3624404  29.5587489
  40.3277031  45.7041055  24.7504277  40.8784456  45.5758119  23.9781271
  39.4888507  46.0035944  24.3999170  47.6671148  44.4548054  28.2525000
  47.6489623  45.2756935  27.7605269  48.5891068  44.3302129  28.4775141
  44.1244202  41.9692183  29.0948508  44.6572539  41.2080471  28.8647816
  43.5958283  41.6765835  29.8372662  47.2913897  27.0752249  24.6242150
  46.9478166  27.9653891  24.5481260  47.6592859  26.8853907  23.7611735
  35.3599747  39.3985780  17.4430752  36.1974969  39.8082788  17.2264460
  35.5378015  38.4585222  17.4130946  47.2564179  37.0660860  13.1314585
  46.7410803  37.8365465  13.3702972  46.9841488  36.3925996  13.7547646
  44.8411290  31.9110561  18.1899823  43.9852887  31.5217412  18.0105462
  45.2538242  31.9902522  17.3299609  46.3710437  29.4456904  22.5891383
  45.8675233  29.4087040  21.7759188  46.6641044  30.3549647  22.6488040
  42.6153323  29.5295634  21.5957565  43.4806320  29.3338443  21.2363454
  42.6830832  29.3005986  22.5226921  52.2298454  39.8193215  15.0667758
  51.4527896  39.4804374  14.6222920  52.9089935  39.8245838  14.3922723
  47.0450483  34.9387952  14.9574366  46.7400618  35.2534102  15.8084509
  47.9980925  35.0169372  15.0001699  45.4896914  41.0978176  16.6067320
  44.9618276  40.3630935  16.2940557  44.9884417  41.8752852  16.3607288
  50.4689760  39.2927196  21.7234366  49.8113435  39.9826458  21.8114495
  51.2730160  39.6823628  22.0668353  40.2215642  31.7597842  18.9673932
  40.7959394  31.5373024  18.2347124  40.8086624  31.8286537  19.7202533
  49.2795219  37.6471569  19.7738308  49.7927101  38.2801561  20.2760018
  49.9296443  37.0472764  19.4081668  40.5485229  33.7902303  12.9869817
  39.7122541  34.1276990  13.3079092  40.4089999  33.6551283  12.0496954
  42.5238310  28.6339091  17.6949001  41.8702722  28.3188108  17.0705616
  42.4818784  28.0114831  18.4208824  43.6349515  38.9158386   9.6102293
  42.7276576  38.6847639   9.8093442  44.1320547  38.1196005   9.7976275
  46.5417593  47.6255893  12.5298979  45.8679292  47.9287590  13.1383937
  46.9283415  48.4284974  12.1804436  45.7576050  35.1221024  22.0196649
  44.8398611  35.3435971  21.8618337  46.1736194  35.1967335  21.1608356
  46.5411098  36.5212440  17.1499329  47.2882917  37.0333837  16.8406451
  46.8102687  36.1996493  18.0103722  44.8137748  39.0170981  14.1326283
  43.9048967  38.7330014  14.2298753  44.8432832  39.4370059  13.2729590
  50.0457015  42.6277570  17.9017451  49.5919343  41.7868480  17.9582641
  49.4150982  43.2638969  18.2392231  48.9889935  33.5569556  19.1318118
  48.2512692  33.0446943  19.4628361  49.2416709  33.1169938  18.3201395
  48.4889955  44.4654067  18.8367269  48.7812929  45.0259124  18.1179634
  48.9988575  44.7582628  19.5920428  49.0901562  26.3345808  19.7259887
  49.3960439  25.4743172  19.4385803  49.8154167  26.9263429  19.5258881
  35.3825918  36.7376495  18.1141485  35.1850318  36.1445856  17.3892552
  34.8272582  36.4328705  18.8317424  43.3622642  36.6299601  20.2336079
  43.4171252  35.6773438  20.1578555  42.5513844  36.7859041  20.7177377
  44.5113836  40.5579725  11.4714362  44.0733266  39.8415583  11.0119999
  45.2524277  40.7855839  10.9099453  41.3015002  35.2476661  17.9926457
  40.4882868  35.5470832  18.3991650  41.7973996  34.8532350  18.7100940
  43.4523580  45.2434418  19.9260722  43.4099759  45.4695264  18.9969254
  44.3686279  45.0097793  20.0746523  46.8989214  35.7118486  26.8241351
  47.2538601  35.9389959  27.6835817  47.5461345  36.0436862  26.2018607
  52.6286951  38.8336922  17.5290680  52.4904849  39.0238518  16.6011870
  52.2723169  39.5956304  17.9858731  40.7929077  32.8195017  23.6087692
  41.4328456  32.6783776  22.9110656  39.9606607  32.5329530  23.2326294
  52.6556330  40.9013449  22.5401952  53.0892837  40.8088738  23.3885006
  53.3687911  40.8770949  21.9021968  41.5689381  42.1197447  19.7222685
  42.3629979  41.6247767  19.5205260  40.8581073  41.5915310  19.3590390
  46.3884225  44.5015543  24.0735052  46.4421247  45.0706479  24.8412768
  45.5199007  44.6717428  23.7089090  37.8772144  36.2640529  15.7982437
  36.9469732  36.2024984  16.0152400  37.9729616  35.7416482  15.0019079
  37.7957693  32.7895342  18.3860679  38.0564510  33.7040675  18.2769840
  38.6174866  32.3219784  18.5357292  39.2682619  34.2033099  25.5559504
  39.9405672  33.9950461  24.9072153  38.4412405  34.0055185  25.1164736
  53.5171880  40.9437149  25.0734837  53.7107770  41.8482960  25.3194112
  53.4172498  40.4844568  25.9073422  45.1708191  30.8295040  27.5725165
  44.5236106  31.5284989  27.4789641  45.9409206  31.2631184  27.9401413
  48.5786988  41.0943892  30.6475718  48.4272495  40.8654444  29.7305802
  48.5691668  42.0514493  30.6607063  45.3472325  38.6675805  25.6321984
  46.2764385  38.8186964  25.4590952  44.9263355  38.7559826  24.7770631
  44.1460657  42.6926469  23.4020522  44.0071742  42.3245254  24.2746460
  43.3575253  43.2074109  23.2304480  44.7408809  47.7935566  14.7446058
  44.9160564  47.3223609  15.5591681  44.0541597  48.4201332  14.9727319
  45.6965872  42.0708072  20.7909360  45.3615704  42.0308842  21.6867010
  45.1969817  41.4052788  20.3179770  39.6710116  37.4775702  26.3161941
  39.5329914  36.7455941  26.9173480  40.5815039  37.3884602  26.0346129
  48.6325063  39.4164106  11.0646419  48.0154234  38.6910934  10.9679472
  48.1641552  40.1773466  10.7213494  42.2992416  37.1895661  25.8045620
  43.0092035  36.5488853  25.7632239  42.2561725  37.4408556  26.7271801
  50.2879195  44.1263015  28.7252200  50.2291741  43.4422235  28.0582783
  50.6898714  44.8682005  28.2732826  41.0121350  34.1760879  27.6241260
  40.4758707  33.7251618  28.2762856  40.4238059  34.3106788  26.8811724
  39.3069894  50.9424928  21.5185919  39.5466492  51.5743453  22.1964937
  38.4639090  50.5912968  21.8051278  50.2896602  42.0902598  26.9566179
  49.4023381  41.7528520  27.0792578  50.8595153  41.3585630  27.1934945
  31.9425750  38.4226690  20.2809231  32.6296789  38.1088420  19.6930246
  31.7873878  39.3268055  20.0076482  36.7460472  33.3116887  24.7094254
  36.6618660  32.7042556  23.9744664  35.9243178  33.8025905  24.7103751
  43.8197756  46.7504051  23.9227423  43.7467927  47.5559022  24.4346727
  43.3775149  46.9496017  23.0975444  43.6087535  45.9875821  17.4330244
  42.8255057  46.5297501  17.5268469  44.3080281  46.5049801  17.8324485
  46.9184186  31.7970450  20.0764449  47.4152885  31.0440413  19.7565520
  46.1471167  31.8334767  19.5107659  54.7713943  37.5010816  21.7182741
  54.7603819  38.3835531  21.3476674  53.9031322  37.1482367  21.5237278
  46.2796439  46.6490885  26.0785581  46.9924412  47.2838350  26.0061483
  45.7886468  46.7454751  25.2625583  48.0013966  40.5542138  17.6502873
  47.0670245  40.6743600  17.4807577  48.1790635  39.6514604  17.3862883
  43.5019154  33.9387833  19.8036134  43.1316942  33.3858874  20.4917040
  43.9978247  33.3345967  19.2511134  51.3886518  36.3959457  18.1852907
  51.8546970  37.2287448  18.1113210  51.8394018  35.9304438  18.8898166
  41.3308353  44.3985328  26.8991152  42.0317812  45.0321811  27.0520546
  40.8603468  44.7400060  26.1386791  49.4562749  42.7403278  15.1839059
  49.7322593  42.6259873  16.0932933  48.5867247  42.3420763  15.1451232
  49.3603180  28.7640044  22.2243808  48.4466260  28.9944271  22.3926015
  49.7896282  28.8478488  23.0757841  49.1309639  36.9529936  24.7243702
  48.4781089  37.2005843  24.0696155  49.5090019  36.1394074  24.3906180
  46.0916813  46.9889629  18.8271873  46.2739207  46.1711285  19.2899625
  46.9149799  47.2057321  18.3896763  46.4258978  45.9157814  16.0886921
  46.9546745  45.4050269  15.4757083  46.6887198  45.6000344  16.9532454
  45.1797212  37.6949747  31.2109739  44.5037849  37.5943876  31.8812115
  46.0024846  37.5388961  31.6745737  36.9276071  43.9321683  23.8322255
  37.5129508  43.1865371  23.9650159  36.7300909  44.2425640  24.7158919
  39.7814726  46.9672931  18.8484697  39.1125101  47.4519058  18.3648737
  39.6427596  47.2142151  19.7628076  31.5193726  36.5027284  22.5526698
  31.5577825  35.9690874  23.3463816  31.0134018  35.9762489  21.9337675
  43.9219995  49.0016674  25.4467355  44.4738303  49.1648296  26.2116441
  44.2626188  49.5921112  24.7747380  38.8984488  31.3491824  26.0489240
  38.9625814  32.2106655  25.6366638  38.8351608  30.7365826  25.3161599
  38.3736760  33.4214957  29.6962274  39.0008799  33.0392034  30.3099799
  37.5164679  33.2029159  30.0617967  48.7730869  43.8277932  31.3016010
  49.3170773  44.4407890  30.8070965  48.1917714  44.3857510  31.8183023
  35.1502303  35.2291386  15.6280629  35.4455744  34.3202064  15.5747683
  34.2490339  35.2079125  15.3061632  47.0588382  46.9498650  22.4331038
  46.9339521  46.1488390  21.9241983  47.7167473  47.4444843  21.9445008
  38.6796550  33.3047382  21.6108178  37.9583136  33.9183350  21.4715651
  39.4689806  33.8405147  21.5324824  49.1223290  44.7507670  24.0610588
  48.1753626  44.6313021  23.9888914  49.4706063  43.8630168  24.1436849
  41.4822864  30.6401809  27.8848830  42.0057266  30.8864105  28.6475139
  41.2635197  31.4721844  27.4651967  36.8790145  32.9105483  15.7519954
  36.5502851  32.0302862  15.5695060  37.2329515  32.8553152  16.6396344
  46.1269724  44.5460386  20.2614940  45.9794686  43.6177094  20.4422510
  46.9523217  44.5680477  19.7772015  39.9931968  33.1978453  16.1195432
  40.3328040  33.7264374  15.3974040  40.4404088  33.5358859  16.8953999
  49.7303846  45.3688945  21.3479813  50.6550393  45.1631806  21.2104264
  49.5619149  45.1205346  22.2569154  42.6875409  31.5815504  25.5698500
  42.3472229  30.7823317  25.9719180  41.9814415  31.8817215  24.9975333
  43.3391881  28.6664816  24.0225823  44.1617950  28.1925295  23.9004713
  43.5829944  29.4455300  24.5224509  41.9800115  31.6953075  14.3188725
  42.7008478  32.0734328  13.8152442  41.3565419  32.4141952  14.4223703
  46.1231238  32.3998224  15.2547057  46.3394852  33.2822862  14.9535885
  45.6425305  32.0084437  14.5252699  40.8630459  35.3583937  21.8317802
  40.7175040  35.6724240  22.7242083  40.3855663  35.9768837  21.2788700
  42.7226842  32.3486485  21.8798691  42.7088411  31.4527578  21.5430989
  43.4399270  32.3557149  22.5136977  44.5752973  32.7823825  23.9251819
  44.3170751  33.7040896  23.9236149  44.0438013  32.3854260  24.6152283
  49.5199162  45.8874612  16.7041904  49.6936039  45.3221035  15.9515757
  50.0128053  46.6875507  16.5221394  35.3376122  37.8989281  24.7705463
  34.7929590  38.6749089  24.9025737  36.2155471  38.2460086  24.6124584
  42.1263738  31.2300865  17.1486261  42.2479649  30.3017511  17.3477149
  41.8365781  31.2439551  16.2364577  44.9954929  28.9155776  20.2852981
  45.0176625  28.9795109  19.3304961  45.4122988  28.0760284  20.4793487
  55.3738553  38.6511035  18.3232204  55.8169699  37.9018360  17.9251327
  54.4965063  38.6421172  17.9405936  50.5074334  45.2041377  13.8038802
  51.2025239  45.8248069  14.0226117  50.8497484  44.3536728  14.0791180
  36.1242143  37.0259178  27.6635620  35.3823879  37.1741813  28.2500250
  35.8034888  37.2867443  26.8002369  52.4065757  42.6541082  15.3326133
  52.9317081  42.9928355  14.6075453  52.3188110  41.7188098  15.1489268
  44.0685806  46.5675156  27.4616010  44.3772932  46.3224303  28.3338709
  44.8661288  46.7721794  26.9734880  44.0906418  48.7213066  19.6921386
  43.6511408  48.2289444  20.3854243  44.8414535  48.1786033  19.4513462
  36.5698757  44.9124606  19.6946014  37.3956777  44.6128378  19.3144658
  36.2192809  44.1432229  20.1435803  41.5380290  44.2651075  21.7643688
  40.9160300  43.6021780  21.4645916  42.2085157  44.2912206  21.0817336
  34.7707362  42.8310933  20.6534948  33.9339270  42.4033107  20.4718949
  34.7431008  43.0243376  21.5905739  41.6104818  32.7432863  31.3576194
  41.6592973  33.6194985  30.9753964  42.1527332  32.2010256  30.7847837
  52.0959663  43.2873986  30.6377331  51.3055207  43.2698125  30.0981831
  51.8593018  43.8262280  31.3926368  52.2157538  40.1366452  27.9510060
  52.2655543  39.9716460  28.8925582  52.1071462  39.2693711  27.5607940
  41.0993797  42.8154998  15.2402149  41.2481918  43.4990462  14.5868821
  41.9060241  42.7960088  15.7551604  49.5061301  36.1197380  29.2669366
  50.4071164  35.9803845  28.9753364  49.5809275  36.2851835  30.2067544
  43.8404106  33.4964235  28.1122553  42.9707416  33.7897801  27.8405141
  44.0763587  34.0804680  28.8329816  53.7175735  42.5563394  28.1952081
  53.4260544  42.9193374  29.0315542  53.1047867  41.8430402  28.0165413
  54.9171418  40.1216274  20.7154651  55.7518309  40.5606078  20.8792212
  55.0530546  39.6454927  19.8962897  51.9662924  37.6796008  26.6632139
  52.4417045  37.8723655  25.8550991  51.0428489  37.7355194  26.4175523
  38.8546430  38.8420176  16.2463217  38.6092472  37.9382506  16.4443428
  39.0242345  38.8437326  15.3042695  46.5443140  29.7143852  25.6287973
  47.0625084  30.4504879  25.3034462  46.1898273  30.0207845  26.4634732
  38.1242078  34.5748533  13.7449379  37.4311323  34.6492888  13.0889415
  37.8793830  33.8108877  14.2670896  46.7955734  26.1344134  21.1488870
  47.0757488  25.4667324  21.7749296  47.5806341  26.3273230  20.6363534
  44.5989203  45.3103128  12.7113896  44.0263170  45.9293316  12.2584368
  45.1721996  45.8602490  13.2453818  50.6664593  34.5561768  24.8960445
  51.6182015  34.6559866  24.9172669  50.4968043  33.7640037  25.4058529
  48.6878972  31.6417352  25.0819846  48.0928904  31.9222364  24.3866334
  48.4028669  32.1311253  25.8536587  47.8186462  45.5940279  13.8422478
  48.7517136  45.5285840  14.0455354  47.7309675  46.4296545  13.3837011
  50.4474479  44.9106149  10.8026426  50.3688111  44.5766012  11.6962184
  51.2684146  45.4027917  10.8017898  53.1452670  37.7767888  24.0102744
  53.1128990  36.8383889  24.1962428  53.7553294  37.8551925  23.2768569
  44.9836001  36.6463941  10.0529949  45.9295106  36.5170149  10.1218367
  44.6050246  35.9078603  10.5299377  53.2947159  34.5678932  24.0561028
  52.7786207  33.7837388  23.8690957  54.1787107  34.2397648  24.2207547
  50.9557886  28.3119947  20.0156840  50.7582707  28.0035035  20.9000172
  51.5657591  29.0381586  20.1454770  58.9629220  38.8383895  23.1508781
  59.6932609  38.5769183  23.7116485  58.3536166  38.1012617  23.1910849
  57.0444517  36.9791758  23.7483232  56.3177681  36.8447723  23.1399724
  56.6291804  37.2868586  24.5539951  44.8674694  40.6981687  31.5130605
  45.7877703  40.8760286  31.7070652  44.8324277  39.7537733  31.3610305
  34.0856859  35.8920281  20.4383880  33.7659643  35.0385589  20.1458254
  33.5390287  36.1068859  21.1941847  37.8636766  38.6082722  24.1553387
  38.0822776  39.5399830  24.1741420  38.2762540  38.2490696  24.9408190
  44.7840984  29.1150807  16.1429075  43.9741712  28.7697892  16.5184321
  45.4725401  28.8058351  16.7316687  46.7131532  28.1928854  17.7653372
  47.2662571  28.6124307  18.4243395  46.9501619  27.2664602  17.8076328
  42.7364632  34.1815928  33.5456136  42.6361358  35.1310285  33.4768227
  42.5186174  33.8534167  32.6732206  33.9545119  39.5123192  22.4077002
  33.2608590  39.0977145  21.8946956  34.7018110  39.5543729  21.8110421
  50.0910339  30.3029379  17.2732036  49.5109008  30.9614183  16.8910088
  49.8246272  29.4806724  16.8619453  48.5413906  29.7034437  19.4753356
  49.0413684  29.8150971  18.6667675  49.1849514  29.3995490  20.1154165
  42.5995902  37.6113067  32.3621197  42.1162983  38.4113427  32.5685086
  42.6856841  37.6221011  31.4088641  35.8681861  39.4441446  20.2843017
  35.8452549  39.5429133  19.3324900  36.1782498  40.2906597  20.6060183
  38.5269239  41.5017601  24.3989631  39.4812493  41.4701544  24.3319563
  38.3281763  41.0408225  25.2139857  39.1168621  40.0718717  26.9660429
  39.9361510  40.5662796  26.9895266  39.3905429  39.1550685  26.9377996
  48.8735217  32.4629470  16.3288384  47.9861072  32.7479120  16.1108579
  49.2889207  32.3023233  15.4815661  52.2249754  32.4875991  20.0442723
  53.0010144  32.9772443  20.3167340  51.4997888  32.9134045  20.5014593
  54.6622312  33.2003610  21.1016664  55.2566803  32.9599346  20.3909972
  54.7348896  32.4810740  21.7290200  36.8819468  47.0437221  21.4159829
  36.7473936  46.2837622  20.8497827  36.4651530  47.7678121  20.9488618
  48.0178431  42.2274144  10.4236404  48.7214281  42.4324147  11.0394060
  47.2941080  42.7950906  10.6885488  48.8476241  37.9784006  16.5438674
  48.7911443  38.4352557  15.7046307  49.4004584  37.2174690  16.3661517
  52.6581047  33.7673737  17.3688794  52.4017981  33.3670373  18.1997002
  52.0333915  34.4817531  17.2438933  56.9693385  36.5069811  19.8760085
  56.4092943  36.5763000  20.6491647  56.3636888  36.3310795  19.1559581
  40.0388594  47.9406538  21.6278272  39.9220978  48.8851970  21.5256962
  39.2181040  47.6380099  22.0164071  49.9265128  42.6656673  12.4734864
  50.7610732  42.2337872  12.2912339  49.7649471  42.4938687  13.4011759
  49.5811020  39.1688787  13.8391204  49.5259824  39.0033058  12.8979648
  48.9557076  39.8764820  13.9953393  34.3703535  34.4056851  27.6652626
  35.0162399  33.8955805  28.1539851  34.1620687  35.1425533  28.2396051
  46.8956928  41.4737699  33.1644766  47.7648087  41.6478351  32.8031401
  46.4163679  42.2932115  33.0420496  42.8907146  28.6696896  13.4176522
  42.8785816  29.6138736  13.5744793  43.7830568  28.4867041  13.1235983
  41.0643108  48.5934800  24.8434200  41.9670355  48.6258410  25.1600695
  40.8380478  47.6635251  24.8580536  42.8196710  47.3465786  21.5044279
  41.8692341  47.3467648  21.3908651  43.1229196  46.5998521  20.9880313
  46.7059265  25.2639672  17.6722459  45.9391661  24.7098159  17.8179141
  47.1169970  25.3361541  18.5336610  38.7101026  31.5524468  31.7627640
  39.5732488  31.1961273  31.9730965  38.1366437  31.2138363  32.4503044
  58.5549403  53.1826325  22.5690041  59.1927813  53.0633072  21.8653381
  58.4370246  54.1307169  22.6277993  55.3639110  53.1353753  22.5051566
  55.0257621  53.0194817  21.6172101  56.2328878  52.7344918  22.4852572
  51.2225925  54.9889229  18.4948457  50.6590791  54.8979166  17.7264744
  51.1078320  54.1689134  18.9750949  48.7690357  56.4840421  21.3332677
  49.5611649  56.1431245  20.9178976  49.0087007  56.5935396  22.2534830
  56.8025484  58.6560197  13.8062922  56.1513464  59.2414277  13.4196935
  57.5969847  59.1866392  13.8657959  50.7281111  55.7449334  14.2050056
  51.5011987  55.1978321  14.0662932  51.0806510  56.6093583  14.4164517
  53.4922361  54.4502565  24.0018315  54.0885933  54.2258587  23.2875278
  53.5497332  53.7087310  24.6043763  53.0647389  51.9042000  11.8368506
  53.3172910  51.3823521  11.0751969  52.1271948  51.7408146  11.9395189
  58.1090672  50.9077778  19.6443249  58.8953761  50.4897202  19.2933666
  58.3729376  51.8123871  19.8124897  58.2800749  56.3450629  14.3431906
  57.6446582  56.4185255  15.0552810  57.9498156  56.9344228  13.6650985
  63.5099099  50.8453012  20.5476228  64.2424271  50.2752228  20.7814057
  62.7538455  50.4574612  20.9882733  52.7843678  53.8070106  14.0392881
  52.6679936  53.1315009  14.7073965  52.8945938  53.3202480  13.2225034
  55.1275219  53.2680253  17.7439570  54.7633426  52.7410874  18.4552491
  55.9842335  52.8778722  17.5706055  61.0324519  44.5574586  25.0070836
  60.7007844  45.4269997  24.7832051  60.4370133  44.2410870  25.6864867
  54.7680706  48.2970153  12.7400919  54.9355108  49.1650389  13.1071390
  54.5777875  48.4597435  11.8162208  57.5256039  56.7587132  24.4066749
  57.2256762  57.6612171  24.2982556  57.1807098  56.4919315  25.2587902
  50.9768520  53.2100929  20.4403453  50.0519017  53.0777143  20.6481145
  51.2252934  53.9895148  20.9373396  60.9253183  49.2769672  22.0864186
  60.0170060  49.2085080  21.7922947  60.8740778  49.7541617  22.9146012
  54.7469927  50.7527810  13.7247585  54.6269552  51.1984861  14.5633066
  54.0522515  51.1013128  13.1661123  48.3377331  52.8534202  21.2747242
  48.4669713  53.1068681  22.1886654  47.6574783  53.4461910  20.9551897
  52.5076819  63.5231452  17.3737717  52.4300848  64.4739277  17.4526197
  51.9038462  63.1777325  18.0312643  54.9994048  50.6959317  30.0299083
  54.2227383  51.2553238  30.0201948  55.6384612  51.1816100  30.5513954
  62.7914829  47.4786110  23.8642060  62.1489209  47.7718643  23.2181855
  62.2869758  47.3639031  24.6695257  60.4454993  51.2249284  14.5527919
  61.3572849  51.4576670  14.3775617  59.9364640  51.8086328  13.9902998
  53.2540421  53.5044771  29.5917050  53.9955105  54.0429815  29.3151874
  52.5477406  54.1311060  29.7488602  55.0826830  50.5846518  25.5622769
  55.9288026  51.0085932  25.7057418  55.0225468  49.9280142  26.2561332
  59.0524575  56.2075102  21.9441501  58.4233438  56.3720816  21.2417569
  58.6650237  56.6216712  22.7152465  62.9313807  57.1429540  19.2985865
  62.2464845  57.5228441  18.7482898  63.0157656  57.7524866  20.0317812
  58.2326276  48.2450886  27.2203943  57.9887208  48.9992947  26.6838218
  58.5086206  48.6236234  28.0551190  57.7890968  47.4007319  22.8017780
  56.9275447  47.6988573  23.0934518  57.8153402  47.6177718  21.8698813
  54.6052537  55.9449510  19.2091586  55.0690882  56.2237213  18.4196208
  54.3409335  55.0432955  19.0264677  51.4976618  55.4920992  22.1471349
  52.0677975  55.9208260  21.5088834  52.0884730  55.2103576  22.8455535
  53.5421423  52.0672662  16.0181151  54.2445466  52.5193706  16.4855077
  53.2102051  51.4256481  16.6461044  51.9901785  50.6584419  30.3932360
  51.3600445  51.3400700  30.6267757  51.8837872  50.5467501  29.4485499
  47.2846757  50.3256215  21.3198285  46.4945811  50.5813744  20.8438395
  47.7758004  51.1404553  21.4250325  61.3010567  57.6661454  24.0703565
  62.1228010  57.2641642  23.7886247  61.2972969  57.5629688  25.0219681
  49.2361502  50.6900794  18.2781761  48.4392666  50.8019489  18.7965257
  49.0087095  51.0287447  17.4122652  45.5684460  50.5786706  23.7513275
  45.8192498  51.4633715  24.0170851  46.1044008  50.3991307  22.9788367
  69.3916560  54.0100203  20.4188537  68.6380268  53.4407601  20.2632541
  69.5264101  53.9762867  21.3659172  54.7815188  58.8813605  16.0943256
  54.6460862  59.7265141  16.5228104  55.3225000  59.0832883  15.3309190
  51.2682527  44.9605185  32.7557612  50.8749473  44.4071383  33.4305256
  52.0848668  45.2715763  33.1464129  48.2344585  56.3989043  16.6671181
  48.7469106  57.1932293  16.8176746  48.8867298  55.7015334  16.6004783
  50.0439470  59.5154799  18.7493935  50.2206098  60.4372764  18.5614918
  50.8396303  59.2013219  19.1788314  54.1850488  46.3763064  30.3477868
  54.9260202  46.9770217  30.2682331  54.4168411  45.6340702  29.7895911
  49.3291826  51.5619431  28.6256098  49.2145341  50.6604688  28.9263197
  48.4736344  51.8083128  28.2740914  51.1670785  61.0332973  24.7504277
  51.7178210  60.9050036  23.9781271  50.3282261  61.3327862  24.3999170
  58.1307651  42.4044167  24.6242150  57.7871921  43.2945809  24.5481260
  58.4986614  42.2145825  23.7611735  46.1993502  54.7277697  17.4430752
  47.0368724  55.1374706  17.2264460  46.3771769  53.7877140  17.4130946
  58.0957934  52.3952778  13.1314585  57.5804557  53.1657383  13.3702972
  57.8235242  51.7217914  13.7547646  55.6805045  47.2402479  18.1899823
  54.8246641  46.8509329  18.0105462  56.0931997  47.3194440  17.3299609
  57.2104192  44.7748822  22.5891383  56.7068987  44.7378957  21.7759188
  57.5034798  45.6841565  22.6488040  53.4547077  44.8587552  21.5957565
  54.3200074  44.6630360  21.2363454  53.5224586  44.6297904  22.5226921
  63.0692208  55.1485133  15.0667758  62.2921651  54.8096292  14.6222920
  63.7483689  55.1537756  14.3922723  57.8844237  50.2679870  14.9574366
  57.5794373  50.5826019  15.8084509  58.8374679  50.3461290  15.0001699
  56.3290669  56.4270093  16.6067320  55.8012030  55.6922853  16.2940557
  55.8278172  57.2044770  16.3607288  61.3083515  54.6219114  21.7234366
  60.6507189  55.3118375  21.8114495  62.1123914  55.0115546  22.0668353
  51.0609397  47.0889760  18.9673932  51.6353148  46.8664941  18.2347124
  51.6480379  47.1578454  19.7202533  60.1188974  52.9763487  19.7738308
  60.6320855  53.6093478  20.2760018  60.7690198  52.3764682  19.4081668
  51.3878984  49.1194221  12.9869817  50.5516296  49.4568907  13.3079092
  51.2483753  48.9843201  12.0496954  53.3632064  43.9631009  17.6949001
  52.7096477  43.6480026  17.0705616  53.3212538  43.3406749  18.4208824
  54.4743269  54.2450304   9.6102293  53.5670331  54.0139557   9.8093442
  54.9714301  53.4487923   9.7976275  57.3811348  62.9547811  12.5298979
  56.7073047  63.2579508  13.1383937  57.7677170  63.7576891  12.1804436
  56.5969805  50.4512942  22.0196649  55.6792366  50.6727889  21.8618337
  57.0129948  50.5259253  21.1608356  57.3804852  51.8504358  17.1499329
  58.1276671  52.3625755  16.8406451  57.6496442  51.5288411  18.0103722
  55.6531503  54.3462899  14.1326283  54.7442722  54.0621931  14.2298753
  55.6826586  54.7661977  13.2729590  60.8850770  57.9569488  17.9017451
  60.4313097  57.1160398  17.9582641  60.2544737  58.5930886  18.2392231
  59.8283690  48.8861474  19.1318118  59.0906446  48.3738860  19.4628361
  60.0810463  48.4461856  18.3201395  59.3283709  59.7945985  18.8367269
  59.6206684  60.3551042  18.1179634  59.8382330  60.0874546  19.5920428
  59.9295317  41.6637726  19.7259887  60.2354194  40.8035090  19.4385803
  60.6547922  42.2555346  19.5258881  46.2219673  52.0668413  18.1141485
  46.0244073  51.4737773  17.3892552  45.6666337  51.7620623  18.8317424
  54.2016397  51.9591519  20.2336079  54.2565006  51.0065356  20.1578555
  53.3907599  52.1150958  20.7177377  55.3507590  55.8871642  11.4714362
  54.9127020  55.1707501  11.0119999  56.0918031  56.1147757  10.9099453
  52.1408757  50.5768579  17.9926457  51.3276622  50.8762749  18.3991650
  52.6367751  50.1824268  18.7100940  54.2917334  60.5726336  19.9260722
  54.2493513  60.7987182  18.9969254  55.2080033  60.3389710  20.0746523
  57.7382968  51.0410403  26.8241351  58.0932356  51.2681877  27.6835817
  58.3855099  51.3728780  26.2018607  63.4680705  54.1628839  17.5290680
  63.3298604  54.3530435  16.6011870  63.1116924  54.9248222  17.9858731
  51.6322831  48.1486934  23.6087692  52.2722211  48.0075694  22.9110656
  50.8000362  47.8621448  23.2326294  63.4950085  56.2305366  22.5401952
  63.9286591  56.1380655  23.3885006  64.2081665  56.2062867  21.9021968
  52.4083135  57.4489365  19.7222685  53.2023734  56.9539685  19.5205260
  51.6974828  56.9207228  19.3590390  57.2277980  59.8307460  24.0735052
  57.2815002  60.3998397  24.8412768  56.3592761  60.0009345  23.7089090
  48.7165899  51.5932447  15.7982437  47.7863487  51.5316902  16.0152400
  48.8123371  51.0708399  15.0019079  48.6351448  48.1187259  18.3860679
  48.8958265  49.0332593  18.2769840  49.4568620  47.6511702  18.5357292
  50.1076373  49.5325017  25.5559504  50.7799426  49.3242379  24.9072153
  49.2806160  49.3347103  25.1164736  56.0101945  46.1586958  27.5725165
  55.3629860  46.8576907  27.4789641  56.7802960  46.5923101  27.9401413
  56.1866079  53.9967722  25.6321984  57.1158139  54.1478882  25.4590952
  55.7657109  54.0851743  24.7770631  54.9854411  58.0218387  23.4020522
  54.8465497  57.6537171  24.2746460  54.1969007  58.5366026  23.2304480
  55.5802563  63.1227483  14.7446058  55.7554319  62.6515526  15.5591681
  54.8935351  63.7493250  14.9727319  56.5359626  57.3999990  20.7909360
  56.2009459  57.3600760  21.6867010  56.0363572  56.7344705  20.3179770
  50.5103870  52.8067620  26.3161941  50.3723668  52.0747858  26.9173480
  51.4208794  52.7176520  26.0346129  59.4718818  54.7456024  11.0646419
  58.8547989  54.0202852  10.9679472  59.0035306  55.5065384  10.7213494
  53.1386171  52.5187579  25.8045620  53.8485789  51.8780771  25.7632239
  53.0955479  52.7700474  26.7271801  51.8515105  49.5052797  27.6241260
  51.3152462  49.0543535  28.2762856  51.2631813  49.6398706  26.8811724
  50.1463648  66.2716846  21.5185919  50.3860247  66.9035370  22.1964937
  49.3032845  65.9204886  21.8051278  51.2617364  48.9641448  10.1867724
  50.3846830  48.8430249   9.8229970  51.7375117  48.1727526   9.9346612
  42.7819504  53.7518608  20.2809231  43.4690544  53.4380338  19.6930246
  42.6267633  54.6559973  20.0076482  47.5854226  48.6408804  24.7094254
  47.5012415  48.0334474  23.9744664  46.7636933  49.1317823  24.7103751
  54.6591510  62.0795969  23.9227423  54.5861682  62.8850940  24.4346727
  54.2168903  62.2787934  23.0975444  54.4481290  61.3167739  17.4330244
  53.6648812  61.8589419  17.5268469  55.1474035  61.8341718  17.8324485
  57.7577940  47.1262368  20.0764449  58.2546640  46.3732330  19.7565520
  56.9864922  47.1626685  19.5107659  65.6107697  52.8302734  21.7182741
  65.5997574  53.7127449  21.3476674  64.7425077  52.4774284  21.5237278
  57.1190194  61.9782803  26.0785581  57.8318166  62.6130267  26.0061483
  56.6280222  62.0746669  25.2625583  58.8407721  55.8834055  17.6502873
  57.9063999  56.0035518  17.4807577  59.0184389  54.9806522  17.3862883
  54.3412909  49.2679751  19.8036134  53.9710696  48.7150791  20.4917040
  54.8372001  48.6637884  19.2511134  62.2280272  51.7251375  18.1852907
  62.6940724  52.5579366  18.1113210  62.6787773  51.2596356  18.8898166
  52.1702107  59.7277246  26.8991152  52.8711567  60.3613729  27.0520546
  51.6997222  60.0691978  26.1386791  60.2956503  58.0695196  15.1839059
  60.5716347  57.9551790  16.0932933  59.4261002  57.6712681  15.1451232
  60.1996935  44.0931961  22.2243808  59.2860015  44.3236188  22.3926015
  60.6290036  44.1770406  23.0757841  59.9703393  52.2821853  24.7243702
  59.3174844  52.5297761  24.0696155  60.3483773  51.4685992  24.3906180
  56.9310567  62.3181547  18.8271873  57.1132962  61.5003203  19.2899625
  57.7543553  62.5349239  18.3896763  57.2652733  61.2449732  16.0886921
  57.7940499  60.7342186  15.4757083  57.5280952  60.9292262  16.9532454
  47.7669825  59.2613601  23.8322255  48.3523262  58.5157289  23.9650159
  47.5694664  59.5717558  24.7158919  50.6208481  62.2964848  18.8484697
  49.9518856  62.7810976  18.3648737  50.4821350  62.5434069  19.7628076
  42.3587480  51.8319201  22.5526698  42.3971580  51.2982792  23.3463816
  41.8527773  51.3054407  21.9337675  54.7613749  64.3308592  25.4467355
  55.3132057  64.4940213  26.2116441  55.1019943  64.9213030  24.7747380
  49.7378242  46.6783742  26.0489240  49.8019569  47.5398573  25.6366638
  49.6745363  46.0657743  25.3161599  49.2130515  48.7506874  29.6962274
  49.8402554  48.3683952  30.3099799  48.3558434  48.5321076  30.0617967
  45.9896058  50.5583303  15.6280629  46.2849499  49.6493982  15.5747683
  45.0884093  50.5371043  15.3061632  57.8982136  62.2790567  22.4331038
  57.7733276  61.4780307  21.9241983  58.5561228  62.7736761  21.9445008
  49.5190305  48.6339300  21.6108178  48.7976890  49.2475268  21.4715651
  50.3083560  49.1697065  21.5324824  59.9617045  60.0799588  24.0610588
  59.0147380  59.9604939  23.9888914  60.3099818  59.1922086  24.1436849
  52.3216618  45.9693726  27.8848830  52.8451020  46.2156023  28.6475139
  52.1028952  46.8013761  27.4651967  47.7183899  48.2397401  15.7519954
  47.3896605  47.3594780  15.5695060  48.0723270  48.1845070  16.6396344
  56.9663478  59.8752304  20.2614940  56.8188441  58.9469011  20.4422510
  57.7916972  59.8972395  19.7772015  50.8325722  48.5270371  16.1195432
  51.1721795  49.0556292  15.3974040  51.2797843  48.8650777  16.8953999
  60.5697600  60.6980863  21.3479813  61.4944147  60.4923724  21.2104264
  60.4012903  60.4497264  22.2569154  53.5269163  46.9107422  25.5698500
  53.1865984  46.1115235  25.9719180  52.8208170  47.2109132  24.9975333
  54.1785635  43.9956734  24.0225823  55.0011704  43.5217212  23.9004713
  54.4223699  44.7747218  24.5224509  52.8193870  47.0244992  14.3188725
  53.5402232  47.4026245  13.8152442  52.1959174  47.7433869  14.4223703
  56.9624992  47.7290141  15.2547057  57.1788607  48.6114779  14.9535885
  56.4819060  47.3376355  14.5252699  51.7024214  50.6875855  21.8317802
  51.5568795  51.0016158  22.7242083  51.2249417  51.3060755  21.2788700
  53.5620597  47.6778403  21.8798691  53.5482165  46.7819496  21.5430989
  54.2793025  47.6849066  22.5136977  55.4146727  48.1115743  23.9251819
  55.1564505  49.0332814  23.9236149  54.8831768  47.7146177  24.6152283
  60.3592916  61.2166530  16.7041904  60.5329794  60.6512952  15.9515757
  60.8521807  62.0167425  16.5221394  46.1769876  53.2281199  24.7705463
  45.6323344  54.0041007  24.9025737  47.0549226  53.5752004  24.6124584
  52.9657493  46.5592783  17.1486261  53.0873404  45.6309429  17.3477149
  52.6759535  46.5731469  16.2364577  55.8348683  44.2447693  20.2852981
  55.8570380  44.3087026  19.3304961  56.2516742  43.4052202  20.4793487
  66.2132307  53.9802953  18.3232204  66.6563453  53.2310278  17.9251327
  65.3358818  53.9713089  17.9405936  61.3468089  60.5333294  13.8038802
  62.0418993  61.1539987  14.0226117  61.6891239  59.6828646  14.0791180
  46.9635898  52.3551095  27.6635620  46.2217634  52.5033731  28.2500250
  46.6428642  52.6159361  26.8002369  63.2459512  57.9833000  15.3326133
  63.7710836  58.3220273  14.6075453  63.1581864  57.0480015  15.1489268
  54.9300173  64.0504983  19.6921386  54.4905163  63.5581362  20.3854243
  55.6808290  63.5077951  19.4513462  47.4092512  60.2416524  19.6946014
  48.2350531  59.9420296  19.3144658  47.0586564  59.4724146  20.1435803
  52.3774045  59.5942992  21.7643688  51.7554054  58.9313697  21.4645916
  53.0478912  59.6204124  21.0817336  45.6101117  58.1602851  20.6534948
  44.7733025  57.7325025  20.4718949  45.5824762  58.3535294  21.5905739
  52.4498572  48.0724780  31.3576194  52.4986728  48.9486903  30.9753964
  52.9921086  47.5302173  30.7847837  51.9387552  58.1446916  15.2402149
  52.0875672  58.8282380  14.5868821  52.7453995  58.1252006  15.7551604
  54.6797861  48.8256153  28.1122553  53.8101170  49.1189719  27.8405141
  54.9157341  49.4096598  28.8329816  65.7565172  55.4508191  20.7154651
  66.5912063  55.8897995  20.8792212  65.8924301  54.9746844  19.8962897
  49.6940185  54.1712093  16.2463217  49.4486227  53.2674423  16.4443428
  49.8636099  54.1729244  15.3042695  57.3836894  45.0435770  25.6287973
  57.9018838  45.7796797  25.3034462  57.0292027  45.3499763  26.4634732
  48.9635832  49.9040451  13.7449379  48.2705077  49.9784806  13.0889415
  48.7187584  49.1400794  14.2670896  57.6349489  41.4636052  21.1488870
  57.9151242  40.7959241  21.7749296  58.4200096  41.6565148  20.6363534
  55.4382957  60.6395046  12.7113896  54.8656924  61.2585233  12.2584368
  56.0115751  61.1894408  13.2453818  61.5058347  49.8853686  24.8960445
  62.4575770  49.9851784  24.9172669  61.3361797  49.0931955  25.4058529
  59.5272726  46.9709269  25.0819846  58.9322659  47.2514282  24.3866334
  59.2422423  47.4603170  25.8536587  58.6580217  60.9232196  13.8422478
  59.5910890  60.8577758  14.0455354  58.5703430  61.7588463  13.3837011
  61.2868234  60.2398067  10.8026426  61.2081865  59.9057930  11.6962184
  62.1077900  60.7319834  10.8017898  63.9846425  53.1059806  24.0102744
  63.9522745  52.1675807  24.1962428  64.5947048  53.1843843  23.2768569
  55.8229756  51.9755859  10.0529949  56.7688860  51.8462067  10.1218367
  55.4444001  51.2370521  10.5299377  64.1340913  49.8970849  24.0561028
  63.6179962  49.1129306  23.8690957  65.0180862  49.5689566  24.2207547
  61.7951640  43.6411865  20.0156840  61.5976461  43.3326953  20.9000172
  62.4051346  44.3673504  20.1454770  54.0072673  49.9005835   9.9884834
  53.1004128  49.6038948  10.0647547  54.2848654  49.6035653   9.1219120
  44.9250613  51.2212199  20.4383880  44.6053398  50.3677507  20.1458254
  44.3784041  51.4360777  21.1941847  48.7030521  53.9374640  24.1553387
  48.9216531  54.8691747  24.1741420  49.1156295  53.5782614  24.9408190
  55.6234739  44.4442725  16.1429075  54.8135467  44.0989810  16.5184321
  56.3119155  44.1350269  16.7316687  57.5525287  43.5220772  17.7653372
  58.1056325  43.9416225  18.4243395  57.7895373  42.5956520  17.8076328
  53.5758386  49.5107845  33.5456136  53.4755113  50.4602202  33.4768227
  53.3579928  49.1826084  32.6732206  52.7771457  46.7592770  10.1296813
  53.6390621  47.0847669  10.3892630  52.9621802  45.9724266   9.6169879
  44.7938873  54.8415110  22.4077002  44.1002345  54.4269063  21.8946956
  45.5411864  54.8835647  21.8110421  60.9304094  45.6321297  17.2732036
  60.3502763  46.2906101  16.8910088  60.6640027  44.8098641  16.8619453
  59.3807660  45.0326355  19.4753356  59.8807439  45.1442889  18.6667675
  60.0243268  44.7287407  20.1154165  53.4389656  52.9404984  32.3621197
  52.9556738  53.7405344  32.5685086  53.5250595  52.9512929  31.4088641
  46.7075616  54.7733364  20.2843017  46.6846304  54.8721051  19.3324900
  47.0176252  55.6198515  20.6060183  49.3662994  56.8309519  24.3989631
  50.3206247  56.7993461  24.3319563  49.1675517  56.3700143  25.2139857
  49.9562376  55.4010635  26.9660429  50.7755265  55.8954714  26.9895266
  50.2299183  54.4842603  26.9377996  59.7128972  47.7921387  16.3288384
  58.8254827  48.0771038  16.1108579  60.1282961  47.6315151  15.4815661
  63.0643508  47.8167908  20.0442723  63.8403898  48.3064361  20.3167340
  62.3391642  48.2425962  20.5014593  65.5016067  48.5295527  21.1016664
  66.0960557  48.2891263  20.3909972  65.5742650  47.8102658  21.7290200
  47.7213222  62.3729138  21.4159829  47.5867690  61.6129539  20.8497827
  47.3045285  63.0970038  20.9488618  58.8572185  57.5566062  10.4236404
  59.5608036  57.7616064  11.0394060  58.1334834  58.1242824  10.6885488
  59.6869996  53.3075923  16.5438674  59.6305197  53.7644475  15.7046307
  60.2398338  52.5466608  16.3661517  63.4974802  49.0965655  17.3688794
  63.2411736  48.6962291  18.1997002  62.8727670  49.8109449  17.2438933
  67.8087139  51.8361728  19.8760085  67.2486697  51.9054918  20.6491647
  67.2030643  51.6602713  19.1559581  50.8782348  63.2698455  21.6278272
  50.7614732  64.2143888  21.5256962  50.0574795  62.9672017  22.0164071
  60.7658883  57.9948591  12.4734864  61.6004487  57.5629790  12.2912339
  60.6043226  57.8230605  13.4011759  60.4204775  54.4980704  13.8391204
  60.3653579  54.3324976  12.8979648  59.7950830  55.2056737  13.9953393
  45.2097290  49.7348769  27.6652626  45.8556154  49.2247723  28.1539851
  45.0014441  50.4717450  28.2396051  53.7300900  43.9988813  13.4176522
  53.7179570  44.9430653  13.5744793  54.6224322  43.8158959  13.1235983
  51.9036862  63.9226717  24.8434200  52.8064109  63.9550328  25.1600695
  51.6774232  62.9927168  24.8580536  53.6590464  62.6757704  21.5044279
  52.7086095  62.6759565  21.3908651  53.9622951  61.9290438  20.9880313
  57.5453020  40.5931590  17.6722459  56.7785416  40.0390077  17.8179141
  57.9563725  40.6653459  18.5336610  49.5494781  46.8816386  31.7627640
  50.4126243  46.5253191  31.9730965  48.9760192  46.5430281  32.4503044
  69.3943158  68.5118242  22.5690041  70.0321568  68.3924990  21.8653381
  69.2764001  69.4599086  22.6277993  66.2032864  68.4645670  22.5051566
  65.8651376  68.3486735  21.6172101  67.0722632  68.0636835  22.4852572
  62.0619680  70.3181147  18.4948457  61.4984545  70.2271084  17.7264744
  61.9472075  69.4981051  18.9750949  59.6084112  71.8132338  21.3332677
  60.4005404  71.4723163  20.9178976  59.8480762  71.9227313  22.2534830
  67.6419239  73.9852114  13.8062922  66.9907218  74.5706195  13.4196935
  68.4363601  74.5158309  13.8657959  61.5674866  71.0741252  14.2050056
  62.3405742  70.5270239  14.0662932  61.9200265  71.9385501  14.4164517
  64.3316115  69.7794482  24.0018315  64.9279687  69.5550505  23.2875278
  64.3891087  69.0379228  24.6043763  63.9041144  67.2333918  11.8368506
  64.1566664  66.7115439  11.0751969  62.9665703  67.0700063  11.9395189
  68.9484426  66.2369696  19.6443249  69.7347516  65.8189119  19.2933666
  69.2123131  67.1415788  19.8124897  69.1194504  71.6742546  14.3431906
  68.4840337  71.7477173  15.0552810  68.7891910  72.2636145  13.6650985
  74.3492854  66.1744929  20.5476228  75.0818025  65.6044146  20.7814057
  73.5932209  65.7866530  20.9882733  63.6237432  69.1362024  14.0392881
  63.5073690  68.4606927  14.7073965  63.7339692  68.6494398  13.2225034
  65.9668973  68.5972171  17.7439570  65.6027180  68.0702792  18.4552491
  66.8236089  68.2070640  17.5706055  65.6074460  63.6262070  12.7400919
  65.7748863  64.4942307  13.1071390  65.4171629  63.7889352  11.8162208
  68.3649793  72.0879049  24.4066749  68.0650516  72.9904088  24.2982556
  68.0200853  71.8211233  25.2587902  71.7646937  64.6061590  22.0864186
  70.8563815  64.5376998  21.7922947  71.7134533  65.0833535  22.9146012
  65.5863681  66.0819728  13.7247585  65.4663306  66.5276779  14.5633066
  64.8916269  66.4305046  13.1661123  63.3470573  78.8523370  17.3737717
  63.2694603  79.8031195  17.4526197  62.7432217  78.5069242  18.0312643
  73.6308584  62.8078028  23.8642060  72.9882964  63.1010561  23.2181855
  73.1263512  62.6930948  24.6695257  71.2848747  66.5541201  14.5527919
  72.1966603  66.7868588  14.3775617  70.7758394  67.1378245  13.9902998
  69.8918330  71.5367020  21.9441501  69.2627192  71.7012734  21.2417569
  69.5043992  71.9508629  22.7152465  73.7707561  72.4721457  19.2985865
  73.0858600  72.8520359  18.7482898  73.8551411  73.0816784  20.0317812
  71.0258493  70.1181416  25.8981208  71.2375388  70.7613176  25.2215589
  70.9788241  69.2843733  25.4303138  68.6284722  62.7299237  22.8017780
  67.7669201  63.0280491  23.0934518  68.6547157  62.9469636  21.8698813
  65.4446291  71.2741428  19.2091586  65.9084637  71.5529131  18.4196208
  65.1803090  70.3724872  19.0264677  64.3815177  67.3964580  16.0181151
  65.0839221  67.8485624  16.4855077  64.0495806  66.7548399  16.6461044
  58.1240511  65.6548133  21.3198285  57.3339565  65.9105661  20.8438395
  58.6151759  66.4696471  21.4250325  72.1404321  72.9953372  24.0703565
  72.9621765  72.5933559  23.7886247  72.1366724  72.8921606  25.0219681
  60.0755257  66.0192712  18.2781761  59.2786420  66.1311406  18.7965257
  59.8480849  66.3579364  17.4122652  56.4078214  65.9078623  23.7513275
  56.6586253  66.7925633  24.0170851  56.9437763  65.7283225  22.9788367
  80.2310314  69.3392120  20.4188537  79.4774022  68.7699518  20.2632541
  80.3657855  69.3054785  21.3659172  65.6208942  74.2105523  16.0943256
  65.4854617  75.0557058  16.5228104  66.1618755  74.4124800  15.3309190
  59.0738339  71.7280961  16.6671181  59.5862860  72.5224211  16.8176746
  59.7261052  71.0307251  16.6004783  60.8833224  74.8446717  18.7493935
  61.0599853  75.7664682  18.5614918  61.6790058  74.5305136  19.1788314
  62.0064540  76.3624891  24.7504277  62.5571965  76.2341954  23.9781271
  61.1676016  76.6619780  24.3999170  69.3458657  75.1131889  28.2525000
  69.3277132  75.9340770  27.7605269  70.2678577  74.9885964  28.4775141
  57.0387256  70.0569615  17.4430752  57.8762478  70.4666623  17.2264460
  57.2165524  69.1169057  17.4130946  68.9351688  67.7244696  13.1314585
  68.4198312  68.4949300  13.3702972  68.6628997  67.0509832  13.7547646
  66.5198799  62.5694396  18.1899823  65.6640396  62.1801247  18.0105462
  66.9325751  62.6486357  17.3299609  64.2940832  60.1879469  21.5957565
  65.1593829  59.9922278  21.2363454  64.3618341  59.9589821  22.5226921
  73.9085963  70.4777050  15.0667758  73.1315405  70.1388210  14.6222920
  74.5877444  70.4829674  14.3922723  68.7237992  65.5971788  14.9574366
  68.4188127  65.9117937  15.8084509  69.6768434  65.6753208  15.0001699
  67.1684423  71.7562011  16.6067320  66.6405785  71.0214771  16.2940557
  66.6671926  72.5336687  16.3607288  72.1477269  69.9511032  21.7234366
  71.4900944  70.6410293  21.8114495  72.9517669  70.3407464  22.0668353
  61.9003151  62.4181677  18.9673932  62.4746903  62.1956859  18.2347124
  62.4874133  62.4870372  19.7202533  70.9582728  68.3055404  19.7738308
  71.4714610  68.9385396  20.2760018  71.6083952  67.7056600  19.4081668
  62.2272738  64.4486138  12.9869817  61.3910050  64.7860825  13.3079092
  62.0877508  64.3135118  12.0496954  64.2025819  59.2922926  17.6949001
  63.5490231  58.9771943  17.0705616  64.1606293  58.6698667  18.4208824
  65.3137024  69.5742221   9.6102293  64.4064085  69.3431475   9.8093442
  65.8108056  68.7779841   9.7976275  68.2205102  78.2839729  12.5298979
  67.5466801  78.5871425  13.1383937  68.6070924  79.0868809  12.1804436
  67.4363559  65.7804860  22.0196649  66.5186120  66.0019807  21.8618337
  67.8523703  65.8551170  21.1608356  68.2198607  67.1796276  17.1499329
  68.9670426  67.6917673  16.8406451  68.4890196  66.8580328  18.0103722
  66.4925257  69.6754816  14.1326283  65.5836476  69.3913849  14.2298753
  66.5220341  70.0953895  13.2729590  71.7244524  73.2861406  17.9017451
  71.2706852  72.4452316  17.9582641  71.0938491  73.9222804  18.2392231
  70.6677444  64.2153392  19.1318118  69.9300201  63.7030778  19.4628361
  70.9204218  63.7753773  18.3201395  70.1677464  75.1237902  18.8367269
  70.4600438  75.6842960  18.1179634  70.6776084  75.4166463  19.5920428
  70.7689071  56.9929644  19.7259887  71.0747948  56.1327007  19.4385803
  71.4941676  57.5847264  19.5258881  57.0613427  67.3960330  18.1141485
  56.8637827  66.8029691  17.3892552  56.5060091  67.0912541  18.8317424
  65.0410151  67.2883437  20.2336079  65.0958761  66.3357273  20.1578555
  64.2301353  67.4442876  20.7177377  66.1901345  71.2163560  11.4714362
  65.7520775  70.4999419  11.0119999  66.9311786  71.4439675  10.9099453
  62.9802511  65.9060497  17.9926457  62.1670377  66.2054667  18.3991650
  63.4761505  65.5116185  18.7100940  65.1311089  75.9018254  19.9260722
  65.0887268  76.1279100  18.9969254  66.0473788  75.6681628  20.0746523
  74.3074460  69.4920757  17.5290680  74.1692358  69.6822353  16.6011870
  73.9510678  70.2540140  17.9858731  62.4716586  63.4778852  23.6087692
  63.1115965  63.3367611  22.9110656  61.6394116  63.1913365  23.2326294
  74.3343839  71.5597284  22.5401952  74.7680346  71.4672573  23.3885006
  75.0475420  71.5354784  21.9021968  63.2476890  72.7781283  19.7222685
  64.0417488  72.2831603  19.5205260  62.5368582  72.2499146  19.3590390
  68.0671734  75.1599378  24.0735052  68.1208756  75.7290314  24.8412768
  67.1986515  75.3301263  23.7089090  59.5559653  66.9224364  15.7982437
  58.6257241  66.8608820  16.0152400  59.6517125  66.4000317  15.0019079
  59.4745202  63.4479177  18.3860679  59.7352019  64.3624510  18.2769840
  60.2962374  62.9803620  18.5357292  75.1959389  71.6020985  25.0734837
  75.3895279  72.5066795  25.3194112  75.0960007  71.1428404  25.9073422
  67.0259834  69.3259640  25.6321984  67.9551894  69.4770800  25.4590952
  66.6050864  69.4143661  24.7770631  65.8248166  73.3510305  23.4020522
  65.6859251  72.9829089  24.2746460  65.0362762  73.8657944  23.2304480
  66.4196318  78.4519401  14.7446058  66.5948073  77.9807444  15.5591681
  65.7329106  79.0785167  14.9727319  67.3753381  72.7291907  20.7909360
  67.0403213  72.6892677  21.6867010  66.8757326  72.0636623  20.3179770
  70.3112572  70.0747942  11.0646419  69.6941743  69.3494770  10.9679472
  69.8429061  70.8357302  10.7213494  71.9666704  74.7846850  28.7252200
  71.9079250  74.1006070  28.0582783  72.3686222  75.5265840  28.2732826
  60.9857403  81.6008764  21.5185919  61.2254001  82.2327288  22.1964937
  60.1426599  81.2496804  21.8051278  62.1011118  64.2933366  10.1867724
  61.2240585  64.1722167   9.8229970  62.5768871  63.5019444   9.9346612
  71.9684111  72.7486434  26.9566179  71.0810890  72.4112356  27.0792578
  72.5382662  72.0169465  27.1934945  53.6213258  69.0810526  20.2809231
  54.3084298  68.7672256  19.6930246  53.4661387  69.9851890  20.0076482
  65.4985265  77.4087886  23.9227423  65.4255436  78.2142858  24.4346727
  65.0562658  77.6079852  23.0975444  65.2875044  76.6459656  17.4330244
  64.5042566  77.1881336  17.5268469  65.9867790  77.1633636  17.8324485
  68.5971695  62.4554286  20.0764449  69.0940394  61.7024248  19.7565520
  67.8258676  62.4918602  19.5107659  76.4501452  68.1594651  21.7182741
  76.4391328  69.0419367  21.3476674  75.5818831  67.8066202  21.5237278
  67.9583948  77.3074720  26.0785581  68.6711920  77.9422185  26.0061483
  67.4673977  77.4038586  25.2625583  69.6801475  71.2125973  17.6502873
  68.7457754  71.3327435  17.4807577  69.8578144  70.3098440  17.3862883
  65.1806663  64.5971669  19.8036134  64.8104451  64.0442709  20.4917040
  65.6765756  63.9929802  19.2511134  73.0674027  67.0543292  18.1852907
  73.5334479  67.8871284  18.1113210  73.5181527  66.5888274  18.8898166
  63.0095862  75.0569164  26.8991152  63.7105321  75.6905647  27.0520546
  62.5390977  75.3983895  26.1386791  71.1350258  73.3987113  15.1839059
  71.4110102  73.2843708  16.0932933  70.2654756  73.0004598  15.1451232
  71.0390689  59.4223879  22.2243808  70.1253769  59.6528106  22.3926015
  71.4683791  59.5062323  23.0757841  70.8097148  67.6113771  24.7243702
  70.1568598  67.8589679  24.0696155  71.1877528  66.7977909  24.3906180
  67.7704322  77.6473464  18.8271873  67.9526716  76.8295120  19.2899625
  68.5937308  77.8641157  18.3896763  68.1046487  76.5741649  16.0886921
  68.6334254  76.0634104  15.4757083  68.3674707  76.2584180  16.9532454
  58.6063580  74.5905519  23.8322255  59.1917017  73.8449207  23.9650159
  58.4088418  74.9009475  24.7158919  61.4602235  77.6256766  18.8484697
  60.7912610  78.1102894  18.3648737  61.3215105  77.8725987  19.7628076
  53.1981235  67.1611119  22.5526698  53.2365334  66.6274710  23.3463816
  52.6921527  66.6346324  21.9337675  65.6007504  79.6600510  25.4467355
  66.1525812  79.8232131  26.2116441  65.9413697  80.2504947  24.7747380
  56.8289812  65.8875221  15.6280629  57.1243253  64.9785900  15.5747683
  55.9277848  65.8662961  15.3061632  68.7375891  77.6082485  22.4331038
  68.6127030  76.8072225  21.9241983  69.3954982  78.1028679  21.9445008
  60.3584059  63.9631218  21.6108178  59.6370645  64.5767185  21.4715651
  61.1477315  64.4988982  21.5324824  70.8010799  75.4091505  24.0610588
  69.8541135  75.2896856  23.9888914  71.1493572  74.5214003  24.1436849
  58.5577654  63.5689319  15.7519954  58.2290360  62.6886698  15.5695060
  58.9117024  63.5136987  16.6396344  67.8057233  75.2044221  20.2614940
  67.6582195  74.2760929  20.4422510  68.6310726  75.2264312  19.7772015
  61.6719477  63.8562289  16.1195432  62.0115549  64.3848210  15.3974040
  62.1191597  64.1942695  16.8953999  71.4091354  76.0272780  21.3479813
  72.3337902  75.8215642  21.2104264  71.2406658  75.7789181  22.2569154
  63.6587624  62.3536910  14.3188725  64.3795987  62.7318163  13.8152442
  63.0352928  63.0725787  14.4223703  67.8018747  63.0582059  15.2547057
  68.0182361  63.9406697  14.9535885  67.3212814  62.6668273  14.5252699
  64.4014351  63.0070320  21.8798691  64.3875920  62.1111414  21.5430989
  65.1186779  63.0140984  22.5136977  71.1986671  76.5458448  16.7041904
  71.3723548  75.9804870  15.9515757  71.6915562  77.3459343  16.5221394
  63.8051247  61.8884701  17.1486261  63.9267158  60.9601347  17.3477149
  63.5153290  61.9023387  16.2364577  66.6742438  59.5739611  20.2852981
  66.6964134  59.6378944  19.3304961  67.0910497  58.7344120  20.4793487
  77.0526062  69.3094871  18.3232204  77.4957208  68.5602196  17.9251327
  76.1752572  69.3005007  17.9405936  72.1861843  75.8625212  13.8038802
  72.8812748  76.4831905  14.0226117  72.5284993  75.0120563  14.0791180
  74.0853266  73.3124918  15.3326133  74.6104590  73.6512190  14.6075453
  73.9975619  72.3771933  15.1489268  65.7473315  77.2258991  27.4616010
  66.0560441  76.9808138  28.3338709  66.5448797  77.4305630  26.9734880
  65.7693927  79.3796901  19.6921386  65.3298917  78.8873280  20.3854243
  66.5202044  78.8369869  19.4513462  58.2486266  75.5708442  19.6946014
  59.0744286  75.2712214  19.3144658  57.8980318  74.8016064  20.1435803
  63.2167799  74.9234910  21.7643688  62.5947808  74.2605615  21.4645916
  63.8872666  74.9496042  21.0817336  56.4494871  73.4894768  20.6534948
  55.6126779  73.0616943  20.4718949  56.4218517  73.6827212  21.5905739
  73.8945047  70.7950288  27.9510060  73.9443052  70.6300295  28.8925582
  73.7858971  69.9277547  27.5607940  62.7781306  73.4738833  15.2402149
  62.9269426  74.1574298  14.5868821  63.5847750  73.4543923  15.7551604
  75.3963244  73.2147229  28.1952081  75.1048053  73.5777210  29.0315542
  74.7835376  72.5014237  28.0165413  76.5958927  70.7800109  20.7154651
  77.4305818  71.2189913  20.8792212  76.7318055  70.3038762  19.8962897
  73.6450433  68.3379844  26.6632139  74.1204554  68.5307490  25.8550991
  72.7215998  68.3939030  26.4175523  60.5333939  69.5004011  16.2463217
  60.2879981  68.5966341  16.4443428  60.7029854  69.5021161  15.3042695
  59.8029587  65.2332369  13.7449379  59.1098832  65.3076723  13.0889415
  59.5581339  64.4692712  14.2670896  68.4743243  56.7927970  21.1488870
  68.7544997  56.1251159  21.7749296  69.2593850  56.9857065  20.6363534
  66.2776712  75.9686964  12.7113896  65.7050679  76.5877151  12.2584368
  66.8509505  76.5186325  13.2453818  72.3452101  65.2145604  24.8960445
  73.2969524  65.3143701  24.9172669  72.1755552  64.4223872  25.4058529
  69.4973971  76.2524114  13.8422478  70.4304645  76.1869676  14.0455354
  69.4097184  77.0880381  13.3837011  72.1261988  75.5689984  10.8026426
  72.0475620  75.2349848  11.6962184  72.9471655  76.0611752  10.8017898
  74.8240179  68.4351724  24.0102744  74.7916499  67.4967724  24.1962428
  75.4340803  68.5135760  23.2768569  66.6623510  67.3047777  10.0529949
  67.6082615  67.1753985  10.1218367  66.2837755  66.5662438  10.5299377
  74.9734668  65.2262767  24.0561028  74.4573716  64.4421224  23.8690957
  75.8574616  64.8981484  24.2207547  72.6345395  58.9703783  20.0156840
  72.4370216  58.6618871  20.9000172  73.2445100  59.6965421  20.1454770
  80.6416729  69.4967730  23.1508781  81.3720118  69.2353018  23.7116485
  80.0323675  68.7596452  23.1910849  78.7232026  67.6375593  23.7483232
  77.9965190  67.5031558  23.1399724  78.3079313  67.9452422  24.5539951
  64.8466427  65.2297753   9.9884834  63.9397883  64.9330866  10.0647547
  65.1242408  64.9327571   9.1219120  55.7644368  66.5504116  20.4383880
  55.4447152  65.6969424  20.1458254  55.2177796  66.7652694  21.1941847
  66.4628493  59.7734643  16.1429075  65.6529221  59.4281728  16.5184321
  67.1512910  59.4642186  16.7316687  68.3919041  58.8512689  17.7653372
  68.9450080  59.2708143  18.4243395  68.6289128  57.9248438  17.8076328
  63.6165212  62.0884688  10.1296813  64.4784376  62.4139586  10.3892630
  63.8015556  61.3016184   9.6169879  55.6332628  70.1707028  22.4077002
  54.9396099  69.7560981  21.8946956  56.3805619  70.2127564  21.8110421
  71.7697848  60.9613215  17.2732036  71.1896517  61.6198019  16.8910088
  71.5033781  60.1390559  16.8619453  70.2201415  60.3618272  19.4753356
  70.7201193  60.4734807  18.6667675  70.8637023  60.0579325  20.1154165
  57.5469370  70.1025282  20.2843017  57.5240058  70.2012969  19.3324900
  57.8570007  70.9490432  20.6060183  70.5522726  63.1213305  16.3288384
  69.6648581  63.4062956  16.1108579  70.9676715  62.9607068  15.4815661
  73.9037263  63.1459826  20.0442723  74.6797653  63.6356278  20.3167340
  73.1785397  63.5717880  20.5014593  76.3409821  63.8587445  21.1016664
  76.9354312  63.6183181  20.3909972  76.4136405  63.1394576  21.7290200
  58.5606977  77.7021056  21.4159829  58.4261445  76.9421457  20.8497827
  58.1439039  78.4261956  20.9488618  69.6965940  72.8857980  10.4236404
  70.4001790  73.0907982  11.0394060  68.9728589  73.4534742  10.6885488
  70.5263750  68.6367841  16.5438674  70.4698952  69.0936392  15.7046307
  71.0792093  67.8758525  16.3661517  74.3368556  64.4257573  17.3688794
  74.0805490  64.0254208  18.1997002  73.7121424  65.1401367  17.2438933
  78.6480894  67.1653646  19.8760085  78.0880452  67.2346835  20.6491647
  78.0424397  66.9894631  19.1559581  61.7176103  78.5990373  21.6278272
  61.6008487  79.5435806  21.5256962  60.8968549  78.2963935  22.0164071
  71.6052637  73.3240509  12.4734864  72.4398241  72.8921707  12.2912339
  71.4436980  73.1522523  13.4011759  71.2598529  69.8272622  13.8391204
  71.2047333  69.6616894  12.8979648  70.6344585  70.5348655  13.9953393
  64.5694655  59.3280731  13.4176522  64.5573325  60.2722571  13.5744793
  65.4618077  59.1450877  13.1235983  62.7430617  79.2518635  24.8434200
  63.6457864  79.2842245  25.1600695  62.5167987  78.3219086  24.8580536
  64.4984219  78.0049622  21.5044279  63.5479850  78.0051483  21.3908651
  64.8016705  77.2582356  20.9880313  68.3846774  55.9223508  17.6722459
  67.6179170  55.3681994  17.8179141  68.7957479  55.9945377  18.5336610
  80.2336912  83.8410160  22.5690041  80.8715322  83.7216907  21.8653381
  80.1157755  84.7891004  22.6277993  77.0426619  83.7937588  22.5051566
  76.7045130  83.6778653  21.6172101  77.9116387  83.3928753  22.4852572
  72.9013434  85.6473064  18.4948457  72.3378299  85.5563001  17.7264744
  72.7865829  84.8272969  18.9750949  77.5246402  84.9472440  28.4637771
  77.5135042  84.5525238  27.5918275  77.6867041  84.2138512  29.0571543
  70.4477866  87.1424256  21.3332677  71.2399158  86.8015081  20.9178976
  70.6874516  87.2519231  22.2534830  78.4812993  89.3144032  13.8062922
  77.8300973  89.8998113  13.4196935  79.2757356  89.8450227  13.8657959
  72.4068620  86.4033169  14.2050056  73.1799496  85.8562156  14.0662932
  72.7594019  87.2677419  14.4164517  74.2453663  87.7309552  27.4116955
  73.9543529  88.6355182  27.2963621  74.8810647  87.7726079  28.1261025
  75.1709870  85.1086400  24.0018315  75.7673442  84.8842422  23.2875278
  75.2284841  84.3671146  24.6043763  74.7434898  82.5625835  11.8368506
  74.9960419  82.0407357  11.0751969  73.8059457  82.3991981  11.9395189
  79.7878181  81.5661614  19.6443249  80.5741270  81.1481037  19.2933666
  80.0516885  82.4707706  19.8124897  79.9588258  87.0034464  14.3431906
  79.3234091  87.0769091  15.0552810  79.6285665  87.5928063  13.6650985
  85.1886608  81.5036847  20.5476228  85.9211780  80.9336064  20.7814057
  84.4325964  81.1158447  20.9882733  74.4631187  84.4653941  14.0392881
  74.3467445  83.7898845  14.7073965  74.5733447  83.9786315  13.2225034
  76.8062728  83.9264088  17.7439570  76.4420935  83.3994709  18.4552491
  77.6629844  83.5362558  17.5706055  82.7112028  75.2158421  25.0070836
  82.3795353  76.0853832  24.7832051  82.1157642  74.8994705  25.6864867
  76.4468215  78.9553988  12.7400919  76.6142617  79.8234225  13.1071390
  76.2565384  79.1181270  11.8162208  79.2043548  87.4170967  24.4066749
  78.9044271  88.3196006  24.2982556  78.8594607  87.1503150  25.2587902
  72.6556029  83.8684764  20.4403453  71.7306526  83.7360978  20.6481145
  72.9040443  84.6478983  20.9373396  82.6040692  79.9353507  22.0864186
  81.6957569  79.8668916  21.7922947  82.5528287  80.4125452  22.9146012
  76.4257436  81.4111646  13.7247585  76.3057061  81.8568696  14.5633066
  75.7310024  81.7596963  13.1661123  70.0164840  83.5118037  21.2747242
  70.1457222  83.7652516  22.1886654  69.3362292  84.1045745  20.9551897
  74.1864328  94.1815287  17.3737717  74.1088357  95.1323113  17.4526197
  73.5825971  93.8361160  18.0312643  76.6781557  81.3543153  30.0299083
  75.9014892  81.9137073  30.0201948  77.3172121  81.8399936  30.5513954
  84.4702338  78.1369946  23.8642060  83.8276718  78.4302479  23.2181855
  83.9657267  78.0222866  24.6695257  82.1242502  81.8833119  14.5527919
  83.0360358  82.1160506  14.3775617  81.6152149  82.4670163  13.9902998
  74.9327930  84.1628606  29.5917050  75.6742614  84.7013650  29.3151874
  74.2264915  84.7894895  29.7488602  80.4083269  86.3057747  28.1889212
  80.8166625  85.8640157  27.4443844  79.6860531  85.7310374  28.4423405
  76.7614339  81.2430353  25.5622769  77.6075535  81.6669767  25.7057418
  76.7012977  80.5863978  26.2561332  80.7312084  86.8658937  21.9441501
  80.1020946  87.0304651  21.2417569  80.3437746  87.2800547  22.7152465
  84.6101316  87.8013375  19.2985865  83.9252354  88.1812277  18.7482898
  84.6945165  88.4108702  20.0317812  79.9113785  78.9034722  27.2203943
  79.6674717  79.6576782  26.6838218  80.1873715  79.2820069  28.0551190
  81.8652248  85.4473334  25.8981208  82.0769143  86.0905094  25.2215589
  81.8181996  84.6135651  25.4303138  79.4678477  78.0591155  22.8017780
  78.6062956  78.3572408  23.0934518  79.4940911  78.2761554  21.8698813
  76.2840046  86.6033345  19.2091586  76.7478391  86.8821048  18.4196208
  76.0196844  85.7016790  19.0264677  73.1764127  86.1504827  22.1471349
  73.7465484  86.5792095  21.5088834  73.7672239  85.8687412  22.8455535
  75.2208932  82.7256498  16.0181151  75.9232975  83.1777541  16.4855077
  74.8889560  82.0840317  16.6461044  73.6689294  81.3168254  30.3932360
  73.0387954  81.9984535  30.6267757  73.5625381  81.2051336  29.4485499
  68.9634266  80.9840050  21.3198285  68.1733320  81.2397579  20.8438395
  69.4545513  81.7988388  21.4250325  82.9798075  88.3245290  24.0703565
  83.8015519  87.9225477  23.7886247  82.9760478  88.2213524  25.0219681
  70.9149011  81.3484630  18.2781761  70.1180175  81.4603324  18.7965257
  70.6874604  81.6871282  17.4122652  76.7454679  87.8729333  26.2264276
  76.8099111  88.3349740  27.0622448  76.0365603  87.2426698  26.3546586
  67.2471969  81.2370541  23.7513275  67.4980007  82.1217551  24.0170851
  67.7831517  81.0575142  22.9788367  91.0704069  84.6684038  20.4188537
  90.3167777  84.0991436  20.2632541  91.2051610  84.6346703  21.3659172
  76.4602697  89.5397440  16.0943256  76.3248371  90.3848976  16.5228104
  77.0012509  89.7416718  15.3309190  69.9132094  87.0572878  16.6671181
  70.4256615  87.8516129  16.8176746  70.5654807  86.3599169  16.6004783
  71.7226979  90.1738635  18.7493935  71.8993607  91.0956599  18.5614918
  72.5183812  89.8597054  19.1788314  71.0079335  82.2203267  28.6256098
  70.8932850  81.3188524  28.9263197  70.1523853  82.4666963  28.2740914
  78.0871173  90.1621007  30.2243598  77.6435027  89.3757385  29.9064503
  78.7488387  90.3500157  29.5587489  72.8458294  91.6916808  24.7504277
  73.3965719  91.5633872  23.9781271  72.0069770  91.9911698  24.3999170
  80.1852411  90.4423807  28.2525000  80.1670886  91.2632688  27.7605269
  81.1072331  90.3177882  28.4775141  76.6425465  87.9567936  29.0948508
  77.1753802  87.1956224  28.8647816  76.1139546  87.6641588  29.8372662
  79.8095160  73.0628002  24.6242150  79.4659430  73.9529644  24.5481260
  80.1774123  72.8729660  23.7611735  67.8781011  85.3861533  17.4430752
  68.7156233  85.7958541  17.2264460  68.0559278  84.4460975  17.4130946
  79.7745443  83.0536613  13.1314585  79.2592066  83.8241218  13.3702972
  79.5022751  82.3801750  13.7547646  77.3592554  77.8986314  18.1899823
  76.5034150  77.5093165  18.0105462  77.7719506  77.9778275  17.3299609
  78.8891701  75.4332657  22.5891383  78.3856496  75.3962793  21.7759188
  79.1822307  76.3425400  22.6488040  75.1334586  75.5171387  21.5957565
  75.9987583  75.3214196  21.2363454  75.2012095  75.2881739  22.5226921
  84.7479717  85.8068968  15.0667758  83.9709160  85.4680128  14.6222920
  85.4271198  85.8121591  14.3922723  79.5631746  80.9263705  14.9574366
  79.2581882  81.2409855  15.8084509  80.5162188  81.0045125  15.0001699
  78.0078178  87.0853929  16.6067320  77.4799539  86.3506688  16.2940557
  77.5065681  87.8628605  16.3607288  82.9871024  85.2802949  21.7234366
  82.3294698  85.9702211  21.8114495  83.7911423  85.6699381  22.0668353
  72.7396906  77.7473595  18.9673932  73.3140657  77.5248777  18.2347124
  73.3267888  77.8162290  19.7202533  81.7976483  83.6347322  19.7738308
  82.3108364  84.2677314  20.2760018  82.4477707  83.0348517  19.4081668
  73.0666493  79.7778056  12.9869817  72.2303805  80.1152743  13.3079092
  72.9271262  79.6427036  12.0496954  75.0419573  74.6214844  17.6949001
  74.3883986  74.3063861  17.0705616  75.0000047  73.9990584  18.4208824
  76.1530778  84.9034139   9.6102293  75.2457840  84.6723393   9.8093442
  76.6501810  84.1071758   9.7976275  78.2757314  81.1096778  22.0196649
  77.3579875  81.3311725  21.8618337  78.6917457  81.1843088  21.1608356
  79.0592361  82.5088193  17.1499329  79.8064180  83.0209590  16.8406451
  79.3283951  82.1872246  18.0103722  77.3319012  85.0046734  14.1326283
  76.4230231  84.7205767  14.2298753  77.3614095  85.4245812  13.2729590
  82.5638279  88.6153323  17.9017451  82.1100606  87.7744233  17.9582641
  81.9332246  89.2514722  18.2392231  81.5071198  79.5445309  19.1318118
  80.7693955  79.0322696  19.4628361  81.7597972  79.1045691  18.3201395
  81.0071218  90.4529820  18.8367269  81.2994193  91.0134877  18.1179634
  81.5169839  90.7458381  19.5920428  81.6082826  72.3221561  19.7259887
  81.9141703  71.4618925  19.4385803  82.3335431  72.9139182  19.5258881
  67.9007182  82.7252248  18.1141485  67.7031582  82.1321609  17.3892552
  67.3453846  82.4204458  18.8317424  75.8803906  82.6175355  20.2336079
  75.9352515  81.6649191  20.1578555  75.0695108  82.7734794  20.7177377
  77.0295099  86.5455478  11.4714362  76.5914529  85.8291337  11.0119999
  77.7705540  86.7731592  10.9099453  73.8196265  81.2352414  17.9926457
  73.0064131  81.5346585  18.3991650  74.3155260  80.8408103  18.7100940
  75.9704843  91.2310171  19.9260722  75.9281022  91.4571018  18.9969254
  76.8867542  90.9973546  20.0746523  79.4170477  81.6994239  26.8241351
  79.7719865  81.9265712  27.6835817  80.0642608  82.0312616  26.2018607
  85.1468214  84.8212675  17.5290680  85.0086113  85.0114271  16.6011870
  84.7904433  85.5832057  17.9858731  73.3110340  78.8070770  23.6087692
  73.9509720  78.6659529  22.9110656  72.4787871  78.5205283  23.2326294
  85.1737594  86.8889202  22.5401952  85.6074100  86.7964491  23.3885006
  85.8869174  86.8646702  21.9021968  74.0870644  88.1073200  19.7222685
  74.8811243  87.6123520  19.5205260  73.3762337  87.5791063  19.3590390
  78.9065489  90.4891296  24.0735052  78.9602511  91.0582232  24.8412768
  78.0380270  90.6593181  23.7089090  70.3953408  82.2516282  15.7982437
  69.4650996  82.1900737  16.0152400  70.4910880  81.7292235  15.0019079
  70.3138957  78.7771095  18.3860679  70.5745774  79.6916428  18.2769840
  71.1356129  78.3095537  18.5357292  71.7863882  80.1908852  25.5559504
  72.4586935  79.9826214  24.9072153  70.9593669  79.9930938  25.1164736
  86.0353143  86.9312902  25.0734837  86.2289033  87.8358713  25.3194112
  85.9353761  86.4720321  25.9073422  77.6889454  76.8170793  27.5725165
  77.0417369  77.5160743  27.4789641  78.4590469  77.2506937  27.9401413
  81.0968252  87.0819645  30.6475718  80.9453758  86.8530197  29.7305802
  81.0872931  88.0390246  30.6607063  77.8653588  84.6551558  25.6321984
  78.7945648  84.8062717  25.4590952  77.4444618  84.7435579  24.7770631
  76.6641920  88.6802222  23.4020522  76.5253006  88.3121007  24.2746460
  75.8756516  89.1949862  23.2304480  77.2590072  93.7811319  14.7446058
  77.4341828  93.3099362  15.5591681  76.5722860  94.4077085  14.9727319
  78.2147135  88.0583825  20.7909360  77.8796968  88.0184595  21.6867010
  77.7151081  87.3928541  20.3179770  72.1891379  83.4651455  26.3161941
  72.0511177  82.7331694  26.9173480  73.0996303  83.3760355  26.0346129
  81.1506327  85.4039859  11.0646419  80.5335498  84.6786687  10.9679472
  80.6822815  86.1649220  10.7213494  74.8173680  83.1771414  25.8045620
  75.5273298  82.5364606  25.7632239  74.7742988  83.4284309  26.7271801
  82.8060459  90.1138768  28.7252200  82.7473005  89.4297988  28.0582783
  83.2079977  90.8557758  28.2732826  73.5302614  80.1636632  27.6241260
  72.9939971  79.7127371  28.2762856  72.9419322  80.2982541  26.8811724
  71.8251157  96.9300681  21.5185919  72.0647756  97.5619206  22.1964937
  70.9820354  96.5788721  21.8051278  72.9404873  79.6225284  10.1867724
  72.0634339  79.5014084   9.8229970  73.4162626  78.8311362   9.9346612
  82.8077866  88.0778352  26.9566179  81.9204645  87.7404273  27.0792578
  83.3776417  87.3461383  27.1934945  64.4607013  84.4102443  20.2809231
  65.1478053  84.0964173  19.6930246  64.3055142  85.3143808  20.0076482
  69.2641735  79.2992640  24.7094254  69.1799924  78.6918309  23.9744664
  68.4424442  79.7901658  24.7103751  76.3379019  92.7379804  23.9227423
  76.2649191  93.5434775  24.4346727  75.8956412  92.9371770  23.0975444
  76.1268799  91.9751574  17.4330244  75.3436321  92.5173254  17.5268469
  76.8261544  92.4925554  17.8324485  79.4365449  77.7846203  20.0764449
  79.9334149  77.0316166  19.7565520  78.6652430  77.8210520  19.5107659
  87.2895206  83.4886569  21.7182741  87.2785083  84.3711284  21.3476674
  86.4212586  83.1358120  21.5237278  78.7977703  92.6366638  26.0785581
  79.5105675  93.2714103  26.0061483  78.3067731  92.7330504  25.2625583
  80.5195230  86.5417891  17.6502873  79.5851508  86.6619353  17.4807577
  80.6971898  85.6390357  17.3862883  76.0200418  79.9263586  19.8036134
  75.6498205  79.3734627  20.4917040  76.5159510  79.3221720  19.2511134
  83.9067781  82.3835210  18.1852907  84.3728233  83.2163201  18.1113210
  84.3575282  81.9180191  18.8898166  73.8489616  90.3861081  26.8991152
  74.5499076  91.0197564  27.0520546  73.3784731  90.7275813  26.1386791
  81.9744012  88.7279031  15.1839059  82.2503856  88.6135626  16.0932933
  81.1048511  88.3296516  15.1451232  81.8784444  74.7515797  22.2243808
  80.9647524  74.9820024  22.3926015  82.3077545  74.8354241  23.0757841
  81.6490902  82.9405689  24.7243702  80.9962353  83.1881596  24.0696155
  82.0271282  82.1269827  24.3906180  78.6098076  92.9765382  18.8271873
  78.7920471  92.1587038  19.2899625  79.4331062  93.1933074  18.3896763
  78.9440242  91.9033567  16.0886921  79.4728008  91.3926022  15.4757083
  79.2068461  91.5876097  16.9532454  77.6978475  83.6825500  31.2109739
  77.0219112  83.5819629  31.8812115  78.5206109  83.5264714  31.6745737
  69.4457334  89.9197436  23.8322255  70.0310771  89.1741124  23.9650159
  69.2482173  90.2301393  24.7158919  72.2995990  92.9548684  18.8484697
  71.6306365  93.4394811  18.3648737  72.1608859  93.2017904  19.7628076
  64.0374989  82.4903037  22.5526698  64.0759089  81.9566627  23.3463816
  63.5315282  81.9638242  21.9337675  76.4401258  94.9892427  25.4467355
  76.9919566  95.1524049  26.2116441  76.7807452  95.5796865  24.7747380
  71.4165751  77.3367577  26.0489240  71.4807078  78.1982408  25.6366638
  71.3532872  76.7241579  25.3161599  70.8918024  79.4090710  29.6962274
  71.5190063  79.0267787  30.3099799  70.0345943  79.1904912  30.0617967
  81.2912133  89.8153685  31.3016010  81.8352036  90.4283643  30.8070965
  80.7098977  90.3733263  31.8183023  67.6683567  81.2167139  15.6280629
  67.9637008  80.3077817  15.5747683  66.7671602  81.1954878  15.3061632
  79.5769645  92.9374403  22.4331038  79.4520785  92.1364143  21.9241983
  80.2348737  93.4320596  21.9445008  71.1977814  79.2923135  21.6108178
  70.4764399  79.9059103  21.4715651  71.9871069  79.8280900  21.5324824
  81.6404554  90.7383423  24.0610588  80.6934889  90.6188774  23.9888914
  81.9887327  89.8505921  24.1436849  74.0004127  76.6277562  27.8848830
  74.5238529  76.8739858  28.6475139  73.7816460  77.4597597  27.4651967
  69.3971408  78.8981236  15.7519954  69.0684114  78.0178615  15.5695060
  69.7510779  78.8428905  16.6396344  78.6450987  90.5336139  20.2614940
  78.4975950  89.6052847  20.4422510  79.4704481  90.5556230  19.7772015
  72.5113231  79.1854206  16.1195432  72.8509304  79.7140127  15.3974040
  72.9585352  79.5234612  16.8953999  82.2485109  91.3564698  21.3479813
  83.1731656  91.1507559  21.2104264  82.0800412  91.1081099  22.2569154
  75.2056672  77.5691257  25.5698500  74.8653493  76.7699070  25.9719180
  74.4995679  77.8692968  24.9975333  75.8573144  74.6540569  24.0225823
  76.6799213  74.1801048  23.9004713  76.1011208  75.4331053  24.5224509
  74.4981379  77.6828828  14.3188725  75.2189741  78.0610081  13.8152442
  73.8746683  78.4017705  14.4223703  78.6412501  78.3873977  15.2547057
  78.8576116  79.2698615  14.9535885  78.1606569  77.9960190  14.5252699
  73.3811723  81.3459690  21.8317802  73.2356304  81.6599993  22.7242083
  72.9036926  81.9644590  21.2788700  75.2408106  78.3362238  21.8798691
  75.2269674  77.4403331  21.5430989  75.9580534  78.3432902  22.5136977
  77.0934236  78.7699578  23.9251819  76.8352014  79.6916649  23.9236149
  76.5619277  78.3730013  24.6152283  82.0380425  91.8750365  16.7041904
  82.2117303  91.3096788  15.9515757  82.5309316  92.6751260  16.5221394
  67.8557385  83.8865034  24.7705463  67.3110853  84.6624842  24.9025737
  68.7336735  84.2335839  24.6124584  74.6445002  77.2176618  17.1486261
  74.7660913  76.2893264  17.3477149  74.3547044  77.2315304  16.2364577
  77.5136192  74.9031529  20.2852981  77.5357889  74.9670862  19.3304961
  77.9304251  74.0636037  20.4793487  87.8919816  84.6386788  18.3232204
  88.3350962  83.8894113  17.9251327  87.0146327  84.6296925  17.9405936
  83.0255598  91.1917130  13.8038802  83.7206502  91.8123822  14.0226117
  83.3678748  90.3412481  14.0791180  68.6423407  83.0134931  27.6635620
  67.9005143  83.1617566  28.2500250  68.3216151  83.2743196  26.8002369
  84.9247021  88.6416835  15.3326133  85.4498345  88.9804108  14.6075453
  84.8369373  87.7063851  15.1489268  76.5867069  92.5550909  27.4616010
  76.8954196  92.3100056  28.3338709  77.3842552  92.7597547  26.9734880
  76.6087682  94.7088819  19.6921386  76.1692672  94.2165197  20.3854243
  77.3595799  94.1661786  19.4513462  69.0880021  90.9000359  19.6946014
  69.9138040  90.6004131  19.3144658  68.7374073  90.1307982  20.1435803
  74.0561554  90.2526828  21.7643688  73.4341563  89.5897533  21.4645916
  74.7266421  90.2787960  21.0817336  67.2888626  88.8186686  20.6534948
  66.4520534  88.3908860  20.4718949  67.2612271  89.0119129  21.5905739
  84.6140927  89.2749739  30.6377331  83.8236471  89.2573878  30.0981831
  84.3774281  89.8138033  31.3926368  84.7338802  86.1242205  27.9510060
  84.7836807  85.9592213  28.8925582  84.6252725  85.2569464  27.5607940
  73.6175061  88.8030751  15.2402149  73.7663181  89.4866215  14.5868821
  74.4241504  88.7835841  15.7551604  82.0242564  82.1073133  29.2669366
  82.9252427  81.9679598  28.9753364  82.0990539  82.2727588  30.2067544
  76.3585370  79.4839988  28.1122553  75.4888679  79.7773554  27.8405141
  76.5944850  80.0680433  28.8329816  86.2356999  88.5439147  28.1952081
  85.9441807  88.9069127  29.0315542  85.6229130  87.8306155  28.0165413
  87.4352681  86.1092027  20.7154651  88.2699572  86.5481831  20.8792212
  87.5711810  85.6330680  19.8962897  84.4844187  83.6671761  26.6632139
  84.9598309  83.8599408  25.8550991  83.5609752  83.7230947  26.4175523
  71.3727694  84.8295929  16.2463217  71.1273736  83.9258259  16.4443428
  71.5423608  84.8313079  15.3042695  79.0624403  75.7019605  25.6287973
  79.5806347  76.4380632  25.3034462  78.7079536  76.0083598  26.4634732
  70.6423341  80.5624286  13.7449379  69.9492586  80.6368641  13.0889415
  70.3975093  79.7984630  14.2670896  79.3136998  72.1219888  21.1488870
  79.5938751  71.4543077  21.7749296  80.0987605  72.3148983  20.6363534
  77.1170466  91.2978881  12.7113896  76.5444433  91.9169069  12.2584368
  77.6903260  91.8478243  13.2453818  83.1845856  80.5437522  24.8960445
  84.1363279  80.6435619  24.9172669  83.0149306  79.7515790  25.4058529
  81.2060235  77.6293105  25.0819846  80.6110168  77.9098117  24.3866334
  80.9209932  78.1187006  25.8536587  80.3367726  91.5816032  13.8422478
  81.2698399  91.5161593  14.0455354  80.2490939  92.4172298  13.3837011
  85.6633934  83.7643641  24.0102744  85.6310254  82.8259642  24.1962428
  86.2734557  83.8427678  23.2768569  77.5017265  82.6339694  10.0529949
  78.4476369  82.5045902  10.1218367  77.1231510  81.8954356  10.5299377
  85.8128422  80.5554685  24.0561028  85.2967471  79.7713141  23.8690957
  86.6968371  80.2273401  24.2207547  83.4739149  74.2995700  20.0156840
  83.2763970  73.9910788  20.9000172  84.0838855  75.0257339  20.1454770
  91.4810484  84.8259648  23.1508781  92.2113872  84.5644936  23.7116485
  90.8717429  84.0888370  23.1910849  89.5625781  82.9667511  23.7483232
  88.8358944  82.8323476  23.1399724  89.1473068  83.2744339  24.5539951
  77.3855957  86.6857440  31.5130605  78.3058967  86.8636039  31.7070652
  77.3505540  85.7413486  31.3610305  75.6860182  80.5589671   9.9884834
  74.7791637  80.2622783  10.0647547  75.9636163  80.2619489   9.1219120
  66.6038122  81.8796034  20.4383880  66.2840907  81.0261342  20.1458254
  66.0571550  82.0944612  21.1941847  70.3818030  84.5958475  24.1553387
  70.6004039  85.5275583  24.1741420  70.7943804  84.2366449  24.9408190
  77.3022248  75.1026560  16.1429075  76.4922976  74.7573645  16.5184321
  77.9906664  74.7934104  16.7316687  79.2312796  74.1804607  17.7653372
  79.7843834  74.6000061  18.4243395  79.4682882  73.2540355  17.8076328
  74.4558966  77.4176606  10.1296813  75.3178130  77.7431504  10.3892630
  74.6409311  76.6308102   9.6169879  66.4726382  85.4998945  22.4077002
  65.7789854  85.0852898  21.8946956  67.2199373  85.5419482  21.8110421
  82.6091603  76.2905132  17.2732036  82.0290272  76.9489936  16.8910088
  82.3427536  75.4682477  16.8619453  81.0595169  75.6910190  19.4753356
  81.5594948  75.8026724  18.6667675  81.7030777  75.3871243  20.1154165
  75.1177165  83.5988820  32.3621197  74.6344247  84.3989180  32.5685086
  75.2038104  83.6096764  31.4088641  68.3863125  85.4317199  20.2843017
  68.3633813  85.5304887  19.3324900  68.6963761  86.2782350  20.6060183
  71.0450503  87.4893354  24.3989631  71.9993756  87.4577297  24.3319563
  70.8463026  87.0283978  25.2139857  71.6349885  86.0594470  26.9660429
  72.4542774  86.5538549  26.9895266  71.9086692  85.1426438  26.9377996
  81.3916481  78.4505223  16.3288384  80.5042336  78.7354873  16.1108579
  81.8070470  78.2898986  15.4815661  84.7431017  78.4751744  20.0442723
  85.5191407  78.9648196  20.3167340  84.0179151  78.9009798  20.5014593
  87.1803576  79.1879363  21.1016664  87.7748066  78.9475099  20.3909972
  87.2530159  78.4686493  21.7290200  69.4000731  93.0312974  21.4159829
  69.2655199  92.2713375  20.8497827  68.9832794  93.7553874  20.9488618
  81.3657505  83.9659759  16.5438674  81.3092706  84.4228310  15.7046307
  81.9185847  83.2050443  16.3661517  85.1762311  79.7549490  17.3688794
  84.9199245  79.3546126  18.1997002  84.5515179  80.4693284  17.2438933
  89.4874648  82.4945564  19.8760085  88.9274206  82.5638753  20.6491647
  88.8818152  82.3186548  19.1559581  72.5569857  93.9282291  21.6278272
  72.4402241  94.8727723  21.5256962  71.7362304  93.6255852  22.0164071
  82.4446392  88.6532426  12.4734864  83.2791996  88.2213625  12.2912339
  82.2830735  88.4814440  13.4011759  82.0992284  85.1564540  13.8391204
  82.0441088  84.9908811  12.8979648  81.4738339  85.8640573  13.9953393
  66.8884799  80.3932604  27.6652626  67.5343663  79.8831558  28.1539851
  66.6801950  81.1301286  28.2396051  79.4138191  87.4613452  33.1644766
  80.2829351  87.6354104  32.8031401  78.9344943  88.2807868  33.0420496
  75.4088409  74.6572649  13.4176522  75.3967079  75.6014489  13.5744793
  76.3011831  74.4742794  13.1235983  73.5824371  94.5810553  24.8434200
  74.4851618  94.6134163  25.1600695  73.3561741  93.6511004  24.8580536
  75.3377973  93.3341539  21.5044279  74.3873604  93.3343401  21.3908651
  75.6410460  92.5874274  20.9880313  79.2240529  71.2515425  17.6722459
  78.4572925  70.6973912  17.8179141  79.6351234  71.3237294  18.5336610
  71.2282290  77.5400221  31.7627640  72.0913752  77.1837026  31.9730965
  70.6547701  77.2014116  32.4503044  91.0730667  99.1702078  22.5690041
  91.7109077  99.0508825  21.8653381  90.9551510 100.1182922  22.6277993
  87.8820373  99.1229506  22.5051566  87.5438885  99.0070570  21.6172101
  88.7510141  98.7220671  22.4852572  88.3640156 100.2764357  28.4637771
  88.3528797  99.8817156  27.5918275  88.5260796  99.5430430  29.0571543
  81.2871621 102.4716174  21.3332677  82.0792913 102.1306998  20.9178976
  81.5268271 102.5811149  22.2534830  85.0847417 103.0601469  27.4116955
  84.7937283 103.9647100  27.2963621  85.7204402 103.1017997  28.1261025
  86.0103624 100.4378318  24.0018315  86.6067196 100.2134340  23.2875278
  86.0678596  99.6963063  24.6043763  93.5505783  90.5450339  25.0070836
  93.2189108  91.4145750  24.7832051  92.9551396  90.2286623  25.6864867
  90.0437302 102.7462885  24.4066749  89.7438025 103.6487924  24.2982556
  89.6988362 102.4795068  25.2587902  83.4949784  99.1976682  20.4403453
  82.5700280  99.0652896  20.6481145  83.7434197  99.9770901  20.9373396
  93.4434446  95.2645425  22.0864186  92.5351323  95.1960833  21.7922947
  93.3922042  95.7417370  22.9146012  80.8558595  98.8409955  21.2747242
  80.9850976  99.0944434  22.1886654  80.1756046  99.4337663  20.9551897
  87.5175312  96.6835071  30.0299083  86.7408646  97.2428991  30.0201948
  88.1565875  97.1691854  30.5513954  95.3096093  93.4661863  23.8642060
  94.6670473  93.7594396  23.2181855  94.8051021  93.3514784  24.6695257
  85.7721684  99.4920524  29.5917050  86.5136369 100.0305568  29.3151874
  85.0658670 100.1186813  29.7488602  91.2477024 101.6349664  28.1889212
  91.6560380 101.1932075  27.4443844  90.5254285 101.0602292  28.4423405
  87.6008094  96.5722271  25.5622769  88.4469289  96.9961685  25.7057418
  87.5406732  95.9155895  26.2561332  90.7507539  94.2326639  27.2203943
  90.5068471  94.9868700  26.6838218  91.0267470  94.6111987  28.0551190
  92.7046002 100.7765252  25.8981208  92.9162897 101.4197012  25.2215589
  92.6575750  99.9427568  25.4303138  90.3072231  93.3883072  22.8017780
  89.4456710  93.6864326  23.0934518  90.3334666  93.6053471  21.8698813
  84.0157881 101.4796745  22.1471349  84.5859239 101.9084013  21.5088834
  84.6065993 101.1979329  22.8455535  84.5083048  96.6460172  30.3932360
  83.8781709  97.3276453  30.6267757  84.4019136  96.5343254  29.4485499
  79.8028020  96.3131968  21.3198285  79.0127074  96.5689497  20.8438395
  80.2939268  97.1280306  21.4250325  81.7542766  96.6776547  18.2781761
  80.9573929  96.7895242  18.7965257  81.5268358  97.0163200  17.4122652
  87.5848433 103.2021251  26.2264276  87.6492866 103.6641658  27.0622448
  86.8759357 102.5718615  26.3546586  78.0865723  96.5662459  23.7513275
  78.3373762  97.4509468  24.0170851  78.6225272  96.3867060  22.9788367
  83.7863791  90.9480938  32.7557612  83.3930736  90.3947136  33.4305256
  84.6029931  91.2591516  33.1464129  86.7031752  92.3638817  30.3477868
  87.4441465  92.9645970  30.2682331  86.9349675  91.6216455  29.7895911
  81.8473090  97.5495184  28.6256098  81.7326605  96.6480441  28.9263197
  80.9917607  97.7958881  28.2740914  88.9264927 105.4912925  30.2243598
  88.4828782 104.7049303  29.9064503  89.5882141 105.6792075  29.5587489
  83.6852049 107.0208726  24.7504277  84.2359474 106.8925790  23.9781271
  82.8463525 107.3203615  24.3999170  91.0246166 105.7715724  28.2525000
  91.0064641 106.5924606  27.7605269  91.9466086 105.6469800  28.4775141
  87.4819220 103.2859854  29.0948508  88.0147556 102.5248142  28.8647816
  86.9533301 102.9933506  29.8372662  90.6488915  88.3919920  24.6242150
  90.3053184  89.2821562  24.5481260  91.0167877  88.2021578  23.7611735
  88.1986308  93.2278232  18.1899823  87.3427905  92.8385082  18.0105462
  88.6113260  93.3070193  17.3299609  89.7285455  90.7624575  22.5891383
  89.2250251  90.7254710  21.7759188  90.0216062  91.6717318  22.6488040
  85.9728341  90.8463305  21.5957565  86.8381338  90.6506113  21.2363454
  86.0405850  90.6173657  22.5226921  83.5790660  93.0765513  18.9673932
  84.1534412  92.8540694  18.2347124  84.1661642  93.1454207  19.7202533
  85.8813328  89.9506762  17.6949001  85.2277740  89.6355779  17.0705616
  85.8393802  89.3282502  18.4208824  89.1151068  96.4388695  22.0196649
  88.1973629  96.6603642  21.8618337  89.5311212  96.5135006  21.1608356
  92.4476580  87.6513479  19.7259887  92.7535457  86.7910843  19.4385803
  93.1729185  88.2431099  19.5258881  78.7400936  98.0544166  18.1141485
  78.5425336  97.4613526  17.3892552  78.1847600  97.7496376  18.8317424
  86.7197660  97.9467272  20.2336079  86.7746270  96.9941109  20.1578555
  85.9088862  98.1026711  20.7177377  84.6590020  96.5644332  17.9926457
  83.8457886  96.8638502  18.3991650  85.1549014  96.1700021  18.7100940
  90.2564232  97.0286156  26.8241351  90.6113619  97.2557630  27.6835817
  90.9036363  97.3604533  26.2018607  84.1504095  94.1362687  23.6087692
  84.7903474  93.9951447  22.9110656  83.3181625  93.8497201  23.2326294
  81.1532711  94.1063012  18.3860679  81.4139528  95.0208346  18.2769840
  81.9749883  93.6387455  18.5357292  82.6257636  95.5200770  25.5559504
  83.2980690  95.3118132  24.9072153  81.7987423  95.3222856  25.1164736
  88.5283208  92.1462711  27.5725165  87.8811124  92.8452660  27.4789641
  89.2984224  92.5798854  27.9401413  91.9362006 102.4111563  30.6475718
  91.7847513 102.1822114  29.7305802  91.9266686 103.3682164  30.6607063
  88.7047343  99.9843475  25.6321984  89.6339403 100.1354635  25.4590952
  88.2838373 100.0727496  24.7770631  87.5035675 104.0094140  23.4020522
  87.3646760 103.6412924  24.2746460  86.7150271 104.5241779  23.2304480
  83.0285134  98.7943373  26.3161941  82.8904932  98.0623611  26.9173480
  83.9390057  98.7052273  26.0346129  85.6567434  98.5063332  25.8045620
  86.3667053  97.8656524  25.7632239  85.6136743  98.7576227  26.7271801
  93.6454213 105.4430685  28.7252200  93.5866759 104.7589905  28.0582783
  94.0473731 106.1849675  28.2732826  84.3696368  95.4928550  27.6241260
  83.8333725  95.0419288  28.2762856  83.7813077  95.6274459  26.8811724
  93.6471620 103.4070269  26.9566179  92.7598399 103.0696191  27.0792578
  94.2170171 102.6753300  27.1934945  75.3000767  99.7394361  20.2809231
  75.9871807  99.4256091  19.6930246  75.1448896 100.6435726  20.0076482
  80.1035490  94.6284558  24.7094254  80.0193678  94.0210227  23.9744664
  79.2818196  95.1193576  24.7103751  90.2759203  93.1138121  20.0764449
  90.7727903  92.3608083  19.7565520  89.5046185  93.1502438  19.5107659
  86.8594172  95.2555504  19.8036134  86.4891960  94.7026544  20.4917040
  87.3553265  94.6513637  19.2511134  84.6883371 105.7152999  26.8991152
  85.3892830 106.3489482  27.0520546  84.2178486 106.0567731  26.1386791
  92.7178198  90.0807715  22.2243808  91.8041278  90.3111941  22.3926015
  93.1471300  90.1646159  23.0757841  92.4884657  98.2697606  24.7243702
  91.8356107  98.5173514  24.0696155  92.8665037  97.4561745  24.3906180
  88.5372230  99.0117418  31.2109739  87.8612867  98.9111547  31.8812115
  89.3599864  98.8556631  31.6745737  80.2851089 105.2489354  23.8322255
  80.8704526 104.5033042  23.9650159  80.0875927 105.5593311  24.7158919
  74.8768744  97.8194954  22.5526698  74.9152843  97.2858545  23.3463816
  74.3709036  97.2930160  21.9337675  82.2559506  92.6659495  26.0489240
  82.3200832  93.5274326  25.6366638  82.1926626  92.0533496  25.3161599
  81.7311778  94.7382627  29.6962274  82.3583817  94.3559705  30.3099799
  80.8739697  94.5196829  30.0617967  92.1305887 105.1445603  31.3016010
  92.6745791 105.7575561  30.8070965  91.5492732 105.7025181  31.8183023
  78.5077321  96.5459056  15.6280629  78.8030762  95.6369735  15.5747683
  77.6065357  96.5246796  15.3061632  82.0371568  94.6215053  21.6108178
  81.3158154  95.2351021  21.4715651  82.8264824  95.1572818  21.5324824
  84.8397882  91.9569480  27.8848830  85.3632284  92.2031776  28.6475139
  84.6210215  92.7889514  27.4651967  80.2365163  94.2273154  15.7519954
  79.9077869  93.3470533  15.5695060  80.5904533  94.1720823  16.6396344
  86.0450427  92.8983175  25.5698500  85.7047247  92.0990988  25.9719180
  85.3389433  93.1984885  24.9975333  86.6966899  89.9832487  24.0225823
  87.5192968  89.5092965  23.9004713  86.9404962  90.7622971  24.5224509
  84.2205477  96.6751608  21.8317802  84.0750058  96.9891911  22.7242083
  83.7430681  97.2936508  21.2788700  86.0801860  93.6654156  21.8798691
  86.0663429  92.7695249  21.5430989  86.7974288  93.6724819  22.5136977
  87.9327991  94.0991496  23.9251819  87.6745769  95.0208567  23.9236149
  87.4013031  93.7021930  24.6152283  78.6951139  99.2156952  24.7705463
  78.1504608  99.9916760  24.9025737  79.5730489  99.5627757  24.6124584
  85.4838756  92.5468536  17.1486261  85.6054667  91.6185182  17.3477149
  85.1940799  92.5607222  16.2364577  88.3529947  90.2323446  20.2852981
  88.3751643  90.2962779  19.3304961  88.7698006  89.3927955  20.4793487
  79.4817161  98.3426848  27.6635620  78.7398897  98.4909484  28.2500250
  79.1609906  98.6035114  26.8002369  87.4260824 107.8842827  27.4616010
  87.7347950 107.6391973  28.3338709  88.2236306 108.0889465  26.9734880
  78.1282380 104.1478604  20.6534948  77.2914288 103.7200778  20.4718949
  78.1006025 104.3411047  21.5905739  84.9679836  94.0600533  31.3576194
  85.0167991  94.9362656  30.9753964  85.5102350  93.5177926  30.7847837
  95.4534681 104.6041657  30.6377331  94.6630225 104.5865795  30.0981831
  95.2168036 105.1429950  31.3926368  95.5732556 101.4534123  27.9510060
  95.6230561 101.2884130  28.8925582  95.4646480 100.5861382  27.5607940
  92.8636319  97.4365051  29.2669366  93.7646182  97.2971516  28.9753364
  92.9384293  97.6019506  30.2067544  87.1979124  94.8131906  28.1122553
  86.3282434  95.1065472  27.8405141  87.4338604  95.3972351  28.8329816
  97.0750753 103.8731064  28.1952081  96.7835562 104.2361045  29.0315542
  96.4622885 103.1598073  28.0165413  95.3237941  98.9963679  26.6632139
  95.7992063  99.1891325  25.8550991  94.4003507  99.0522865  26.4175523
  89.9018158  91.0311523  25.6287973  90.4200102  91.7672550  25.3034462
  89.5473291  91.3375516  26.4634732  90.1530752  87.4511805  21.1488870
  90.4332506  86.7834994  21.7749296  90.9381359  87.6440901  20.6363534
  94.0239610  95.8729439  24.8960445  94.9757033  95.9727537  24.9172669
  93.8543061  95.0807708  25.4058529  92.0453990  92.9585022  25.0819846
  91.4503922  93.2390035  24.3866334  91.7603687  93.4478923  25.8536587
  96.6522177  95.8846602  24.0561028  96.1361225  95.1005059  23.8690957
  97.5362125  95.5565319  24.2207547  94.3132904  89.6287618  20.0156840
  94.1157725  89.3202706  20.9000172  94.9232609  90.3549257  20.1454770
  88.2249712 102.0149358  31.5130605  89.1452721 102.1927957  31.7070652
  88.1899295 101.0705403  31.3610305  77.4431877  97.2087952  20.4383880
  77.1234661  96.3553260  20.1458254  76.8965305  97.4236530  21.1941847
  81.2211784  99.9250393  24.1553387  81.4397794 100.8567500  24.1741420
  81.6337558  99.5658367  24.9408190  88.1416002  90.4318478  16.1429075
  87.3316730  90.0865563  16.5184321  88.8300419  90.1226022  16.7316687
  90.0706550  89.5096525  17.7653372  90.6237589  89.9291978  18.4243395
  90.3076637  88.5832273  17.8076328  86.0939650  95.4983598  33.5456136
  85.9936376  96.4477955  33.4768227  85.8761192  95.1701837  32.6732206
  77.3120137 100.8290863  22.4077002  76.6183608 100.4144816  21.8946956
  78.0593128 100.8711400  21.8110421  91.8988924  91.0202108  19.4753356
  92.3988702  91.1318642  18.6667675  92.5424532  90.7163160  20.1154165
  85.9570920  98.9280737  32.3621197  85.4738001  99.7281097  32.5685086
  86.0431859  98.9388682  31.4088641  79.2256879 100.7609117  20.2843017
  79.2027567 100.8596804  19.3324900  79.5357516 101.6074268  20.6060183
  81.8844257 102.8185272  24.3989631  82.8387511 102.7869214  24.3319563
  81.6856781 102.3575896  25.2139857  82.4743639 101.3886388  26.9660429
  83.2936528 101.8830467  26.9895266  82.7480447 100.4718356  26.9377996
  77.7278553  95.7224522  27.6652626  78.3737417  95.2123476  28.1539851
  77.5195705  96.4593203  28.2396051  90.2531946 102.7905369  33.1644766
  91.1223105 102.9646022  32.8031401  89.7738697 103.6099786  33.0420496
  84.4218126 109.9102470  24.8434200  85.3245373 109.9426081  25.1600695
  84.1955496 108.9802921  24.8580536  90.0634283  86.5807343  17.6722459
  89.2966679  86.0265830  17.8179141  90.4744988  86.6529212  18.5336610
  82.0676044  92.8692139  31.7627640  82.9307506  92.5128944  31.9730965
  81.4941455  92.5306034  32.4503044  94.6257545 106.2772856  32.7557612
  94.2324491 105.7239054  33.4305256  95.4423686 106.5883434  33.1464129
  97.5425506 107.6930735  30.3477868  98.2835220 108.2937888  30.2682331
  97.7743429 106.9508372  29.7895911  92.5705533 110.0674545  29.6962274
  93.1977572 109.6851622  30.3099799  91.7133452 109.8488747  30.0617967
  95.8073590 109.3892451  31.3576194  95.8561746 110.2654574  30.9753964
  96.3496104 108.8469844  30.7847837  96.9333404 110.8275516  33.5456136
  96.8330131 111.7769873  33.4768227  96.7154946 110.4993755  32.6732206
  88.5672308 111.0516440  27.6652626  89.2131172 110.5415394  28.1539851
  88.3589459 111.7885121  28.2396051  92.9069799 108.1984057  31.7627640
  93.7701260 107.8420861  31.9730965  92.3335210 107.8597951  32.4503044
  50.2879196  21.1325137  15.4497506  50.2291743  20.4484357  14.7828089
  50.6898715  21.8744127  14.9978132  48.7730870  20.8340054  18.0261317
  49.3170774  21.4470013  17.5316271  48.1917715  21.3919633  18.5428330
  52.0959665  20.2936108  17.3622638  51.3055208  20.2760247  16.8227137
  51.8593019  20.8324402  18.1171674  53.7175737  19.5625516  14.9197388
  53.4260545  19.9255497  15.7560849  53.1047868  18.8492525  14.7410720
  46.8956929  18.4799821  19.8890073  47.7648089  18.6540474  19.5276708
  46.4163680  19.2994238  19.7665802  58.5549405  30.1888447   9.2935348
  59.1927815  30.0695195   8.5898688  58.4370248  31.1369291   9.3523300
  55.3639111  30.1415875   9.2296872  55.0257622  30.0256940   8.3417407
  56.2328879  29.7407040   9.2097878  55.8458894  31.2950727  15.1883078
  55.8347535  30.9003525  14.3163582  56.0079533  30.5616800  15.7816849
  48.7690359  33.4902543   8.0577984  49.5611650  33.1493368   7.6424283
  49.0087009  33.5997518   8.9780137  52.5666155  34.0787839  14.1362262
  52.2756021  34.9833470  14.0208928  53.2023139  34.1204366  14.8506331
  53.4922362  31.4564687  10.7263621  54.0885934  31.2320710  10.0120584
  53.5497333  30.7149433  11.3289069  63.5099100  27.8515134   7.2721534
  64.2424272  27.2814351   7.5059364  62.7538456  27.4636735   7.7128040
  61.0324521  21.5636708  11.7316143  60.7007845  22.4332119  11.5077358
  60.4370134  21.2472992  12.4110173  57.5256040  33.7649254  11.1312056
  57.2256763  34.6674293  11.0227863  57.1807100  33.4981438  11.9833208
  60.9253184  26.2831795   8.8109493  60.0170061  26.2147203   8.5168254
  60.8740780  26.7603739   9.6391318  52.5076820  40.5293575   4.0983023
  52.4300850  41.4801400   4.1771504  51.9038464  40.1839447   4.7557950
  54.9994050  27.7021440  16.7544390  54.2227384  28.2615360  16.7447255
  55.6384613  28.1878223  17.2759260  62.7914830  24.4848233  10.5887367
  62.1489211  24.7780766   9.9427161  62.2869759  24.3701153  11.3940563
  53.2540422  30.5106893  16.3162357  53.9955106  31.0491937  16.0397181
  52.5477408  31.1373182  16.4733909  58.7295762  32.6536034  14.9134519
  59.1379118  32.2118444  14.1689151  58.0073023  32.0788661  15.1668711
  55.0826832  27.5908641  12.2868076  55.9288027  28.0148054  12.4302725
  55.0225469  26.9342265  12.9806639  59.0524576  33.2137225   8.6686807
  58.4233439  33.3782939   7.9662875  58.6650238  33.6278834   9.4397772
  62.9313808  34.1491662   6.0231171  62.2464846  34.5290564   5.4728205
  63.0157658  34.7586989   6.7563119  58.2326277  25.2513009  13.9449249
  57.9887209  26.0055070  13.4083525  58.5086208  25.6298357  14.7796496
  60.1864740  31.7951621  12.6226515  60.3981635  32.4383381  11.9460896
  60.1394488  30.9613938  12.1548445  51.4976619  32.4983114   8.8716656
  52.0677976  32.9270383   8.2334140  52.0884731  32.2165699   9.5700841
  51.9901786  27.6646542  17.1177667  51.3600446  28.3462822  17.3513064
  51.8837874  27.5529623  16.1730805  61.3010568  34.6723577  10.7948872
  62.1228011  34.2703764  10.5131554  61.2972971  34.5691811  11.7464988
  55.0667171  34.2207620  12.9509583  55.1311604  34.6828027  13.7867754
  54.3578095  33.5904985  13.0791892  69.3916561  31.0162325   7.1433844
  68.6380269  30.4469723   6.9877848  69.5264102  30.9824990   8.0904478
  51.2682529  21.9667307  19.4802918  50.8749474  21.4133506  20.1550562
  52.0848669  22.2777886  19.8709436  50.0439471  36.5216922   5.4739241
  50.2206099  37.4434887   5.2860225  50.8396304  36.2075341   5.9033621
  54.1850490  23.3825187  17.0723175  54.9260203  23.9832340  16.9927637
  54.4168412  22.6402824  16.5141217  49.3291828  28.5681554  15.3501404
  49.2145343  27.6666811  15.6508503  48.4736345  28.8145251  14.9986221
  56.4083665  36.5099294  16.9488905  55.9647519  35.7235673  16.6309810
  57.0700879  36.6978445  16.2832796  51.1670786  38.0395096  11.4749584
  51.7178212  37.9112159  10.7026577  50.3282262  38.3389985  11.1244476
  58.5064903  36.7902094  14.9770306  58.4883379  37.6110975  14.4850575
  59.4284823  36.6656169  15.2020447  54.9637957  34.3046224  15.8193815
  55.4966294  33.5434512  15.5893123  54.4352039  34.0119875  16.5617969
  61.3083516  31.6281237   8.4479673  60.6507191  32.3180498   8.5359802
  62.1123915  32.0177668   8.7913659  60.1188975  29.9825609   6.4983615
  60.6320857  30.6155601   7.0005324  60.7690199  29.3826805   6.1326975
  56.5969806  27.4575065   8.7441955  55.6792367  27.6790012   8.5863643
  57.0129949  27.5321375   7.8853663  60.8850771  34.9631611   4.6262757
  60.4313098  34.1222521   4.6827948  60.2544738  35.5993009   4.9637538
  59.3283710  36.8008107   5.5612575  59.6206685  37.3613164   4.8424941
  59.8382331  37.0936668   6.3165735  54.2917336  37.5788458   6.6506029
  54.2493514  37.8049305   5.7214561  55.2080035  37.3451833   6.7991830
  57.7382969  28.0472526  13.5486658  58.0932357  28.2743999  14.4081124
  58.3855101  28.3790903  12.9263913  63.4680706  31.1690962   4.2535987
  63.3298605  31.3592558   3.3257176  63.1116925  31.9310345   4.7104038
  63.4950086  33.2367489   9.2647258  63.9286593  33.1442778  10.1130312
  64.2081667  33.2124989   8.6267274  57.2277981  36.8369583  10.7980359
  57.2815003  37.4060519  11.5658075  56.3592762  37.0071468  10.4334396
  50.1076374  26.5387139  12.2804810  50.7799428  26.3304501  11.6317459
  49.2806161  26.3409225  11.8410043  64.3565636  33.2791190  11.7980144
  64.5501526  34.1837000  12.0439419  64.2566254  32.8198609  12.6318729
  56.0101946  23.1649080  14.2970471  55.3629861  23.8639030  14.2034948
  56.7802962  23.5985224  14.6646719  59.4180744  33.4297932  17.3721024
  59.2666251  33.2008484  16.4551108  59.4085424  34.3868534  17.3852369
  56.1866081  31.0029845  12.3567291  57.1158141  31.1541005  12.1836258
  55.7657111  31.0913866  11.5015937  54.9854412  35.0280509  10.1265829
  54.8465498  34.6599294  10.9991767  54.1969009  35.5428149   9.9549786
  55.5802564  40.1289606   1.4691365  55.7554320  39.6577649   2.2836988
  54.8935352  40.7555372   1.6972626  56.5359628  34.4062112   7.5154666
  56.2009460  34.3662882   8.4112316  56.0363573  33.7406828   7.0425077
  50.5103872  29.8129742  13.0407247  50.3723669  29.0809981  13.6418787
  51.4208795  29.7238642  12.7591435  53.1386172  29.5249701  12.5290927
  53.8485791  28.8842894  12.4877546  53.0955480  29.7762596  13.4517108
  61.1272951  36.4617055  15.4497506  61.0685497  35.7776275  14.7828089
  61.5292469  37.2036045  14.9978132  51.8515106  26.5114919  14.3486567
  51.3152463  26.0605658  15.0008163  51.2631815  26.6460828  13.6057031
  50.1463650  43.2778969   8.2431225  50.3860248  43.9097493   8.9210244
  49.3032846  42.9267009   8.5296584  61.1290358  34.4256639  13.6811486
  60.2417137  34.0882561  13.8037885  61.6988909  33.6939670  13.9180251
  54.6591512  39.0858091  10.6472729  54.5861683  39.8913063  11.1592034
  54.2168905  39.2850057   9.8220751  54.4481291  38.3229861   4.1575551
  53.6648813  38.8651541   4.2513775  55.1474036  38.8403841   4.5569792
  65.6107699  29.8364856   8.4428048  65.5997575  30.7189572   8.0721981
  64.7425078  29.4836407   8.2482585  57.1190195  38.9844925  12.8030888
  57.8318167  39.6192390  12.7306789  56.6280224  39.0808791  11.9870890
  52.1702109  36.7339369  13.6236459  52.8711568  37.3675852  13.7765853
  51.6997224  37.0754100  12.8632098  59.9703395  29.2883976  11.4489009
  59.3174845  29.5359884  10.7941462  60.3483774  28.4748114  11.1151486
  56.9310568  39.3243669   5.5517179  57.1132963  38.5065325   6.0144932
  57.7543554  39.5411361   5.1142069  57.2652734  38.2511854   2.8132228
  57.7940500  37.7404309   2.2002390  57.5280954  37.9354385   3.6777761
  56.0190968  30.0303787  17.9355046  55.3431605  29.9297916  18.6057421
  56.8418601  29.8743001  18.3991043  47.7669827  36.2675724  10.5567561
  48.3523263  35.5219412  10.6895466  47.5694665  36.5779680  11.4404225
  50.6208482  39.3026971   5.5730004  49.9518857  39.7873099   5.0894044
  50.4821352  39.5496191   6.4873382  54.7613750  41.3370715  12.1712662
  55.3132058  41.5002336  12.9361747  55.1019944  41.9275152  11.4992687
  49.2130516  25.7568997  16.4207581  49.8402555  25.3746074  17.0345105
  48.3558435  25.5383199  16.7863274  59.6124625  36.1631972  18.0261317
  60.1564529  36.7761930  17.5316271  59.0311470  36.7211550  18.5428330
  57.8982138  39.2852690   9.1576344  57.7733277  38.4842430   8.6487290
  58.5561229  39.7798883   8.6690314  59.9617046  37.0861710  10.7855894
  59.0147382  36.9667061  10.7134221  60.3099819  36.1984208  10.8682156
  52.3216619  22.9755849  14.6094136  52.8451021  23.2218146  15.3720446
  52.1028953  23.8075884  14.1897274  56.9663479  36.8814426   6.9860247
  56.8188442  35.9531134   7.1667817  57.7916973  36.9034517   6.5017322
  60.5697601  37.7042985   8.0725119  61.4944149  37.4985846   7.9349570
  60.4012905  37.4559386   8.9814461  53.5269165  23.9169544  12.2943807
  53.1865985  23.1177357  12.6964487  52.8208171  24.2171255  11.7220640
  55.4146729  25.1177865  10.6497125  55.1564507  26.0394936  10.6481456
  54.8831769  24.7208300  11.3397590  60.3592917  38.2228653   3.4287211
  60.5329795  37.6575075   2.6761063  60.8521809  39.0229547   3.2466701
  46.1769877  30.2343322  11.4950770  45.6323345  31.0103130  11.6271044
  47.0549227  30.5814126  11.3369891  66.2132309  30.9865076   5.0477511
  66.6563455  30.2372401   4.6496634  65.3358819  30.9775212   4.6651243
  61.3468090  37.5395417   0.5284109  62.0418995  38.1602110   0.7471424
  61.6891240  36.6890768   0.8036487  46.9635899  29.3613218  14.3880926
  46.2217635  29.5095853  14.9745557  46.6428643  29.6221484  13.5247676
  63.2459513  34.9895123   2.0571440  63.7710837  35.3282395   1.3320760
  63.1581866  34.0542138   1.8734574  54.9079562  38.9029196  14.1861316
  55.2166688  38.6578343  15.0584016  55.7055044  39.1075835  13.6980187
  54.9300174  41.0567106   6.4166693  54.4905164  40.5643484   7.1099550
  55.6808291  40.5140073   6.1758768  47.4092513  37.2478647   6.4191321
  48.2350533  36.9482419   6.0389965  47.0586565  36.4786269   6.8681110
  52.3774046  36.6005115   8.4888995  51.7554055  35.9375820   8.1891223
  53.0478913  36.6266247   7.8062642  52.4498573  25.0786903  18.0821501
  52.4986729  25.9549026  17.6999270  52.9921088  24.5364296  17.5093144
  62.9353419  35.6228026  17.3622638  62.1448963  35.6052165  16.8227137
  62.6986774  36.1616320  18.1171674  63.0551294  32.4720493  14.6755366
  63.1049299  32.3070500  15.6170889  62.9465218  31.6047752  14.2853247
  60.3455057  28.4551421  15.9914673  61.2464919  28.3157885  15.6998671
  60.4203031  28.6205875  16.9312850  54.6797862  25.8318275  14.8367859
  53.8101171  26.1251841  14.5650448  54.9157342  26.4158720  15.5575123
  64.5569491  34.8917434  14.9197388  64.2654299  35.2547415  15.7560849
  63.9441622  34.1784442  14.7410720  65.7565173  32.4570314   7.4399958
  66.5912065  32.8960118   7.6037518  65.8924302  31.9808967   6.6208204
  62.8056679  30.0150049  13.3877446  63.2810801  30.2077695  12.5796297
  61.8822245  30.0709234  13.1420830  57.3836896  22.0497892  12.3533280
  57.9018840  22.7858919  12.0279768  57.0292029  22.3561886  13.1880039
  61.5058348  26.8915809  11.6205751  62.4575771  26.9913906  11.6417976
  61.3361799  26.0994077  12.1303836  59.5272728  23.9771392  11.8065152
  58.9322660  24.2576405  11.1111641  59.2422424  24.4665293  12.5781893
  63.9846426  30.1121928  10.7348051  63.9522746  29.1737929  10.9207735
  64.5947050  30.1905965  10.0013876  64.1340915  26.9032972  10.7806334
  63.6179963  26.1191429  10.5936263  65.0180863  26.5751688  10.9452854
  69.8022976  31.1737935   9.8754088  70.5326364  30.9123223  10.4361791
  69.1929921  30.4366657   9.9156156  67.8838273  29.3145798  10.4728539
  67.1571437  29.1801763   9.8645031  67.4685560  29.6222626  11.2785257
  55.7068449  33.0335728  18.2375912  56.6271459  33.2114327  18.4315959
  55.6718032  32.0891773  18.0855611  48.7030522  30.9436762  10.8798693
  48.9216532  31.8753870  10.8986727  49.1156296  30.5844737  11.6653497
  53.5758387  26.5169968  20.2701442  53.4755114  27.4664325  20.2013533
  53.3579929  26.1888207  19.3977512  53.4389657  29.9467107  19.0866504
  52.9556739  30.7467467  19.2930393  53.5250596  29.9575052  18.1333948
  49.3662995  33.8371642  11.1234938  50.3206248  33.8055584  11.0564869
  49.1675518  33.3762265  11.9385164  49.9562377  32.4072758  13.6905735
  50.7755266  32.9016836  13.7140573  50.2299185  31.4904726  13.6623303
  65.5016068  25.5357650   7.8261971  66.0960559  25.2953386   7.1155279
  65.5742652  24.8164781   8.4535507  47.7213224  39.3791261   8.1405136
  47.5867692  38.6191662   7.5743134  47.3045286  40.1032161   7.6733924
  67.8087141  28.8423851   6.6005392  67.2486699  28.9117040   7.3736954
  67.2030644  28.6664836   5.8804888  50.8782350  40.2760578   8.3523578
  50.7614734  41.2206011   8.2502268  50.0574796  39.9734140   8.7409377
  45.2097291  26.7410891  14.3897932  45.8556155  26.2309845  14.8785158
  45.0014442  27.4779573  14.9641358  57.7350683  33.8091739  19.8890073
  58.6041843  33.9832391  19.5276708  57.2557435  34.6286156  19.7665802
  51.9036864  40.9288840  11.5679507  52.8064110  40.9612450  11.8846002
  51.6774234  39.9989291  11.5825842  53.6590466  39.6819826   8.2289585
  52.7086097  39.6821688   8.1153958  53.9622952  38.9352561   7.7125620
  49.5494782  23.8878508  18.4872947  50.4126244  23.5315313  18.6976271
  48.9760193  23.5492403  19.1748351  69.3943159  45.5180365   9.2935348
  70.0321569  45.3987112   8.5898688  69.2764002  46.4661209   9.3523300
  66.2032865  45.4707793   9.2296872  65.8651377  45.3548858   8.3417407
  67.0722634  45.0698958   9.2097878  62.0619681  47.3243269   5.2193763
  61.4984546  47.2333206   4.4510051  61.9472076  46.5043174   5.6996256
  66.6852648  46.6242645  15.1883078  66.6741289  46.2295443  14.3163582
  66.8473288  45.8908717  15.7816849  59.6084113  48.8194461   8.0577984
  60.4005405  48.4785286   7.6424283  59.8480763  48.9289436   8.9780137
  67.6419240  50.9914237   0.5308228  66.9907220  51.5768317   0.1442242
  68.4363603  51.5220432   0.5903266  61.5674867  48.0803374   0.9295363
  62.3405743  47.5332361   0.7908238  61.9200266  48.9447624   1.1409824
  63.4059910  49.4079756  14.1362262  63.1149776  50.3125387  14.0208928
  64.0416894  49.4496284  14.8506331  64.3316116  46.7856605  10.7263621
  64.9279689  46.5612627  10.0120584  64.3891088  46.0441350  11.3289069
  63.9041145  44.2396040  -1.4386188  64.1566665  43.7177562  -2.2002725
  62.9665704  44.0762186  -1.3359504  68.9484428  43.2431819   6.3688556
  69.7347517  42.8251242   6.0178973  69.2123132  44.1477911   6.5370204
  69.1194505  48.6804669   1.0677212  68.4840338  48.7539296   1.7798117
  68.7891911  49.2698268   0.3896292  74.3492855  43.1807052   7.2721534
  75.0818027  42.6106269   7.5059364  73.5932210  42.7928652   7.7128040
  63.6237434  46.1424146   0.7638187  63.5073692  45.4669050   1.4319272
  63.7339693  45.6556520  -0.0529660  65.9668974  45.6034293   4.4684877
  65.6027182  45.0764914   5.1797798  66.8236090  45.2132762   4.2951362
  71.8718275  36.8928626  11.7316143  71.5401600  37.7624037  11.5077358
  71.2763889  36.5764910  12.4110173  65.6074461  40.6324193  -0.5353775
  65.7748864  41.5004429  -0.1683304  65.4171631  40.7951475  -1.4592486
  68.3649795  49.0941172  11.1312056  68.0650518  49.9966211  11.0227863
  68.0200854  48.8273355  11.9833208  61.8162276  45.5454969   7.1648760
  60.8912773  45.4131183   7.3726452  62.0646689  46.3249188   7.6618702
  71.7646938  41.6123712   8.8109493  70.8563816  41.5439121   8.5168254
  71.7134534  42.0895657   9.6391318  65.5863682  43.0881851   0.4492892
  65.4663308  43.5338901   1.2878372  64.8916271  43.4367168  -0.1093570
  59.1771087  45.1888242   7.9992549  59.3063468  45.4422721   8.9131961
  58.4968538  45.7815950   7.6797204  63.3470574  55.8585492   4.0983023
  63.2694604  56.8093317   4.1771504  62.7432218  55.5131365   4.7557950
  65.8387804  43.0313358  16.7544390  65.0621138  43.5907278  16.7447255
  66.4778367  43.5170141  17.2759260  73.6308585  39.8140151  10.5887367
  72.9882965  40.1072684   9.9427161  73.1263513  39.6993071  11.3940563
  71.2848749  43.5603324   1.2773226  72.1966605  43.7930711   1.1020924
  70.7758396  44.1440368   0.7148305  64.0934177  45.8398811  16.3162357
  64.8348861  46.3783855  16.0397181  63.3871162  46.4665100  16.4733909
  69.5689516  47.9827952  14.9134519  69.9772872  47.5410362  14.1689151
  68.8466778  47.4080579  15.1668711  65.9220586  42.9200558  12.2868076
  66.7681781  43.3439972  12.4302725  65.8619224  42.2634183  12.9806639
  69.8918331  48.5429142   8.6686807  69.2627193  48.7074856   7.9662875
  69.5043993  48.9570752   9.4397772  73.7707563  49.4783580   6.0231171
  73.0858601  49.8582481   5.4728205  73.8551412  50.0878907   6.7563119
  69.0720032  40.5804927  13.9449249  68.8280963  41.3346987  13.4083525
  69.3479962  40.9590274  14.7796496  71.0258494  47.1243539  12.6226515
  71.2375390  47.7675299  11.9460896  70.9788243  46.2905856  12.1548445
  68.6284723  39.7361360   9.5263087  67.7669202  40.0342613   9.8179824
  68.6547158  39.9531759   8.5944120  65.4446293  48.2803550   5.9336893
  65.9084638  48.5591253   5.1441515  65.1803091  47.3786995   5.7509983
  62.3370374  47.8275032   8.8716656  62.9071731  48.2562300   8.2334140
  62.9278486  47.5457617   9.5700841  64.3815179  44.4026703   2.7426458
  65.0839222  44.8547746   3.2100384  64.0495807  43.7610522   3.3706351
  62.8295540  42.9938459  17.1177667  62.1994201  43.6754740  17.3513064
  62.7231628  42.8821541  16.1730805  58.1240513  42.6610255   8.0443591
  57.3339567  42.9167784   7.5683702  58.6151760  43.4758593   8.1495632
  72.1404322  50.0015495  10.7948872  72.9621766  49.5995682  10.5131554
  72.1366725  49.8983729  11.7464988  60.0755258  43.0254835   5.0027068
  59.2786421  43.1373529   5.5210564  59.8480850  43.3641487   4.1367958
  65.9060926  49.5499538  12.9509583  65.9705358  50.0119945  13.7867754
  65.1971850  48.9196903  13.0791892  56.4078216  42.9140746  10.4758582
  56.6586254  43.7987756  10.7416158  56.9437764  42.7345347   9.7033674
  80.2310315  46.3454243   7.1433844  79.4774024  45.7761641   6.9877848
  80.3657857  46.3116907   8.0904478  65.6208943  51.2167645   2.8188563
  65.4854618  52.0619181   3.2473411  66.1618756  51.4186923   2.0554497
  62.1076283  37.2959225  19.4802918  61.7143229  36.7425424  20.1550562
  62.9242423  37.6069804  19.8709436  59.0738341  48.7343083   3.3916488
  59.5862861  49.5286334   3.5422053  59.7261054  48.0369374   3.3250089
  60.8833225  51.8508840   5.4739241  61.0599854  52.7726804   5.2860225
  61.6790059  51.5367259   5.9033621  65.0244244  38.7117104  17.0723175
  65.7653957  39.3124257  16.9927637  65.2562167  37.9694742  16.5141217
  60.1685582  43.8973472  15.3501404  60.0539097  42.9958729  15.6508503
  59.3130100  44.1437168  14.9986221  67.2477420  51.8391212  16.9488905
  66.8041274  51.0527590  16.6309810  67.9094633  52.0270362  16.2832796
  62.0064541  53.3687013  11.4749584  62.5571966  53.2404077  10.7026577
  61.1676017  53.6681902  11.1244476  69.3458658  52.1194012  14.9770306
  69.3277133  52.9402893  14.4850575  70.2678578  51.9948087  15.2020447
  65.8031712  49.6338141  15.8193815  66.3360049  48.8726429  15.5893123
  65.2745793  49.3411793  16.5617969  68.9701407  34.7398207  11.3487456
  68.6265676  35.6299849  11.2726567  69.3380370  34.5499865  10.4857041
  57.0387258  47.0631738   4.1676059  57.8762480  47.4728746   3.9509766
  57.2165525  46.1231180   4.1376252  68.9351690  44.7306818  -0.1440108
  68.4198313  45.5011423   0.0948279  68.6628998  44.0571954   0.4792953
  66.5198801  39.5756519   4.9145130  65.6640397  39.1863369   4.7350769
  66.9325752  39.6548480   4.0544915  68.0497947  37.1102862   9.3136690
  67.5462743  37.0732998   8.5004495  68.3428554  38.0195605   9.3733346
  64.2940833  37.1941592   8.3202871  65.1593830  36.9984401   7.9608761
  64.3618342  36.9651944   9.2472228  73.9085964  47.4839173   1.7913065
  73.1315407  47.1450332   1.3468227  74.5877445  47.4891796   1.1168030
  68.7237993  42.6033910   1.6819673  68.4188128  42.9180060   2.5329816
  69.6768435  42.6815330   1.7247006  67.1684425  48.7624134   3.3312627
  66.6405786  48.0276893   3.0185864  66.6671927  49.5398810   3.0852595
  72.1477271  46.9573154   8.4479673  71.4900945  47.6472416   8.5359802
  72.9517670  47.3469586   8.7913659  61.9003152  39.4243800   5.6919238
  62.4746904  39.2018981   4.9592431  62.4874135  39.4932494   6.4447839
  70.9582729  45.3117527   6.4983615  71.4714611  45.9447519   7.0005324
  71.6083953  44.7118722   6.1326975  62.2272739  41.4548261  -0.2884877
  61.3910052  41.7922948   0.0324398  62.0877509  41.3197241  -1.2257740
  64.2025820  36.2985049   4.4194308  63.5490232  35.9834066   3.7950922
  64.1606294  35.6760789   5.1454131  65.3137025  46.5804344  -3.6652400
  64.4064087  46.3493597  -3.4661251  65.8108057  45.7841963  -3.4778419
  68.2205104  55.2901851  -0.7455714  67.5466802  55.5933548  -0.1370756
  68.6070926  56.0930931  -1.0950257  67.4363560  42.7866982   8.7441955
  66.5186122  43.0081929   8.5863643  67.8523704  42.8613293   7.8853663
  68.2198608  44.1858398   3.8744636  68.9670427  44.6979795   3.5651758
  68.4890198  43.8642451   4.7349029  66.4925258  46.6816939   0.8571590
  65.5836478  46.3975972   0.9544060  66.5220342  47.1016017  -0.0025103
  71.7244526  50.2923528   4.6262757  71.2706853  49.4514438   4.6827948
  71.0938492  50.9284927   4.9637538  70.6677445  41.2215514   5.8563425
  69.9300202  40.7092901   6.1873667  70.9204219  40.7815896   5.0446702
  70.1677465  52.1300025   5.5612575  70.4600439  52.6905082   4.8424941
  70.6776086  52.4228586   6.3165735  70.7689073  33.9991766   6.4505194
  71.0747949  33.1389130   6.1631109  71.4941677  34.5909387   6.2504188
  57.0613429  44.4022453   4.8386792  56.8637828  43.8091814   4.1137859
  56.5060093  44.0974663   5.5562731  65.0410152  44.2945559   6.9581385
  65.0958762  43.3419396   6.8823862  64.2301354  44.4504999   7.4422684
  66.1901346  48.2225683  -1.8040332  65.7520776  47.5061541  -2.2634694
  66.9311787  48.4501797  -2.3655240  62.9802512  42.9122619   4.7171764
  62.1670378  43.2116790   5.1236956  63.4761506  42.5178308   5.4346246
  65.1311090  52.9080376   6.6506029  65.0887269  53.1341222   5.7214561
  66.0473789  52.6743751   6.7991830  68.5776724  43.3764444  13.5486658
  68.9326112  43.6035917  14.4081124  69.2248855  43.7082820  12.9263913
  74.3074461  46.4982880   4.2535987  74.1692359  46.6884476   3.3257176
  73.9510680  47.2602262   4.7104038  62.4716587  40.4840975  10.3332999
  63.1115966  40.3429734   9.6355962  61.6394118  40.1975488   9.9571601
  74.3343840  48.5659407   9.2647258  74.7680347  48.4734696  10.1130312
  75.0475421  48.5416907   8.6267274  63.2476891  49.7843405   6.4467991
  64.0417489  49.2893725   6.2450566  62.5368583  49.2561268   6.0835697
  68.0671735  52.1661501  10.7980359  68.1208758  52.7352437  11.5658075
  67.1986517  52.3363386  10.4334396  59.5559654  43.9286487   2.5227744
  58.6257242  43.8670942   2.7397706  59.6517126  43.4062440   1.7264385
  59.4745203  40.4541300   5.1105986  59.7352021  41.3686633   5.0015146
  60.2962376  39.9865742   5.2602599  60.9470129  41.8679057  12.2804810
  61.6193182  41.6596419  11.6317459  60.1199915  41.6701143  11.8410043
  75.1959390  48.6083107  11.7980144  75.3895280  49.5128918  12.0439419
  75.0960008  48.1490526  12.6318729  66.8495701  38.4940998  14.2970471
  66.2023616  39.1930947  14.2034948  67.6196716  38.9277142  14.6646719
  70.2574499  48.7589850  17.3721024  70.1060005  48.5300402  16.4551108
  70.2479178  49.7160451  17.3852369  67.0259835  46.3321763  12.3567291
  67.9551895  46.4832922  12.1836258  66.6050865  46.4205783  11.5015937
  65.8248167  50.3572427  10.1265829  65.6859253  49.9891212  10.9991767
  65.0362763  50.8720067   9.9549786  66.4196319  55.4581524   1.4691365
  66.5948075  54.9869567   2.2836988  65.7329107  56.0847290   1.6972626
  67.3753382  49.7354030   7.5154666  67.0403215  49.6954800   8.4112316
  66.8757328  49.0698746   7.0425077  61.3497626  45.1421660  13.0407247
  61.2117424  44.4101899  13.6418787  62.2602549  45.0530560  12.7591435
  70.3112574  47.0810064  -2.2108274  69.6941744  46.3556892  -2.3075221
  69.8429062  47.8419424  -2.5541200  63.9779927  44.8541619  12.5290927
  64.6879545  44.2134811  12.4877546  63.9349235  45.1054514  13.4517108
  71.9666705  51.7908972  15.4497506  71.9079252  51.1068193  14.7828089
  72.3686224  52.5327963  14.9978132  62.6908861  41.8406837  14.3486567
  62.1546218  41.3897576  15.0008163  62.1025569  41.9752746  13.6057031
  60.9857404  58.6070886   8.2431225  61.2254002  59.2389411   8.9210244
  60.1426601  58.2558926   8.5296584  71.9684113  49.7548556  13.6811486
  71.0810891  49.4174478  13.8037885  72.5382664  49.0231588  13.9180251
  53.6213260  46.0872648   7.0054537  54.3084300  45.7734378   6.4175553
  53.4661388  46.9914013   6.7321789  58.4247982  40.9762845  11.4339561
  58.3406171  40.3688514  10.6989971  57.6030688  41.4671863  11.4349057
  65.4985266  54.4150009  10.6472729  65.4255438  55.2204980  11.1592034
  65.0562659  54.6141975   9.8220751  65.2875046  53.6521779   4.1575551
  64.5042568  54.1943459   4.2513775  65.9867791  54.1695758   4.5569792
  68.5971696  39.4616408   6.8009756  69.0940395  38.7086371   6.4810826
  67.8258677  39.4980725   6.2352965  76.4501453  45.1656774   8.4428048
  76.4391329  46.0481489   8.0721981  75.5818833  44.8128325   8.2482585
  67.9583950  54.3136843  12.8030888  68.6711922  54.9484308  12.7306789
  67.4673978  54.4100709  11.9870890  69.6801476  48.2188095   4.3748180
  68.7457755  48.3389558   4.2052884  69.8578145  47.3160562   4.1108189
  65.1806665  41.6033791   6.5281441  64.8104452  41.0504832   7.2162346
  65.6765757  40.9991925   5.9756441  73.0674028  44.0605415   4.9098214
  73.5334480  44.8933406   4.8358516  73.5181528  43.5950396   5.6143472
  63.0095863  52.0631286  13.6236459  63.7105323  52.6967769  13.7765853
  62.5390978  52.4046018  12.8632098  71.1350259  50.4049236   1.9084366
  71.4110103  50.2905831   2.8178240  70.2654758  50.0066721   1.8696539
  71.0390691  36.4286002   8.9489115  70.1253770  36.6590229   9.1171322
  71.4683792  36.5124446   9.8003147  70.8097149  44.6175894  11.4489009
  70.1568599  44.8651801  10.7941462  71.1877529  43.8040032  11.1151486
  67.7704323  54.6535587   5.5517179  67.9526717  53.8357243   6.0144932
  68.5937309  54.8703279   5.1142069  68.1046488  53.5803772   2.8132228
  68.6334255  53.0696227   2.2002390  68.3674708  53.2646302   3.6777761
  66.8584722  45.3595705  17.9355046  66.1825359  45.2589834  18.6057421
  67.6812356  45.2034919  18.3991043  58.6063581  51.5967641  10.5567561
  59.1917018  50.8511329  10.6895466  58.4088420  51.9071598  11.4404225
  61.4602236  54.6318889   5.5730004  60.7912612  55.1165016   5.0894044
  61.3215106  54.8788109   6.4873382  53.1981236  44.1673242   9.2772005
  53.2365335  43.6336832  10.0709123  52.6921529  43.6408447   8.6582982
  65.6007505  56.6662632  12.1712662  66.1525813  56.8294254  12.9361747
  65.9413698  57.2567070  11.4992687  60.5771998  39.0137782  12.7734547
  60.6413325  39.8752613  12.3611945  60.5139118  38.4011784  12.0406905
  60.0524271  41.0860915  16.4207581  60.6796310  40.7037992  17.0345105
  59.1952190  40.8675117  16.7863274  70.4518379  51.4923890  18.0261317
  70.9958283  52.1053848  17.5316271  69.8705224  52.0503468  18.5428330
  56.8289813  42.8937344   2.3525936  57.1243255  41.9848022   2.2992990
  55.9277849  42.8725083   2.0306938  68.7375892  54.6144608   9.1576344
  68.6127032  53.8134348   8.6487290  69.3954983  55.1090801   8.6690314
  60.3584060  40.9693340   8.3353485  59.6370646  41.5829308   8.1960958
  61.1477316  41.5051105   8.2570130  70.8010801  52.4153628  10.7855894
  69.8541136  52.2958979  10.7134221  71.1493574  51.5276126  10.8682156
  63.1610374  38.3047767  14.6094136  63.6844776  38.5510063  15.3720446
  62.9422707  39.1367802  14.1897274  58.5577655  40.5751441   2.4765261
  58.2290361  39.6948820   2.2940367  58.9117026  40.5199110   3.3641650
  67.8057234  52.2106344   6.9860247  67.6582196  51.2823051   7.1667817
  68.6310727  52.2326435   6.5017322  61.6719478  40.8624411   2.8440739
  62.0115551  41.3910332   2.1219347  62.1191599  41.2004817   3.6199305
  71.4091356  53.0334903   8.0725119  72.3337903  52.8277764   7.9349570
  71.2406659  52.7851304   8.9814461  64.3662919  39.2461462  12.2943807
  64.0259739  38.4469275  12.6964487  63.6601925  39.5463173  11.7220640
  65.0179391  36.3310774  10.7471130  65.8405460  35.8571252  10.6250020
  65.2617454  37.1101258  11.2469816  63.6587625  39.3599033   1.0434031
  64.3795988  39.7380286   0.5397748  63.0352929  40.0787910   1.1469009
  67.8018748  40.0644182   1.9792364  68.0182363  40.9468820   1.6781192
  67.3212815  39.6730395   1.2498006  62.5417970  43.0229895   8.5563108
  62.3962550  43.3370198   9.4487390  62.0643173  43.6414795   8.0034007
  64.4014352  40.0132443   8.6043998  64.3875921  39.1173536   8.2676296
  65.1186781  40.0203107   9.2382284  66.2540483  40.4469783  10.6497125
  65.9958261  41.3686854  10.6481456  65.7225524  40.0500218  11.3397590
  71.1986672  53.5520570   3.4287211  71.3723549  52.9866993   2.6761063
  71.6915563  54.3521465   3.2466701  57.0163632  45.5635239  11.4950770
  56.4717100  46.3395047  11.6271044  57.8942982  45.9106044  11.3369891
  63.8051248  38.8946823   3.8731568  63.9267160  37.9663469   4.0722456
  63.5153291  38.9085509   2.9609884  66.6742439  36.5801734   7.0098288
  66.6964136  36.6441067   6.0550268  67.0910498  35.7406242   7.2038794
  77.0526063  46.3156993   5.0477511  77.4957209  45.5664318   4.6496634
  76.1752573  46.3067130   4.6651243  72.1861844  52.8687335   0.5284109
  72.8812749  53.4894027   0.7471424  72.5284995  52.0182686   0.8036487
  57.8029654  44.6905136  14.3880926  57.0611390  44.8387771  14.9745557
  57.4822398  44.9513401  13.5247676  74.0853268  50.3187040   2.0571440
  74.6104592  50.6574313   1.3320760  73.9975620  49.3834056   1.8734574
  65.7473316  54.2321114  14.1861316  66.0560443  53.9870261  15.0584016
  66.5448798  54.4367752  13.6980187  65.7693928  56.3859023   6.4166693
  65.3298919  55.8935402   7.1099550  66.5202045  55.8431991   6.1758768
  58.2486267  52.5770564   6.4191321  59.0744287  52.2774336   6.0389965
  57.8980319  51.8078187   6.8681110  63.2167800  51.9297033   8.4888995
  62.5947810  51.2667738   8.1891223  63.8872667  51.9558164   7.8062642
  56.4494872  50.4956891   7.3780255  55.6126781  50.0679065   7.1964256
  56.4218518  50.6889334   8.3151046  63.2892328  40.4078821  18.0821501
  63.3380483  41.2840943  17.6999270  63.8314842  39.8656214  17.5093144
  73.7747174  50.9519944  17.3622638  72.9842717  50.9344083  16.8227137
  73.5380528  51.4908238  18.1171674  73.8945049  47.8012410  14.6755366
  73.9443054  47.6362418  15.6170889  73.7858972  46.9339669  14.2853247
  62.7781307  50.4800956   1.9647455  62.9269428  51.1636420   1.3114128
  63.5847751  50.4606046   2.4796911  71.1848811  43.7843338  15.9914673
  72.0858674  43.6449803  15.6998671  71.2596786  43.9497793  16.9312850
  65.5191616  41.1610193  14.8367859  64.6494926  41.4543759  14.5650448
  65.7551097  41.7450638  15.5575123  75.3963246  50.2209352  14.9197388
  75.1048054  50.5839332  15.7560849  74.7835377  49.5076360  14.7410720
  76.5958928  47.7862231   7.4399958  77.4305819  48.2252036   7.6037518
  76.7318057  47.3100885   6.6208204  73.6450434  45.3441966  13.3877446
  74.1204555  45.5369613  12.5796297  72.7215999  45.4001152  13.1420830
  60.5333940  46.5066134   2.9708524  60.2879982  45.6028464   3.1688734
  60.7029855  46.5083284   2.0288002  68.2230650  37.3789810  12.3533280
  68.7412594  38.1150837  12.0279768  67.8685783  37.6853803  13.1880039
  59.8029588  42.2394491   0.4694686  59.1098833  42.3138846  -0.1865278
  59.5581340  41.4754835   0.9916203  68.4743244  33.7990092   7.8734176
  68.7544998  33.1313282   8.4994603  69.2593851  33.9919188   7.3608840
  66.2776713  52.9749086  -0.5640797  65.7050680  53.5939273  -1.0170325
  66.8509507  53.5248448  -0.0300875  72.3452103  42.2207726  11.6205751
  73.2969526  42.3205824  11.6417976  72.1755553  41.4285995  12.1303836
  70.3666482  39.3063310  11.8065152  69.7716414  39.5868322  11.1111641
  70.0816179  39.7957211  12.5781893  69.4973973  53.2586236   0.5667785
  70.4304646  53.1931798   0.7700660  69.4097186  54.0942503   0.1082318
  72.1261989  52.5752107  -2.4728267  72.0475621  52.2411970  -1.5792510
  72.9471656  53.0673875  -2.4736795  74.8240181  45.4413846  10.7348051
  74.7916501  44.5029847  10.9207735  75.4340804  45.5197883  10.0013876
  66.6623511  44.3109899  -3.2224745  67.6082616  44.1816107  -3.1536327
  66.2837756  43.5724561  -2.7455317  74.9734669  42.2324890  10.7806334
  74.4573718  41.4483346  10.5936263  75.8574618  41.9043606  10.9452854
  72.6345396  35.9765905   6.7402147  72.4370217  35.6680993   7.6245479
  73.2445102  36.7027544   6.8700077  80.6416730  46.5029853   9.8754088
  81.3720119  46.2415141  10.4361791  80.0323676  45.7658575   9.9156156
  78.7232028  44.6437716  10.4728539  77.9965191  44.5093680   9.8645031
  78.3079314  44.9514544  11.2785257  66.5462204  48.3627645  18.2375912
  67.4665213  48.5406244  18.4315959  66.5111787  47.4183691  18.0855611
  55.7644369  43.5566239   7.1629187  55.4447153  42.7031547   6.8703561
  55.2177797  43.7714817   7.9187154  59.5424276  46.2728680  10.8798693
  59.7610286  47.2045788  10.8986727  59.9550050  45.9136654  11.6653497
  66.4628494  36.7796765   2.8674382  65.6529223  36.4343850   3.2429628
  67.1512911  36.4704309   3.4561993  68.3919043  35.8574812   4.4898678
  68.9450081  36.2770265   5.1488701  68.6289129  34.9310560   4.5321634
  64.4152142  41.8461886  20.2701442  64.3148869  42.7956243  20.2013533
  64.1973684  41.5180125  19.3977512  55.6332629  47.1769150   9.1322308
  54.9396100  46.7623103   8.6192263  56.3805620  47.2189687   8.5355727
  71.7697850  37.9675337   3.9977343  71.1896519  38.6260141   3.6155395
  71.5033782  37.1452682   3.5864760  70.2201416  37.3680395   6.1998663
  70.7201194  37.4796929   5.3912982  70.8637024  37.0641448   6.8399471
  64.2783412  45.2759024  19.0866504  63.7950494  46.0759385  19.2930393
  64.3644351  45.2866969  18.1333948  57.5469371  47.1087404   7.0088323
  57.5240060  47.2075091   6.0570206  57.8570008  47.9552555   7.3305489
  60.2056749  49.1663559  11.1234938  61.1600003  49.1347502  11.0564869
  60.0069273  48.7054183  11.9385164  60.7956131  47.7364675  13.6905735
  61.6149020  48.2308754  13.7140573  61.0692939  46.8196643  13.6623303
  70.5522728  40.1275428   3.0533691  69.6648583  40.4125078   2.8353886
  70.9676717  39.9669191   2.2060968  73.9037264  40.1521949   6.7688030
  74.6797654  40.6418401   7.0412647  73.1785398  40.5780003   7.2259900
  76.3409822  40.8649568   7.8261971  76.9354313  40.6245304   7.1155279
  76.4136406  40.1456698   8.4535507  58.5606978  54.7083179   8.1405136
  58.4261446  53.9483580   7.5743134  58.1439040  55.4324079   7.6733924
  69.6965941  49.8920102  -2.8518289  70.4001791  50.0970105  -2.2360634
  68.9728590  50.4596864  -2.5869206  70.5263751  45.6429963   3.2683981
  70.4698953  46.0998515   2.4291613  71.0792094  44.8820648   3.0906824
  74.3368557  41.4319695   4.0934100  74.0805492  41.0316331   4.9242308
  73.7121425  42.1463489   3.9684240  78.6480895  44.1715769   6.6005392
  78.0880453  44.2408958   7.3736954  78.0424399  43.9956753   5.8804888
  61.7176104  55.6052496   8.3523578  61.6008488  56.5497928   8.2502268
  60.8968550  55.3026057   8.7409377  71.6052639  50.3302631  -0.8019829
  72.4398242  49.8983830  -0.9842354  71.4436981  50.1584645   0.1257065
  71.2598531  46.8334745   0.5636510  71.2047335  46.6679016  -0.3775046
  70.6344586  47.5410778   0.7198700  56.0491046  42.0702809  14.3897932
  56.6949909  41.5601763  14.8785158  55.8408197  42.8071491  14.9641358
  68.5744438  49.1383657  19.8890073  69.4435598  49.3124309  19.5276708
  68.0951189  49.9578073  19.7665802  64.5694656  36.3342854   0.1421829
  64.5573326  37.2784694   0.2990099  65.4618078  36.1512999  -0.1518710
  62.7430618  56.2580758  11.5679507  63.6457865  56.2904368  11.8846002
  62.5167988  55.3281209  11.5825842  64.4984220  55.0111744   8.2289585
  63.5479851  55.0113606   8.1153958  64.8016706  54.2644479   7.7125620
  68.3846776  32.9285630   4.3967765  67.6179171  32.3744117   4.5424448
  68.7957481  33.0007499   5.2581917  60.3888537  39.2170426  18.4872947
  61.2519998  38.8607231  18.6976271  59.8153947  38.8784321  19.1748351
  80.2336914  60.8472283   9.2935348  80.8715324  60.7279030   8.5898688
  80.1157757  61.7953126   9.3523300  77.0426620  60.7999711   9.2296872
  76.7045131  60.6840775   8.3417407  77.9116388  60.3990876   9.2097878
  72.9013436  62.6535187   5.2193763  72.3378301  62.5625124   4.4510051
  72.7865831  61.8335091   5.6996256  77.5246403  61.9534562  15.1883078
  77.5135044  61.5587361  14.3163582  77.6867042  61.2200635  15.7816849
  70.4477868  64.1486379   8.0577984  71.2399159  63.8077203   7.6424283
  70.6874518  64.2581354   8.9780137  78.4812994  66.3206155   0.5308228
  77.8300974  66.9060235   0.1442242  79.2757357  66.8512350   0.5903266
  72.4068621  63.4095292   0.9295363  73.1799497  62.8624279   0.7908238
  72.7594020  64.2739541   1.1409824  74.2453664  64.7371674  14.1362262
  73.9543530  65.6417305  14.0208928  74.8810648  64.7788202  14.8506331
  75.1709871  62.1148523  10.7263621  75.7673443  61.8904545  10.0120584
  75.2284842  61.3733268  11.3289069  74.7434899  59.5687958  -1.4386188
  74.9960420  59.0469479  -2.2002725  73.8059458  59.4054103  -1.3359504
  79.7878182  58.5723736   6.3688556  80.5741271  58.1543160   6.0178973
  80.0516886  59.4769829   6.5370204  79.9588259  64.0096587   1.0677212
  79.3234092  64.0831213   1.7798117  79.6285666  64.5990186   0.3896292
  85.1886609  58.5098970   7.2721534  85.9211781  57.9398186   7.5059364
  84.4325965  58.1220570   7.7128040  74.4631188  61.4716064   0.7638187
  74.3467446  60.7960967   1.4319272  74.5733448  60.9848438  -0.0529660
  76.8062729  60.9326211   4.4684877  76.4420936  60.4056832   5.1797798
  77.6629845  60.5424680   4.2951362  82.7112030  52.2220544  11.7316143
  82.3795354  53.0915955  11.5077358  82.1157643  51.9056828  12.4110173
  76.4468216  55.9616111  -0.5353775  76.6142618  56.8296347  -0.1683304
  76.2565385  56.1243392  -1.4592486  79.2043549  64.4233090  11.1312056
  78.9044272  65.3258128  11.0227863  78.8594609  64.1565273  11.9833208
  72.6556031  60.8746887   7.1648760  71.7306527  60.7423101   7.3726452
  72.9040444  61.6541106   7.6618702  82.6040693  56.9415630   8.8109493
  81.6957570  56.8731038   8.5168254  82.5528289  57.4187575   9.6391318
  76.4257437  58.4173768   0.4492892  76.3057062  58.8630819   1.2878372
  75.7310025  58.7659086  -0.1093570  70.0164842  60.5180160   7.9992549
  70.1457223  60.7714639   8.9131961  69.3362293  61.1107868   7.6797204
  74.1864329  71.1877410   4.0983023  74.1088359  72.1385235   4.1771504
  73.5825973  70.8423283   4.7557950  76.6781559  58.3605275  16.7544390
  75.9014893  58.9199196  16.7447255  77.3172122  58.8462058  17.2759260
  84.4702339  55.1432068  10.5887367  83.8276720  55.4364601   9.9427161
  83.9657268  55.0284989  11.3940563  82.1242503  58.8895241   1.2773226
  83.0360359  59.1222628   1.1020924  81.6152150  59.4732286   0.7148305
  74.9327931  61.1690729  16.3162357  75.6742615  61.7075773  16.0397181
  74.2264916  61.7957018  16.4733909  80.4083271  63.3119869  14.9134519
  80.8166627  62.8702280  14.1689151  79.6860532  62.7372497  15.1668711
  76.7614341  58.2492476  12.2868076  77.6075536  58.6731890  12.4302725
  76.7012978  57.5926100  12.9806639  80.7312085  63.8721060   8.6686807
  80.1020948  64.0366774   7.9662875  80.3437747  64.2862669   9.4397772
  84.6101317  64.8075498   6.0231171  83.9252355  65.1874399   5.4728205
  84.6945167  65.4170824   6.7563119  79.9113786  55.9096844  13.9449249
  79.6674718  56.6638905  13.4083525  80.1873717  56.2882192  14.7796496
  81.8652249  62.4535457  12.6226515  82.0769144  63.0967217  11.9460896
  81.8181997  61.6197773  12.1548445  79.4678478  55.0653277   9.5263087
  78.6062957  55.3634531   9.8179824  79.4940912  55.2823676   8.5944120
  76.2840047  63.6095468   5.9336893  76.7478393  63.8883171   5.1441515
  76.0196845  62.7078913   5.7509983  73.1764128  63.1566950   8.8716656
  73.7465485  63.5854218   8.2334140  73.7672240  62.8749534   9.5700841
  75.2208933  59.7318620   2.7426458  75.9232977  60.1839664   3.2100384
  74.8889562  59.0902439   3.3706351  73.6689295  58.3230377  17.1177667
  73.0387955  59.0046658  17.3513064  73.5625383  58.2113459  16.1730805
  68.9634267  57.9902173   8.0443591  68.1733321  58.2459702   7.5683702
  69.4545515  58.8050511   8.1495632  82.9798077  65.3307412  10.7948872
  83.8015520  64.9287599  10.5131554  82.9760480  65.2275646  11.7464988
  70.9149013  58.3546752   5.0027068  70.1180176  58.4665447   5.5210564
  70.6874605  58.6933404   4.1367958  76.7454680  64.8791455  12.9509583
  76.8099113  65.3411863  13.7867754  76.0365604  64.2488820  13.0791892
  67.2471970  58.2432663  10.4758582  67.4980009  59.1279673  10.7416158
  67.7831519  58.0637265   9.7033674  91.0704070  61.6746161   7.1433844
  90.3167778  61.1053559   6.9877848  91.2051611  61.6408825   8.0904478
  76.4602698  66.5459563   2.8188563  76.3248373  67.3911099   3.2473411
  77.0012510  66.7478841   2.0554497  72.9470037  52.6251143  19.4802918
  72.5536983  52.0717341  20.1550562  73.7636178  52.9361721  19.8709436
  69.9132095  64.0635001   3.3916488  70.4256616  64.8578251   3.5422053
  70.5654808  63.3661291   3.3250089  71.7226980  67.1800757   5.4739241
  71.8993608  68.1018722   5.2860225  72.5183813  66.8659177   5.9033621
  75.8637998  54.0409022  17.0723175  76.6047712  54.6416175  16.9927637
  76.0955921  53.2986660  16.5141217  71.0079336  59.2265389  15.3501404
  70.8932852  58.3250646  15.6508503  70.1523854  59.4729086  14.9986221
  78.0871174  67.1683129  16.9488905  77.6435028  66.3819508  16.6309810
  78.7488388  67.3562280  16.2832796  72.8458295  68.6978931  11.4749584
  73.3965721  68.5695994  10.7026577  72.0069771  68.9973820  11.1244476
  80.1852412  67.4485929  14.9770306  80.1670888  68.2694810  14.4850575
  81.1072332  67.3240005  15.2020447  76.6425466  64.9630059  15.8193815
  77.1753803  64.2018347  15.5893123  76.1139548  64.6703711  16.5617969
  79.8095161  50.0690125  11.3487456  79.4659431  50.9591767  11.2726567
  80.1774124  49.8791782  10.4857041  67.8781012  62.3923655   4.1676059
  68.7156234  62.8020664   3.9509766  68.0559280  61.4523097   4.1376252
  79.7745444  60.0598736  -0.1440108  79.2592068  60.8303341   0.0948279
  79.5022753  59.3863872   0.4792953  77.3592555  54.9048437   4.9145130
  76.5034152  54.5155287   4.7350769  77.7719507  54.9840398   4.0544915
  78.8891702  52.4394780   9.3136690  78.3856497  52.4024915   8.5004495
  79.1822309  53.3487523   9.3733346  75.1334588  52.5233510   8.3202871
  75.9987584  52.3276318   7.9608761  75.2012097  52.2943862   9.2472228
  84.7479718  62.8131091   1.7913065  83.9709161  62.4742250   1.3468227
  85.4271199  62.8183714   1.1168030  79.5631747  57.9325828   1.6819673
  79.2581883  58.2471977   2.5329816  80.5162189  58.0107248   1.7247006
  78.0078179  64.0916051   3.3312627  77.4799541  63.3568811   3.0185864
  77.5065682  64.8690728   3.0852595  82.9871025  62.2865072   8.4479673
  82.3294700  62.9764333   8.5359802  83.7911424  62.6761504   8.7913659
  72.7396907  54.7535718   5.6919238  73.3140659  54.5310899   4.9592431
  73.3267889  54.8224412   6.4447839  81.7976484  60.6409445   6.4983615
  82.3108366  61.2739436   7.0005324  82.4477708  60.0410640   6.1326975
  73.0666494  56.7840179  -0.2884877  72.2303806  57.1214865   0.0324398
  72.9271264  56.6489158  -1.2257740  75.0419574  51.6276967   4.4194308
  74.3883987  51.3125984   3.7950922  75.0000049  51.0052707   5.1454131
  76.1530779  61.9096262  -3.6652400  75.2457841  61.6785515  -3.4661251
  76.6501811  61.1133881  -3.4778419  78.2757315  58.1158900   8.7441955
  77.3579876  58.3373847   8.5863643  78.6917458  58.1905211   7.8853663
  79.0592363  59.5150316   3.8744636  79.8064182  60.0271713   3.5651758
  79.3283952  59.1934369   4.7349029  77.3319013  62.0108857   0.8571590
  76.4230232  61.7267889   0.9544060  77.3614097  62.4307935  -0.0025103
  82.5638280  65.6215446   4.6262757  82.1100607  64.7806356   4.6827948
  81.9332247  66.2576844   4.9637538  81.5071200  56.5507432   5.8563425
  80.7693957  56.0384818   6.1873667  81.7597973  56.1107814   5.0446702
  81.0071219  67.4591943   5.5612575  81.2994194  68.0197000   4.8424941
  81.5169840  67.7520504   6.3165735  81.6082827  49.3283684   6.4505194
  81.9141704  48.4681047   6.1631109  82.3335432  49.9201304   6.2504188
  67.9007183  59.7314371   4.8386792  67.7031583  59.1383731   4.1137859
  67.3453847  59.4266581   5.5562731  75.8803907  59.6237477   6.9581385
  75.9352517  58.6711314   6.8823862  75.0695109  59.7796916   7.4422684
  77.0295101  63.5517600  -1.8040332  76.5914531  62.8353459  -2.2634694
  77.7705541  63.7793715  -2.3655240  73.8196267  58.2414537   4.7171764
  73.0064132  58.5408707   5.1236956  74.3155261  57.8470226   5.4346246
  75.9704845  68.2372294   6.6506029  75.9281023  68.4633140   5.7214561
  76.8867543  68.0035668   6.7991830  79.4170478  58.7056361  13.5486658
  79.7719866  58.9327834  14.4081124  80.0642610  59.0374738  12.9263913
  85.1468215  61.8274797   4.2535987  85.0086114  62.0176393   3.3257176
  84.7904434  62.5894180   4.7104038  73.3110341  55.8132892  10.3332999
  73.9509721  55.6721651   9.6355962  72.4787872  55.5267406   9.9571601
  85.1737595  63.8951324   9.2647258  85.6074102  63.8026613  10.1130312
  85.8869176  63.8708825   8.6267274  74.0870645  65.1135323   6.4467991
  74.8811244  64.6185643   6.2450566  73.3762338  64.5853186   6.0835697
  78.9065490  67.4953418  10.7980359  78.9602512  68.0644355  11.5658075
  78.0380271  67.6655303  10.4334396  70.3953409  59.2578405   2.5227744
  69.4650997  59.1962860   2.7397706  70.4910881  58.7354357   1.7264385
  70.3138958  55.7833217   5.1105986  70.5745775  56.6978551   5.0015146
  71.1356130  55.3157660   5.2602599  71.7863883  57.1970975  12.2804810
  72.4586937  56.9888337  11.6317459  70.9593670  56.9993061  11.8410043
  86.0353145  63.9375025  11.7980144  86.2289035  64.8420835  12.0439419
  85.9353763  63.4782444  12.6318729  77.6889455  53.8232915  14.2970471
  77.0417370  54.5222865  14.2034948  78.4590471  54.2569059  14.6646719
  81.0968253  64.0881768  17.3721024  80.9453760  63.8592319  16.4551108
  81.0872933  65.0452369  17.3852369  77.8653590  61.6613680  12.3567291
  78.7945650  61.8124840  12.1836258  77.4444620  61.7497701  11.5015937
  76.6641921  65.6864345  10.1265829  76.5253007  65.3183129  10.9991767
  75.8756518  66.2011984   9.9549786  77.2590073  70.7873441   1.4691365
  77.4341829  70.3161484   2.2836988  76.5722861  71.4139207   1.6972626
  78.2147137  65.0645947   7.5154666  77.8796969  65.0246717   8.4112316
  77.7151082  64.3990663   7.0425077  72.1891381  60.4713578  13.0407247
  72.0511178  59.7393816  13.6418787  73.0996304  60.3822478  12.7591435
  81.1506328  62.4101982  -2.2108274  80.5335499  61.6848810  -2.3075221
  80.6822817  63.1711342  -2.5541200  74.8173681  60.1833537  12.5290927
  75.5273300  59.5426729  12.4877546  74.7742989  60.4346432  13.4517108
  82.8060460  67.1200890  15.4497506  82.7473006  66.4360110  14.7828089
  83.2079978  67.8619880  14.9978132  73.5302615  57.1698755  14.3486567
  72.9939972  56.7189493  15.0008163  72.9419324  57.3044664  13.6057031
  71.8251159  73.9362804   8.2431225  72.0647757  74.5681328   8.9210244
  70.9820355  73.5850844   8.5296584  72.9404874  56.6287406  -3.0886970
  72.0634340  56.5076207  -3.4524723  73.4162627  55.8373484  -3.3408081
  82.8077867  65.0840474  13.6811486  81.9204646  64.7466396  13.8037885
  83.3776418  64.3523505  13.9180251  64.4607014  61.4164566   7.0054537
  65.1478054  61.1026296   6.4175553  64.3055143  62.3205930   6.7321789
  69.2641736  56.3054762  11.4339561  69.1799925  55.6980432  10.6989971
  68.4424443  56.7963781  11.4349057  76.3379021  69.7441926  10.6472729
  76.2649192  70.5496898  11.1592034  75.8956414  69.9433892   9.8220751
  76.1268800  68.9813696   4.1575551  75.3436322  69.5235377   4.2513775
  76.8261545  69.4987676   4.5569792  79.4365450  54.7908326   6.8009756
  79.9334150  54.0378288   6.4810826  78.6652432  54.8272643   6.2352965
  87.2895208  60.4948691   8.4428048  87.2785084  61.3773407   8.0721981
  86.4212587  60.1420242   8.2482585  78.7977704  69.6428760  12.8030888
  79.5105676  70.2776225  12.7306789  78.3067733  69.7392626  11.9870890
  80.5195231  63.5480013   4.3748180  79.5851510  63.6681476   4.2052884
  80.6971899  62.6452480   4.1108189  76.0200419  56.9325709   6.5281441
  75.6498207  56.3796749   7.2162346  76.5159511  56.3283842   5.9756441
  83.9067782  59.3897332   4.9098214  84.3728234  60.2225324   4.8358516
  84.3575283  58.9242314   5.6143472  73.8489618  67.3923204  13.6236459
  74.5499077  68.0259687  13.7765853  73.3784733  67.7337936  12.8632098
  81.9744013  65.7341154   1.9084366  82.2503857  65.6197748   2.8178240
  81.1048512  65.3358639   1.8696539  81.8784445  51.7577919   8.9489115
  80.9647525  51.9882146   9.1171322  82.3077547  51.8416364   9.8003147
  81.6490904  59.9467811  11.4489009  80.9962354  60.1943719  10.7941462
  82.0271283  59.1331950  11.1151486  78.6098077  69.9827505   5.5517179
  78.7920472  69.1649161   6.0144932  79.4331063  70.1995197   5.1142069
  78.9440243  68.9095690   2.8132228  79.4728009  68.3988144   2.2002390
  79.2068462  68.5938220   3.6777761  77.6978477  60.6887622  17.9355046
  77.0219114  60.5881752  18.6057421  78.5206110  60.5326836  18.3991043
  69.4457336  66.9259559  10.5567561  70.0310772  66.1803247  10.6895466
  69.2482174  67.2363516  11.4404225  72.2995991  69.9610806   5.5730004
  71.6306366  70.4456934   5.0894044  72.1608861  70.2080027   6.4873382
  64.0374990  59.4965159   9.2772005  64.0759090  58.9628750  10.0709123
  63.5315283  58.9700365   8.6582982  76.4401259  71.9954550  12.1712662
  76.9919567  72.1586171  12.9361747  76.7807453  72.5858988  11.4992687
  71.4165753  54.3429700  12.7734547  71.4807079  55.2044531  12.3611945
  71.3532873  53.7303701  12.0406905  70.8918025  56.4152832  16.4207581
  71.5190064  56.0329910  17.0345105  70.0345944  56.1967034  16.7863274
  81.2912134  66.8215807  18.0261317  81.8352038  67.4345766  17.5316271
  80.7098979  67.3795386  18.5428330  67.6683568  58.2229261   2.3525936
  67.9637009  57.3139940   2.2992990  66.7671604  58.2017001   2.0306938
  79.5769647  69.9436525   9.1576344  79.4520786  69.1426265   8.6487290
  80.2348738  70.4382719   8.6690314  71.1977815  56.2985258   8.3353485
  70.4764401  56.9121226   8.1960958  71.9871071  56.8343023   8.2570130
  81.6404555  67.7445546  10.7855894  80.6934891  67.6250897  10.7134221
  81.9887328  66.8568044  10.8682156  74.0004128  53.6339684  14.6094136
  74.5238530  53.8801981  15.3720446  73.7816462  54.4659719  14.1897274
  69.3971410  55.9043359   2.4765261  69.0684116  55.0240738   2.2940367
  69.7510780  55.8491028   3.3641650  78.6450988  67.5398262   6.9860247
  78.4975951  66.6114969   7.1667817  79.4704482  67.5618352   6.5017322
  72.5113233  56.1916329   2.8440739  72.8509305  56.7202250   2.1219347
  72.9585353  56.5296735   3.6199305  82.2485110  68.3626820   8.0725119
  83.1731658  68.1569682   7.9349570  82.0800414  68.1143222   8.9814461
  75.2056674  54.5753380  12.2943807  74.8653494  53.7761193  12.6964487
  74.4995680  54.8755090  11.7220640  75.8573145  51.6602692  10.7471130
  76.6799215  51.1863170  10.6250020  76.1011209  52.4393176  11.2469816
  74.4981380  54.6890950   1.0434031  75.2189742  55.0672203   0.5397748
  73.8746684  55.4079827   1.1469009  78.6412503  55.3936099   1.9792364
  78.8576117  56.2760737   1.6781192  78.1606570  55.0022313   1.2498006
  73.3811724  58.3521813   8.5563108  73.2356305  58.6662116   9.4487390
  72.9036928  58.9706713   8.0034007  75.2408107  55.3424361   8.6043998
  75.2269676  54.4465454   8.2676296  75.9580535  55.3495024   9.2382284
  77.0934238  55.7761701  10.6497125  76.8352016  56.6978771  10.6481456
  76.5619278  55.3792135  11.3397590  82.0380426  68.8812488   3.4287211
  82.2117304  68.3158910   2.6761063  82.5309318  69.6813383   3.2466701
  67.8557386  60.8927157  11.4950770  67.3110854  61.6686965  11.6271044
  68.7336736  61.2397961  11.3369891  74.6445003  54.2238741   3.8731568
  74.7660914  53.2955387   4.0722456  74.3547045  54.2377427   2.9609884
  77.5136193  51.9093651   7.0098288  77.5357890  51.9732984   6.0550268
  77.9304252  51.0698160   7.2038794  87.8919818  61.6448911   5.0477511
  88.3350964  60.8956236   4.6496634  87.0146328  61.6359047   4.6651243
  83.0255599  68.1979252   0.5284109  83.7206504  68.8185945   0.7471424
  83.3678749  67.3474604   0.8036487  68.6423408  60.0197053  14.3880926
  67.9005144  60.1679689  14.9745557  68.3216152  60.2805319  13.5247676
  84.9247022  65.6478958   2.0571440  85.4498346  65.9866231   1.3320760
  84.8369375  64.7125973   1.8734574  76.5867071  69.5613032  14.1861316
  76.8954197  69.3162178  15.0584016  77.3842553  69.7659670  13.6980187
  76.6087683  71.7150941   6.4166693  76.1692673  71.2227320   7.1099550
  77.3595800  71.1723909   6.1758768  69.0880022  67.9062482   6.4191321
  69.9138042  67.6066254   6.0389965  68.7374074  67.1370104   6.8681110
  74.0561555  67.2588950   8.4888995  73.4341564  66.5959655   8.1891223
  74.7266422  67.2850082   7.8062642  67.2888627  65.8248808   7.3780255
  66.4520535  65.3970983   7.1964256  67.2612272  66.0181252   8.3151046
  74.1286082  55.7370738  18.0821501  74.1774238  56.6132861  17.6999270
  74.6708597  55.1948131  17.5093144  84.6140928  66.2811862  17.3622638
  83.8236472  66.2636000  16.8227137  84.3774283  66.8200155  18.1171674
  84.7338803  63.1304328  14.6755366  84.7836808  62.9654335  15.6170889
  84.6252727  62.2631587  14.2853247  73.6175062  65.8092874   1.9647455
  73.7663182  66.4928338   1.3114128  74.4241505  65.7897964   2.4796911
  82.0242566  59.1135256  15.9914673  82.9252428  58.9741721  15.6998671
  82.0990540  59.2789711  16.9312850  76.3585371  56.4902111  14.8367859
  75.4888680  56.7835677  14.5650448  76.5944851  57.0742556  15.5575123
  86.2357000  65.5501269  14.9197388  85.9441808  65.9131250  15.7560849
  85.6229131  64.8368278  14.7410720  87.4352682  63.1154149   7.4399958
  88.2699574  63.5543953   7.6037518  87.5711811  62.6392802   6.6208204
  84.4844188  60.6733884  13.3877446  84.9598310  60.8661530  12.5796297
  83.5609754  60.7293070  13.1420830  71.3727695  61.8358051   2.9708524
  71.1273737  60.9320381   3.1688734  71.5423609  61.8375202   2.0288002
  79.0624405  52.7081728  12.3533280  79.5806349  53.4442755  12.0279768
  78.7079538  53.0145721  13.1880039  70.6423342  57.5686409   0.4694686
  69.9492587  57.6430764  -0.1865278  70.3975094  56.8046752   0.9916203
  79.3136999  49.1282010   7.8734176  79.5938753  48.4605199   8.4994603
  80.0987606  49.3211106   7.3608840  77.1170467  68.3041004  -0.5640797
  76.5444434  68.9231191  -1.0170325  77.6903261  68.8540366  -0.0300875
  83.1845857  57.5499644  11.6205751  84.1363280  57.6497742  11.6417976
  83.0149308  56.7577913  12.1303836  81.2060237  54.6355227  11.8065152
  80.6110169  54.9160240  11.1111641  80.9209933  55.1249128  12.5781893
  80.3367727  68.5878154   0.5667785  81.2698400  68.5223716   0.7700660
  80.2490940  69.4234421   0.1082318  85.6633935  60.7705764  10.7348051
  85.6310255  59.8321765  10.9207735  86.2734559  60.8489801  10.0013876
  77.5017266  59.6401817  -3.2224745  78.4476371  59.5108025  -3.1536327
  77.1231511  58.9016479  -2.7455317  85.8128424  57.5616807  10.7806334
  85.2967472  56.7775264  10.5936263  86.6968372  57.2335524  10.9452854
  83.4739150  51.3057823   6.7402147  83.2763972  50.9972911   7.6245479
  84.0838856  52.0319462   6.8700077  91.4810485  61.8321771   9.8754088
  92.2113873  61.5707059  10.4361791  90.8717430  61.0950493   9.9156156
  89.5625782  59.9729633  10.4728539  88.8358946  59.8385598   9.8645031
  89.1473069  60.2806462  11.2785257  77.3855958  63.6919563  18.2375912
  78.3058968  63.8698162  18.4315959  77.3505541  62.7475608  18.0855611
  75.6860183  57.5651793  -3.2869860  74.7791638  57.2684906  -3.2107146
  75.9636164  57.2681611  -4.1535573  66.6038123  58.8858157   7.1629187
  66.2840908  58.0323465   6.8703561  66.0571552  59.1006735   7.9187154
  70.3818031  61.6020598  10.8798693  70.6004041  62.5337705  10.8986727
  70.7943805  61.2428572  11.6653497  77.3022249  52.1088683   2.8674382
  76.4922977  51.7635768   3.2429628  77.9906666  51.7996227   3.4561993
  79.2312797  51.1866730   4.4898678  79.7843836  51.6062183   5.1488701
  79.4682883  50.2602478   4.5321634  75.2545896  57.1753803  20.2701442
  75.1542623  58.1248160  20.2013533  75.0367438  56.8472042  19.3977512
  74.4558968  54.4238728  -3.1457880  75.3178132  54.7493627  -2.8862063
  74.6409312  53.6370224  -3.6584815  66.4726383  62.5061068   9.1322308
  65.7789855  62.0915021   8.6192263  67.2199374  62.5481605   8.5355727
  82.6091604  53.2967255   3.9977343  82.0290273  53.9552059   3.6155395
  82.3427537  52.4744599   3.5864760  81.0595171  52.6972313   6.1998663
  81.5594949  52.8088847   5.3912982  81.7030778  52.3933365   6.8399471
  75.1177166  60.6050942  19.0866504  74.6344248  61.4051302  19.2930393
  75.2038105  60.6158887  18.1333948  68.3863126  62.4379322   7.0088323
  68.3633814  62.5367009   6.0570206  68.6963762  63.2844473   7.3305489
  71.0450504  64.4955477  11.1234938  71.9993757  64.4639419  11.0564869
  70.8463027  64.0346101  11.9385164  71.6349886  63.0656593  13.6905735
  72.4542775  63.5600672  13.7140573  71.9086694  62.1488561  13.6623303
  81.3916482  55.4567345   3.0533691  80.5042337  55.7416996   2.8353886
  81.8070471  55.2961109   2.2060968  84.7431018  55.4813866   6.7688030
  85.5191408  55.9710319   7.0412647  84.0179152  55.9071920   7.2259900
  87.1803577  56.1941485   7.8261971  87.7748068  55.9537221   7.1155279
  87.2530161  55.4748616   8.4535507  69.4000733  70.0375096   8.1405136
  69.2655201  69.2775497   7.5743134  68.9832795  70.7615996   7.6733924
  81.3657506  60.9721881   3.2683981  81.3092707  61.4290433   2.4291613
  81.9185848  60.2112566   3.0906824  85.1762312  56.7611613   4.0934100
  84.9199246  56.3608249   4.9242308  84.5515180  57.4755407   3.9684240
  89.4874650  59.5007686   6.6005392  88.9274208  59.5700876   7.3736954
  88.8818153  59.3248671   5.8804888  72.5569858  70.9344413   8.3523578
  72.4402243  71.8789846   8.2502268  71.7362305  70.6317975   8.7409377
  82.4446393  65.6594549  -0.8019829  83.2791997  65.2275748  -0.9842354
  82.2830736  65.4876563   0.1257065  82.0992285  62.1626662   0.5636510
  82.0441089  61.9970934  -0.3775046  81.4738340  62.8702695   0.7198700
  66.8884800  57.3994727  14.3897932  67.5343664  56.8893681  14.8785158
  66.6801951  58.1363408  14.9641358  79.4138192  64.4675574  19.8890073
  80.2829352  64.6416227  19.5276708  78.9344944  65.2869991  19.7665802
  75.4088411  51.6634771   0.1421829  75.3967081  52.6076611   0.2990099
  76.3011833  51.4804917  -0.1518710  73.5824373  71.5872675  11.5679507
  74.4851619  71.6196286  11.8846002  73.3561743  70.6573126  11.5825842
  75.3377975  70.3403662   8.2289585  74.3873606  70.3405523   8.1153958
  75.6410461  69.5936396   7.7125620  79.2240530  48.2577548   4.3967765
  78.4572926  47.7036035   4.5424448  79.6351235  48.3299417   5.2581917
  71.2282291  54.5462344  18.4872947  72.0913753  54.1899149  18.6976271
  70.6547702  54.2076239  19.1748351  91.0730668  76.1764200   9.2935348
  91.7109078  76.0570948   8.5898688  90.9551511  77.1245044   9.3523300
  87.8820374  76.1291628   9.2296872  87.5438886  76.0132693   8.3417407
  88.7510143  75.7282793   9.2097878  88.3640157  77.2826480  15.1883078
  88.3528798  76.8879278  14.3163582  88.5260797  76.5492553  15.7816849
  81.2871622  79.4778296   8.0577984  82.0792914  79.1369121   7.6424283
  81.5268272  79.5873271   8.9780137  85.0847419  80.0663592  14.1362262
  84.7937285  80.9709223  14.0208928  85.7204403  80.1080119  14.8506331
  86.0103625  77.4440440  10.7263621  86.6067198  77.2196463  10.0120584
  86.0678597  76.7025186  11.3289069  93.5505784  67.5512461  11.7316143
  93.2189109  68.4207872  11.5077358  92.9551397  67.2348745  12.4110173
  90.0437304  79.7525007  11.1312056  89.7438027  80.6550046  11.0227863
  89.6988363  79.4857191  11.9833208  83.4949785  76.2038804   7.1648760
  82.5700282  76.0715018   7.3726452  83.7434198  76.9833023   7.6618702
  93.4434447  72.2707548   8.8109493  92.5351325  72.2022956   8.5168254
  93.3922043  72.7479492   9.6391318  80.8558596  75.8472078   7.9992549
  80.9850977  76.1006557   8.9131961  80.1756047  76.4399786   7.6797204
  87.5175313  73.6897193  16.7544390  86.7408647  74.2491113  16.7447255
  88.1565876  74.1753976  17.2759260  95.3096094  70.4723986  10.5887367
  94.6670474  70.7656519   9.9427161  94.8051022  70.3576906  11.3940563
  85.7721686  76.4982646  16.3162357  86.5136370  77.0367690  16.0397181
  85.0658671  77.1248935  16.4733909  91.2477025  78.6411787  14.9134519
  91.6560381  78.1994197  14.1689151  90.5254287  78.0664414  15.1668711
  87.6008095  73.5784394  12.2868076  88.4469290  74.0023807  12.4302725
  87.5406733  72.9218018  12.9806639  90.7507541  71.2388762  13.9449249
  90.5068472  71.9930823  13.4083525  91.0267471  71.6174110  14.7796496
  92.7046003  77.7827374  12.6226515  92.9162899  78.4259134  11.9460896
  92.6575752  76.9489691  12.1548445  90.3072232  70.3945195   9.5263087
  89.4456711  70.6926449   9.8179824  90.3334667  70.6115594   8.5944120
  84.0157883  78.4858867   8.8716656  84.5859240  78.9146136   8.2334140
  84.6065995  78.2041452   9.5700841  84.5083049  73.6522295  17.1177667
  83.8781710  74.3338576  17.3513064  84.4019137  73.5405376  16.1730805
  79.8028022  73.3194091   8.0443591  79.0127076  73.5751619   7.5683702
  80.2939269  74.1342429   8.1495632  81.7542767  73.6838670   5.0027068
  80.9573930  73.7957364   5.5210564  81.5268359  74.0225322   4.1367958
  87.5848435  80.2083373  12.9509583  87.6492867  80.6703780  13.7867754
  86.8759359  79.5780738  13.0791892  78.0865725  73.5724581  10.4758582
  78.3373763  74.4571591  10.7416158  78.6225273  73.3929183   9.7033674
  83.7863792  67.9543061  19.4802918  83.3930738  67.4009259  20.1550562
  84.6029932  68.2653639  19.8709436  86.7031753  69.3700940  17.0723175
  87.4441466  69.9708093  16.9927637  86.9349676  68.6278577  16.5141217
  81.8473091  74.5557307  15.3501404  81.7326606  73.6542564  15.6508503
  80.9917609  74.8021004  14.9986221  88.9264929  82.4975047  16.9488905
  88.4828783  81.7111426  16.6309810  89.5882142  82.6854198  16.2832796
  83.6852050  84.0270849  11.4749584  84.2359475  83.8987912  10.7026577
  82.8463526  84.3265738  11.1244476  91.0246167  82.7777847  14.9770306
  91.0064642  83.5986728  14.4850575  91.9466087  82.6531922  15.2020447
  87.4819221  80.2921977  15.8193815  88.0147558  79.5310265  15.5893123
  86.9533302  79.9995628  16.5617969  90.6488916  65.3982043  11.3487456
  90.3053185  66.2883684  11.2726567  91.0167879  65.2083700  10.4857041
  88.1986310  70.2340354   4.9145130  87.3427906  69.8447205   4.7350769
  88.6113261  70.3132315   4.0544915  89.7285456  67.7686698   9.3136690
  89.2250252  67.7316833   8.5004495  90.0216063  68.6779440   9.3733346
  85.9728342  67.8525427   8.3202871  86.8381339  67.6568236   7.9608761
  86.0405851  67.6235779   9.2472228  83.5790661  70.0827635   5.6919238
  84.1534413  69.8602817   4.9592431  84.1661644  70.1516330   6.4447839
  85.8813329  66.9568884   4.4194308  85.2277741  66.6417901   3.7950922
  85.8393803  66.3344625   5.1454131  89.1151069  73.4450818   8.7441955
  88.1973631  73.6665765   8.5863643  89.5311213  73.5197128   7.8853663
  92.4476582  64.6575602   6.4505194  92.7535458  63.7972965   6.1631109
  93.1729186  65.2493222   6.2504188  78.7400938  75.0606288   4.8386792
  78.5425337  74.4675649   4.1137859  78.1847602  74.7558499   5.5562731
  86.7197661  74.9529395   6.9581385  86.7746271  74.0003231   6.8823862
  85.9088863  75.1088834   7.4422684  84.6590021  73.5706455   4.7171764
  83.8457887  73.8700625   5.1236956  85.1549015  73.1762143   5.4346246
  90.2564233  74.0348279  13.5486658  90.6113621  74.2619752  14.4081124
  90.9036364  74.3666656  12.9263913  84.1504096  71.1424810  10.3332999
  84.7903475  71.0013569   9.6355962  83.3181627  70.8559323   9.9571601
  81.1532712  71.1125135   5.1105986  81.4139530  72.0270468   5.0015146
  81.9749885  70.6449578   5.2602599  82.6257638  72.5262892  12.2804810
  83.2980691  72.3180254  11.6317459  81.7987424  72.3284978  11.8410043
  88.5283210  69.1524833  14.2970471  87.8811125  69.8514783  14.2034948
  89.2984225  69.5860977  14.6646719  91.9362008  79.4173685  17.3721024
  91.7847514  79.1884237  16.4551108  91.9266687  80.3744287  17.3852369
  88.7047344  76.9905598  12.3567291  89.6339404  77.1416758  12.1836258
  88.2838374  77.0789619  11.5015937  87.5035676  81.0156262  10.1265829
  87.3646762  80.6475047  10.9991767  86.7150272  81.5303902   9.9549786
  83.0285135  75.8005495  13.0407247  82.8904933  75.0685734  13.6418787
  83.9390058  75.7114395  12.7591435  85.6567436  75.5125455  12.5290927
  86.3667054  74.8718647  12.4877546  85.6136744  75.7638349  13.4517108
  93.6454214  82.4492808  15.4497506  93.5866760  81.7652028  14.7828089
  94.0473733  83.1911798  14.9978132  84.3696370  72.4990672  14.3486567
  83.8333727  72.0481411  15.0008163  83.7813078  72.6336581  13.6057031
  93.6471622  80.4132392  13.6811486  92.7598400  80.0758314  13.8037885
  94.2170173  79.6815423  13.9180251  75.3000769  76.7456484   7.0054537
  75.9871809  76.4318214   6.4175553  75.1448897  77.6497848   6.7321789
  80.1035491  71.6346680  11.4339561  80.0193680  71.0272350  10.6989971
  79.2818197  72.1255698  11.4349057  90.2759205  70.1200244   6.8009756
  90.7727904  69.3670206   6.4810826  89.5046186  70.1564560   6.2352965
  86.8594173  72.2617627   6.5281441  86.4891961  71.7088667   7.2162346
  87.3553266  71.6575760   5.9756441  84.6883372  82.7215122  13.6236459
  85.3892832  83.3551605  13.7765853  84.2178487  83.0629853  12.8632098
  92.7178200  67.0869837   8.9489115  91.8041279  67.3174064   9.1171322
  93.1471301  67.1708281   9.8003147  92.4884658  75.2759729  11.4489009
  91.8356108  75.5235637  10.7941462  92.8665038  74.4623867  11.1151486
  88.5372231  76.0179540  17.9355046  87.8612868  75.9173669  18.6057421
  89.3599865  75.8618754  18.3991043  80.2851090  82.2551477  10.5567561
  80.8704527  81.5095165  10.6895466  80.0875929  82.5655433  11.4404225
  74.8768745  74.8257077   9.2772005  74.9152844  74.2920668  10.0709123
  74.3709038  74.2992282   8.6582982  82.2559507  69.6721617  12.7734547
  82.3200834  70.5336448  12.3611945  82.1926627  69.0595619  12.0406905
  81.7311780  71.7444750  16.4207581  82.3583818  71.3621827  17.0345105
  80.8739699  71.5258952  16.7863274  92.1305888  82.1507725  18.0261317
  92.6745792  82.7637683  17.5316271  91.5492733  82.7087304  18.5428330
  78.5077322  73.5521179   2.3525936  78.8030764  72.6431857   2.2992990
  77.6065358  73.5308918   2.0306938  82.0371569  71.6277176   8.3353485
  81.3158155  72.2413143   8.1960958  82.8264825  72.1634940   8.2570130
  84.8397883  68.9631602  14.6094136  85.3632285  69.2093899  15.3720446
  84.6210216  69.7951637  14.1897274  80.2365164  71.2335277   2.4765261
  79.9077870  70.3532656   2.2940367  80.5904535  71.1782945   3.3641650
  86.0450428  69.9045297  12.2943807  85.7047248  69.1053110  12.6964487
  85.3389434  70.2047008  11.7220640  86.6966900  66.9894610  10.7471130
  87.5192969  66.5155088  10.6250020  86.9404963  67.7685093  11.2469816
  84.2205479  73.6813730   8.5563108  84.0750059  73.9954033   9.4487390
  83.7430682  74.2998631   8.0034007  86.0801861  70.6716278   8.6043998
  86.0663430  69.7757372   8.2676296  86.7974290  70.6786942   9.2382284
  87.9327992  71.1053618  10.6497125  87.6745770  72.0270689  10.6481456
  87.4013033  70.7084053  11.3397590  78.6951141  76.2219075  11.4950770
  78.1504609  76.9978883  11.6271044  79.5730491  76.5689879  11.3369891
  85.4838757  69.5530659   3.8731568  85.6054669  68.6247305   4.0722456
  85.1940800  69.5669345   2.9609884  88.3529948  67.2385569   7.0098288
  88.3751645  67.3024902   6.0550268  88.7698007  66.3990078   7.2038794
  79.4817163  75.3488971  14.3880926  78.7398899  75.4971606  14.9745557
  79.1609907  75.6097237  13.5247676  87.4260825  84.8904949  14.1861316
  87.7347952  84.6454096  15.0584016  88.2236307  85.0951588  13.6980187
  78.1282381  81.1540726   7.3780255  77.2914290  80.7262900   7.1964256
  78.1006027  81.3473169   8.3151046  84.9679837  71.0662656  18.0821501
  85.0167992  71.9424779  17.6999270  85.5102351  70.5240049  17.5093144
  95.4534683  81.6103779  17.3622638  94.6630226  81.5927918  16.8227137
  95.2168037  82.1492073  18.1171674  95.5732558  78.4596246  14.6755366
  95.6230563  78.2946253  15.6170889  95.4646481  77.5923505  14.2853247
  92.8636320  74.4427174  15.9914673  93.7646183  74.3033638  15.6998671
  92.9384295  74.6081628  16.9312850  87.1979125  71.8194028  14.8367859
  86.3282435  72.1127594  14.5650448  87.4338606  72.4034473  15.5575123
  97.0750754  80.8793187  14.9197388  96.7835563  81.2423168  15.7560849
  96.4622886  80.1660195  14.7410720  95.3237943  76.0025802  13.3877446
  95.7992064  76.1953448  12.5796297  94.4003508  76.0584988  13.1420830
  89.9018159  68.0373645  12.3533280  90.4200103  68.7734672  12.0279768
  89.5473292  68.3437639  13.1880039  90.1530753  64.4573928   7.8734176
  90.4332507  63.7897117   8.4994603  90.9381360  64.6503023   7.3608840
  94.0239612  72.8791562  11.6205751  94.9757035  72.9789659  11.6417976
  93.8543062  72.0869830  12.1303836  92.0453991  69.9647145  11.8065152
  91.4503923  70.2452158  11.1111641  91.7603688  70.4541046  12.5781893
  96.6522178  72.8908725  10.7806334  96.1361227  72.1067182  10.5936263
  97.5362127  72.5627442  10.9452854  94.3132905  66.6349740   6.7402147
  94.1157726  66.3264829   7.6245479  94.9232611  67.3611379   6.8700077
  88.2249713  79.0211481  18.2375912  89.1452722  79.1990080  18.4315959
  88.1899296  78.0767526  18.0855611  77.4431878  74.2150074   7.1629187
  77.1234662  73.3615382   6.8703561  76.8965306  74.4298652   7.9187154
  81.2211785  76.9312515  10.8798693  81.4397795  77.8629623  10.8986727
  81.6337559  76.5720490  11.6653497  88.1416003  67.4380601   2.8674382
  87.3316732  67.0927686   3.2429628  88.8300420  67.1288144   3.4561993
  90.0706552  66.5158647   4.4898678  90.6237590  66.9354101   5.1488701
  90.3076638  65.5894395   4.5321634  86.0939651  72.5045721  20.2701442
  85.9936378  73.4540078  20.2013533  85.8761193  72.1763960  19.3977512
  77.3120138  77.8352986   9.1322308  76.6183609  77.4206939   8.6192263
  78.0593129  77.8773522   8.5355727  91.8988925  68.0264230   6.1998663
  92.3988703  68.1380765   5.3912982  92.5424533  67.7225283   6.8399471
  85.9570921  75.9342860  19.0866504  85.4738003  76.7343220  19.2930393
  86.0431860  75.9450805  18.1333948  79.2256880  77.7671240   7.0088323
  79.2027569  77.8658927   6.0570206  79.5357517  78.6136390   7.3305489
  81.8844258  79.8247395  11.1234938  82.8387512  79.7931337  11.0564869
  81.6856782  79.3638018  11.9385164  82.4743640  78.3948511  13.6905735
  83.2936529  78.8892589  13.7140573  82.7480448  77.4780479  13.6623303
  77.7278555  72.7286644  14.3897932  78.3737418  72.2185598  14.8785158
  77.5195706  73.4655326  14.9641358  90.2531947  79.7967492  19.8890073
  91.1223107  79.9708144  19.5276708  89.7738698  80.6161909  19.7665802
  84.4218127  86.9164593  11.5679507  85.3245374  86.9488203  11.8846002
  84.1955497  85.9865044  11.5825842  90.0634285  63.5869466   4.3967765
  89.2966680  63.0327952   4.5424448  90.4744990  63.6591334   5.2581917
  82.0676046  69.8754262  18.4872947  82.9307507  69.5191066  18.6976271
  81.4941456  69.5368156  19.1748351  94.6257546  83.2834978  19.4802918
  94.2324492  82.7301177  20.1550562  95.4423687  83.5945557  19.8709436
  97.5425507  84.6992857  17.0723175  98.2835221  85.3000010  16.9927637
  97.7743430  83.9570495  16.5141217  92.5705534  87.0736668  16.4207581
  93.1977573  86.6913745  17.0345105  91.7133453  86.8550870  16.7863274
  95.8073591  86.3954574  18.0821501  95.8561747  87.2716696  17.6999270
  96.3496106  85.8531967  17.5093144  96.9333405  87.8337639  20.2701442
  96.8330132  88.7831996  20.2013533  96.7154947  87.5055878  19.3977512
  88.5672309  88.0578562  14.3897932  89.2131173  87.5477516  14.8785158
  88.3589460  88.7947244  14.9641358  92.9069800  85.2046179  18.4872947
  93.7701262  84.8482984  18.6976271  92.3335211  84.8660074  19.1748351
  71.9666707  28.7971095   2.1742813  71.9079253  28.1130315   1.5073396
  72.3686225  29.5390085   1.7223439  70.4518381  28.4986012   4.7506623
  70.9958285  29.1115971   4.2561578  69.8705225  29.0565591   5.2673636
  73.7747175  27.9582066   4.0867944  72.9842719  27.9406205   3.5472444
  73.5380529  28.4970360   4.8416981  75.3963247  27.2271474   1.6442695
  75.1048055  27.5901455   2.4806155  74.7835378  26.5138483   1.4656027
  68.5744439  26.1445779   6.6135380  69.4435599  26.3186431   6.2522015
  68.0951191  26.9640196   6.4911109  80.2336915  37.8534405  -3.9819346
  80.8715325  37.7341152  -4.6856006  80.1157758  38.8015249  -3.9231394
  77.0426621  37.8061833  -4.0457821  76.7045133  37.6902898  -4.9337286
  77.9116389  37.4052998  -4.0656815  77.5246404  38.9596685   1.9128384
  77.5135045  38.5649483   1.0408888  77.6867044  38.2262758   2.5062156
  70.4477869  41.1548501  -5.2176710  71.2399161  40.8139326  -5.6330410
  70.6874519  41.2643476  -4.2974556  74.2453665  41.7433797   0.8607568
  73.9543531  42.6479428   0.7454235  74.8810650  41.7850324   1.5751638
  75.1709872  39.1210645  -2.5491072  75.7673444  38.8966668  -3.2634109
  75.2284844  38.3795391  -1.9465624  82.7112031  29.2282666  -1.5438551
  82.3795356  30.0978077  -1.7677336  82.1157644  28.9118950  -0.8644520
  79.2043550  41.4295212  -2.1442638  78.9044273  42.3320251  -2.2526831
  78.8594610  41.1627395  -1.2921485  82.6040694  33.9477752  -4.4645201
  81.6957572  33.8793161  -4.7586440  82.5528290  34.4249697  -3.6363375
  74.1864330  48.1939533  -9.1771670  74.1088360  49.1447358  -9.0983190
  73.5825974  47.8485405  -8.5196744  76.6781560  35.3667398   3.4789697
  75.9014894  35.9261318   3.4692561  77.3172123  35.8524181   4.0004567
  74.9327932  38.1752851   3.0407664  75.6742617  38.7137895   2.7642487
  74.2264918  38.8019140   3.1979216  80.4083272  40.3181992   1.6379825
  80.8166628  39.8764402   0.8934458  79.6860533  39.7434619   1.8914018
  76.7614342  35.2554599  -0.9886618  77.6075537  35.6794012  -0.8451969
  76.7012980  34.5988223  -0.2948055  80.7312087  40.8783182  -4.6067886
  80.1020949  41.0428897  -5.3091818  80.3437749  41.2924792  -3.8356922
  84.6101318  41.8137620  -7.2523522  83.9252357  42.1936522  -7.8026489
  84.6945168  42.4232947  -6.5191574  79.9113787  32.9158967   0.6694556
  79.6674719  33.6701028   0.1328832  80.1873718  33.2944315   1.5041803
  81.8652250  39.4597579  -0.6528179  82.0769145  40.1029339  -1.3293798
  81.8181998  38.6259896  -1.1206249  73.1764129  40.1629072  -4.4038038
  73.7465487  40.5916340  -5.0420553  73.7672241  39.8811657  -3.7053852
  73.6689296  35.3292500   3.8422974  73.0387957  36.0108780   4.0758371
  73.5625384  35.2175581   2.8976112  82.9798078  42.3369535  -2.4805821
  83.8015522  41.9349722  -2.7623140  82.9760481  42.2337769  -1.5289705
  76.7454681  41.8853578  -0.3245111  76.8099114  42.3473985   0.5113061
  76.0365605  41.2550943  -0.1962801  72.9470039  29.6313265   6.2048225
  72.5536984  29.0779464   6.8795869  73.7636179  29.9423844   6.5954742
  71.7226981  44.1862880  -7.8015452  71.8993610  45.1080845  -7.9894468
  72.5183815  43.8721299  -7.3721072  75.8638000  31.0471145   3.7968481
  76.6047713  31.6478298   3.7172944  76.0955923  30.3048782   3.2386524
  71.0079338  36.2327512   2.0746711  70.8932853  35.3312769   2.3753810
  70.1523855  36.4791209   1.7231528  78.0871175  44.1745252   3.6734212
  77.6435030  43.3881631   3.3555116  78.7488389  44.3624403   3.0078102
  72.8458297  45.7041054  -1.8005110  73.3965722  45.5758117  -2.5728116
  72.0069773  46.0035943  -2.1510217  80.1852414  44.4548052   1.7015613
  80.1670889  45.2756933   1.2095882  81.1072334  44.3302127   1.9265754
  76.6425468  41.9692182   2.5439121  77.1753805  41.2080470   2.3138429
  76.1139549  41.6765833   3.2863276  82.9871026  39.2927194  -4.8275020
  82.3294701  39.9826456  -4.7394892  83.7911426  39.6823626  -4.4841034
  78.2757316  35.1221023  -4.5312738  77.3579877  35.3435970  -4.6891050
  78.6917460  35.1967333  -5.3901031  82.5638281  42.6277569  -8.6491936
  82.1100609  41.7868478  -8.5926746  81.9332248  43.2638967  -8.3117156
  81.0071221  44.4654065  -7.7142118  81.2994195  45.0259122  -8.4329752
  81.5169841  44.7582626  -6.9588959  75.9704846  45.2434416  -6.6248665
  75.9281025  45.4695263  -7.5540133  76.8867545  45.0097791  -6.4762864
  79.4170480  35.7118484   0.2731965  79.7719867  35.9389957   1.1326430
  80.0642611  36.0436861  -0.3490780  85.1737596  40.9013447  -4.0107435
  85.6074103  40.8088736  -3.1624381  85.8869177  40.8770947  -4.6487419
  78.9065491  44.5015541  -2.4774334  78.9602513  45.0706477  -1.7096618
  78.0380272  44.6717426  -2.8420297  71.7863885  34.2033097  -0.9949883
  72.4586938  33.9950459  -1.6437234  70.9593671  34.0055183  -1.4344651
  86.0353146  40.9437147  -1.4774550  86.2289036  41.8482958  -1.2315275
  85.9353764  40.4844567  -0.6435964  77.6889457  30.8295038   1.0215778
  77.0417372  31.5284988   0.9280254  78.4590472  31.2631182   1.3892026
  81.0968254  41.0943890   4.0966331  80.9453761  40.8654442   3.1796415
  81.0872934  42.0514492   4.1097676  77.8653591  38.6675803  -0.9187402
  78.7945651  38.8186963  -1.0918435  77.4444621  38.7559824  -1.7738756
  76.6641923  42.6926467  -3.1488865  76.5253008  42.3245252  -2.2762927
  75.8756519  43.2074107  -3.3204907  77.2590075  47.7935564 -11.8063328
  77.4341830  47.3223607 -10.9917706  76.5722863  48.4201330 -11.5782068
  78.2147138  42.0708070  -5.7600027  77.8796970  42.0308840  -4.8642377
  77.7151083  41.4052786  -6.2329617  72.1891382  37.4775700  -0.2347446
  72.0511180  36.7455939   0.3664093  73.0996305  37.3884600  -0.5163258
  74.8173682  37.1895659  -0.7463766  75.5273301  36.5488852  -0.7877148
  74.7742991  37.4408554   0.1762415  82.8060461  44.1263013   2.1742813
  82.7473007  43.4422233   1.5073396  83.2079979  44.8682003   1.7223439
  73.5302616  34.1760877   1.0731873  72.9939973  33.7251616   1.7253470
  72.9419325  34.3106786   0.3302338  71.8251160  50.9424927  -5.0323468
  72.0647758  51.5743451  -4.3544450  70.9820356  50.5912967  -4.7458109
  82.8077868  42.0902597   0.4056793  81.9204647  41.7528518   0.5283191
  83.3776419  41.3585628   0.6425558  76.3379022  46.7504049  -2.6281964
  76.2649193  47.5559021  -2.1162660  75.8956415  46.9496015  -3.4533943
  76.1268801  45.9875819  -9.1179143  75.3436323  46.5297499  -9.0240918
  76.8261547  46.5049799  -8.7184901  78.7977705  46.6490883  -0.4723806
  79.5105677  47.2838348  -0.5447904  78.3067734  46.7454749  -1.2883804
  73.8489619  44.3985327   0.3481765  74.5499078  45.0321810   0.5011160
  73.3784734  44.7400058  -0.4122595  81.6490905  36.9529934  -1.8265684
  80.9962355  37.2005841  -2.4813232  82.0271285  36.1394072  -2.1603207
  78.6098079  46.9889627  -7.7237514  78.7920473  46.1711283  -7.2609762
  79.4331065  47.2057319  -8.1612624  78.9440244  45.9157812 -10.4622466
  79.4728011  45.4050267 -11.0752303  79.2068464  45.6000343  -9.5976933
  77.6978478  37.6949745   4.6600353  77.0219115  37.5943874   5.3302728
  78.5206112  37.5388959   5.1236350  69.4457337  43.9321682  -2.7187132
  70.0310774  43.1865370  -2.5859228  69.2482175  44.2425638  -1.8350468
  72.2995992  46.9672929  -7.7024690  71.6306367  47.4519057  -8.1860650
  72.1608862  47.2142149  -6.7881311  76.4401261  49.0016673  -1.1042031
  76.9919569  49.1648294  -0.3392946  76.7807454  49.5921110  -1.7762006
  70.8918026  33.4214955   3.1452888  71.5190065  33.0392032   3.7590412
  70.0345945  33.2029157   3.5108580  81.2912135  43.8277930   4.7506623
  81.8352039  44.4407888   4.2561578  80.7098980  44.3857508   5.2673636
  79.5769648  46.9498648  -4.1178349  79.4520787  46.1488388  -4.6267404
  80.2348739  47.4444841  -4.6064379  81.6404556  44.7507668  -2.4898799
  80.6934892  44.6313019  -2.5620472  81.9887329  43.8630166  -2.4072538
  74.0004130  30.6401807   1.3339443  74.5238532  30.8864104   2.0965752
  73.7816463  31.4721842   0.9142580  78.6450990  44.5460384  -6.2894447
  78.4975952  43.6177092  -6.1086877  79.4704483  44.5680475  -6.7737372
  82.2485111  45.3688943  -5.2029574  83.1731659  45.1631804  -5.3405123
  82.0800415  45.1205344  -4.2940233  75.2056675  31.5815502  -0.9810887
  74.8653495  30.7823315  -0.5790207  74.4995681  31.8817213  -1.5534053
  77.0934239  32.7823823  -2.6257568  76.8352017  33.7040894  -2.6273238
  76.5619279  32.3854258  -1.9357104  82.0380428  45.8874611  -9.8467483
  82.2117305  45.3221033 -10.5993630  82.5309319  46.6875505 -10.0287993
  67.8557388  37.8989280  -1.7803924  67.3110856  38.6749088  -1.6483649
  68.7336737  38.2460084  -1.9384802  68.6423409  37.0259176   1.1126233
  67.9005145  37.1741811   1.6990864  68.3216154  37.2867441   0.2492983
  76.5867072  46.5675154   0.9106623  76.8954198  46.3224301   1.7829323
  77.3842554  46.7721793   0.4225493  76.6087684  48.7213064  -6.8588000
  76.1692674  48.2289442  -6.1655144  77.3595801  48.1786031  -7.0995925
  69.0880023  44.9124605  -6.8563372  69.9138043  44.6128376  -7.2364729
  68.7374075  44.1432227  -6.4073584  74.0561556  44.2651073  -4.7865699
  73.4341566  43.6021778  -5.0863471  74.7266423  44.2912205  -5.4692051
  74.1286084  32.7432861   4.8066807  74.1774239  33.6194984   4.4244577
  74.6708598  32.2010254   4.2338451  84.6140929  43.2873984   4.0867944
  83.8236473  43.2698123   3.5472444  84.3774284  43.8262278   4.8416981
  84.7338804  40.1366450   1.4000673  84.7836809  39.9716458   2.3416196
  84.6252728  39.2693709   1.0098554  82.0242567  36.1197378   2.7159980
  82.9252430  35.9803843   2.4243977  82.0990541  36.2851833   3.6558157
  76.3585372  33.4964233   1.5613166  75.4888682  33.7897799   1.2895755
  76.5944853  34.0804678   2.2820430  86.2357001  42.5563392   1.6442695
  85.9441810  42.9193373   2.4806155  85.6229133  41.8430400   1.4656027
  84.4844190  37.6796007   0.1122752  84.9598311  37.8723653  -0.6958396
  83.5609755  37.7355192  -0.1333864  79.0624406  29.7143850  -0.9221414
  79.5806350  30.4504877  -1.2474925  78.7079539  30.0207843  -0.0874654
  83.1845859  34.5561767  -1.6548942  84.1363281  34.6559864  -1.6336718
  83.0149309  33.7640035  -1.1450858  81.2060238  31.6417350  -1.4689541
  80.6110170  31.9222363  -2.1643052  80.9209935  32.1311251  -0.6972800
  85.6633936  37.7767886  -2.5406642  85.6310256  36.8383887  -2.3546958
  86.2734560  37.8551923  -3.2740817  77.3855960  40.6981685   4.9621219
  78.3058969  40.8760285   5.1561265  77.3505543  39.7537731   4.8100918
  70.3818032  38.6082720  -2.3956000  70.6004042  39.5399828  -2.3767966
  70.7943806  38.2490695  -1.6101196  75.2545898  34.1815926   6.9946749
  75.1542624  35.1310283   6.9258840  75.0367440  33.8534165   6.1222819
  75.1177168  37.6113065   5.8111811  74.6344249  38.4113425   6.0175700
  75.2038107  37.6221010   4.8579254  71.0450505  41.5017599  -2.1519756
  71.9993759  41.4701542  -2.2189824  70.8463029  41.0408223  -1.3369530
  71.6349887  40.0718716   0.4151042  72.4542776  40.5662794   0.4385879
  71.9086695  39.1550684   0.3868609  69.4000734  47.0437219  -5.1349558
  69.2655202  46.2837620  -5.7011560  68.9832796  47.7678119  -5.6020769
  72.5569860  47.9406536  -4.9231115  72.4402244  48.8851968  -5.0252425
  71.7362306  47.6380098  -4.5345316  66.8884801  34.4056849   1.1143239
  67.5343665  33.8955803   1.6030464  66.6801953  35.1425531   1.6886664
  79.4138194  41.4737697   6.6135380  80.2829353  41.6478349   6.2522015
  78.9344945  42.2932114   6.4911109  73.5824374  48.5934798  -1.7075187
  74.4851621  48.6258408  -1.3908692  73.3561744  47.6635249  -1.6928851
  75.3377976  47.3465784  -5.0465108  74.3873607  47.3467646  -5.1600736
  75.6410462  46.5998519  -5.5629074  71.2282292  31.5524466   5.2118253
  72.0913754  31.1961271   5.4221578  70.6547703  31.2138361   5.8993658
  91.0730669  53.1826323  -3.9819346  91.7109079  53.0633070  -4.6856006
  90.9551512  54.1307167  -3.9231394  87.8820376  53.1353751  -4.0457821
  87.5438887  53.0194816  -4.9337286  88.7510144  52.7344916  -4.0656815
  88.3640159  54.2888603   1.9128384  88.3528799  53.8941401   1.0408888
  88.5260798  53.5554675   2.5062156  81.2871623  56.4840419  -5.2176710
  82.0792915  56.1431244  -5.6330410  81.5268273  56.5935394  -4.2974556
  85.0847420  57.0725714   0.8607568  84.7937286  57.9771345   0.7454235
  85.7204404  57.1142242   1.5751638  86.0103627  54.4502563  -2.5491072
  86.6067199  54.2258585  -3.2634109  86.0678598  53.7087308  -1.9465624
  93.5505785  44.5574584  -1.5438551  93.2189110  45.4269995  -1.7677336
  92.9551399  44.2410868  -0.8644520  90.0437305  56.7587130  -2.1442638
  89.7438028  57.6612169  -2.2526831  89.6988364  56.4919313  -1.2921485
  83.4949786  53.2100927  -6.1105933  82.5700283  53.0777141  -5.9028242
  83.7434200  53.9895146  -5.6135991  93.4434449  49.2769670  -4.4645201
  92.5351326  49.2085079  -4.7586440  93.3922044  49.7541615  -3.6363375
  80.8558597  52.8534200  -5.2762144  80.9850979  53.1068679  -4.3622733
  80.1756049  53.4461908  -5.5957489  87.5175314  50.6959316   3.4789697
  86.7408649  51.2553236   3.4692561  88.1565878  51.1816099   4.0004567
  85.7721687  53.5044769   3.0407664  86.5136371  54.0429813   2.7642487
  85.0658672  54.1311058   3.1979216  91.2477026  55.6473910   1.6379825
  91.6560382  55.2056320   0.8934458  90.5254288  55.0726537   1.8914018
  87.6008096  50.5846516  -0.9886618  88.4469292  51.0085930  -0.8451969
  87.5406734  49.9280141  -0.2948055  90.7507542  48.2450885   0.6694556
  90.5068474  48.9992945   0.1328832  91.0267472  48.6236232   1.5041803
  92.7046005  54.7889497  -0.6528179  92.9162900  55.4321257  -1.3293798
  92.6575753  53.9551814  -1.1206249  90.3072234  47.4007318  -3.7491606
  89.4456713  47.6988571  -3.4574869  90.3334668  47.6177717  -4.6810574
  84.0157884  55.4920990  -4.4038038  84.5859241  55.9208258  -5.0420553
  84.6065996  55.2103574  -3.7053852  84.5083051  50.6584417   3.8422974
  83.8781711  51.3400698   4.0758371  84.4019138  50.5467499   2.8976112
  79.8028023  50.3256213  -5.2311102  79.0127077  50.5813742  -5.7070991
  80.2939270  51.1404551  -5.1259062  81.7542768  50.6900793  -8.2727625
  80.9573932  50.8019487  -7.7544130  81.5268361  51.0287445  -9.1386735
  87.5848436  57.2145496  -0.3245111  87.6492868  57.6765903   0.5113061
  86.8759360  56.5842861  -0.1962801  78.0865726  50.5786704  -2.7996111
  78.3373764  51.4633714  -2.5338535  78.6225274  50.3991305  -3.5721019
  83.7863793  44.9605183   6.2048225  83.3930739  44.4071382   6.8795869
  84.6029934  45.2715762   6.5954742  86.7031754  46.3763062   3.7968481
  87.4441468  46.9770215   3.7172944  86.9349677  45.6340700   3.2386524
  81.8473092  51.5619429   2.0746711  81.7326607  50.6604687   2.3753810
  80.9917610  51.8083126   1.7231528  88.9264930  59.5037170   3.6734212
  88.4828784  58.7173548   3.3555116  89.5882144  59.6916320   3.0078102
  83.6852051  61.0332971  -1.8005110  84.2359476  60.9050035  -2.5728116
  82.8463527  61.3327860  -2.1510217  91.0246168  59.7839970   1.7015613
  91.0064643  60.6048851   1.2095882  91.9466088  59.6594045   1.9265754
  87.4819222  57.2984099   2.5439121  88.0147559  56.5372387   2.3138429
  86.9533303  57.0057751   3.2863276  89.7285458  44.7748820  -3.9618004
  89.2250253  44.7378955  -4.7750198  90.0216064  45.6841563  -3.9021347
  85.9728343  44.8587550  -4.9551822  86.8381340  44.6630359  -5.3145933
  86.0405852  44.6297902  -4.0282465  83.5790663  47.0889758  -7.5835455
  84.1534414  46.8664939  -8.3162262  84.1661645  47.1578452  -6.8306854
  89.1151071  50.4512940  -4.5312738  88.1973632  50.6727887  -4.6891050
  89.5311214  50.5259251  -5.3901031  78.7400939  52.0668411  -8.4367901
  78.5425339  51.4737772  -9.1616835  78.1847603  51.7620621  -7.7191963
  86.7197663  51.9591517  -6.3173308  86.7746272  51.0065354  -6.3930832
  85.9088865  52.1150956  -5.8332010  84.6590022  50.5768577  -8.5582929
  83.8457888  50.8762748  -8.1517737  85.1549017  50.1824266  -7.8408447
  90.2564234  51.0410402   0.2731965  90.6113622  51.2681875   1.1326430
  90.9036365  51.3728778  -0.3490780  84.1504097  48.1486933  -2.9421694
  84.7903477  48.0075692  -3.6398731  83.3181628  47.8621446  -3.3183092
  81.1532714  48.1187258  -8.1648708  81.4139531  49.0332591  -8.2739547
  81.9749886  47.6511700  -8.0152095  82.6257639  49.5325015  -0.9949883
  83.2980692  49.3242377  -1.6437234  81.7987426  49.3347101  -1.4344651
  88.5283211  46.1586956   1.0215778  87.8811126  46.8576905   0.9280254
  89.2984226  46.5923100   1.3892026  91.9362009  56.4235808   4.0966331
  91.7847515  56.1946360   3.1796415  91.9266688  57.3806409   4.1097676
  88.7047345  53.9967721  -0.9187402  89.6339405  54.1478880  -1.0918435
  88.2838375  54.0851741  -1.7738756  87.5035677  58.0218385  -3.1488865
  87.3646763  57.6537169  -2.2762927  86.7150273  58.5366024  -3.3204907
  83.0285136  52.8067618  -0.2347446  82.8904934  52.0747857   0.3664093
  83.9390060  52.7176518  -0.5163258  85.6567437  52.5187577  -0.7463766
  86.3667055  51.8780769  -0.7877148  85.6136745  52.7700472   0.1762415
  93.6454216  59.4554930   2.1742813  93.5866762  58.7714151   1.5073396
  94.0473734  60.1973920   1.7223439  84.3696371  49.5052795   1.0731873
  83.8333728  49.0543533   1.7253470  83.7813079  49.6398704   0.3302338
  93.6471623  57.4194514   0.4056793  92.7598402  57.0820436   0.5283191
  94.2170174  56.6877546   0.6425558  75.3000770  53.7518606  -6.2700156
  75.9871810  53.4380336  -6.8579141  75.1448899  54.6559971  -6.5432905
  80.1035492  48.6408803  -1.8415132  80.0193681  48.0334472  -2.5764722
  79.2818199  49.1317821  -1.8405636  86.8594175  49.2679749  -6.7473253
  86.4891962  48.7150790  -6.0592347  87.3553267  48.6637883  -7.2998253
  84.6883373  59.7277244   0.3481765  85.3892833  60.3613727   0.5011160
  84.2178488  60.0691976  -0.4122595  92.4884659  52.2821852  -1.8265684
  91.8356110  52.5297759  -2.4813232  92.8665039  51.4685990  -2.1603207
  88.5372232  53.0241663   4.6600353  87.8612869  52.9235792   5.3302728
  89.3599866  52.8680876   5.1236350  80.2851091  59.2613599  -2.7187132
  80.8704528  58.5157287  -2.5859228  80.0875930  59.5717556  -1.8350468
  74.8768746  51.8319199  -3.9982689  74.9152846  51.2982790  -3.2045571
  74.3709039  51.3054405  -4.6171712  82.2559508  46.6783740  -0.5020147
  82.3200835  47.5398571  -0.9142749  82.1926629  46.0657742  -1.2347788
  81.7311781  48.7506873   3.1452888  82.3583820  48.3683950   3.7590412
  80.8739700  48.5321074   3.5108580  92.1305890  59.1569848   4.7506623
  92.6745793  59.7699806   4.2561578  91.5492734  59.7149426   5.2673636
  78.5077324  50.5583302 -10.9228757  78.8030765  49.6493980 -10.9761704
  77.6065359  50.5371041 -11.2447755  82.0371571  48.6339298  -4.9401209
  81.3158156  49.2475266  -5.0793736  82.8264826  49.1697063  -5.0184563
  84.8397884  45.9693725   1.3339443  85.3632286  46.2156021   2.0965752
  84.6210217  46.8013760   0.9142580  80.2365165  48.2397399 -10.7989432
  79.9077871  47.3594778 -10.9814326  80.5904536  48.1845068  -9.9113043
  86.0450429  46.9107420  -0.9810887  85.7047250  46.1115233  -0.5790207
  85.3389436  47.2109131  -1.5534053  86.6966901  43.9956732  -2.5283564
  87.5192970  43.5217210  -2.6504673  86.9404965  44.7747216  -2.0284877
  84.2205480  50.6875853  -4.7191585  84.0750061  51.0016156  -3.8267303
  83.7430683  51.3060753  -5.2720686  86.0801863  47.6778401  -4.6710695
  86.0663431  46.7819494  -5.0078397  86.7974291  47.6849065  -4.0372409
  87.9327993  48.1115741  -2.6257568  87.6745771  49.0332812  -2.6273238
  87.4013034  47.7146176  -1.9357104  78.6951142  53.2281197  -1.7803924
  78.1504610  54.0041005  -1.6483649  79.5730492  53.5752002  -1.9384802
  79.4817164  52.3551094   1.1126233  78.7398900  52.5033729   1.6990864
  79.1609908  52.6159359   0.2492983  87.4260827  61.8967072   0.9106623
  87.7347953  61.6516219   1.7829323  88.2236309  62.1013710   0.4225493
  78.1282383  58.1602849  -5.8974439  77.2914291  57.7325023  -6.0790437
  78.1006028  58.3535292  -4.9603647  84.9679838  48.0724779   4.8066807
  85.0167994  48.9486901   4.4244577  85.5102352  47.5302172   4.2338451
  95.4534684  58.6165902   4.0867944  94.6630228  58.5990041   3.5472444
  95.2168038  59.1554195   4.8416981  95.5732559  55.4658368   1.4000673
  95.6230564  55.3008376   2.3416196  95.4646482  54.5985627   1.0098554
  92.8636321  51.4489296   2.7159980  93.7646184  51.3095761   2.4243977
  92.9384296  51.6143751   3.6558157  87.1979127  48.8256151   1.5613166
  86.3282436  49.1189717   1.2895755  87.4338607  49.4096596   2.2820430
  97.0750756  57.8855310   1.6442695  96.7835564  58.2485290   2.4806155
  96.4622887  57.1722318   1.4656027  95.3237944  53.0087924   0.1122752
  95.7992066  53.2015571  -0.6958396  94.4003509  53.0647110  -0.1333864
  89.9018160  45.0435768  -0.9221414  90.4200104  45.7796795  -1.2474925
  89.5473293  45.3499761  -0.0874654  94.0239613  49.8853684  -1.6548942
  94.9757036  49.9851782  -1.6336718  93.8543063  49.0931953  -1.1450858
  92.0453992  46.9709268  -1.4689541  91.4503925  47.2514280  -2.1643052
  91.7603689  47.4603169  -0.6972800  88.2249714  56.0273603   4.9621219
  89.1452724  56.2052202   5.1561265  88.1899297  55.0829649   4.8100918
  77.4431879  51.2212197  -6.1125507  77.1234664  50.3677505  -6.4051133
  76.8965307  51.4360775  -5.3567539  81.2211787  53.9374638  -2.3956000
  81.4397797  54.8691746  -2.3767966  81.6337561  53.5782612  -1.6101196
  86.0939652  49.5107844   6.9946749  85.9936379  50.4602201   6.9258840
  85.8761194  49.1826082   6.1222819  77.3120139  54.8415108  -4.1432385
  76.6183611  54.4269061  -4.6562431  78.0593130  54.8835645  -4.7398966
  85.9570922  52.9404982   5.8111811  85.4738004  53.7405343   6.0175700
  86.0431861  52.9512927   4.8579254  79.2256882  54.7733362  -6.2666370
  79.2027570  54.8721049  -7.2184487  79.5357518  55.6198513  -5.9449204
  81.8844260  56.8309517  -2.1519756  82.8387513  56.7993459  -2.2189824
  81.6856783  56.3700141  -1.3369530  82.4743642  55.4010633   0.4151042
  83.2936531  55.8954712   0.4385879  82.7480449  54.4842601   0.3868609
  77.7278556  49.7348767   1.1143239  78.3737420  49.2247721   1.6030464
  77.5195707  50.4717449   1.6886664  90.2531948  56.8029615   6.6135380
  91.1223108  56.9770267   6.2522015  89.7738700  57.6224031   6.4911109
  84.4218128  63.9226716  -1.7075187  85.3245375  63.9550326  -1.3908692
  84.1955498  62.9927166  -1.6928851  82.0676047  46.8816384   5.2118253
  82.9307509  46.5253189   5.4221578  81.4941458  46.5430279   5.8993658
  94.6257548  60.2897101   6.2048225  94.2324493  59.7363299   6.8795869
  95.4423688  60.6007679   6.5954742  97.5425509  61.7054980   3.7968481
  98.2835222  62.3062133   3.7172944  97.7743432  60.9632618   3.2386524
  92.5705535  64.0798790   3.1452888  93.1977574  63.6975868   3.7590412
  91.7133454  63.8612992   3.5108580  95.8073593  63.4016696   4.8066807
  95.8561748  64.2778819   4.4244577  96.3496107  62.8594089   4.2338451
  96.9333407  64.8399761   6.9946749  96.8330133  65.7894118   6.9258840
  96.7154949  64.5118000   6.1222819  88.5672310  65.0640685   1.1143239
  89.2131174  64.5539639   1.6030464  88.3589462  65.8009366   1.6886664
  92.9069801  62.2108302   5.2118253  93.7701263  61.8545107   5.4221578
  92.3335212  61.8722197   5.8993658   4.3554028  99.9975959  73.5207307
   3.6017736  99.4283357  73.3651312   4.4901569  99.9638624  74.4677942
   0.7202640 101.4383948  73.8173422   1.5549531 101.8773752  73.9810982
   0.8561769 100.9622601  72.9981668   4.7660443 100.1551569  76.2527552
   5.4963831  99.8936857  76.8135255   4.1567388  99.4180291  76.2929620
   2.8475740  98.2959432  76.8502003   2.1208903  98.1615397  76.2418494
   2.4323027  98.6036260  77.6558721   0.4653535  94.5171284  74.2035434
   1.0598026  94.2767020  73.4928743   0.5380118  93.7978415  74.8308971
   2.7724607  97.8237485  72.9778856   2.2124165  97.8930674  73.7510418
   2.1668111  97.6478470  72.2578352   3.9338874 103.7211841  77.7260920
   3.5903143 104.6113483  77.6500031   4.3017836 103.5313499  76.8630505
   5.7326539 102.9805400  72.8278658   6.0385416 102.1202764  72.5404573
   6.4579144 103.5723021  72.6277652   3.4380711 102.7803726  74.2507640
   3.7182465 102.1126915  74.8768067   4.2231318 102.9732822  73.7382304
   7.5982863 104.9579539  73.1175611   7.4007684 104.6494627  74.0018943
   8.2082568 105.6841178  73.2473541   3.3484242 101.9099264  70.7741229
   2.5816638 101.3557751  70.9197911   3.7594947 101.9821133  71.6355381
   4.3554029  77.0038082  60.2452614   3.6017737  76.4345480  60.0896618
   4.4901570  76.9700746  61.1923249   0.7202641  78.4446070  60.5418728
   1.5549533  78.8835874  60.7056289   0.8561770  77.9684724  59.7226974
   4.7660444  77.1613692  62.9772858   5.4963832  76.8998980  63.5380562
   4.1567389  76.4242414  63.0174926   2.8475741  75.3021554  63.5747309
   2.1208905  75.1677519  62.9663801   2.4323028  75.6098383  64.3804028
   0.4653536  71.5233407  60.9280741   1.0598027  71.2829143  60.2174049
   0.5380120  70.8040537  61.5554277   2.7724609  74.8299607  59.7024162
   2.2124167  74.8992797  60.4755724   2.1668112  74.6540592  58.9823659
   4.3580627  91.5056121  62.3954118   4.9959037  91.3862869  61.6917458
   4.2401470  92.4536965  62.4542070   1.1670333  91.4583550  62.3315643
   0.8288845  91.3424614  61.4436178   2.0360102  91.0574715  62.3116649
   1.6490116  92.6118401  68.2901848   1.6378757  92.2171200  67.4182352
   1.8110756  91.8784474  68.8835620   2.6056708  96.9789994  53.6326999
   1.9544688  97.5644074  53.2461012   3.4001071  97.5096189  53.6922036
   3.9121896  89.2307575  59.4707326   4.6984985  88.8126998  59.1197743
   4.1760600  90.1353667  59.6388974   4.0831973  94.6680426  54.1695983
   3.4477806  94.7415052  54.8816887   3.7529379  95.2574024  53.4915062
   9.3130323  89.1682808  60.3740305  10.0455495  88.5982025  60.6078134
   8.5569678  88.7804409  60.8146810   0.9306443  91.5910050  57.5703647
   0.5664650  91.0640671  58.2816568   1.7873558  91.2008519  57.3970132
   6.8355743  82.8804383  64.8334913   6.5039068  83.7499794  64.6096128
   6.2401357  82.5640667  65.5128944   3.3287263  95.0816929  64.2330826
   3.0287986  95.9841967  64.1246633   2.9838322  94.8149112  65.0851979
   6.7284406  87.5999469  61.9128263   5.8201284  87.5314877  61.6187024
   6.6772002  88.0771414  62.7410089   8.5946053  85.8015907  63.6906137
   7.9520433  86.0948440  63.0445932   8.0900981  85.6868828  64.4959334
   6.2486217  89.5479080  54.3791996   7.1604073  89.7806467  54.2039694
   5.7395864  90.1316125  53.8167075   4.5326984  93.9703708  68.0153289
   4.9410340  93.5286119  67.2707921   3.8104246  93.3956336  68.2687482
   0.8858054  88.9076315  65.3886846   1.7319249  89.3315729  65.5321495
   0.8256692  88.2509939  66.0825409   4.8555799  94.5304899  61.7705578
   4.2264661  94.6950613  61.0681646   4.4681461  94.9446508  62.5416542
   8.7345031  95.4659337  59.1249942   8.0496069  95.8458238  58.5746975
   8.8188880  96.0754663  59.8581889   4.0357500  86.5680683  67.0468020
   3.7918431  87.3222744  66.5102295   4.3117430  86.9466031  67.8815267
   5.9895962  93.1119296  65.7245285   6.2012858  93.7551056  65.0479666
   5.9425711  92.2781612  65.2567215   3.5922191  85.7237116  62.6281857
   2.7306670  86.0218370  62.9198595   3.6184626  85.9407515  61.6962890
   7.1041790  95.9891251  63.8967642   7.9259234  95.5871438  63.6150324
   7.1004193  95.8859485  64.8483758  15.1947783  92.3330000  60.2452614
  14.4411492  91.7637398  60.0896618  15.3295325  92.2992664  61.1923249
   0.5846411  97.2043402  55.9207333   0.4492086  98.0494938  56.3492181
   1.1256224  97.4062680  55.1573267   2.2114888  97.8266968  70.0507675
   1.7678742  97.0403347  69.7328580   2.8732101  98.0146119  69.3851566
   4.3096126  98.1069768  68.0789077   4.2914601  98.9278649  67.5869346
   5.2316046  97.9823844  68.3039218   3.9338875  80.7273964  64.4506227
   3.5903144  81.6175605  64.3745337   4.3017838  80.5375621  63.5875812
   3.8989158  90.7182575  52.9578662   3.3835781  91.4887180  53.1967049
   3.6266466  90.0447711  53.5811723   1.4836269  85.5632276  58.0163900
   0.6277865  85.1739126  57.8369539   1.8963220  85.6424236  57.1563686
   3.0135415  83.0978619  62.4155460   2.5100211  83.0608754  61.6023265
   3.3066022  84.0071362  62.4752117   8.8723432  93.4714930  54.8931835
   8.0952875  93.1326089  54.4486997   9.5514913  93.4767553  54.2186800
   3.6875461  88.5909667  54.7838443   3.3825596  88.9055816  55.6348586
   4.6405903  88.6691087  54.8265776   2.1321893  94.7499890  56.4331397
   1.6043254  94.0152650  56.1204634   1.6309395  95.5274567  56.1871365
   7.1114739  92.9448911  61.5498443   6.4538413  93.6348172  61.6378572
   7.9155138  93.3345343  61.8932430   5.9220198  91.2993283  59.6002385
   6.4352079  91.9323275  60.1024095   6.5721421  90.6994479  59.2345745
   3.1842572 101.2777608  52.3563056   2.5104271 101.5809304  52.9648014
   3.5708394 102.0806688  52.0068513   2.4001028  88.7742739  61.8460726
   1.4823590  88.9957686  61.6882414   2.8161172  88.8489049  60.9872433
   3.1836076  90.1734155  56.9763406   3.9307895  90.6855552  56.6670528
   3.4527666  89.8518207  57.8367799   1.4562726  92.6692695  53.9590360
   0.5473946  92.3851728  54.0562830   1.4857810  93.0891774  53.0993667
   6.6881994  96.2799285  57.7281528   6.2344321  95.4390195  57.7846718
   6.0575960  96.9160683  58.0656308   5.6314913  87.2091271  58.9582195
   4.8937670  86.6968657  59.2892438   5.8841687  86.7691653  58.1465472
   5.1314933  98.1175782  58.6631346   5.4237907  98.6780839  57.9443711
   5.6413554  98.4104343  59.4184505   5.7326541  79.9867523  59.5523964
   6.0385417  79.1264886  59.2649880   6.4579145  80.5785143  59.3522958
   1.1538814  94.2101439  51.2978439   0.7158244  93.4937298  50.8384076
   1.8949255  94.4377554  50.7363530   3.5414192  89.3640200  66.6505428
   3.8963580  89.5911673  67.5099894   4.1886323  89.6958577  66.0282684
   9.2711929  92.4858636  57.3554757   9.1329827  92.6760232  56.4275947
   8.9148148  93.2478019  57.8122808   9.2981309  94.5535163  62.3666029
   9.7317815  94.4610452  63.2149083  10.0112889  94.5292664  61.7286045
   3.0309203  98.1537257  63.8999129   3.0846226  98.7228194  64.6676845
   2.1623985  98.3239142  63.5353167  10.1596858  94.5958864  64.8998914
  10.3532748  95.5004674  65.1458189  10.0597476  94.1366283  65.7337499
   1.8133169  84.4816754  67.3989242   1.1661084  85.1806704  67.3053718
   2.5834184  84.9152898  67.7665490   5.2211967  94.7465607  70.4739795
   5.0697473  94.5176158  69.5569879   5.2116646  95.7036208  70.4871140
   1.9897303  92.3197519  65.4586061   2.9189363  92.4708679  65.2855029
   1.5688333  92.4081540  64.6034708   1.3833787 101.4457280  54.5710135
   1.5585543 100.9745323  55.3855758   0.6966575 102.0723046  54.7991396
   2.3390850  95.7229786  60.6173437   2.0040683  95.6830556  61.5131087
   1.8394796  95.0574502  60.1443847   5.2750042  93.0685821  50.8910496
   4.6579212  92.3432649  50.7943549   4.8066530  93.8295181  50.5477571
   6.9304173  97.7784729  68.5516277   6.8716720  97.0943949  67.8846860
   7.3323692  98.5203719  68.0996903   6.9321581  95.7424313  66.7830256
   6.0448359  95.4050235  66.9056655   7.5020132  95.0107344  67.0199022
   3.5609164  85.4492165  59.9028527   4.0577863  84.6962127  59.5829597
   2.7896145  85.4856482  59.3371736  11.4138921  91.1532530  61.5446818
  11.4028797  92.0357246  61.1740751  10.5456301  90.8004081  61.3501355
   2.9221418 100.3012599  65.9049658   3.6349390 100.9360064  65.8325560
   2.4311446 100.3976465  65.0889660   4.6438944  94.2063852  57.4766950
   3.7095223  94.3265315  57.3071654   4.8215613  93.3036319  57.2126960
   8.0311496  90.0481171  58.0116984   8.4971948  90.8809163  57.9377287
   8.4818996  89.5826153  58.7162243   6.0987727  96.3924993  55.0103136
   6.3747571  96.2781587  55.9197010   5.2292226  95.9942478  54.9715309
   6.0028159  82.4161758  62.0507885   5.0891238  82.6465985  62.2190092
   6.4321260  82.5000202  62.9021918   5.7734617  90.6051650  64.5507779
   5.1206067  90.8527558  63.8960232   6.1514997  89.7915789  64.2170257
   2.7341791 100.6411343  58.6535950   2.9164185  99.8232999  59.1163702
   3.5574777 100.8579036  58.2160840   3.0683956  99.5679529  55.9150998
   3.5971723  99.0571983  55.3021160   3.3312176  99.2522059  56.7796531
   1.8222190  91.3471461  71.0373816   1.1462827  91.2465591  71.7076192
   2.6449824  91.1910675  71.5009814   0.5644973 102.6538389  65.2731432
   1.1163281 102.8170010  66.0380518   0.9051166 103.2442827  64.6011457
   5.4155847  97.4799646  71.1280087   5.9595751  98.0929605  70.6335042
   4.8342692  98.0379225  71.6447100   3.7013360 100.6020364  62.2595115
   3.5764500  99.8010104  61.7506060   4.3592451 101.0966558  61.7709085
   5.7648269  98.4029384  63.8874665   4.8178604  98.2834736  63.8152991
   6.1131042  97.5151882  63.9700926   2.7694702  98.1982101  60.0879017
   2.6219664  97.2698808  60.2686587   3.5948195  98.2202191  59.6036092
   6.3728824  99.0210659  61.1743890   7.2975371  98.8153521  61.0368341
   6.2044127  98.7727061  62.0833231   2.7656216  86.0519938  55.0811134
   2.9819831  86.9344576  54.7799962   2.2850283  85.6606152  54.3516776
   1.2177951  86.4345540  63.7515896   0.9595729  87.3562610  63.7500226
   0.6862992  86.0375974  64.4416360   6.1624140  99.5396327  56.5305981
   6.3361018  98.9742749  55.7779834   6.6553031 100.3397222  56.3485471
   1.6379907  82.5677490  60.1117058   1.6601604  82.6316823  59.1569038
   2.0547966  81.7281999  60.3057564  12.0163531  92.3032750  58.1496281
  12.4594677  91.5540075  57.7515404  11.1390041  92.2942886  57.7670013
   7.1499312  98.8563091  53.6302879   7.8450217  99.4769784  53.8490194
   7.4922463  98.0058442  53.9055257   9.0490736  96.3062797  55.1590210
   9.5742060  96.6450070  54.4339530   8.9613088  95.3709812  54.9753345
   0.7110784 100.2196870  67.2880087   1.0197911  99.9746017  68.1602786
   1.5086266 100.4243509  66.7998957   8.7384642  96.9395700  70.4641408
   7.9480185  96.9219839  69.9245908   8.5017996  97.4783994  71.2190445
   8.8582517  93.7888167  67.7774137   8.9080522  93.6238174  68.7189659
   8.7496440  92.9215426  67.3872017   6.1486279  89.7719095  69.0933443
   7.0496142  89.6325560  68.8017441   6.2234254  89.9373550  70.0331621
  10.3600714  96.2085108  68.0216158  10.0685522  96.5715089  68.8579619
   9.7472845  95.4952117  67.8429490  11.5596396  93.7737988  60.5418728
  12.3943287  94.2127792  60.7056289  11.6955525  93.2976641  59.7226974
   8.6087902  91.3317723  66.4896216   9.0842023  91.5245369  65.6815068
   7.6853467  91.3876909  66.2439600   3.1868118  83.3665566  65.4552050
   3.7050062  84.1026593  65.1298539   2.8323251  83.6729560  66.2898809
   3.4380712  79.7865849  60.9752947   3.7182466  79.1189038  61.6013373
   4.2231319  79.9794945  60.4627611   1.2414181  98.9624843  52.5377973
   0.6688148  99.5815030  52.0848445   1.8146975  99.5124205  53.0717895
   7.3089571  88.2083483  64.7224522   8.2606994  88.3081581  64.7436746
   7.1393021  87.4161752  65.2322606   5.3303950  85.2939066  64.9083923
   4.7353882  85.5744079  64.2130411   5.0453647  85.7832967  65.6800664
   4.4611441  99.2461993  53.6686555   5.3942114  99.1807555  53.8719431
   4.3734654 100.0818260  53.2101088   7.0899457  98.5627863  50.6290503
   7.0113089  98.2287727  51.5226261   7.9109124  99.0549631  50.6281975
   9.7877649  91.4289603  63.8366821   9.7553969  90.4905603  64.0226505
  10.3978272  91.5073639  63.1032646   1.6260979  90.2985656  49.8794026
   2.5720084  90.1691864  49.9482444   1.2475224  89.5600318  50.3563454
   9.9372137  88.2200646  63.8825105   9.4211186  87.4359103  63.6955034
  10.8212086  87.8919363  64.0471624   7.5982864  81.9641662  59.8420917
   7.4007685  81.6556750  60.7264249   8.2082570  82.6903301  59.9718847
  15.6054198  92.4905610  62.9772858  16.3357587  92.2290898  63.5380562
  14.9961144  91.7534331  63.0174926  13.6869496  90.6313472  63.5747309
  12.9602659  90.4969437  62.9663801  13.2716782  90.9390301  64.3804028
   1.5099672  94.3503402  71.3394682   2.4302681  94.5282001  71.5334729
   1.4749255  93.4059447  71.1874382   1.4265962  82.7672522  55.9693152
   0.6166691  82.4219607  56.3448398   2.1150379  82.4580066  56.5580764
   3.3556511  81.8450569  57.5917449   3.9087549  82.2646022  58.2507472
   3.5926597  80.9186317  57.6340405   6.7335318  83.9551094  57.0996113
   6.1533987  84.6135898  56.7174165   6.4671250  83.1328438  56.6883530
   5.1838884  83.3556151  59.3017433   5.6838662  83.4672686  58.4931752
   5.8274492  83.0517204  59.9418242   5.5160196  86.1151184  56.1552461
   4.6286051  86.4000835  55.9372656   5.9314185  85.9544948  55.3079738
   8.8674732  86.1397705  59.8706800   9.6435122  86.6294158  60.1431417
   8.1422866  86.5655759  60.3278670  11.3047290  86.8525324  60.9280741
  11.8991781  86.6121060  60.2174049  11.3773874  86.1332455  61.5554277
   4.6603409  95.8795859  50.2500481   5.3639259  96.0845861  50.8658137
   3.9366058  96.4472621  50.5149565   5.4901219  91.6305720  56.3702751
   5.4336421  92.0874271  55.5310384   6.0429562  90.8696405  56.1925594
   9.3006025  87.4195452  57.1952871   9.0442960  87.0192088  58.0261079
   8.6758893  88.1339246  57.0703010  13.6118363  90.1591525  59.7024162
  13.0517921  90.2284714  60.4755724  13.0061867  89.9832510  58.9823659
   6.5690107  96.3178388  52.2998941   7.4035711  95.8859586  52.1176416
   6.4074449  96.1460402  53.2275836   6.2235999  92.8210501  53.6655281
   6.1684803  92.6554773  52.7243725   5.5982054  93.5286534  53.8217470
   3.5381906  95.1259413  72.9908843   4.4073066  95.3000065  72.6295478
   3.0588657  95.9453830  72.8684573   3.3484244  78.9161387  57.4986536
   2.5816639  78.3619874  57.6443218   3.7594949  78.9883256  58.3600687
  15.1974382 106.8348039  62.3954118  15.8352792 106.7154786  61.6917458
  15.0795225 107.7828883  62.4542070  12.0064088 106.7875467  62.3315643
  11.6682599 106.6716532  61.4436178  12.8753856 106.3866632  62.3116649
  12.4883871 107.9410319  68.2901848  12.4772512 107.5463117  67.4182352
  12.6504510 107.2076392  68.8835620   9.7072367 105.5563715  51.6632583
   9.9597888 105.0345236  50.9016046   8.7696926 105.3929860  51.7659266
  14.7515650 104.5599493  59.4707326  15.5378739 104.1418916  59.1197743
  15.0154354 105.4645585  59.6388974  20.1524077 104.4974726  60.3740305
  20.8849249 103.9273943  60.6078134  19.3963433 104.1096327  60.8146810
  11.7700197 106.9201968  57.5703647  11.4058404 106.3932589  58.2816568
  12.6267313 106.5300437  57.3970132  17.6749498  98.2096300  64.8334913
  17.3432822  99.0791711  64.6096128  17.0795111  97.8932584  65.5128944
  11.4105684 101.9491867  52.5664996  11.5780086 102.8172104  52.9335467
  11.2202853 102.1119149  51.6426285  17.5678161 102.9291386  61.9128263
  16.6595038 102.8606795  61.6187024  17.5165757 103.4063331  62.7410089
  11.3894905 104.4049525  53.5511662  11.2694530 104.8506576  54.3897143
  10.6947493 104.7534843  52.9925200  11.6419027 104.3481032  69.8563160
  10.8652361 104.9074952  69.8466025  12.2809590 104.8337815  70.3778031
  19.4339807 101.1307825  63.6906137  18.7914188 101.4240358  63.0445932
  18.9294736 101.0160745  64.4959334  17.0879971 104.8770998  54.3791996
  17.9997827 105.1098385  54.2039694  16.5789618 105.4608042  53.8167075
  11.7251809 104.2368233  65.3886846  12.5713004 104.6607646  65.5321495
  11.6650446 103.5801857  66.0825409  14.8751254 101.8972601  67.0468020
  14.6312186 102.6514662  66.5102295  15.1511185 102.2757949  67.8815267
  16.8289717 108.4411213  65.7245285  17.0406612 109.0842973  65.0479666
  16.7819465 107.6073530  65.2567215  14.4315946 101.0529034  62.6281857
  13.5700425 101.3510288  62.9198595  14.4578380 101.2699433  61.6962890
  10.1846401 105.7194377  55.8445228  10.8870445 106.1715421  56.3119154
   9.8527030 105.0778196  56.4725121   8.6326763 104.3106134  70.2196437
   8.0025423 104.9922414  70.4531834   8.5262851 104.1989215  69.2749576
   3.9271735 103.9777930  61.1462362   3.1370789 104.2335458  60.6702472
   4.4182983 104.7926267  61.2514402   5.8786481 104.3422509  58.1045838
   5.0817644 104.4541203  58.6229334   5.6512073 104.6809161  57.2386729
  26.0341538 107.6621917  60.2452614  25.2805246 107.0929315  60.0896618
  26.1689079 107.6284582  61.1923249   7.9107506  98.6126899  72.5821689
   7.5174451  98.0593098  73.2569333   8.7273646  98.9237478  72.9728206
  10.8275467 100.0284779  70.1741945  11.5685180 100.6291932  70.0946408
  11.0593389  99.2862416  69.6159988  14.7732629  96.0565881  64.4506227
  14.4296899  96.9467523  64.3745337  15.1411592  95.8667539  63.5875812
  14.7382912 106.0474493  52.9578662  14.2229536 106.8179097  53.1967049
  14.4660221 105.3739629  53.5811723  12.3230023 100.8924193  58.0163900
  11.4671620 100.5031044  57.8369539  12.7356975 100.9716154  57.1563686
  13.8529170  98.4270537  62.4155460  13.3493965  98.3900672  61.6023265
  14.1459777  99.3363279  62.4752117  10.0972056  98.5109266  61.4221642
  10.9625052  98.3152075  61.0627531  10.1649565  98.2819618  62.3490999
  19.7117186 108.8006847  54.8931835  18.9346629 108.4618007  54.4486997
  20.3908667 108.8059470  54.2186800  14.5269215 103.9201585  54.7838443
  14.2219351 104.2347734  55.6348586  15.4799657 103.9983005  54.8265776
  17.9508493 108.2740828  61.5498443  17.2932168 108.9640090  61.6378572
  18.7548892 108.6637260  61.8932430   7.7034375 100.7411474  58.7938009
   8.2778127 100.5186656  58.0611202   8.2905357 100.8100169  59.5466610
  16.7613952 106.6285201  59.6002385  17.2745834 107.2615193  60.1024095
  17.4115176 106.0286397  59.2345745   8.0303962 102.7715935  52.8133894
   7.1941274 103.1090622  53.1343169   7.8908732 102.6364915  51.8761031
  10.0057043  97.6152723  57.5213078   9.3521455  97.3001740  56.8969693
   9.9637517  96.9928464  58.2472901  13.2394783 104.1034657  61.8460726
  12.3217344 104.3249604  61.6882414  13.6554926 104.1780967  60.9872433
  14.0229831 105.5026072  56.9763406  14.7701650 106.0147470  56.6670528
  14.2921420 105.1810125  57.8367799  16.4708668 102.5383189  58.9582195
  15.7331425 102.0260575  59.2892438  16.7235441 102.0983570  58.1465472
  16.5720295  95.3159441  59.5523964  16.8779172  94.4556804  59.2649880
  17.2972900  95.9077061  59.3522958  10.8441375 105.6113234  60.0600156
  10.8989985 104.6587070  59.9842632  10.0332577 105.7672673  60.5441454
   8.7833735 104.2290293  57.8190534   7.9701600 104.5284464  58.2255727
   9.2792729 103.8345982  58.5365017  14.3807946 104.6932118  66.6505428
  14.7357334 104.9203591  67.5099894  15.0280078 105.0250495  66.0282684
  20.1105683 107.8150554  57.3554757  19.9723582 108.0052150  56.4275947
  19.7541902 108.5769937  57.8122808   8.2747810 101.8008649  63.4351769
   8.9147189 101.6597408  62.7374733   7.4425340 101.5143162  63.0590371
  20.1375063 109.8827081  62.3666029  20.5711570 109.7902370  63.2149083
  20.8506644 109.8584581  61.7286045   5.3590877 105.2454161  55.6246514
   4.4288465 105.1838617  55.8416477   5.4548349 104.7230114  54.8283156
   5.2776426 101.7708974  58.2124756   5.5383243 102.6854307  58.1033917
   6.0993598 101.3033417  58.3621369   6.7501351 103.1846731  65.3823581
   7.4224405 102.9764093  64.7336230   5.9231138 102.9868817  64.9428813
  20.9990613 109.9250781  64.8998914  21.1926503 110.8296592  65.1458189
  20.8991231 109.4658201  65.7337499  12.6526923  99.8108672  67.3989242
  12.0054838 100.5098622  67.3053718  13.4227939 100.2444816  67.7665490
  12.8291058 107.6489437  65.4586061  13.7583118 107.8000597  65.2855029
  12.4082088 107.7373458  64.6034708  16.1143796 108.3977738  50.8910496
  15.4972967 107.6724567  50.7943549  15.6460285 109.1587099  50.5477571
   9.7811149 106.1709293  65.6309697  10.4910768 105.5302486  65.5896316
   9.7380457 106.4222188  66.5535878   8.4940083 103.1574511  67.4505337
   7.9577440 102.7065250  68.1026933   7.9056792 103.2920420  66.7075801
   7.9042342 102.6163163  50.0131801   7.0271808 102.4951964  49.6494047
   8.3800095 101.8249241  49.7610689   4.2279204 102.2930519  64.5358331
   4.1437393 101.6856189  63.8008741   3.4061911 102.7839537  64.5367828
  14.4002918 100.7784083  59.9028527  14.8971618 100.0254045  59.5829597
  13.6289900 100.8148399  59.3371736  22.2532676 106.4824448  61.5446818
  22.2422552 107.3649163  61.1740751  21.3850055 106.1295999  61.3501355
  10.9837887 102.9201466  59.6300211  10.6135675 102.3672506  60.3181117
  11.4796979 102.3159599  59.0775211  18.8705250 105.3773089  58.0116984
  19.3365703 106.2101081  57.9377287  19.3212751 104.9118071  58.7162243
  16.8421913  97.7453676  62.0507885  15.9284993  97.9757903  62.2190092
  17.2715015  97.8292120  62.9021918  16.6128372 105.9343568  64.5507779
  15.9599822 106.1819475  63.8960232  16.9908751 105.1207706  64.2170257
  12.6615945 106.6763379  71.0373816  11.9856582 106.5757508  71.7076192
  13.4843578 106.5202593  71.5009814   6.3803221 100.3305456  65.8753317
   6.4444547 101.1920287  65.4630715   6.3170341  99.7179458  65.1425676
   5.8555493 102.4028589  69.5226351   6.4827532 102.0205666  70.1363876
   4.9983412 102.1842791  69.8882044   2.6321036 104.2105018  55.4544706
   2.9274477 103.3015696  55.4011760   1.7309072 104.1892757  55.1325709
   6.1615283 102.2861015  61.4372255   5.4401869 102.8996982  61.2979728
   6.9508539 102.8218779  61.3588901   8.9641597  99.6215441  67.7112907
   9.4875998  99.8677738  68.4739216   8.7453930 100.4535476  67.2916044
   4.3608878 101.8919116  55.5784031   4.0321584 101.0116495  55.3959137
   4.7148248 101.8366784  56.4660421   7.4750701 102.1792085  55.9459509
   7.8146773 102.7078007  55.2238117   7.9222821 102.5172492  56.7218076
  10.1694142 100.5629136  65.3962577   9.8290962  99.7636949  65.7983257
   9.4633148 100.8630847  64.8239410  10.8210613  97.6478449  63.8489900
  11.6436683  97.1738927  63.7268790  11.0648677  98.4268932  64.3488586
   9.4618848 100.6766707  54.1452802  10.1827210 101.0547960  53.6416519
   8.8384152 101.3955584  54.2487780  13.6049971 101.3811856  55.0811134
  13.8213585 102.2636494  54.7799962  13.1244038 100.9898069  54.3516776
   8.3449192 104.3397569  61.6581879   8.1993773 104.6537872  62.5506160
   7.8674396 104.9582470  61.1052777  10.2045575 101.3300117  61.7062768
  10.1907144 100.4341210  61.3695066  10.9218003 101.3370781  62.3401054
  12.0571706 101.7637457  63.7515896  11.7989484 102.6854528  63.7500226
  11.5256746 101.3667892  64.4416360   9.6082471 100.2114497  56.9750338
   9.7298382  99.2831144  57.1741226   9.3184513 100.2253183  56.0628654
  12.4773661  97.8969408  60.1117058  12.4995358  97.9608741  59.1569038
  12.8941720  97.0573917  60.3057564  22.8557286 107.6324667  58.1496281
  23.2988432 106.8831993  57.7515404  21.9783796 107.6234804  57.7670013
   9.0923550 101.7246495  71.1840271   9.1411706 102.6008618  70.8018041
   9.6346065 101.1823888  70.6111914  19.6976271 109.1180084  67.7774137
  19.7474276 108.9530092  68.7189659  19.5890195 108.2507343  67.3872017
  16.9880034 105.1011012  69.0933443  17.8889896 104.9617477  68.8017441
  17.0628008 105.2665467  70.0331621  11.3222839 102.4777867  67.9386630
  10.4526148 102.7711433  67.6669218  11.5582319 103.0618312  68.6593893
  22.3990150 109.1029906  60.5418728  23.2337042 109.5419710  60.7056289
  22.5349279 108.6268559  59.7226974  19.4481656 106.6609641  66.4896216
  19.9235778 106.8537287  65.6815068  18.5247222 106.7168826  66.2439600
  14.0261873  98.6957484  65.4552050  14.5443817  99.4318511  65.1298539
  13.6717006  99.0021477  66.2898809   5.6060810 103.5562165  53.5713456
   4.9130055 103.6306520  52.9153492   5.3612562 102.7922509  54.0934973
  14.2774467  95.1157767  60.9752947  14.5576221  94.4480956  61.6013373
  15.0625074  95.3086862  60.4627611  18.1483325 103.5375401  64.7224522
  19.1000748 103.6373498  64.7436746  17.9786776 102.7453669  65.2322606
  16.1697705 100.6230984  64.9083923  15.5747637 100.9035997  64.2130411
  15.8847401 101.1124885  65.6800664  20.6271403 106.7581520  63.8366821
  20.5947723 105.8197521  64.0226505  21.2372027 106.8365557  63.1032646
  12.4654734 105.6277573  49.8794026  13.4113839 105.4983781  49.9482444
  12.0868979 104.8892235  50.3563454  20.7765892 103.5492564  63.8825105
  20.2604940 102.7651020  63.6955034  21.6605840 103.2211280  64.0471624
  18.4376618  97.2933579  59.8420917  18.2401440  96.9848668  60.7264249
  19.0476324  98.0195218  59.9718847  26.4447953 107.8197527  62.9772858
  27.1751341 107.5582815  63.5380562  25.8354898 107.0826249  63.0174926
  24.5263250 105.9605390  63.5747309  23.7996414 105.8261355  62.9663801
  24.1110537 106.2682218  64.3804028  10.6497651 103.5527550  49.8148911
   9.7429106 103.2560662  49.8911624  10.9273632 103.2557368  48.9483197
  12.2659717  98.0964439  55.9693152  11.4560445  97.7511524  56.3448398
  12.9544134  97.7871983  56.5580764  14.1950265  97.1742486  57.5917449
  14.7481304  97.5937940  58.2507472  14.4320351  96.2478234  57.6340405
  10.2183364 103.1629560  73.3720213  10.1180091 104.1123917  73.3032304
  10.0004906 102.8347799  72.4996283   9.4196436 100.4114485  49.9560890
  10.2815600 100.7369383  50.2156707   9.6046780  99.6245981  49.4433956
  17.5729072  99.2843011  57.0996113  16.9927741  99.9427815  56.7174165
  17.3065005  98.4620356  56.6883530  16.0232639  98.6848069  59.3017433
  16.5232417  98.7964604  58.4931752  16.6668246  98.3809122  59.9418242
  16.3553950 101.4443102  56.1552461  15.4679805 101.7292752  55.9372656
  16.7707939 101.2836865  55.3079738  19.7068486 101.4689623  59.8706800
  20.4828876 101.9586075  60.1431417  18.9816620 101.8947677  60.3278670
  22.1441045 102.1817242  60.9280741  22.7385536 101.9412978  60.2174049
  22.2167629 101.4624373  61.5554277  16.3294974 106.9597638  56.3702751
  16.2730175 107.4166189  55.5310384  16.8823316 106.1988322  56.1925594
  20.1399780 102.7487370  57.1952871  19.8836714 102.3484005  58.0261079
  19.5152648 103.4631164  57.0703010  24.4512118 105.4883443  59.7024162
  23.8911676 105.5576632  60.4755724  23.8455621 105.3124427  58.9823659
  17.0629753 108.1502419  53.6655281  17.0078557 107.9846690  52.7243725
  16.4375809 108.8578452  53.8217470   1.8522268 103.3870483  67.4916703
   2.4981132 102.8769437  67.9803928   1.6439419 104.1239165  68.0660128
  10.3725879  97.6510528  53.2440599  10.3604549  98.5952368  53.4008870
  11.2649301  97.4680673  52.9500060  14.1877998  94.2453305  57.4986536
  13.4210394  93.6911791  57.6443218  14.5988703  94.3175173  58.3600687
   6.1919759 100.5338100  71.5891717   7.0551221 100.1774905  71.7995042
   5.6185170 100.1951995  72.2767121  25.6126384 111.3857799  64.4506227
  25.2690653 112.2759441  64.3745337  25.9805347 111.1959457  63.5875812
  27.4114050 110.6451358  59.5523964  27.7172926 109.7848722  59.2649880
  28.1366654 111.2368979  59.3522958  25.1168221 110.4449684  60.9752947
  25.3969975 109.7772873  61.6013373  25.9018828 110.6378780  60.4627611
  29.2770373 112.6225497  59.8420917  29.0795194 112.3140585  60.7264249
  29.8870079 113.3487136  59.9718847  25.0271753 109.5745222  57.4986536
  24.2604148 109.0203709  57.6443218  25.4382458 109.6467091  58.3600687
   4.3554030  54.0100205  46.9697921   3.6017738  53.4407603  46.8141925
   4.4901571  53.9762869  47.9168555   0.7202643  55.4508193  47.2664035
   1.5549534  55.8897997  47.4301595   0.8561771  54.9746846  46.4472281
   4.7660445  54.1675814  49.7018165   5.4963834  53.9061103  50.2625868
   4.1567391  53.4304536  49.7420233   2.8475742  52.3083677  50.2992616
   2.1208906  52.1739642  49.6909108   2.4323029  52.6160506  51.1049334
   0.4653537  48.5295529  47.6526048   1.0598028  48.2891265  46.9419356
   0.5380121  47.8102660  48.2799584   2.7724610  51.8361730  46.4269469
   2.2124168  51.9054919  47.2001031   2.1668113  51.6602715  45.7068965
   4.3580628  68.5118244  49.1199425   4.9959038  68.3924991  48.4162765
   4.2401471  69.4599088  49.1787377   1.1670335  68.4645672  49.0560949
   0.8288846  68.3486737  48.1681484   2.0360103  68.0636837  49.0361955
   1.6490118  69.6180524  55.0147155   1.6378758  69.2233322  54.1427659
   1.8110757  68.8846596  55.6080926   2.6056709  73.9852116  40.3572305
   1.9544689  74.5706197  39.9706319   3.4001072  74.5158311  40.4167343
   3.9121897  66.2369698  46.1952633   4.6984986  65.8189121  45.8443050
   4.1760601  67.1415790  46.3634281   4.0831974  71.6742548  40.8941289
   3.4477807  71.7477175  41.6062194   3.7529381  72.2636147  40.2160369
   9.3130324  66.1744931  47.0985611  10.0455496  65.6044148  47.3323441
   8.5569680  65.7866532  47.5392117   0.9306444  68.5972173  44.2948954
   0.5664651  68.0702794  45.0061875   1.7873560  68.2070642  44.1215439
   6.8355744  59.8866505  51.5580220   6.5039069  60.7561916  51.3341435
   6.2401358  59.5702789  52.2374250   3.3287264  72.0879051  50.9576133
   3.0287987  72.9904090  50.8491940   2.9838323  71.8211234  51.8097285
   6.7284408  64.6061591  48.6373570   5.8201285  64.5377000  48.3432331
   6.6772004  65.0833536  49.4655395   8.5946054  62.8078030  50.4151444
   7.9520434  63.1010563  49.7691238   8.0900983  62.6930950  51.2204640
   6.2486218  66.5541203  41.1037303   7.1604074  66.7868590  40.9285001
   5.7395865  67.1378247  40.5412382   4.5326985  70.9765831  54.7398596
   4.9410341  70.5348241  53.9953228   3.8104247  70.4018458  54.9932788
   0.8858055  65.9138438  52.1132153   1.7319251  66.3377851  52.2566802
   0.8256693  65.2572062  52.8070716   4.8555800  71.5367021  48.4950884
   4.2264663  71.7012736  47.7926952   4.4681462  71.9508631  49.2661849
   8.7345032  72.4721459  45.8495248   8.0496070  72.8520361  45.2992282
   8.8188881  73.0816786  46.5827196   4.0357501  63.5742806  53.7713326
   3.7918433  64.3284866  53.2347602   4.3117431  63.9528154  54.6060573
   5.9895964  70.1181418  52.4490592   6.2012859  70.7613178  51.7724973
   5.9425712  69.2843735  51.9812522   3.5922193  62.7299239  49.3527164
   2.7306672  63.0280492  49.6443901   3.6184627  62.9469638  48.4208197
   7.1041792  72.9953374  50.6212949   7.9259235  72.5933561  50.3395631
   7.1004194  72.8921608  51.5729065  15.1947785  69.3392122  46.9697921
  14.4411493  68.7699520  46.8141925  15.3295326  69.3054787  47.9168555
   0.5846413  74.2105524  42.6452640   0.4492087  75.0557060  43.0737488
   1.1256225  74.4124802  41.8818574   2.2114889  74.8329091  56.7752982
   1.7678743  74.0465470  56.4573887   2.8732103  75.0208241  56.1096873
   4.3096127  75.1131891  54.8034383   4.2914602  75.9340772  54.3114652
   5.2316047  74.9885966  55.0284524   3.9338876  57.7336086  51.1751533
   3.5903146  58.6237728  51.0990644   4.3017839  57.5437744  50.3121118
   3.8989159  67.7244697  39.6823969   3.3835782  68.4949302  39.9212356
   3.6266467  67.0509834  40.3057030   1.4836270  62.5694398  44.7409207
   0.6277866  62.1801249  44.5614846   1.8963222  62.6486359  43.8808992
   3.0135417  60.1040742  49.1400767   2.5100212  60.0670877  48.3268572
   3.3066023  61.0133484  49.1997423   8.8723433  70.4777052  41.6177142
   8.0952876  70.1388212  41.1732304   9.5514914  70.4829675  40.9432107
   3.6875462  65.5971790  41.5083750   3.3825598  65.9117939  42.3593893
   4.6405904  65.6753209  41.5511083   2.1321894  71.7562013  43.1576704
   1.6043256  71.0214772  42.8449941   1.6309397  72.5336689  42.9116672
   7.1114740  69.9511033  48.2743750   6.4538414  70.6410295  48.3623879
   7.9155139  70.3407465  48.6177736   5.9220199  68.3055406  46.3247692
   6.4352081  68.9385398  46.8269401   6.5721423  67.7056602  45.9591052
   3.1842573  78.2839730  39.0808363   2.5104272  78.5871427  39.6893321
   3.5708395  79.0868811  38.7313820   2.4001030  65.7804862  48.5706032
   1.4823591  66.0019809  48.4127720   2.8161173  65.8551172  47.7117740
   3.1836077  67.1796277  43.7008713   3.9307896  67.6917675  43.3915835
   3.4527667  66.8580330  44.5613106   1.4562728  69.6754818  40.6835667
   0.5473947  69.3913851  40.7808137   1.4857811  70.0953897  39.8238974
   6.6881995  73.2861408  44.4526834   6.2344322  72.4452317  44.5092025
   6.0575962  73.9222806  44.7901615   5.6314915  64.2153394  45.6827502
   4.8937671  63.7030780  46.0137744   5.8841688  63.7753775  44.8710779
   5.1314934  75.1237904  45.3876653   5.4237909  75.6842961  44.6689018
   5.6413555  75.4166465  46.1429812   5.7326542  56.9929646  46.2769271
   6.0385419  56.1327009  45.9895186   6.4579147  57.5847266  46.0768265
   1.1538815  71.2163562  38.0223745   0.7158245  70.4999421  37.5629383
   1.8949256  71.4439677  37.4608837   3.5414193  66.3702323  53.3750735
   3.8963581  66.5973796  54.2345201   4.1886324  66.7020700  52.7527990
   9.2711930  69.4920759  44.0800064   9.1329829  69.6822355  43.1521253
   8.9148149  70.2540142  44.5368115   9.2981310  71.5597286  49.0911335
   9.7317816  71.4672575  49.9394389  10.0112890  71.5354786  48.4531351
   3.0309205  75.1599380  50.6244436   3.0846227  75.7290316  51.3922152
   2.1623986  75.3301265  50.2598473  10.1596859  71.6020986  51.6244221
  10.3532749  72.5066797  51.8703496  10.0597477  71.1428405  52.4582806
   1.8133170  61.4878877  54.1234548   1.1661085  62.1868827  54.0299025
   2.5834185  61.9215021  54.4910796   5.2211968  71.7527729  57.1985101
   5.0697474  71.5238281  56.2815185   5.2116647  72.7098331  57.2116446
   1.9897304  69.3259642  52.1831368   2.9189364  69.4770801  52.0100335
   1.5688334  69.4143663  51.3280014   1.3833788  78.4519403  41.2955442
   1.5585544  77.9807446  42.1101065   0.6966576  79.0785169  41.5236703
   2.3390851  72.7291909  47.3418743   2.0040684  72.6892679  48.2376393
   1.8394797  72.0636625  46.8689154   5.2750043  70.0747943  37.6155803
   4.6579214  69.3494771  37.5188856   4.8066531  70.8357304  37.2722877
   6.9304175  74.7846852  55.2761583   6.8716721  74.1006072  54.6092166
   7.3323693  75.5265842  54.8242209   6.9321582  72.7486436  53.5075563
   6.0448361  72.4112357  53.6301962   7.5020133  72.0169467  53.7444328
   3.5609165  62.4554287  46.6273833   4.0577865  61.7024250  46.3074903
   2.7896147  62.4918604  46.0617042  11.4138922  68.1594653  48.2692125
  11.4028799  69.0419368  47.8986058  10.5456302  67.8066204  48.0746662
   2.9221419  77.3074722  52.6294965   3.6349391  77.9422187  52.5570866
   2.4311447  77.4038588  51.8134967   4.6438946  71.2125975  44.2012257
   3.7095224  71.3327437  44.0316961   4.8215614  70.3098441  43.9372266
   8.0311497  67.0543294  44.7362291   8.4971949  67.8871286  44.6622593
   8.4818998  66.5888276  45.4407549   6.0987728  73.3987115  41.7348443
   6.3747572  73.2843710  42.6442317   5.2292227  73.0004600  41.6960616
   6.0028160  59.4223881  48.7753192   5.0891240  59.6528108  48.9435399
   6.4321261  59.5062325  49.6267224   5.7734618  67.6113773  51.2753086
   5.1206069  67.8589680  50.6205539   6.1514998  66.7977911  50.9415563
   2.7341792  77.6473466  45.3781256   2.9164187  76.8295122  45.8409009
   3.5574778  77.8641158  44.9406146   3.0683958  76.5741651  42.6396305
   3.5971724  76.0634106  42.0266467   3.3312177  76.2584181  43.5041838
   1.8222191  68.3533584  57.7619123   1.1462828  68.2527713  58.4321498
   2.6449825  68.1972798  58.2255120   0.5644974  79.6600511  51.9976739
   1.1163282  79.8232133  52.7625824   0.9051168  80.2504949  51.3256764
   5.4155849  74.4861769  57.8525394   5.9595753  75.0991727  57.3580348
   4.8342693  75.0441347  58.3692407   3.7013362  77.6082487  48.9840421
   3.5764501  76.8072227  48.4751367   4.3592453  78.1028680  48.4954391
   5.7648270  75.4091507  50.6119971   4.8178605  75.2896858  50.5398298
   6.1131043  74.5214005  50.6946233   2.7694703  75.2044223  46.8124324
   2.6219666  74.2760931  46.9931894   3.5948197  75.2264314  46.3281399
   6.3728825  76.0272782  47.8989196   7.2975373  75.8215643  47.7613647
   6.2044128  75.7789183  48.8078538   2.7656218  63.0582061  41.8056441
   2.9819832  63.9406699  41.5045269   2.2850285  62.6668274  41.0762083
   1.2177952  63.4407662  50.4761202   0.9595730  64.3624733  50.4745533
   0.6862993  63.0438097  51.1661667   6.1624141  76.5458449  43.2551288
   6.3361019  75.9804872  42.5025140   6.6553032  77.3459344  43.0730778
   1.6379908  59.5739613  46.8362365   1.6601605  59.6378946  45.8814345
   2.0547967  58.7344121  47.0302871  12.0163532  69.3094872  44.8741588
  12.4594678  68.5602198  44.4760711  11.1390043  69.3005009  44.4915320
   7.1499314  75.8625214  40.3548186   7.8450218  76.4831907  40.5735501
   7.4922464  75.0120565  40.6300564   9.0490737  73.3124919  41.8835517
   9.5742061  73.6512192  41.1584837   8.9613089  72.3771935  41.6998651
   0.7110786  77.2258993  54.0125393   1.0197912  76.9808140  54.8848093
   1.5086268  77.4305631  53.5244264   8.7384643  73.9457823  57.1886715
   7.9480187  73.9281962  56.6491214   8.5017997  74.4846117  57.9435751
   8.8582518  70.7950289  54.5019443   8.9080523  70.6300297  55.4434966
   8.7496441  69.9277548  54.1117324   6.1486280  66.7781217  55.8178750
   7.0496143  66.6387682  55.5262748   6.2234255  66.9435672  56.7576927
  10.3600715  73.2147231  54.7461465  10.0685523  73.5777211  55.5824926
   9.7472846  72.5014239  54.5674797  11.5596397  70.7800111  47.2664035
  12.3943289  71.2189915  47.4301595  11.6955526  70.3038764  46.4472281
   8.6087903  68.3379846  53.2141523   9.0842025  68.5307492  52.4060374
   7.6853468  68.3939031  52.9684907   3.1868120  60.3727689  52.1797357
   3.7050063  61.1088716  51.8543845   2.8323252  60.6791682  53.0144116
   3.4380714  56.7927972  47.6998253   3.7182467  56.1251161  48.3258680
   4.2231321  56.9857067  47.1872917   1.2414182  75.9686966  39.2623280
   0.6688149  76.5877153  38.8093752   1.8146976  76.5186327  39.7963202
   7.3089572  65.2145606  51.4469828   8.2606995  65.3143703  51.4682053
   7.1393022  64.4223874  51.9567913   5.3303952  62.3001189  51.6329229
   4.7353884  62.5806202  50.9375718   5.0453648  62.7895090  52.4045970
   4.4611442  76.2524116  40.3931862   5.3942115  76.1869677  40.5964737
   4.3734655  77.0880383  39.9346395   7.0899459  75.5689986  37.3535810
   7.0113090  75.2349850  38.2471567   7.9109125  76.0611754  37.3527282
   9.7877650  68.4351725  50.5612128   9.7553970  67.4967726  50.7471812
  10.3978273  68.5135762  49.8277953   1.6260981  67.3047778  36.6039332
   2.5720085  67.1753986  36.6727750   1.2475226  66.5662440  37.0808760
   9.9372138  65.2262769  50.6070411   9.4211187  64.4421225  50.4200340
  10.8212087  64.8981485  50.7716931   7.5982865  58.9703784  46.5666224
   7.4007686  58.6618872  47.4509556   8.2082571  59.6965423  46.6964154
  15.6054200  69.4967732  49.7018165  16.3357588  69.2353020  50.2625868
  14.9961145  68.7596454  49.7420233  13.6869497  67.6375595  50.2992616
  12.9602660  67.5031560  49.6909108  13.2716784  67.9452423  51.1049334
   1.5099673  71.3565524  58.0639989   2.4302683  71.5344123  58.2580036
   1.4749256  70.4121570  57.9119688   1.4265964  59.7734644  42.6938459
   0.6166692  59.4281729  43.0693705   2.1150380  59.4642188  43.2826070
   3.3556512  58.8512691  44.3162755   3.9087550  59.2708145  44.9752778
   3.5926598  57.9248439  44.3585711   6.7335319  60.9613216  43.8241420
   6.1533988  61.6198020  43.4419472   6.4671252  60.1390561  43.4128837
   5.1838885  60.3618274  46.0262740   5.6838664  60.4734809  45.2177059
   5.8274493  60.0579327  46.6663548   5.5160197  63.1213307  42.8797768
   4.6286052  63.4062957  42.6617963   5.9314186  62.9607070  42.0325045
   8.8674733  63.1459828  46.5952107   9.6435123  63.6356280  46.8676724
   8.1422867  63.5717882  47.0523977  11.3047292  63.8587447  47.6526048
  11.8991783  63.6183183  46.9419356  11.3773875  63.1394577  48.2799584
   4.6603410  72.8857981  36.9745788   5.3639261  73.0907984  37.5903443
   3.9366059  73.4534743  37.2394871   5.4901221  68.6367843  43.0948058
   5.4336422  69.0936394  42.2555690   6.0429563  67.8758527  42.9170901
   9.3006027  64.4257575  43.9198177   9.0442961  64.0254210  44.7506385
   8.6758895  65.1401368  43.7948317  13.6118364  67.1653648  46.4269469
  13.0517922  67.2346837  47.2001031  13.0061868  66.9894632  45.7068965
   6.5690108  73.3240511  39.0244248   7.4035712  72.8921709  38.8421723
   6.4074451  73.1522524  39.9521142   6.2236000  69.8272624  40.3900587
   6.1684804  69.6616895  39.4489031   5.5982055  70.5348657  40.5462777
   3.5381907  72.1321536  59.7154150   4.4073067  72.3062188  59.3540785
   3.0588659  72.9515953  59.5929879   3.3484245  55.9223510  44.2231842
   2.5816641  55.3681996  44.3688525   3.7594950  55.9945378  45.0845994
  15.1974383  83.8410162  49.1199425  15.8352793  83.7216909  48.4162765
  15.0795226  84.7891006  49.1787377  12.0064089  83.7937590  49.0560949
  11.6682601  83.6778655  48.1681484  12.8753857  83.3928755  49.0361955
   7.8650905  85.6473066  45.0457840   7.3015770  85.5563003  44.2774128
   7.7503300  84.8272971  45.5260333  12.4883872  84.9472442  55.0147155
  12.4772513  84.5525240  54.1427659  12.6504512  84.2138514  55.6080926
   5.4115337  87.1424258  47.8842061   6.2036629  86.8015082  47.4688360
   5.6511987  87.2519233  48.8044214  13.4450464  89.3144034  40.3572305
  12.7938443  89.8998114  39.9706319  14.2394826  89.8450229  40.4167343
   7.3706091  86.4033171  40.7559440   8.1436967  85.8562158  40.6172315
   7.7231490  87.2677420  40.9673901   9.2091133  87.7309553  53.9626339
   8.9180999  88.6355184  53.8473005   9.8448118  87.7726081  54.6770408
  10.1347340  85.1086402  50.5527698  10.7310912  84.8842424  49.8384661
  10.1922312  84.3671147  51.1553146   9.7072369  82.5625837  38.3877889
   9.9597889  82.0407358  37.6261352   8.7696928  82.3991983  38.4904573
  14.7515651  81.5661616  46.1952633  15.5378741  81.1481039  45.8443050
  15.0154356  82.4707708  46.3634281  14.9225729  87.0034466  40.8941289
  14.2871562  87.0769092  41.6062194  14.5923135  87.5928065  40.2160369
  20.1524079  81.5036849  47.0985611  20.8849250  80.9336066  47.3323441
  19.3963434  81.1158449  47.5392117   9.4268657  84.4653943  40.5902264
   9.3104915  83.7898847  41.2583349   9.5370917  83.9786317  39.7734417
  11.7700198  83.9264090  44.2948954  11.4058405  83.3994711  45.0061875
  12.6267314  83.5362559  44.1215439  17.6749499  75.2158423  51.5580220
  17.3432824  76.0853834  51.3341435  17.0795112  74.8994707  52.2374250
  11.4105685  78.9553990  39.2910302  11.5780088  79.8234226  39.6580773
  11.2202854  79.1181272  38.3671591  14.1681018  87.4170969  50.9576133
  13.8681742  88.3196008  50.8491940  13.8232078  87.1503152  51.8097285
   7.6193500  83.8684766  46.9912837   6.6943996  83.7360980  47.1990529
   7.8677913  84.6478985  47.4882779  17.5678162  79.9353509  48.6373570
  16.6595040  79.8668917  48.3432331  17.5165758  80.4125454  49.4655395
  11.3894906  81.4111647  40.2756969  11.2694531  81.8568698  41.1142449
  10.6947494  81.7596965  39.7170507   4.9802311  83.5118039  47.8256626
   5.1094692  83.7652518  48.7396038   4.2999762  84.1045747  47.5061281
   9.1501798  94.1815289  43.9247100   9.0725828  95.1323114  44.0035581
   8.5463442  93.8361162  44.5822027  11.6419028  81.3543155  56.5808467
  10.8652362  81.9137075  56.5711332  12.2809591  81.8399938  57.1023337
  19.4339809  78.1369947  50.4151444  18.7914189  78.4302481  49.7691238
  18.9294737  78.0222868  51.2204640  17.0879972  81.8833121  41.1037303
  17.9997828  82.1160507  40.9285001  16.5789619  82.4670165  40.5412382
   9.8965400  84.1628608  56.1426434  10.6380085  84.7013652  55.8661258
   9.1902386  84.7894897  56.2997986  15.3720740  86.3057748  54.7398596
  15.7804096  85.8640159  53.9953228  14.6498001  85.7310376  54.9932788
  11.7251810  81.2430355  52.1132153  12.5713005  81.6669769  52.2566802
  11.6650448  80.5863980  52.8070716  15.6949555  86.8658939  48.4950884
  15.0658417  87.0304653  47.7926952  15.3075217  87.2800549  49.2661849
  19.5738786  87.8013377  45.8495248  18.8889825  88.1812278  45.2992282
  19.6582636  88.4108704  46.5827196  14.8751255  78.9034724  53.7713326
  14.6312187  79.6576784  53.2347602  15.1511186  79.2820071  54.6060573
  16.8289718  85.4473336  52.4490592  17.0406613  86.0905096  51.7724973
  16.7819466  84.6135653  51.9812522  14.4315947  78.0591157  49.3527164
  13.5700426  78.3572410  49.6443901  14.4578382  78.2761555  48.4208197
  11.2477516  86.6033347  45.7600970  11.7115862  86.8821050  44.9705592
  10.9834315  85.7016792  45.5774060   8.1401598  86.1504829  48.6980733
   8.7102955  86.5792097  48.0598217   8.7309709  85.8687413  49.3964919
  10.1846403  82.7256500  42.5690535  10.8870446  83.1777543  43.0364461
   9.8527031  82.0840318  43.1970428   8.6326764  81.3168256  56.9441744
   8.0025425  81.9984537  57.1777141   8.5262852  81.2051338  55.9994882
   3.9271736  80.9840052  47.8707668   3.1370790  81.2397581  47.3947779
   4.4182984  81.7988390  47.9759709  17.9435546  88.3245291  50.6212949
  18.7652990  87.9225479  50.3395631  17.9397949  88.2213526  51.5729065
   5.8786482  81.3484631  44.8291145   5.0817645  81.4603326  45.3474641
   5.6512074  81.6871284  43.9632036  11.7092149  87.8729335  52.7773660
  11.7736582  88.3349742  53.6131831  11.0003073  87.2426700  52.9055969
   2.2109439  81.2370543  50.3022659   2.4617478  82.1217553  50.5680235
   2.7468988  81.0575144  49.5297751  26.0341539  84.6684040  46.9697921
  25.2805247  84.0991438  46.8141925  26.1689080  84.6346704  47.9168555
  11.4240167  89.5397442  42.6452640  11.2885842  90.3848978  43.0737488
  11.9649980  89.7416720  41.8818574   7.9107507  75.6189022  59.3066995
   7.5174452  75.0655221  59.9814639   8.7273647  75.9299600  59.6973513
   4.8769565  87.0572880  43.2180565   5.3894085  87.8516130  43.3686130
   5.5292277  86.3599171  43.1514166   6.6864449  90.1738636  45.3003318
   6.8631078  91.0956601  45.1124302   7.4821283  89.8597056  45.7297698
  10.8275468  77.0346901  56.8987252  11.5685181  77.6354054  56.8191714
  11.0593391  76.2924539  56.3405294   5.9716806  82.2203268  55.1765481
   5.8570321  81.3188526  55.4772580   5.1161324  82.4666965  54.8250298
  13.0508644  90.1621009  56.7752982  12.6072498  89.3757387  56.4573887
  13.7125857  90.3500159  56.1096873   7.8095765  91.6916810  51.3013661
   8.3603190  91.5633874  50.5290654   6.9707241  91.9911699  50.9508553
  15.1489882  90.4423809  54.8034383  15.1308357  91.2632690  54.3114652
  16.0709802  90.3177884  55.0284524  11.6062936  87.9567938  55.6457892
  12.1391273  87.1956226  55.4157200  11.0777017  87.6641590  56.3882046
  14.7732631  73.0628004  51.1751533  14.4296900  73.9529646  51.0990644
  15.1411593  72.8729662  50.3121118   2.8418481  85.3861535  43.9940136
   3.6793703  85.7958543  43.7773843   3.0196749  84.4460977  43.9640329
  14.7382913  83.0536615  39.6823969  14.2229537  83.8241220  39.9212356
  14.4660222  82.3801751  40.3057030  12.3230024  77.8986316  44.7409207
  11.4671621  77.5093166  44.5614846  12.7356976  77.9778277  43.8808992
  13.8529171  75.4332659  49.1400767  13.3493967  75.3962794  48.3268572
  14.1459778  76.3425402  49.1997423  10.0972057  75.5171389  48.1466948
  10.9625054  75.3214198  47.7872838  10.1649566  75.2881741  49.0736305
  19.7117188  85.8068970  41.6177142  18.9346630  85.4680129  41.1732304
  20.3908669  85.8121593  40.9432107  14.5269217  80.9263707  41.5083750
  14.2219352  81.2409856  42.3593893  15.4799659  81.0045127  41.5511083
  12.9715648  87.0853931  43.1576704  12.4437010  86.3506690  42.8449941
  12.4703151  87.8628607  42.9116672  17.9508494  85.2802951  48.2743750
  17.2932169  85.9702212  48.3623879  18.7548894  85.6699383  48.6177736
   7.7034376  77.7473597  45.5183315   8.2778128  77.5248778  44.7856508
   8.2905358  77.8162291  46.2711916  16.7613953  83.6347324  46.3247692
  17.2745835  84.2677316  46.8269401  17.4115177  83.0348519  45.9591052
   8.0303963  79.7778058  39.5379200   7.1941275  80.1152744  39.8588475
   7.8908733  79.6427038  38.6006337  10.0057044  74.6214846  44.2458385
   9.3521456  74.3063863  43.6214999   9.9637518  73.9990586  44.9718208
  11.1168249  84.9034141  36.1611677  10.2095310  84.6723394  36.3602826
  11.6139281  84.1071760  36.3485658  14.0236328  93.6131648  39.0808363
  13.3498026  93.9163345  39.6893321  14.4102149  94.4160728  38.7313820
  13.2394784  81.1096779  48.5706032  12.3217346  81.3311726  48.4127720
  13.6554928  81.1843090  47.7117740  14.0229832  82.5088195  43.7008713
  14.7701651  83.0209592  43.3915835  14.2921421  82.1872248  44.5613106
  12.2956482  85.0046736  40.6835667  11.3867701  84.7205769  40.7808137
  12.3251566  85.4245814  39.8238974  17.5275749  88.6153325  44.4526834
  17.0738077  87.7744235  44.5092025  16.8969716  89.2514724  44.7901615
  16.4708669  79.5445311  45.6827502  15.7331426  79.0322697  46.0137744
  16.7235443  79.1045693  44.8710779  15.9708689  90.4529822  45.3876653
  16.2631663  91.0134879  44.6689018  16.4807309  90.7458383  46.1429812
  16.5720296  72.3221563  46.2769271  16.8779173  71.4618927  45.9895186
  17.2972901  72.9139183  46.0768265   2.8644652  82.7252250  44.6650869
   2.6669052  82.1321611  43.9401936   2.3091316  82.4204460  45.3826808
  10.8441376  82.6175356  46.7845462  10.8989986  81.6649193  46.7087939
  10.0332578  82.7734795  47.2686761  11.9932570  86.5455479  38.0223745
  11.5552000  85.8291338  37.5629383  12.7343011  86.7731594  37.4608837
   8.7833736  81.2352416  44.5435841   7.9701602  81.5346587  44.9501033
   9.2792730  80.8408105  45.2610323  10.9342314  91.2310173  46.4770106
  10.8918493  91.4571019  45.5478638  11.8505013  90.9973548  46.6255907
  14.3807948  81.6994241  53.3750735  14.7357335  81.9265714  54.2345201
  15.0280079  82.0312617  52.7527990  20.1105685  84.8212676  44.0800064
  19.9723583  85.0114272  43.1521253  19.7541903  85.5832059  44.5368115
   8.2747811  78.8070772  50.1597076   8.9147190  78.6659531  49.4620039
   7.4425341  78.5205285  49.7835678  20.1375064  86.8889203  49.0911335
  20.5711571  86.7964493  49.9394389  20.8506645  86.8646704  48.4531351
   9.0508115  88.1073202  46.2732068   9.8448713  87.6123522  46.0714643
   8.3399807  87.5791065  45.9099774  13.8702959  90.4891298  50.6244436
  13.9239981  91.0582234  51.3922152  13.0017741  90.6593183  50.2598473
   5.3590878  82.2516284  42.3491821   4.4288466  82.1900739  42.5661783
   5.4548350  81.7292236  41.5528462   5.2776427  78.7771097  44.9370063
   5.5383245  79.6916430  44.8279223   6.0993600  78.3095539  45.0866676
   6.7501353  80.1908854  52.1068887   7.4224406  79.9826216  51.4581536
   5.9231139  79.9930940  51.6674120  20.9990614  86.9312904  51.6244221
  21.1926504  87.8358715  51.8703496  20.8991232  86.4720323  52.4582806
  12.6526925  76.8170795  54.1234548  12.0054840  77.5160744  54.0299025
  13.4227940  77.2506939  54.4910796  16.0605722  87.0819647  57.1985101
  15.9091229  86.8530199  56.2815185  16.0510402  88.0390248  57.2116446
  12.8291059  84.6551560  52.1831368  13.7583119  84.8062719  52.0100335
  12.4082089  84.7435580  51.3280014  11.6279391  88.6802224  49.9529906
  11.4890476  88.3121008  50.8255844  10.8393987  89.1949863  49.7813863
  12.2227543  93.7811320  41.2955442  12.3979298  93.3099364  42.1101065
  11.5360331  94.4077087  41.5236703  13.1784606  88.0583827  47.3418743
  12.8434438  88.0184597  48.2376393  12.6788552  87.3928543  46.8689154
   7.1528850  83.4651457  52.8671324   7.0148648  82.7331696  53.4682864
   8.0633773  83.3760357  52.5855512  16.1143797  85.4039861  37.6155803
  15.4972968  84.6786689  37.5188856  15.6460286  86.1649221  37.2722877
   9.7811150  83.1771416  52.3555004  10.4910769  82.5364608  52.3141623
   9.7380459  83.4284311  53.2781185  17.7697929  90.1138769  55.2761583
  17.7110475  89.4297989  54.6092166  18.1717448  90.8557759  54.8242209
   8.4940084  80.1636634  54.1750644   7.9577441  79.7127372  54.8272240
   7.9056793  80.2982543  53.4321108   6.7888628  96.9300683  48.0695302
   7.0285226  97.5619207  48.7474321   5.9457824  96.5788723  48.3560661
   7.9042343  79.6225285  36.7377107   7.0271810  79.5014086  36.3739354
   8.3800096  78.8311364  36.4855996  17.7715336  88.0778353  53.5075563
  16.8842115  87.7404275  53.6301962  18.3413887  87.3461385  53.7444328
   4.2279206  79.2992642  51.2603638   4.1437394  78.6918311  50.5254048
   3.4061912  79.7901660  51.2613134  11.3016490  92.7379806  50.4736806
  11.2286661  93.5434777  50.9856111  10.8593883  92.9371771  49.6484828
  11.0906269  91.9751576  43.9839628  10.3073791  92.5173256  44.0777852
  11.7899015  92.4925555  44.3833869  14.4002920  77.7846205  46.6273833
  14.8971619  77.0316167  46.3074903  13.6289901  77.8210522  46.0617042
  22.2532677  83.4886571  48.2692125  22.2422553  84.3711286  47.8986058
  21.3850056  83.1358121  48.0746662  13.7615173  92.6366640  52.6294965
  14.4743146  93.2714104  52.5570866  13.2705202  92.7330506  51.8134967
  15.4832700  86.5417892  44.2012257  14.5488979  86.6619355  44.0316961
  15.6609369  85.6390359  43.9372266  10.9837888  79.9263588  46.3545518
  10.6135676  79.3734629  47.0426423  11.4796981  79.3221722  45.8020518
  18.8705252  82.3835212  44.7362291  19.3365704  83.2163203  44.6622593
  19.3212752  81.9180193  45.4407549   8.8127087  90.3861083  53.4500536
   9.5136546  91.0197566  53.6029930   8.3422202  90.7275815  52.6896175
  16.9381483  88.7279033  41.7348443  17.2141327  88.6135628  42.6442317
  16.0685981  88.3296518  41.6960616  16.8421914  74.7515799  48.7753192
  15.9284994  74.9820025  48.9435399  17.2715016  74.8354243  49.6267224
  16.6128373  82.9405691  51.2753086  15.9599823  83.1881598  50.6205539
  16.9908753  82.1269829  50.9415563  13.5735547  92.9765384  45.3781256
  13.7557941  92.1587040  45.8409009  14.3968533  93.1933076  44.9406146
  13.9077712  91.9033569  42.6396305  14.4365479  91.3926023  42.0266467
  14.1705932  91.5876099  43.5041838  12.6615946  83.6825502  57.7619123
  11.9856583  83.5819631  58.4321498  13.4843580  83.5264715  58.2255120
   4.4094805  89.9197438  50.3831638   4.9948242  89.1741126  50.5159543
   4.2119643  90.2301395  51.2668302   7.2633460  92.9548686  45.3994081
   6.5943835  93.4394813  44.9158121   7.1246330  93.2017906  46.3137459
  11.4038729  94.9892429  51.9976739  11.9557037  95.1524051  52.7625824
  11.7444922  95.5796867  51.3256764   6.3803222  77.3367579  52.5998624
   6.4444548  78.1982410  52.1876022   6.3170342  76.7241581  51.8670982
   5.8555494  79.4090711  56.2471658   6.4827533  79.0267789  56.8609182
   4.9983413  79.1904913  56.6127351  16.2549603  89.8153687  57.8525394
  16.7989507  90.4283645  57.3580348  15.6736448  90.3733265  58.3692407
   2.6321037  81.2167141  42.1790013   2.9274478  80.3077819  42.1257067
   1.7309073  81.1954880  41.8571015  14.5407116  92.9374405  48.9840421
  14.4158255  92.1364144  48.4751367  15.1986207  93.4320598  48.4954391
   6.1615284  79.2923137  48.1617562   5.4401870  79.9059105  48.0225035
   6.9508540  79.8280902  48.0834207  16.6042024  90.7383425  50.6119971
  15.6572360  90.6188776  50.5398298  16.9524797  89.8505923  50.6946233
   8.9641598  76.6277564  54.4358213   9.4876000  76.8739860  55.1984523
   8.7453931  77.4597598  54.0161351   4.3608879  78.8981238  42.3029338
   4.0321585  78.0178617  42.1204444   4.7148250  78.8428907  43.1905727
  13.6088458  90.5336141  46.8124324  13.4613420  89.6052848  46.9931894
  14.4341951  90.5556232  46.3281399   7.4750702  79.1854208  42.6704816
   7.8146774  79.7140129  41.9483424   7.9222822  79.5234614  43.4463382
  17.2122580  91.3564700  47.8989196  18.1369127  91.1507561  47.7613647
  17.0437883  91.1081101  48.8078538  10.1694143  77.5691259  52.1207884
   9.8290963  76.7699072  52.5228564   9.4633149  77.8692970  51.5484717
  10.8210615  74.6540571  50.5735207  11.6436684  74.1801049  50.4514097
  11.0648678  75.4331055  51.0733893   9.4618849  77.6828830  40.8698108
  10.1827212  78.0610082  40.3661825   8.8384153  78.4017706  40.9733086
  13.6049972  78.3873979  41.8056441  13.8213586  79.2698616  41.5045269
  13.1244039  77.9960192  41.0762083   8.3449193  81.3459692  48.3827185
   8.1993774  81.6599995  49.2751467   7.8674397  81.9644592  47.8298084
  10.2045576  78.3362240  48.4308075  10.1907145  77.4403333  48.0940373
  10.9218004  78.3432904  49.0646361  12.0571707  78.7699580  50.4761202
  11.7989485  79.6916651  50.4745533  11.5256747  78.3730015  51.1661667
  17.0017896  91.8750367  43.2551288  17.1754773  91.3096790  42.5025140
  17.4946787  92.6751262  43.0730778   2.8194856  83.8865036  51.3214847
   2.2748324  84.6624844  51.4535121   3.6974205  84.2335841  51.1633968
   9.6082472  77.2176620  43.6995645   9.7298383  76.2893266  43.8986533
   9.3184515  77.2315306  42.7873961  12.4773663  74.9031531  46.8362365
  12.4995359  74.9670864  45.8814345  12.8941722  74.0636039  47.0302871
  22.8557287  84.6386790  44.8741588  23.2988433  83.8894115  44.4760711
  21.9783797  84.6296926  44.4915320  17.9893068  91.1917132  40.3548186
  18.6843973  91.8123824  40.5735501  18.3316218  90.3412483  40.6300564
   3.6060877  83.0134932  54.2145003   2.8642613  83.1617568  54.8009634
   3.2853622  83.2743198  53.3511753  19.8884491  88.6416837  41.8835517
  20.4135815  88.9804110  41.1584837  19.8006844  87.7063852  41.6998651
  11.5504540  92.5550911  54.0125393  11.8591666  92.3100057  54.8848093
  12.3480022  92.7597549  53.5244264  11.5725152  94.7088820  46.2430770
  11.1330142  94.2165199  46.9363627  12.3233269  94.1661788  46.0022845
   4.0517491  90.9000361  46.2455398   4.8775511  90.6004133  45.8654042
   3.7011543  90.1307984  46.6945187   9.0199024  90.2526829  48.3153072
   8.3979034  89.5897534  48.0155300   9.6903891  90.2787961  47.6326719
   2.2526096  88.8186688  47.2044332   1.4158004  88.3908862  47.0228333
   2.2249742  89.0119131  48.1415123   9.0923552  78.7308617  57.9085578
   9.1411707  79.6070740  57.5263347   9.6346066  78.1886010  57.3357221
  19.5778397  89.2749741  57.1886715  18.7873941  89.2573880  56.6491214
  19.3411752  89.8138034  57.9435751  19.6976272  86.1242207  54.5019443
  19.7474277  85.9592214  55.4434966  19.5890196  85.2569466  54.1117324
   8.5812531  88.8030753  41.7911532   8.7300652  89.4866217  41.1378205
   9.3878975  88.7835843  42.3060988  16.9880035  82.1073135  55.8178750
  17.8889898  81.9679600  55.5262748  17.0628009  82.2727590  56.7576927
  11.3222840  79.4839990  54.6631936  10.4526150  79.7773556  54.3914525
  11.5582321  80.0680435  55.3839200  21.1994469  88.5439149  54.7461465
  20.9079278  88.9069129  55.5824926  20.5866601  87.8306157  54.5674797
  22.3990152  86.1092028  47.2664035  23.2337043  86.5481832  47.4301595
  22.5349280  85.6330682  46.4472281  19.4481658  83.6671763  53.2141523
  19.9235779  83.8599410  52.4060374  18.5247223  83.7230949  52.9684907
   6.3365164  84.8295930  42.7972601   6.0911206  83.9258260  42.9952811
   6.5061079  84.8313081  41.8552079  14.0261874  75.7019607  52.1797357
  14.5443818  76.4380634  51.8543845  13.6717007  76.0083600  53.0144116
   5.6060812  80.5624288  40.2958763   4.9130057  80.6368643  39.6398799
   5.3612564  79.7984632  40.8180280  14.2774468  72.1219889  47.6998253
  14.5576222  71.4543078  48.3258680  15.0625075  72.3148985  47.1872917
  12.0807937  91.2978883  39.2623280  11.5081904  91.9169070  38.8093752
  12.6540730  91.8478245  39.7963202  18.1483327  80.5437523  51.4469828
  19.1000749  80.6435621  51.4682053  17.9786777  79.7515792  51.9567913
  16.1697706  77.6293107  51.6329229  15.5747638  77.9098119  50.9375718
  15.8847403  78.1187007  52.4045970  15.3005196  91.5816033  40.3931862
  16.2335870  91.5161595  40.5964737  15.2128409  92.4172300  39.9346395
  17.9293213  90.8981904  37.3535810  17.8506845  90.5641767  38.2471567
  18.7502880  91.3903672  37.3527282  20.6271404  83.7643643  50.5612128
  20.5947724  82.8259644  50.7471812  21.2372028  83.8427680  49.8277953
  12.4654735  82.6339696  36.6039332  13.4113840  82.5045904  36.6727750
  12.0868980  81.8954358  37.0808760  20.7765893  80.5554686  50.6070411
  20.2604941  79.7713143  50.4200340  21.6605841  80.2273403  50.7716931
  18.4376620  74.2995702  46.5666224  18.2401441  73.9910790  47.4509556
  19.0476325  75.0257341  46.6964154  26.4447954  84.8259650  49.7018165
  27.1751343  84.5644938  50.2625868  25.8354900  84.0888372  49.7420233
  24.5263251  82.9667512  50.2992616  23.7996415  82.8323477  49.6909108
  24.1110538  83.2744341  51.1049334  12.3493428  86.6857442  58.0639989
  13.2696437  86.8636041  58.2580036  12.3143011  85.7413487  57.9119688
  10.6497652  80.5589672  36.5394217   9.7429108  80.2622785  36.6156931
  10.9273633  80.2619490  35.6728504   1.5675593  81.8796036  46.9893264
   1.2478377  81.0261344  46.6967638   1.0209021  82.0944614  47.7451231
   5.3455500  84.5958477  50.7062770   5.5641510  85.5275585  50.7250804
   5.7581274  84.2366451  51.4917574  12.2659718  75.1026562  42.6938459
  11.4560446  74.7573647  43.0693705  12.9544135  74.7934106  43.2826070
  14.1950266  74.1804609  44.3162755  14.7481305  74.6000062  44.9752778
  14.4320353  73.2540357  44.3585711  10.2183366  80.1691682  60.0965519
  10.1180092  81.1186039  60.0277610  10.0004908  79.8409921  59.2241589
   9.4196437  77.4176608  36.6806197  10.2815601  77.7431506  36.9402014
   9.6046781  76.6308103  36.1679262   1.4363853  85.4998947  48.9586385
   0.7427324  85.0852900  48.4456340   2.1836844  85.5419484  48.3619804
  17.5729073  76.2905134  43.8241420  16.9927742  76.9489938  43.4419472
  17.3065006  75.4682479  43.4128837  16.0232640  75.6910192  46.0262740
  16.5232418  75.8026726  45.2177059  16.6668248  75.3871245  46.6663548
  10.0814636  83.5988821  58.9130581   9.5981717  84.3989181  59.1194470
  10.1675575  83.6096766  57.9598025   3.3500595  85.4317201  46.8352400
   3.3271283  85.5304888  45.8834283   3.6601232  86.2782352  47.1569566
   6.0087973  87.4893356  50.9499015   6.9631227  87.4577298  50.8828946
   5.8100497  87.0283980  51.7649241   6.5987355  86.0594472  53.5169812
   7.4180244  86.5538551  53.5404650   6.8724163  85.1426440  53.4887380
  16.3553951  78.4505224  42.8797768  15.4679806  78.7354875  42.6617963
  16.7707941  78.2898988  42.0325045  19.7068488  78.4751745  46.5952107
  20.4828878  78.9648198  46.8676724  18.9816622  78.9009800  47.0523977
  22.1441046  79.1879365  47.6526048  22.7385537  78.9475101  46.9419356
  22.2167630  78.4686495  48.2799584   4.3638202  93.0312976  47.9669213
   4.2292670  92.2713376  47.4007211   3.9470264  93.7553875  47.4998001
  15.4997165  88.2149899  36.9745788  16.2033015  88.4199902  37.5903443
  14.7759814  88.7826661  37.2394871  16.3294975  83.9659760  43.0948058
  16.2730177  84.4228312  42.2555690  16.8823318  83.2050445  42.9170901
  20.1399781  79.7549492  43.9198177  19.8836715  79.3546128  44.7506385
  19.5152649  80.4693286  43.7948317  24.4512119  82.4945565  46.4269469
  23.8911677  82.5638755  47.2001031  23.8455622  82.3186550  45.7068965
   7.5207328  93.9282293  48.1787655   7.4039712  94.8727725  48.0766345
   6.6999774  93.6255854  48.5673454  17.4083862  88.6532428  39.0244248
  18.2429466  88.2213627  38.8421723  17.2468205  88.4814442  39.9521142
  17.0629755  85.1564542  40.3900587  17.0078558  84.9908813  39.4489031
  16.4375810  85.8640574  40.5462777   1.8522269  80.3932606  54.2162009
   2.4981133  79.8831560  54.7049235   1.6439421  81.1301288  54.7905435
  14.3775662  87.4613453  59.7154150  15.2466821  87.6354106  59.3540785
  13.8982413  88.2807870  59.5929879  10.3725880  74.6572651  39.9685906
  10.3604550  75.6014491  40.1254176  11.2649302  74.4742796  39.6745367
   8.5461842  94.5810554  51.3943584   9.4489089  94.6134165  51.7110079
   8.3199212  93.6511005  51.4089919  10.3015444  93.3341541  48.0553662
   9.3511075  93.3343403  47.9418035  10.6047930  92.5874276  47.5389697
  14.1877999  71.2515427  44.2231842  13.4210395  70.6973914  44.3688525
  14.5988704  71.3237296  45.0845994   6.1919760  77.5400223  58.3137024
   7.0551222  77.1837028  58.5240348   5.6185171  77.2014118  59.0012428
  26.0368137  99.1702079  49.1199425  26.6746547  99.0508827  48.4162765
  25.9188980 100.1182923  49.1787377  22.8457844  99.1229507  49.0560949
  22.5076355  99.0070572  48.1681484  23.7147612  98.7220673  49.0361955
  18.7044659 100.9764984  45.0457840  18.1409525 100.8854921  44.2774128
  18.5897054 100.1564888  45.5260333  23.3277627 100.2764359  55.0147155
  23.3166267  99.8817157  54.1427659  23.4898266  99.5430432  55.6080926
  16.2509091 102.4716176  47.8842061  17.0430383 102.1307000  47.4688360
  16.4905741 102.5811151  48.8044214  24.2844218 104.6435952  40.3572305
  23.6332198 105.2290032  39.9706319  25.0788581 105.1742147  40.4167343
  18.2099845 101.7325089  40.7559440  18.9830721 101.1854076  40.6172315
  18.5625244 102.5969338  40.9673901  20.0484888 103.0601471  53.9626339
  19.7574754 103.9647102  53.8473005  20.6841872 103.1017999  54.6770408
  20.9741095 100.4378320  50.5527698  21.5704667 100.2134342  49.8384661
  21.0316066  99.6963065  51.1553146  20.5466123  97.8917755  38.3877889
  20.7991644  97.3699276  37.6261352  19.6090682  97.7283900  38.4904573
  25.5909406  96.8953533  46.1952633  26.3772495  96.4772956  45.8443050
  25.8548110  97.7999625  46.3634281  25.7619483 102.3326384  40.8941289
  25.1265316 102.4061010  41.6062194  25.4316890 102.9219982  40.2160369
  30.9917833  96.8328766  47.0985611  31.7243005  96.2627983  47.3323441
  30.2357189  96.4450367  47.5392117  20.2662412  99.7945861  40.5902264
  20.1498670  99.1190764  41.2583349  20.3764672  99.3078235  39.7734417
  22.6093953  99.2556008  44.2948954  22.2452160  98.7286629  45.0061875
  23.4661069  98.8654477  44.1215439  28.5143253  90.5450341  51.5580220
  28.1826578  91.4145752  51.3341435  27.9188867  90.2286625  52.2374250
  22.2499440  94.2845908  39.2910302  22.4173842  95.1526144  39.6580773
  22.0596609  94.4473189  38.3671591  25.0074773 102.7462887  50.9576133
  24.7075496 103.6487925  50.8491940  24.6625832 102.4795070  51.8097285
  18.4587254  99.1976683  46.9912837  17.5337751  99.0652897  47.1990529
  18.7071668  99.9770903  47.4882779  28.4071917  95.2645427  48.6373570
  27.4988794  95.1960835  48.3432331  28.3559512  95.7417372  49.4655395
  22.2288661  96.7403565  40.2756969  22.1088286  97.1860616  41.1142449
  21.5341249  97.0888883  39.7170507  15.8196065  98.8409957  47.8256626
  15.9488447  99.0944436  48.7396038  15.1393517  99.4337665  47.5061281
  19.9895553 109.5107207  43.9247100  19.9119582 110.4615032  44.0035581
  19.3857196 109.1653079  44.5822027  22.4812782  96.6835072  56.5808467
  21.7046117  97.2428992  56.5711332  23.1203346  97.1691855  57.1023337
  30.2733563  93.4661865  50.4151444  29.6307943  93.7594398  49.7691238
  29.7688492  93.3514785  51.2204640  27.9273727  97.2125038  41.1037303
  28.8391583  97.4452425  40.9285001  27.4183374  97.7962083  40.5412382
  20.7359155  99.4920526  56.1426434  21.4773839 100.0305570  55.8661258
  20.0296140 100.1186814  56.2997986  26.2114494 101.6349666  54.7398596
  26.6197850 101.1932077  53.9953228  25.4891756 101.0602294  54.9932788
  22.5645564  96.5722273  52.1132153  23.4106760  96.9961686  52.2566802
  22.5044202  95.9155897  52.8070716  26.5343309 102.1950857  48.4950884
  25.9052172 102.3596571  47.7926952  26.1468971 102.6092466  49.2661849
  30.4132541 103.1305295  45.8495248  29.7283579 103.5104196  45.2992282
  30.4976390 103.7400621  46.5827196  25.7145010  94.2326641  53.7713326
  25.4705942  94.9868702  53.2347602  25.9904940  94.6111989  54.6060573
  27.6683473 100.7765254  52.4490592  27.8800368 101.4197014  51.7724973
  27.6213221  99.9427570  51.9812522  25.2709702  93.3883074  49.3527164
  24.4094181  93.6864328  49.6443901  25.2972136  93.6053473  48.4208197
  22.0871271 101.9325265  45.7600970  22.5509616 102.2112968  44.9705592
  21.8228069 101.0308709  45.5774060  18.9795352 101.4796746  48.6980733
  19.5496709 101.9084015  48.0598217  19.5703464 101.1979331  49.3964919
  21.0240157  98.0548417  42.5690535  21.7264200  98.5069461  43.0364461
  20.6920786  97.4132236  43.1970428  19.4720519  96.6460174  56.9441744
  18.8419179  97.3276455  57.1777141  19.3656606  96.5343255  55.9994882
  14.7665491  96.3131970  47.8707668  13.9764545  96.5689498  47.3947779
  15.2576738  97.1280308  47.9759709  28.7829301 103.6537209  50.6212949
  29.6046744 103.2517396  50.3395631  28.7791703 103.5505443  51.5729065
  16.7180236  96.6776549  44.8291145  15.9211400  96.7895243  45.3474641
  16.4905829  97.0163201  43.9632036  22.5485904 103.2021252  52.7773660
  22.6130336 103.6641660  53.6131831  21.8396828 102.5718617  52.9055969
  13.0503194  96.5662460  50.3022659  13.3011232  97.4509470  50.5680235
  13.5862742  96.3867062  49.5297751  36.8735294  99.9975958  46.9697921
  36.1199002  99.4283356  46.8141925  37.0082835  99.9638622  47.9168555
  22.2633922 104.8689360  42.6452640  22.1279596 105.7140896  43.0737488
  22.8043734 105.0708637  41.8818574  18.7501261  90.9480940  59.3066995
  18.3568207  90.3947138  59.9814639  19.5667402  91.2591518  59.6973513
  15.7163319 102.3864798  43.2180565  16.2287840 103.1808048  43.3686130
  16.3686032 101.6891088  43.1514166  17.5258204 105.5030554  45.3003318
  17.7024832 106.4248519  45.1124302  18.3215037 105.1888973  45.7297698
  21.6669222  92.3638819  56.8987252  22.4078936  92.9645972  56.8191714
  21.8987145  91.6216457  56.3405294  16.8110560  97.5495186  55.1765481
  16.6964075  96.6480443  55.4772580  15.9555078  97.7958883  54.8250298
  23.8902398 105.4912926  56.7752982  23.4466252 104.7049305  56.4573887
  24.5519612 105.6792077  56.1096873  18.6489519 107.0208728  51.3013661
  19.1996944 106.8925791  50.5290654  17.8100995 107.3203617  50.9508553
  25.9883636 105.7715726  54.8034383  25.9702111 106.5924607  54.3114652
  26.9103556 105.6469801  55.0284524  22.4456690 103.2859856  55.6457892
  22.9785027 102.5248144  55.4157200  21.9170771 102.9933508  56.3882046
  25.6126385  88.3919922  51.1751533  25.2690655  89.2821563  51.0990644
  25.9805348  88.2021579  50.3121118  13.6812236 100.7153452  43.9940136
  14.5187458 101.1250461  43.7773843  13.8590504  99.7752894  43.9640329
  25.5776668  98.3828533  39.6823969  25.0623291  99.1533137  39.9212356
  25.3053976  97.7093669  40.3057030  23.1623779  93.2278234  44.7409207
  22.3065375  92.8385084  44.5614846  23.5750731  93.3070194  43.8808992
  24.6922926  90.7624577  49.1400767  24.1887721  90.7254712  48.3268572
  24.9853532  91.6717320  49.1997423  20.9365811  90.8463307  48.1466948
  21.8018808  90.6506115  47.7872838  21.0043320  90.6173658  49.0736305
  30.5510942 101.1360887  41.6177142  29.7740385 100.7972047  41.1732304
  31.2302423 101.1413511  40.9432107  25.3662971  96.2555625  41.5083750
  25.0613107  96.5701774  42.3593893  26.3193413  96.3337045  41.5511083
  23.8109403 102.4145848  43.1576704  23.2830765 101.6798608  42.8449941
  23.3096906 103.1920525  42.9116672  28.7902249 100.6094869  48.2743750
  28.1325923 101.2994130  48.3623879  29.5942648 100.9991301  48.6177736
  18.5428131  93.0765515  45.5183315  19.1171882  92.8540696  44.7856508
  19.1299113  93.1454209  46.2711916  27.6007708  98.9639241  46.3247692
  28.1139590  99.5969233  46.8269401  28.2508932  98.3640437  45.9591052
  18.8697718  95.1069976  39.5379200  18.0335030  95.4444662  39.8588475
  18.7302487  94.9718955  38.6006337  20.8450798  89.9506763  44.2458385
  20.1915211  89.6355781  43.6214999  20.8031272  89.3282504  44.9718208
  21.9562003 100.2326059  36.1611677  21.0489065 100.0015312  36.3602826
  22.4533035  99.4363678  36.3485658  24.8630082 108.9423566  39.0808363
  24.1891781 109.2455262  39.6893321  25.2495904 109.7452646  38.7313820
  24.0788539  96.4388697  48.5706032  23.1611100  96.6603644  48.4127720
  24.4948682  96.5135007  47.7117740  24.8623586  97.8380113  43.7008713
  25.6095405  98.3501510  43.3915835  25.1315176  97.5164165  44.5613106
  23.1350237 100.3338653  40.6835667  22.2261456 100.0497686  40.7808137
  23.1645320 100.7537732  39.8238974  28.3669504 103.9445243  44.4526834
  27.9131831 103.1036153  44.5092025  27.7363471 104.5806641  44.7901615
  27.3102424  94.8737229  45.6827502  26.5725180  94.3614615  46.0137744
  27.5629197  94.4337611  44.8710779  26.8102443 105.7821740  45.3876653
  27.1025418 106.3426797  44.6689018  27.3201064 106.0750301  46.1429812
  27.4114051  87.6513481  46.2769271  27.7172928  86.7910844  45.9895186
  28.1366656  88.2431101  46.0768265  13.7038407  98.0544167  44.6650869
  13.5062807  97.4613528  43.9401936  13.1485071  97.7496378  45.3826808
  21.6835131  97.9467274  46.7845462  21.7383740  96.9941110  46.7087939
  20.8726333  98.1026713  47.2686761  22.8326324 101.8747397  38.0223745
  22.3945754 101.1583256  37.5629383  23.5736765 102.1023512  37.4608837
  19.6227491  96.5644334  44.5435841  18.8095356  96.8638504  44.9501033
  20.1186485  96.1700022  45.2610323  21.7736068 106.5602091  46.4770106
  21.7312247 106.7862937  45.5478638  22.6898767 106.3265465  46.6255907
  25.2201702  97.0286158  53.3750735  25.5751090  97.2557631  54.2345201
  25.8673833  97.3604535  52.7527990  30.9499439 100.1504594  44.0800064
  30.8117338 100.3406190  43.1521253  30.5935658 100.9123977  44.5368115
  19.1141565  94.1362689  50.1597076  19.7540945  93.9951448  49.4620039
  18.2819096  93.8497203  49.7835678  30.9768819 102.2181121  49.0911335
  31.4105325 102.1256410  49.9394389  31.6900399 102.1938622  48.4531351
  19.8901869 103.4365120  46.2732068  20.6842468 102.9415440  46.0714643
  19.1793562 102.9082983  45.9099774  24.7096714 105.8183215  50.6244436
  24.7633736 106.3874152  51.3922152  23.8411495 105.9885100  50.2598473
  16.1984633  97.5808201  42.3491821  15.2682221  97.5192657  42.5661783
  16.2942105  97.0584154  41.5528462  16.1170182  94.1063014  44.9370063
  16.3776999  95.0208347  44.8279223  16.9387354  93.6387457  45.0866676
  17.5895107  95.5200771  52.1068887  18.2618160  95.3118134  51.4581536
  16.7624894  95.3222857  51.6674120  31.8384368 102.2604822  51.6244221
  32.0320258 103.1650632  51.8703496  31.7384986 101.8012241  52.4582806
  23.4920679  92.1462712  54.1234548  22.8448594  92.8452662  54.0299025
  24.2621694  92.5798856  54.4910796  26.8999477 102.4111564  57.1985101
  26.7484983 102.1822116  56.2815185  26.8904156 103.3682166  57.2116446
  23.6684813  99.9843477  52.1831368  24.5976873 100.1354637  52.0100335
  23.2475843 100.0727498  51.3280014  22.4673145 104.0094142  49.9529906
  22.3284231 103.6412926  50.8255844  21.6787741 104.5241781  49.7813863
  23.0621297 109.1103238  41.2955442  23.2373053 108.6391281  42.1101065
  22.3754085 109.7369004  41.5236703  24.0178360 103.3875744  47.3418743
  23.6828193 103.3476514  48.2376393  23.5182306 102.7220460  46.8689154
  17.9922604  98.7943374  52.8671324  17.8542402  98.0623613  53.4682864
  18.9027528  98.7052274  52.5855512  26.9537552 100.7331779  37.6155803
  26.3366723 100.0078607  37.5188856  26.4854040 101.4941139  37.2722877
  20.6204905  98.5063334  52.3555004  21.3304523  97.8656526  52.3141623
  20.5774213  98.7576229  53.2781185  28.6091684 105.4430687  55.2761583
  28.5504230 104.7589907  54.6092166  29.0111202 106.1849677  54.8242209
  19.3333839  95.4928552  54.1750644  18.7971196  95.0419290  54.8272240
  18.7450547  95.6274460  53.4321108  18.7436098  94.9517203  36.7377107
  17.8665564  94.8306004  36.3739354  19.2193851  94.1603281  36.4855996
  28.6109091 103.4070271  53.5075563  27.7235870 103.0696193  53.6301962
  29.1807642 102.6753302  53.7444328  10.2638238  99.7394363  46.8318614
  10.9509278  99.4256093  46.2439630  10.1086367 100.6435727  46.5585866
  15.0672960  94.6284559  51.2603638  14.9831149  94.0210229  50.5254048
  14.2455667  95.1193578  51.2613134  22.1410244 108.0671723  50.4736806
  22.0680416 108.8726695  50.9856111  21.6987637 108.2663689  49.6484828
  21.9300024 107.3043493  43.9839628  21.1467546 107.8465174  44.0777852
  22.6292769 107.8217473  44.3833869  25.2396674  93.1138123  46.6273833
  25.7365374  92.3608085  46.3074903  24.4683656  93.1502439  46.0617042
  33.0926431  98.8178488  48.2692125  33.0816308  99.7003204  47.8986058
  32.2243811  98.4650039  48.0746662  24.6008928 107.9658557  52.6294965
  25.3136900 108.6006022  52.5570866  24.1098956 108.0622423  51.8134967
  26.3226455 101.8709810  44.2012257  25.3882733 101.9911272  44.0316961
  26.5003123 100.9682277  43.9372266  21.8231643  95.2555506  46.3545518
  21.4529430  94.7026546  47.0426423  22.3190735  94.6513639  45.8020518
  29.7099006  97.7127129  44.7362291  30.1759458  98.5455121  44.6622593
  30.1606507  97.2472111  45.4407549  19.6520841 105.7153001  53.4500536
  20.3530301 106.3489484  53.6029930  19.1815956 106.0567732  52.6896175
  27.7775237 104.0570951  41.7348443  28.0535081 103.9427545  42.6442317
  26.9079736 103.6588435  41.6960616  27.6815669  90.0807716  48.7753192
  26.7678749  90.3111943  48.9435399  28.1108770  90.1646160  49.6267224
  27.4522127  98.2697608  51.2753086  26.7993578  98.5173516  50.6205539
  27.8302507  97.4561746  50.9415563  24.4129301 108.3057301  45.3781256
  24.5951696 107.4878957  45.8409009  25.2362287 108.5224994  44.9406146
  24.7471467 107.2325487  42.6396305  25.2759233 106.7217941  42.0266467
  25.0099686 106.9168017  43.5041838  23.5009700  99.0117419  57.7619123
  22.8250337  98.9111549  58.4321498  24.3237334  98.8556633  58.2255120
  15.2488559 105.2489356  50.3831638  15.8341996 104.5033044  50.5159543
  15.0513398 105.5593313  51.2668302  18.1027215 108.2840603  45.3994081
  17.4337590 108.7686731  44.9158121  17.9640084 108.5309824  46.3137459
   9.8406214  97.8194956  49.1036082   9.8790314  97.2858547  49.8973200
   9.3346507  97.2930162  48.4847059  22.2432483 110.3184347  51.9976739
  22.7950791 110.4815968  52.7625824  22.5838677 110.9088785  51.3256764
  17.2196976  92.6659497  52.5998624  17.2838303  93.5274327  52.1876022
  17.1564097  92.0533498  51.8670982  16.6949249  94.7382629  56.2471658
  17.3221288  94.3559706  56.8609182  15.8377168  94.5196831  56.6127351
  27.0943358 105.1445604  57.8525394  27.6383262 105.7575563  57.3580348
  26.5130202 105.7025183  58.3692407  13.4714792  96.5459058  42.1790013
  13.7668233  95.6369737  42.1257067  12.5702827  96.5246798  41.8571015
  25.3800870 108.2666322  48.9840421  25.2552010 107.4656062  48.4751367
  26.0379962 108.7612516  48.4954391  17.0009039  94.6215055  48.1617562
  16.2795624  95.2351023  48.0225035  17.7902294  95.1572820  48.0834207
  27.4435779 106.0675342  50.6119971  26.4966114 105.9480694  50.5398298
  27.7918552 105.1797840  50.6946233  19.8035352  91.9569481  54.4358213
  20.3269754  92.2031778  55.1984523  19.5847686  92.7889516  54.0161351
  15.2002633  94.2273156  42.3029338  14.8715339  93.3470535  42.1204444
  15.5542004  94.1720825  43.1905727  24.4482212 105.8628059  46.8124324
  24.3007175 104.9344766  46.9931894  25.2735706 105.8848149  46.3281399
  18.3144456  94.5146126  42.6704816  18.6540529  95.0432047  41.9483424
  18.7616577  94.8526532  43.4463382  28.0516334 106.6856617  47.8989196
  28.9762881 106.4799479  47.7613647  27.8831637 106.4373018  48.8078538
  21.0087897  92.8983176  52.1207884  20.6684718  92.0990989  52.5228564
  20.3026904  93.1984887  51.5484717  21.6604369  89.9832489  50.5735207
  22.4830438  89.5092967  50.4514097  21.9042433  90.7622973  51.0733893
  20.3012604  93.0120747  40.8698108  21.0220966  93.3902000  40.3661825
  19.6777908  93.7309624  40.9733086  24.4443726  93.7165896  41.8056441
  24.6607341  94.5990534  41.5045269  23.9637794  93.3252110  41.0762083
  19.1842948  96.6751609  48.3827185  19.0387529  96.9891913  49.2751467
  18.7068151  97.2936510  47.8298084  21.0439331  93.6654157  48.4308075
  21.0300900  92.7695251  48.0940373  21.7611759  93.6724821  49.0646361
  22.8965461  94.0991498  50.4761202  22.6383239  95.0208568  50.4745533
  22.3650502  93.7021932  51.1661667  27.8411650 107.2042285  43.2551288
  28.0148528 106.6388707  42.5025140  28.3340541 108.0043180  43.0730778
  13.6588610  99.2156954  51.3214847  13.1142078  99.9916762  51.4535121
  14.5367960  99.5627758  51.1633968  20.4476227  92.5468538  43.6995645
  20.5692138  91.6185184  43.8986533  20.1578269  92.5607224  42.7873961
  23.3167417  90.2323448  46.8362365  23.3389114  90.2962781  45.8814345
  23.7335476  89.3927957  47.0302871  33.6951041  99.9678708  44.8741588
  34.1382187  99.2186033  44.4760711  32.8177552  99.9588844  44.4915320
  28.8286823 106.5209049  40.3548186  29.5237727 107.1415742  40.5735501
  29.1709973 105.6704400  40.6300564  14.4454632  98.3426850  54.2145003
  13.7036368  98.4909485  54.8009634  14.1247376  98.6035116  53.3511753
  30.7278246 103.9708755  41.8835517  31.2529570 104.3096027  41.1584837
  30.6400598 103.0355770  41.6998651  22.3898295 107.8842828  54.0125393
  22.6985421 107.6391975  54.8848093  23.1873777 108.0889467  53.5244264
  22.4118907 110.0380738  46.2430770  21.9723897 109.5457117  46.9363627
  23.1627024 109.4953706  46.0022845  14.8911246 106.2292279  46.2455398
  15.7169265 105.9296051  45.8654042  14.5405298 105.4599901  46.6945187
  19.8592779 105.5818747  48.3153072  19.2372788 104.9189452  48.0155300
  20.5297646 105.6079879  47.6326719  13.0919851 104.1478605  47.2044332
  12.2551759 103.7200780  47.0228333  13.0643496 104.3411049  48.1415123
  19.9317306  94.0600535  57.9085578  19.9805462  94.9362658  57.5263347
  20.4739820  93.5177928  57.3357221  30.4172152 104.6041658  57.1886715
  29.6267696 104.5865797  56.6491214  30.1805506 105.1429952  57.9435751
  30.5370027 101.4534125  54.5019443  30.5868032 101.2884132  55.4434966
  30.4283950 100.5861384  54.1117324  19.4206286 104.1322670  41.7911532
  19.5694406 104.8158135  41.1378205  20.2272729 104.1127760  42.3060988
  27.8273789  97.4365053  55.8178750  28.7283652  97.2971518  55.5262748
  27.9021764  97.6019508  56.7576927  22.1616595  94.8131908  54.6631936
  21.2919904  95.1065474  54.3914525  22.3976075  95.3972353  55.3839200
  32.0388224 103.8731066  54.7461465  31.7473032 104.2361047  55.5824926
  31.4260355 103.1598075  54.5674797  33.2383906 101.4383946  47.2664035
  34.0730797 101.8773750  47.4301595  33.3743035 100.9622599  46.4472281
  30.2875412  98.9963681  53.2141523  30.7629534  99.1891327  52.4060374
  29.3640977  99.0522867  52.9684907  17.1758919 100.1587848  42.7972601
  16.9304961  99.2550178  42.9952811  17.3454833 100.1604999  41.8552079
  24.8655629  91.0311524  52.1797357  25.3837572  91.7672551  51.8543845
  24.5110761  91.3375518  53.0144116  16.4454566  95.8916206  40.2958763
  15.7523811  95.9660561  39.6398799  16.2006318  95.1276549  40.8180280
  25.1168223  87.4511807  47.6998253  25.3969976  86.7834996  48.3258680
  25.9018830  87.6440903  47.1872917  22.9201691 106.6270801  39.2623280
  22.3475658 107.2460988  38.8093752  23.4934485 107.1770163  39.7963202
  28.9877081  95.8729441  51.4469828  29.9394504  95.9727539  51.4682053
  28.8180531  95.0807710  51.9567913  27.0091460  92.9585024  51.6329229
  26.4141393  93.2390037  50.9375718  26.7241157  93.4478925  52.4045970
  26.1398951 106.9107951  40.3931862  27.0729624 106.8453513  40.5964737
  26.0522164 107.7464218  39.9346395  28.7686968 106.2273821  37.3535810
  28.6900599 105.8933685  38.2471567  29.5896634 106.7195589  37.3527282
  31.4665159  99.0935561  50.5612128  31.4341479  98.1551561  50.7471812
  32.0765782  99.1719597  49.8277953  23.3048490  97.9631614  36.6039332
  24.2507594  97.8337822  36.6727750  22.9262735  97.2246276  37.0808760
  31.6159647  95.8846604  50.6070411  31.0998696  95.1005061  50.4200340
  32.4999596  95.5565321  50.7716931  29.2770374  89.6287620  46.5666224
  29.0795195  89.3202708  47.4509556  29.8870080  90.3549259  46.6964154
  37.2841709 100.1551567  49.7018165  38.0145097  99.8936856  50.2625868
  36.6748654  99.4180289  49.7420233  35.3657006  98.2959430  50.2992616
  34.6390169  98.1615395  49.6909108  34.9504293  98.6036259  51.1049334
  23.1887182 102.0149360  58.0639989  24.1090192 102.1927959  58.2580036
  23.1536765 101.0705405  57.9119688  21.4891407  95.8881590  36.5394217
  20.5822862  95.5914703  36.6156931  21.7667388  95.5911408  35.6728504
  12.4069347  97.2087953  46.9893264  12.0872132  96.3553262  46.6967638
  11.8602775  97.4236532  47.7451231  16.1849255  99.9250394  50.7062770
  16.4035265 100.8567502  50.7250804  16.5975029  99.5658369  51.4917574
  23.1053473  90.4318480  42.6938459  22.2954201  90.0865565  43.0693705
  23.7937889  90.1226023  43.2826070  25.0344021  89.5096527  44.3162755
  25.5875059  89.9291980  44.9752778  25.2714107  88.5832275  44.3585711
  21.0577120  95.4983600  60.0965519  20.9573847  96.4477957  60.0277610
  20.8398662  95.1701839  59.2241589  20.2590191  92.7468525  36.6806197
  21.1209355  93.0723424  36.9402014  20.4440536  91.9600021  36.1679262
  12.2757607 100.8290865  48.9586385  11.5821079 100.4144818  48.4456340
  13.0230598 100.8711401  48.3619804  28.4122828  91.6197052  43.8241420
  27.8321497  92.2781856  43.4419472  28.1458761  90.7974396  43.4128837
  26.8626394  91.0202109  46.0262740  27.3626173  91.1318644  45.2177059
  27.5062002  90.7163162  46.6663548  20.9208390  98.9280739  58.9130581
  20.4375472  99.7281099  59.1194470  21.0069329  98.9388684  57.9598025
  14.1894350 100.7609119  46.8352400  14.1665038 100.8596806  45.8834283
  14.4994986 101.6074269  47.1569566  16.8481728 102.8185274  50.9499015
  17.8024981 102.7869216  50.8828946  16.6494251 102.3575897  51.7649241
  17.4381110 101.3886390  53.5169812  18.2573999 101.8830468  53.5404650
  17.7117917 100.4718358  53.4887380  27.1947706  93.7797142  42.8797768
  26.3073561  94.0646793  42.6617963  27.6101695  93.6190905  42.0325045
  30.5462242  93.8043663  46.5952107  31.3222632  94.2940116  46.8676724
  29.8210376  94.2301717  47.0523977  32.9834801  94.5171282  47.6526048
  33.5779292  94.2767018  46.9419356  33.0561384  93.7978413  48.2799584
  26.3390919 103.5441817  36.9745788  27.0426770 103.7491819  37.5903443
  25.6153568 104.1118579  37.2394871  27.1688730  99.2951678  43.0948058
  27.1123931  99.7520229  42.2555690  27.7217072  98.5342363  42.9170901
  30.9793536  95.0841410  43.9198177  30.7230470  94.6838046  44.7506385
  30.3546404  95.7985204  43.7948317  35.2905873  97.8237483  46.4269469
  34.7305431  97.8930672  47.2001031  34.6849377  97.6478468  45.7068965
  28.2477617 103.9824346  39.0244248  29.0823221 103.5505544  38.8421723
  28.0861960 103.8106360  39.9521142  27.9023509 100.4856459  40.3900587
  27.8472313 100.3200731  39.4489031  27.2769564 101.1932492  40.5462777
  12.6916024  95.7224524  54.2162009  13.3374888  95.2123478  54.7049235
  12.4833175  96.4593205  54.7905435  25.2169416 102.7905371  59.7154150
  26.0860576 102.9646023  59.3540785  24.7376168 103.6099788  59.5929879
  21.2119634  89.9864568  39.9685906  21.1998304  90.9306408  40.1254176
  22.1043056  89.8034714  39.6745367  19.3855596 109.9102472  51.3943584
  20.2882843 109.9426082  51.7110079  19.1592966 108.9802923  51.4089919
  21.1409198 108.6633459  48.0553662  20.1904829 108.6635320  47.9418035
  21.4441685 107.9166193  47.5389697  25.0271754  86.5807345  44.2231842
  24.2604150  86.0265832  44.3688525  25.4382459  86.6529214  45.0845994
  17.0313515  92.8692141  58.3137024  17.8944977  92.5128946  58.5240348
  16.4578926  92.5306036  59.0012428  36.8761892 114.4993997  49.1199425
  37.5140302 114.3800744  48.4162765  36.7582735 115.4474841  49.1787377
  33.6851598 114.4521425  49.0560949  33.3470110 114.3362490  48.1681484
  34.5541366 114.0512590  49.0361955  34.1671381 115.6056277  55.0147155
  34.1560022 115.2109075  54.1427659  34.3292021 114.8722350  55.6080926
  31.3859878 113.2209673  38.3877889  31.6385398 112.6991194  37.6261352
  30.4484437 113.0575818  38.4904573  36.4303160 112.2245451  46.1952633
  37.2166250 111.8064874  45.8443050  36.6941865 113.1291543  46.3634281
  41.8311588 112.1620684  47.0985611  42.5636759 111.5919901  47.3323441
  41.0750943 111.7742285  47.5392117  33.4487707 114.5847926  44.2948954
  33.0845914 114.0578547  45.0061875  34.3054823 114.1946395  44.1215439
  39.3537008 105.8742258  51.5580220  39.0220333 106.7437669  51.3341435
  38.7582621 105.5578542  52.2374250  33.0893194 109.6137825  39.2910302
  33.2567597 110.4818062  39.6580773  32.8990363 109.7765107  38.3671591
  39.2465671 110.5937344  48.6373570  38.3382549 110.5252753  48.3432331
  39.1953267 111.0709289  49.4655395  33.0682415 112.0695483  40.2756969
  32.9482040 112.5152534  41.1142449  32.3735003 112.4180800  39.7170507
  33.3206537 112.0126990  56.5808467  32.5439871 112.5720910  56.5711332
  33.9597100 112.4983773  57.1023337  41.1127318 108.7953783  50.4151444
  40.4701698 109.0886316  49.7691238  40.6082246 108.6806703  51.2204640
  38.7667481 112.5416956  41.1037303  39.6785337 112.7744343  40.9285001
  38.2577128 113.1254000  40.5412382  33.4039319 111.9014191  52.1132153
  34.2500514 112.3253604  52.2566802  33.3437957 111.2447815  52.8070716
  36.5538764 109.5618559  53.7713326  36.3099696 110.3160619  53.2347602
  36.8298695 109.9403907  54.6060573  38.5077227 116.1057171  52.4490592
  38.7194122 116.7488931  51.7724973  38.4606975 115.2719488  51.9812522
  36.1103456 108.7174992  49.3527164  35.2487935 109.0156246  49.6443901
  36.1365891 108.9345391  48.4208197  31.8633912 113.3840335  42.5690535
  32.5657955 113.8361379  43.0364461  31.5314540 112.7424154  43.1970428
  30.3114273 111.9752092  56.9441744  29.6812934 112.6568372  57.1777141
  30.2050361 111.8635173  55.9994882  25.6059245 111.6423888  47.8707668
  24.8158299 111.8981416  47.3947779  26.0970493 112.4572225  47.9759709
  27.5573991 112.0068467  44.8291145  26.7605154 112.1187161  45.3474641
  27.3299583 112.3455119  43.9632036  47.7129048 115.3267875  46.9697921
  46.9592756 114.7575273  46.8141925  47.8476589 115.2930540  47.9168555
  29.5895016 106.2772857  59.3066995  29.1961961 105.7239056  59.9814639
  30.4061156 106.5883436  59.6973513  32.5062977 107.6930736  56.8987252
  33.2472690 108.2937890  56.8191714  32.7380900 106.9508374  56.3405294
  36.4520140 103.7211839  51.1751533  36.1084409 104.6113481  51.0990644
  36.8199102 103.5313497  50.3121118  36.4170422 113.7120450  39.6823969
  35.9017046 114.4825055  39.9212356  36.1447731 113.0385587  40.3057030
  34.0017533 108.5570151  44.7409207  33.1459130 108.1677002  44.5614846
  34.4144485 108.6362112  43.8808992  35.5316680 106.0916495  49.1400767
  35.0281476 106.0546630  48.3268572  35.8247287 107.0009237  49.1997423
  31.7759566 106.1755224  48.1466948  32.6412563 105.9798033  47.7872838
  31.8437075 105.9465576  49.0736305  41.3904697 116.4652805  41.6177142
  40.6134139 116.1263965  41.1732304  42.0696178 116.4705428  40.9432107
  36.2056726 111.5847543  41.5083750  35.9006861 111.8993692  42.3593893
  37.1587168 111.6628962  41.5511083  39.6296003 115.9386786  48.2743750
  38.9719678 116.6286048  48.3623879  40.4336403 116.3283218  48.6177736
  29.3821885 108.4057432  45.5183315  29.9565637 108.1832614  44.7856508
  29.9692867 108.4746127  46.2711916  38.4401462 114.2931159  46.3247692
  38.9533344 114.9261151  46.8269401  39.0902686 113.6932355  45.9591052
  29.7091472 110.4361893  39.5379200  28.8728784 110.7736580  39.8588475
  29.5696242 110.3010873  38.6006337  31.6844553 105.2798681  44.2458385
  31.0308965 104.9647698  43.6214999  31.6425027 104.6574422  44.9718208
  34.9182293 111.7680615  48.5706032  34.0004854 111.9895562  48.4127720
  35.3342437 111.8426925  47.7117740  35.7017341 113.1672030  43.7008713
  36.4489160 113.6793428  43.3915835  35.9708930 112.8456083  44.5613106
  38.1496178 110.2029147  45.6827502  37.4118935 109.6906533  46.0137744
  38.4022952 109.7629528  44.8710779  38.2507805 102.9805399  46.2769271
  38.5566682 102.1202762  45.9895186  38.9760410 103.5723019  46.0768265
  32.5228885 113.2759192  46.7845462  32.5777495 112.3233028  46.7087939
  31.7120087 113.4318631  47.2686761  30.4621245 111.8936251  44.5435841
  29.6489111 112.1930422  44.9501033  30.9580239 111.4991940  45.2610323
  36.0595457 112.3578076  53.3750735  36.4144844 112.5849549  54.2345201
  36.7067588 112.6896453  52.7527990  41.7893194 115.4796512  44.0800064
  41.6511092 115.6698108  43.1521253  41.4329412 116.2415895  44.5368115
  29.9535320 109.4654607  50.1597076  30.5934699 109.3243366  49.4620039
  29.1212850 109.1789120  49.7835678  41.8162573 117.5473039  49.0911335
  42.2499080 117.4548328  49.9394389  42.5294154 117.5230539  48.4531351
  27.0378387 112.9100119  42.3491821  26.1075975 112.8484575  42.5661783
  27.1335859 112.3876072  41.5528462  26.9563936 109.4354932  44.9370063
  27.2170753 110.3500265  44.8279223  27.7781109 108.9679374  45.0866676
  28.4288862 110.8492689  52.1068887  29.1011915 110.6410051  51.4581536
  27.6018648 110.6514775  51.6674120  42.6778123 117.5896739  51.6244221
  42.8714013 118.4942550  51.8703496  42.5778741 117.1304158  52.4582806
  34.3314434 107.4754630  54.1234548  33.6842349 108.1744580  54.0299025
  35.1015449 107.9090774  54.4910796  34.5078568 115.3135395  52.1831368
  35.4370628 115.4646555  52.0100335  34.0869598 115.4019416  51.3280014
  37.7931306 116.0623696  37.6155803  37.1760477 115.3370525  37.5188856
  37.3247795 116.8233057  37.2722877  31.4598659 113.8355251  52.3555004
  32.1698278 113.1948444  52.3141623  31.4167968 114.0868146  53.2781185
  30.1727593 110.8220469  54.1750644  29.6364950 110.3711208  54.8272240
  29.5844302 110.9566378  53.4321108  29.5829852 110.2809121  36.7377107
  28.7059319 110.1597921  36.3739354  30.0587605 109.4895199  36.4855996
  25.9066715 109.9576477  51.2603638  25.8224903 109.3502147  50.5254048
  25.0849421 110.4485495  51.2613134  36.0790429 108.4430040  46.6273833
  36.5759128 107.6900003  46.3074903  35.3077410 108.4794357  46.0617042
  43.9320186 114.1470406  48.2692125  43.9210062 115.0295121  47.8986058
  43.0637565 113.7941957  48.0746662  32.6625397 110.5847423  46.3545518
  32.2923185 110.0318464  47.0426423  33.1584490 109.9805557  45.8020518
  40.5492761 113.0419047  44.7362291  41.0153213 113.8747039  44.6622593
  41.0000261 112.5764029  45.4407549  38.5209423 105.4099634  48.7753192
  37.6072503 105.6403861  48.9435399  38.9502525 105.4938078  49.6267224
  38.2915882 113.5989526  51.2753086  37.6387332 113.8465433  50.6205539
  38.6696262 112.7853664  50.9415563  34.3403455 114.3409337  57.7619123
  33.6644092 114.2403466  58.4321498  35.1631089 114.1848551  58.2255120
  28.0590731 107.9951414  52.5998624  28.1232057 108.8566245  52.1876022
  27.9957851 107.3825416  51.8670982  27.5343003 110.0674547  56.2471658
  28.1615042 109.6851624  56.8609182  26.6770922 109.8488749  56.6127351
  24.3108546 111.8750976  42.1790013  24.6061987 110.9661654  42.1257067
  23.4096582 111.8538715  41.8571015  27.8402793 109.9506972  48.1617562
  27.1189379 110.5642940  48.0225035  28.6296049 110.4864737  48.0834207
  30.6429107 107.2861399  54.4358213  31.1663509 107.5323696  55.1984523
  30.4241440 108.1181434  54.0161351  26.0396388 109.5565074  42.3029338
  25.7109094 108.6762452  42.1204444  26.3935758 109.5012742  43.1905727
  29.1538211 109.8438043  42.6704816  29.4934283 110.3723965  41.9483424
  29.6010331 110.1818449  43.4463382  31.8481652 108.2275094  52.1207884
  31.5078472 107.4282907  52.5228564  31.1420658 108.5276805  51.5484717
  32.4998124 105.3124406  50.5735207  33.3224193 104.8384885  50.4514097
  32.7436187 106.0914890  51.0733893  31.1406358 108.3412665  40.8698108
  31.8614721 108.7193918  40.3661825  30.5171662 109.0601542  40.9733086
  35.2837481 109.0457814  41.8056441  35.5001095 109.9282452  41.5045269
  34.8031548 108.6544027  41.0762083  30.0236702 112.0043527  48.3827185
  29.8781283 112.3183830  49.2751467  29.5461906 112.6228427  47.8298084
  31.8833085 108.9946075  48.4308075  31.8694654 108.0987168  48.0940373
  32.6005513 109.0016739  49.0646361  33.7359216 109.4283415  50.4761202
  33.4776994 110.3500486  50.4745533  33.2044256 109.0313850  51.1661667
  31.2869981 107.8760455  43.6995645  31.4085892 106.9477102  43.8986533
  30.9972024 107.8899141  42.7873961  34.1561172 105.5615366  46.8362365
  34.1782868 105.6254699  45.8814345  34.5729231 104.7219874  47.0302871
  44.5344796 115.2970625  44.8741588  44.9775942 114.5477951  44.4760711
  43.6571306 115.2880762  44.4915320  30.7711061 109.3892453  57.9085578
  30.8199216 110.2654576  57.5263347  31.3133575 108.8469846  57.3357221
  41.3763781 116.7826042  54.5019443  41.4261786 116.6176050  55.4434966
  41.2677705 115.9153301  54.1117324  38.6667544 112.7656970  55.8178750
  39.5677407 112.6263435  55.5262748  38.7415518 112.9311425  56.7576927
  33.0010349 110.1423825  54.6631936  32.1313659 110.4357391  54.3914525
  33.2369830 110.7264270  55.3839200  44.0777661 116.7675864  47.2664035
  44.9124552 117.2065668  47.4301595  44.2136789 116.2914517  46.4472281
  41.1269167 114.3255599  53.2141523  41.6023288 114.5183245  52.4060374
  40.2034732 114.3814784  52.9684907  35.7049383 106.3603442  52.1797357
  36.2231327 107.0964469  51.8543845  35.3504516 106.6667435  53.0144116
  27.2848321 111.2208123  40.2958763  26.5917566 111.2952478  39.6398799
  27.0400073 110.4568467  40.8180280  35.9561977 102.7803725  47.6998253
  36.2363731 102.1126914  48.3258680  36.7412584 102.9732820  47.1872917
  39.8270836 111.2021359  51.4469828  40.7788258 111.3019456  51.4682053
  39.6574286 110.4099627  51.9567913  37.8485215 108.2876942  51.6329229
  37.2535147 108.5681955  50.9375718  37.5634912 108.7770843  52.4045970
  42.3058913 114.4227478  50.5612128  42.2735233 113.4843479  50.7471812
  42.9159537 114.5011515  49.8277953  34.1442244 113.2923531  36.6039332
  35.0901349 113.1629739  36.6727750  33.7656489 112.5538193  37.0808760
  42.4553402 111.2138522  50.6070411  41.9392450 110.4296978  50.4200340
  43.3393350 110.8857238  50.7716931  40.1164129 104.9579537  46.5666224
  39.9188950 104.6494626  47.4509556  40.7263834 105.6841176  46.6964154
  48.1235463 115.4843485  49.7018165  48.8538852 115.2228773  50.2625868
  47.5142409 114.7472207  49.7420233  46.2050760 113.6251348  50.2992616
  45.4783924 113.4907313  49.6909108  45.7898047 113.9328176  51.1049334
  32.3285161 111.2173508  36.5394217  31.4216617 110.9206620  36.6156931
  32.6061142 110.9203326  35.6728504  33.9447227 105.7610397  42.6938459
  33.1347955 105.4157482  43.0693705  34.6331644 105.4517941  43.2826070
  35.8737775 104.8388444  44.3162755  36.4268814 105.2583898  44.9752778
  36.1107862 103.9124192  44.3585711  31.8970875 110.8275518  60.0965519
  31.7967601 111.7769875  60.0277610  31.6792417 110.4993757  59.2241589
  31.0983946 108.0760443  36.6806197  31.9603110 108.4015341  36.9402014
  31.2834290 107.2891939  36.1679262  39.2516582 106.9488969  43.8241420
  38.6715251 107.6073773  43.4419472  38.9852515 106.1266314  43.4128837
  37.7020149 106.3494027  46.0262740  38.2019927 106.4610562  45.2177059
  38.3455757 106.0455080  46.6663548  38.0341460 109.1089060  42.8797768
  37.1467315 109.3938710  42.6617963  38.4495450 108.9482823  42.0325045
  41.3855997 109.1335581  46.5952107  42.1616387 109.6232033  46.8676724
  40.6604131 109.5593635  47.0523977  43.8228555 109.8463200  47.6526048
  44.4173046 109.6058936  46.9419356  43.8955139 109.1270331  48.2799584
  38.0082484 114.6243596  43.0948058  37.9517686 115.0812147  42.2555690
  38.5610827 113.8634280  42.9170901  41.8187290 110.4133328  43.9198177
  41.5624224 110.0129963  44.7506385  41.1940158 111.1277121  43.7948317
  46.1299628 113.1529401  46.4269469  45.5699186 113.2222590  47.2001031
  45.5243131 112.9770385  45.7068965  38.7417263 115.8148377  40.3900587
  38.6866067 115.6492648  39.4489031  38.1163319 116.5224410  40.5462777
  23.5309778 111.0516441  54.2162009  24.1768642 110.5415395  54.7049235
  23.3226930 111.7885123  54.7905435  32.0513389 105.3156486  39.9685906
  32.0392059 106.2598326  40.1254176  32.9436811 105.1326631  39.6745367
  35.8665508 101.9099263  44.2231842  35.0997904 101.3557749  44.3688525
  36.2776213 101.9821131  45.0845994  27.8707269 108.1984058  58.3137024
  28.7338731 107.8420863  58.5240348  27.2972680 107.8597953  59.0012428
  47.2913894 119.0503757  51.1751533  46.9478164 119.9405399  51.0990644
  47.6592857 118.8605415  50.3121118  49.0901560 118.3097316  46.2769271
  49.3960437 117.4494680  45.9895186  49.8154165 118.9014936  46.0768265
  46.7955732 118.1095642  47.6998253  47.0757485 117.4418831  48.3258680
  47.5806339 118.3024738  47.1872917  50.9557883 120.2871455  46.5666224
  50.7582704 119.9786543  47.4509556  51.5657589 121.0133094  46.6964154
  46.7059263 117.2391180  44.2231842  45.9391659 116.6849667  44.3688525
  47.1169968 117.3113049  45.0845994   4.3554031  31.0162327  33.6943227
   3.6017740  30.4469725  33.5387232   4.4901573  30.9824992  34.6413862
   0.7202644  32.4570316  33.9909342   1.5549535  32.8960120  34.1546902
   0.8561773  31.9808969  33.1717588   4.7660446  31.1737937  36.4263472
   5.4963835  30.9123225  36.9871175   4.1567392  30.4366659  36.4665540
   2.8475744  29.3145800  37.0237923   2.1208907  29.1801765  36.4154414
   2.4323030  29.6222628  37.8294641   0.4653538  25.5357652  34.3771354
   1.0598029  25.2953388  33.6664663   0.5380122  24.8164782  35.0044891
   2.7724611  28.8423853  33.1514776   2.2124169  28.9117042  33.9246338
   2.1668115  28.6664837  32.4314272   4.3580630  45.5180367  35.8444731
   4.9959040  45.3987114  35.1408071   4.2401473  46.4661211  35.9032683
   1.1670336  45.4707795  35.7806256   0.8288847  45.3548859  34.8926791
   2.0360104  45.0698960  35.7607262   1.6490119  46.6242646  41.7392461
   1.6378760  46.2295445  40.8672965   1.8110758  45.8908719  42.3326233
   2.6056710  50.9914239  27.0817612   1.9544690  51.5768319  26.6951626
   3.4001073  51.5220434  27.1412649   3.9121898  43.2431820  32.9197939
   4.6984987  42.8251244  32.5688356   4.1760603  44.1477913  33.0879588
   4.0831976  48.6804671  27.6186596   3.4477809  48.7539297  28.3307501
   3.7529382  49.2698270  26.9405675   9.3130325  43.1807054  33.8230918
  10.0455497  42.6106270  34.0568747   8.5569681  42.7928654  34.2637423
   0.9306445  45.6034295  31.0194260   0.5664652  45.0764916  31.7307182
   1.7873561  45.2132764  30.8460746   6.8355746  36.8928628  38.2825526
   6.5039070  37.7624039  38.0586741   6.2401359  36.5764912  38.9619557
   3.3287265  49.0941174  37.6821439   3.0287988  49.9966213  37.5737246
   2.9838325  48.8273357  38.5342592   6.7284409  41.6123714  35.3618876
   5.8201286  41.5439122  35.0677637   6.6772005  42.0895659  36.1900702
   8.5946055  39.8140152  37.1396750   7.9520436  40.1072686  36.4936545
   8.0900984  39.6993073  37.9449947   6.2486219  43.5603326  27.8282610
   7.1604075  43.7930712  27.6530307   5.7395866  44.1440370  27.2657688
   4.5326987  47.9827953  41.4643902   4.9410343  47.5410364  40.7198535
   3.8104248  47.4080581  41.7178095   0.8858057  42.9200560  38.8377459
   1.7319252  43.3439974  38.9812108   0.8256694  42.2634184  39.5316022
   4.8555801  48.5429144  35.2196191   4.2264664  48.7074858  34.5172259
   4.4681463  48.9570754  35.9907155   8.7345033  49.4783582  32.5740555
   8.0496071  49.8582483  32.0237588   8.8188883  50.0878909  33.3072503
   4.0357502  40.5804929  40.4958633   3.7918434  41.3346989  39.9592909
   4.3117433  40.9590276  41.3305880   5.9895965  47.1243541  39.1735898
   6.2012860  47.7675301  38.4970279   5.9425713  46.2905857  38.7057828
   3.5922194  39.7361362  36.0772471   2.7306673  40.0342615  36.3689208
   3.6184628  39.9531760  35.1453503   7.1041793  50.0015496  37.3458256
   7.9259237  49.5995684  37.0640937   7.1004196  49.8983730  38.2974372
  15.1947786  46.3454245  33.6943227  14.4411494  45.7761643  33.5387232
  15.3295327  46.3116909  34.6413862   0.5846414  51.2167647  29.3697947
   0.4492089  52.0619183  29.7982794   1.1256226  51.4186925  28.6063880
   2.2114890  51.8391214  43.4998289   1.7678744  51.0527592  43.1819193
   2.8732104  52.0270364  42.8342179   4.3096128  52.1194014  41.5279690
   4.2914604  52.9402895  41.0359959   5.2316048  51.9948089  41.7529831
   3.9338877  34.7398209  37.8996840   3.5903147  35.6299851  37.8235951
   4.3017840  34.5499867  37.0366425   3.8989160  44.7306820  26.4069275
   3.3835784  45.5011425  26.6457663   3.6266469  44.0571956  27.0302337
   1.4836271  39.5756521  31.4654514   0.6277868  39.1863371  31.2860152
   1.8963223  39.6548482  30.6054299   3.0135418  37.1102864  35.8646073
   2.5100213  37.0732999  35.0513879   3.3066025  38.0195607  35.9242730
   8.8723434  47.4839175  28.3422449   8.0952877  47.1450334  27.8977611
   9.5514915  47.4891798  27.6677414   3.6875463  42.6033912  28.2329056
   3.3825599  42.9180061  29.0839200   4.6405905  42.6815332  28.2756389
   2.1321895  48.7624135  29.8822010   1.6043257  48.0276895  29.5695248
   1.6309398  49.5398812  29.6361979   7.1114741  46.9573156  34.9989057
   6.4538416  47.6472417  35.0869185   7.9155140  47.3469588  35.3423043
   5.9220200  45.3117529  33.0492998   6.4352082  45.9447520  33.5514708
   6.5721424  44.7118724  32.6836358   3.1842574  55.2901853  25.8053670
   2.5104273  55.5933550  26.4138627   3.5708396  56.0930933  25.4559127
   2.4001031  42.7866984  35.2951339   1.4823592  43.0081931  35.1373027
   2.8161175  42.8613295  34.4363046   3.1836079  44.1858400  30.4254019
   3.9307898  44.6979797  30.1161141   3.4527668  43.8642453  31.2858413
   1.4562729  46.6816941  27.4080973   0.5473948  46.3975973  27.5053443
   1.4857813  47.1016019  26.5484280   6.6881996  50.2923530  31.1772141
   6.2344323  49.4514440  31.2337331   6.0575963  50.9284928  31.5146921
   5.6314916  41.2215516  32.4072808   4.8937673  40.7092902  32.7383051
   5.8841689  40.7815898  31.5956085   5.1314935  52.1300027  32.1121959
   5.4237910  52.6905084  31.3934325   5.6413556  52.4228588  32.8675118
   5.7326543  33.9991768  33.0014578   6.0385420  33.1389132  32.7140493
   6.4579148  34.5909388  32.8013572   1.1538817  48.2225684  24.7469052
   0.7158247  47.5061543  24.2874689   1.8949257  48.4501799  24.1854143
   3.5414194  43.3764445  40.0996042   3.8963582  43.6035919  40.9590507
   4.1886326  43.7082822  39.4773297   9.2711931  46.4982881  30.8045371
   9.1329830  46.6884477  29.8766560   8.9148150  47.2602264  31.2613422
   9.2981311  48.5659408  35.8156642   9.7317818  48.4734697  36.6639696
  10.0112892  48.5416909  35.1776658   3.0309206  52.1661502  37.3489743
   3.0846228  52.7352439  38.1167459   2.1623987  52.3363387  36.9843780
  10.1596861  48.6083109  38.3489527  10.3532751  49.5128919  38.5948802
  10.0597479  48.1490528  39.1828113   1.8133171  38.4941000  40.8479855
   1.1661086  39.1930949  40.7544331   2.5834187  38.9277143  41.2156103
   5.2211969  48.7589852  43.9230408   5.0697476  48.5300403  43.0060492
   5.2116649  49.7160453  43.9361753   1.9897306  46.3321764  38.9076675
   2.9189366  46.4832924  38.7345642   1.5688336  46.4205785  38.0525321
   1.3833789  55.4581525  28.0200749   1.5585545  54.9869569  28.8346371
   0.6966577  56.0847292  28.2482009   2.3390853  49.7354032  34.0664050
   2.0040685  49.6954802  34.9621700   1.8394798  49.0698748  33.5934460
   5.2750044  47.0810066  24.3401110   4.6579215  46.3556894  24.2434162
   4.8066533  47.8419426  23.9968184   6.9304176  51.7908974  42.0006890
   6.8716722  51.1068194  41.3337473   7.3323694  52.5327964  41.5487516
   6.9321583  49.7548558  40.2320870   6.0448362  49.4174480  40.3547269
   7.5020134  49.0231589  40.4689635   3.5609166  39.4616410  33.3519140
   4.0577866  38.7086372  33.0320210   2.7896148  39.4980727  32.7862349
  11.4138924  45.1656776  34.9937431  11.4028800  46.0481491  34.6231364
  10.5456303  44.8128326  34.7991968   2.9221420  54.3136845  39.3540271
   3.6349392  54.9484309  39.2816173   2.4311449  54.4100711  38.5380273
   4.6438947  48.2188097  30.9257563   3.7095226  48.3389560  30.7562267
   4.8215615  47.3160564  30.6617573   8.0311498  44.0605417  31.4607597
   8.4971951  44.8933408  31.3867900   8.4818999  43.5950398  32.1652856
   6.0987729  50.4049238  28.4593749   6.3747573  50.2905832  29.3687623
   5.2292228  50.0066723  28.4205922   6.0028161  36.4286004  35.4998499
   5.0891241  36.6590230  35.6680706   6.4321263  36.5124448  36.3512531
   5.7734620  44.6175896  37.9998393   5.1206070  44.8651803  37.3450845
   6.1514999  43.8040034  37.6660870   2.7341793  54.6535589  32.1026563
   2.9164188  53.8357245  32.5654315   3.5574779  54.8703281  31.6651453
   3.0683959  53.5803774  29.3641611   3.5971725  53.0696228  28.7511774
   3.3312179  53.2646304  30.2287144   1.8222193  45.3595707  44.4864430
   1.1462830  45.2589836  45.1566805   2.6449826  45.2034920  44.9500427
   0.5644975  56.6662634  38.7222046   1.1163284  56.8294256  39.4871131
   0.9051169  57.2567072  38.0502071   5.4155850  51.4923892  44.5770700
   5.9595754  52.1053850  44.0825655   4.8342695  52.0503470  45.0937713
   3.7013363  54.6144610  35.7085728   3.5764502  53.8134349  35.1996673
   4.3592454  55.1090803  35.2199698   5.7648271  52.4153630  37.3365278
   4.8178607  52.2958981  37.2643605   6.1131044  51.5276128  37.4191539
   2.7694704  52.2106346  33.5369630   2.6219667  51.2823053  33.7177200
   3.5948198  52.2326437  33.0526705   6.3728826  53.0334905  34.6234503
   7.2975374  52.8277766  34.4858954   6.2044130  52.7851306  35.5323844
   2.7656219  40.0644183  28.5301747   2.9819833  40.9468821  28.2290576
   2.2850286  39.6730397  27.8007389   1.2177954  40.4469785  37.2006509
   0.9595732  41.3686856  37.1990839   0.6862994  40.0500219  37.8906973
   6.1624143  53.5520572  29.9796594   6.3361020  52.9866995  29.2270447
   6.6553034  54.3521467  29.7976084   1.6379909  36.5801735  33.5607672
   1.6601606  36.6441069  32.6059651   2.0547968  35.7406244  33.7548178
  12.0163534  46.3156995  31.5986894  12.4594680  45.5664320  31.2006017
  11.1390044  46.3067131  31.2160626   7.1499315  52.8687336  27.0793493
   7.8450220  53.4894029  27.2980807   7.4922465  52.0182688  27.3545871
   9.0490738  50.3187042  28.6080823   9.5742062  50.6574315  27.8830143
   8.9613091  49.3834057  28.4243958   0.7110787  54.2321116  40.7370700
   1.0197913  53.9870262  41.6093400   1.5086269  54.4367754  40.2489570
   8.7384644  50.9519946  43.9132021   7.9480188  50.9344084  43.3736521
   8.5017999  51.4908239  44.6681058   8.8582519  47.8012412  41.2264750
   8.9080524  47.6362419  42.1680273   8.7496443  46.9339671  40.8362631
   6.1486282  43.7843340  42.5424057   7.0496144  43.6449805  42.2508054
   6.2234256  43.9497795  43.4822234  10.3600716  50.2209353  41.4706772
  10.0685524  50.5839334  42.3070232   9.7472847  49.5076362  41.2920104
  11.5596398  47.7862233  33.9909342  12.3943290  48.2252037  34.1546902
  11.6955527  47.3100886  33.1717588   8.6087904  45.3441968  39.9386829
   9.0842026  45.5369614  39.1305681   7.6853470  45.4001154  39.6930213
   3.1868121  37.3789812  38.9042663   3.7050065  38.1150839  38.5789152
   2.8323254  37.6853805  39.7389423   3.4380715  33.7990094  34.4243560
   3.7182469  33.1313283  35.0503987   4.2231322  33.9919190  33.9118224
   1.2414183  52.9749088  25.9868586   0.6688151  53.5939275  25.5339058
   1.8146977  53.5248450  26.5208508   7.3089573  42.2207728  38.1715135
   8.2606996  42.3205826  38.1927359   7.1393024  41.4285997  38.6813219
   5.3303953  39.3063311  38.3574536   4.7353885  39.5868324  37.6621025
   5.0453649  39.7957212  39.1291277   4.4611443  53.2586238  27.1177169
   5.3942116  53.1931800  27.3210044   4.3734656  54.0942505  26.6591701
   7.0899460  52.5752109  24.0781116   7.0113091  52.2411972  24.9716874
   7.9109127  53.0673876  24.0772588   9.7877651  45.4413848  37.2857435
   9.7553971  44.5029849  37.4717119  10.3978275  45.5197885  36.5523260
   1.6260982  44.3109901  23.3284639   2.5720087  44.1816109  23.3973057
   1.2475227  43.5724563  23.8054067   9.9372140  42.2324891  37.3315718
   9.4211188  41.4483348  37.1445647  10.8212088  41.9043608  37.4962237
   7.5982866  35.9765907  33.2911531   7.4007688  35.6680995  34.1754863
   8.2082572  36.7027546  33.4209460  15.6054201  46.5029855  36.4263472
  16.3357589  46.2415143  36.9871175  14.9961146  45.7658577  36.4665540
  13.6869498  44.6437717  37.0237923  12.9602662  44.5093682  36.4154414
  13.2716785  44.9514546  37.8294641   1.5099674  48.3627647  44.7885296
   2.4302684  48.5406246  44.9825342   1.4749258  47.4183692  44.6364995
   1.4265965  36.7796767  29.4183765   0.6166693  36.4343852  29.7939011
   2.1150382  36.4704311  30.0071377   3.3556513  35.8574814  31.0408062
   3.9087552  36.2770267  31.6998085   3.5926599  34.9310562  31.0831018
   6.7335320  37.9675339  30.5486726   6.1533989  38.6260143  30.1664779
   6.4671253  37.1452684  30.1374144   5.1838887  37.3680397  32.7508047
   5.6838665  37.4796931  31.9422365   5.8274494  37.0641449  33.3908855
   5.5160198  40.1275429  29.6043074   4.6286053  40.4125080  29.3863269
   5.9314187  39.9669193  28.7570351   8.8674734  40.1521950  33.3197414
   9.6435124  40.6418403  33.5922031   8.1422869  40.5780004  33.7769283
  11.3047293  40.8649570  34.3771354  11.8991784  40.6245305  33.6664663
  11.3773877  40.1456700  35.0044891   4.6603412  49.8920104  23.6991094
   5.3639262  50.0970106  24.3148750   3.9366060  50.4596866  23.9640178
   5.4901222  45.6429965  29.8193365   5.4336423  46.0998517  28.9800997
   6.0429564  44.8820650  29.6416207   9.3006028  41.4319697  30.6443484
   9.0442962  41.0316333  31.4751692   8.6758896  42.1463491  30.5193623
  13.6118366  44.1715770  33.1514776  13.0517924  44.2408960  33.9246338
  13.0061869  43.9956755  32.4314272   6.5690109  50.3302633  25.7489555
   7.4035713  49.8983832  25.5667029   6.4074452  50.1584647  26.6766449
   6.2236001  46.8334747  27.1145894   6.1684805  46.6679018  26.1734338
   5.5982057  47.5410779  27.2708084   3.5381908  49.1383658  46.4399457
   4.4073068  49.3124311  46.0786092   3.0588660  49.9578075  46.3175186
   3.3484246  32.9285632  30.9477149   2.5816642  32.3744119  31.0933831
   3.7594951  33.0007501  31.8091301  15.1974384  60.8472284  35.8444731
  15.8352794  60.7279032  35.1408071  15.0795227  61.7953128  35.9032683
  12.0064090  60.7999712  35.7806256  11.6682602  60.6840777  34.8926791
  12.8753859  60.3990877  35.7607262   7.8650906  62.6535189  31.7703147
   7.3015771  62.5625126  31.0019435   7.7503301  61.8335093  32.2505639
  12.4883873  61.9534564  41.7392461  12.4772514  61.5587362  40.8672965
  12.6504513  61.2200637  42.3326233   5.4115338  64.1486380  34.6087367
   6.2036630  63.8077205  34.1933667   5.6511988  64.2581355  35.5289521
  13.4450465  66.3206157  27.0817612  12.7938445  66.9060237  26.6951626
  14.2394828  66.8512351  27.1412649   7.3706092  63.4095294  27.4804746
   8.1436968  62.8624281  27.3417622   7.7231491  64.2739543  27.6919208
   9.2091135  64.7371676  40.6871645   8.9181001  65.6417307  40.5718312
   9.8448119  64.7788204  41.4015715  10.1347341  62.1148524  37.2773005
  10.7310914  61.8904547  36.5629968  10.1922313  61.3733270  37.8798453
   9.7072370  59.5687960  25.1123196   9.9597891  59.0469481  24.3506659
   8.7696929  59.4054105  25.2149880  14.7515653  58.5723738  32.9197939
  15.5378742  58.1543161  32.5688356  15.0154357  59.4769830  33.0879588
  14.9225730  64.0096588  27.6186596  14.2871563  64.0831215  28.3307501
  14.5923136  64.5990187  26.9405675  20.1524080  58.5098971  33.8230918
  20.8849252  57.9398188  34.0568747  19.3963436  58.1220572  34.2637423
   9.4268659  61.4716066  27.3147571   9.3104917  60.7960969  27.9828655
   9.5370918  60.9848440  26.4979724  11.7700200  60.9326213  31.0194260
  11.4058407  60.4056834  31.7307182  12.6267315  60.5424682  30.8460746
  17.6749500  52.2220545  38.2825526  17.3432825  53.0915956  38.0586741
  17.0795114  51.9056829  38.9619557  11.4105687  55.9616113  26.0155609
  11.5780089  56.8296349  26.3826080  11.2202856  56.1243394  25.0916898
  14.1681020  64.4233091  37.6821439  13.8681743  65.3258130  37.5737246
  13.8232079  64.1565275  38.5342592   7.6193501  60.8746888  33.7158144
   6.6943998  60.7423102  33.9235835   7.8677914  61.6541108  34.2128086
  17.5678163  56.9415632  35.3618876  16.6595041  56.8731040  35.0677637
  17.5165759  57.4187577  36.1900702  11.3894907  58.4173770  27.0002276
  11.2694533  58.8630821  27.8387756  10.6947496  58.7659088  26.4415814
   4.9802312  60.5180162  34.5501933   5.1094693  60.7714641  35.4641344
   4.2999764  61.1107870  34.2306588   9.1501799  71.1877412  30.6492407
   9.0725829  72.1385237  30.7280887   8.5463443  70.8423284  31.3067333
  11.6419029  58.3605277  43.3053774  10.8652363  58.9199197  43.2956638
  12.2809592  58.8462060  43.8268644  19.4339810  55.1432070  37.1396750
  18.7914190  55.4364603  36.4936545  18.9294738  55.0284990  37.9449947
  17.0879974  58.8895243  27.8282610  17.9997830  59.1222630  27.6530307
  16.5789621  59.4732287  27.2657688   9.8965402  61.1690731  42.8671741
  10.6380086  61.7075775  42.5906564   9.1902387  61.7957019  43.0243293
  15.3720741  63.3119871  41.4643902  15.7804097  62.8702282  40.7198535
  14.6498003  62.7372499  41.7178095  11.7251811  58.2492478  38.8377459
  12.5713006  58.6731891  38.9812108  11.6650449  57.5926102  39.5316022
  15.6949556  63.8721062  35.2196191  15.0658418  64.0366776  34.5172259
  15.3075218  64.2862671  35.9907155  19.5738788  64.8075500  32.5740555
  18.8889826  65.1874401  32.0237588  19.6582637  65.4170826  33.3072503
  14.8751257  55.9096846  40.4958633  14.6312188  56.6638907  39.9592909
  15.1511187  56.2882194  41.3305880  16.8289719  62.4535459  39.1735898
  17.0406615  63.0967218  38.4970279  16.7819468  61.6197775  38.7057828
  14.4315948  55.0653279  36.0772471  13.5700427  55.3634533  36.3689208
  14.4578383  55.2823678  35.1453503  11.2477518  63.6095470  32.4846276
  11.7115863  63.8883173  31.6950899  10.9834316  62.7078914  32.3019367
   8.1401599  63.1566951  35.4226039   8.7102956  63.5854220  34.7843524
   8.7309711  62.8749536  36.1210225  10.1846404  59.7318622  29.2935841
  10.8870447  60.1839666  29.7609768   9.8527032  59.0902441  29.9215734
   8.6326765  58.3230379  43.6687051   8.0025426  59.0046660  43.9022448
   8.5262853  58.2113460  42.7240189   3.9271738  57.9902175  34.5952975
   3.1370792  58.2459703  34.1193086   4.4182985  58.8050513  34.7005015
  17.9435547  65.3307414  37.3458256  18.7652991  64.9287601  37.0640937
  17.9397950  65.2275648  38.2974372   5.8786483  58.3546754  31.5536452
   5.0817646  58.4665448  32.0719947   5.6512075  58.6933406  30.6877342
  11.7092151  64.8791457  39.5018966  11.7736583  65.3411865  40.3377138
  11.0003075  64.2488822  39.6301276   2.2109441  58.2432665  37.0267966
   2.4617479  59.1279675  37.2925542   2.7468989  58.0637267  36.2543058
  26.0341540  61.6746162  33.6943227  25.2805249  61.1053561  33.5387232
  26.1689082  61.6408827  34.6413862  11.4240168  66.5459565  29.3697947
  11.2885843  67.3911100  29.7982794  11.9649981  66.7478842  28.6063880
   7.9107508  52.6251145  46.0312302   7.5174454  52.0717343  46.7059946
   8.7273648  52.9361723  46.4218819   4.8769566  64.0635003  29.9425872
   5.3894086  64.8578253  30.0931436   5.5292279  63.3661293  29.8759473
   6.6864450  67.1800759  32.0248625   6.8631079  68.1018724  31.8369609
   7.4821284  66.8659178  32.4543005  10.8275469  54.0409024  43.6232558
  11.5685182  54.6416177  43.5437021  11.0593392  53.2986661  43.0650601
   5.9716807  59.2265391  41.9010788   5.8570322  58.3250648  42.2017887
   5.1161325  59.4729088  41.5495605  13.0508645  67.1683131  43.4998289
  12.6072499  66.3819510  43.1819193  13.7125858  67.3562282  42.8342179
   7.8095766  68.6978933  38.0258967   8.3603191  68.5695996  37.2535961
   6.9707242  68.9973822  37.6753860  15.1489883  67.4485931  41.5279690
  15.1308358  68.2694812  41.0359959  16.0709803  67.3240006  41.7529831
  11.6062937  64.9630061  42.3703198  12.1391274  64.2018349  42.1402506
  11.0777018  64.6703712  43.1127353  14.7732632  50.0690127  37.8996840
  14.4296901  50.9591768  37.8235951  15.1411595  49.8791784  37.0366425
   2.8418483  62.3923657  30.7185442   3.6793705  62.8020665  30.5019150
   3.0196750  61.4523099  30.6885636  14.7382915  60.0598738  26.4069275
  14.2229538  60.8303342  26.6457663  14.4660223  59.3863874  27.0302337
  12.3230026  54.9048439  31.4654514  11.4671622  54.5155289  31.2860152
  12.7356977  54.9840399  30.6054299  13.8529172  52.4394782  35.8646073
  13.3493968  52.4024917  35.0513879  14.1459779  53.3487525  35.9242730
  10.0972058  52.5233512  34.8712255  10.9625055  52.3276320  34.5118144
  10.1649567  52.2943863  35.7981612  19.7117189  62.8131092  28.3422449
  18.9346632  62.4742252  27.8977611  20.3908670  62.8183716  27.6677414
  14.5269218  57.9325830  28.2329056  14.2219353  58.2471979  29.0839200
  15.4799660  58.0107250  28.2756389  12.9715650  64.0916053  29.8822010
  12.4437011  63.3568813  29.5695248  12.4703152  64.8690730  29.6361979
  17.9508496  62.2865074  34.9989057  17.2932170  62.9764335  35.0869185
  18.7548895  62.6761506  35.3423043   7.7034377  54.7535719  32.2428622
   8.2778129  54.5310901  31.5101815   8.2905360  54.8224414  32.9957223
  16.7613955  60.6409446  33.0492998  17.2745836  61.2739438  33.5514708
  17.4115178  60.0410642  32.6836358   8.0303964  56.7840180  26.2624507
   7.1941277  57.1214867  26.5833782   7.8908734  56.6489160  25.3251644
  10.0057045  51.6276968  30.9703691   9.3521457  51.3125986  30.3460306
   9.9637519  51.0052709  31.6963514  11.1168250  61.9096263  22.8856983
  10.2095312  61.6785517  23.0848132  11.6139282  61.1133883  23.0730965
  14.0236329  70.6193771  25.8053670  13.3498028  70.9225467  26.4138627
  14.4102151  71.4222851  25.4559127  13.2394785  58.1158902  35.2951339
  12.3217347  58.3373849  35.1373027  13.6554929  58.1905212  34.4363046
  14.0229833  59.5150318  30.4254019  14.7701652  60.0271715  30.1161141
  14.2921423  59.1934370  31.2858413  12.2956483  62.0108858  27.4080973
  11.3867703  61.7267891  27.5053443  12.3251567  62.4307937  26.5484280
  17.5275751  65.6215448  31.1772141  17.0738078  64.7806358  31.2337331
  16.8969717  66.2576846  31.5146921  16.4708670  56.5507434  32.4072808
  15.7331427  56.0384820  32.7383051  16.7235444  56.1107815  31.5956085
  15.9708690  67.4591944  32.1121959  16.2631664  68.0197002  31.3934325
  16.4807311  67.7520505  32.8675118  16.5720298  49.3283686  33.0014578
  16.8779174  48.4681049  32.7140493  17.2972902  49.9201306  32.8013572
   2.8644654  59.7314372  31.3896176   2.6669054  59.1383733  30.6647242
   2.3091318  59.4266583  32.1072114  10.8441377  59.6237479  33.5090769
  10.8989987  58.6711315  33.4333245  10.0332579  59.7796918  33.9932067
  11.9932571  63.5517602  24.7469052  11.5552001  62.8353461  24.2874689
  12.7343012  63.7793717  24.1854143   8.7833737  58.2414539  31.2681148
   7.9701603  58.5408709  31.6746340   9.2792731  57.8470227  31.9855630
  10.9342315  68.2372296  33.2015412  10.8918494  68.4633142  32.2723944
  11.8505014  68.0035670  33.3501213  14.3807949  58.7056363  40.0996042
  14.7357337  58.9327836  40.9590507  15.0280080  59.0374740  39.4773297
  20.1105686  61.8274799  30.8045371  19.9723584  62.0176395  29.8766560
  19.7541905  62.5894182  31.2613422   8.2747812  55.8132894  36.8842383
   8.9147191  55.6721653  36.1865346   7.4425343  55.5267408  36.5080985
  20.1375066  63.8951326  35.8156642  20.5711572  63.8026615  36.6639696
  20.8506646  63.8708826  35.1776658   9.0508116  65.1135325  32.9977375
   9.8448714  64.6185645  32.7959950   8.3399808  64.5853188  32.6345081
  13.8702960  67.4953420  37.3489743  13.9239983  68.0644356  38.1167459
  13.0017742  67.6655305  36.9843780   5.3590879  59.2578406  29.0737128
   4.4288468  59.1962862  29.2907090   5.4548351  58.7354359  28.2773769
   5.2776428  55.7833219  31.6615369   5.5383246  56.6978552  31.5524530
   6.0993601  55.3157662  31.8111982   6.7501354  57.1970976  38.8314194
   7.4224407  56.9888338  38.1826843   5.9231140  56.9993062  38.3919426
  20.9990615  63.9375027  38.3489527  21.1926505  64.8420837  38.5948802
  20.8991233  63.4782446  39.1828113  12.6526926  53.8232917  40.8479855
  12.0054841  54.5222867  40.7544331  13.4227941  54.2569061  41.2156103
  16.0605724  64.0881769  43.9230408  15.9091230  63.8592321  43.0060492
  16.0510403  65.0452371  43.9361753  12.8291060  61.6613682  38.9076675
  13.7583120  61.8124842  38.7345642  12.4082090  61.7497703  38.0525321
  11.6279392  65.6864347  36.6775212  11.4890478  65.3183131  37.5501150
  10.8393988  66.2011986  36.5059170  12.2227544  70.7873443  28.0200749
  12.3979300  70.3161486  28.8346371  11.5360332  71.4139209  28.2482009
  13.1784607  65.0645949  34.0664050  12.8434440  65.0246719  34.9621700
  12.6788553  64.3990665  33.5934460   7.1528851  60.4713579  39.5916631
   7.0148649  59.7393818  40.1928170   8.0633775  60.3822479  39.3100819
  16.1143799  62.4101984  24.3401110  15.4972969  61.6848812  24.2434162
  15.6460287  63.1711344  23.9968184   9.7811152  60.1833539  39.0800311
  10.4910770  59.5426731  39.0386929   9.7380460  60.4346433  40.0026492
  17.7697930  67.1200892  42.0006890  17.7110477  66.4360112  41.3337473
  18.1717449  67.8619882  41.5487516   8.4940086  57.1698756  40.8995950
   7.9577443  56.7189495  41.5517547   7.9056794  57.3044665  40.1566415
   6.7888629  73.9362806  34.7940609   7.0285227  74.5681330  35.4719627
   5.9457826  73.5850846  35.0805968   7.9042345  56.6287408  23.4622414
   7.0271811  56.5076209  23.0984661   8.3800098  55.8373486  23.2101303
  17.7715338  65.0840476  40.2320870  16.8842116  64.7466398  40.3547269
  18.3413889  64.3523507  40.4689635   4.2279207  56.3054764  37.9848945
   4.1437396  55.6980434  37.2499355   3.4061913  56.7963783  37.9858441
  11.3016491  69.7441928  37.1982113  11.2286663  70.5496900  37.7101417
  10.8593884  69.9433894  36.3730134  11.0906271  68.9813698  30.7084934
  10.3073793  69.5235378  30.8023159  11.7899016  69.4987678  31.1079176
  14.4002921  54.7908328  33.3519140  14.8971620  54.0378290  33.0320210
  13.6289902  54.8272644  32.7862349  22.2532678  60.4948693  34.9937431
  22.2422554  61.3773409  34.6231364  21.3850058  60.1420244  34.7991968
  13.7615175  69.6428762  39.3540271  14.4743147  70.2776227  39.2816173
  13.2705203  69.7392628  38.5380273  15.4832701  63.5480015  30.9257563
  14.5488980  63.6681477  30.7562267  15.6609370  62.6452482  30.6617573
  10.9837890  56.9325711  33.0790824  10.6135677  56.3796751  33.7671730
  11.4796982  56.3283844  32.5265824  18.8705253  59.3897334  31.4607597
  19.3365705  60.2225326  31.3867900  19.3212753  58.9242316  32.1652856
   8.8127088  67.3923206  40.1745842   9.5136548  68.0259689  40.3275237
   8.3422203  67.7337937  39.4141482  16.9381484  65.7341156  28.4593749
  17.2141328  65.6197750  29.3687623  16.0685983  65.3358640  28.4205922
  16.8421916  51.7577921  35.4998499  15.9284995  51.9882148  35.6680706
  17.2715017  51.8416365  36.3512531  16.6128374  59.9467813  37.9998393
  15.9599824  60.1943721  37.3450845  16.9908754  59.1331951  37.6660870
  13.5735548  69.9827506  32.1026563  13.7557942  69.1649162  32.5654315
  14.3968534  70.1995199  31.6651453  13.9077713  68.9095691  29.3641611
  14.4365480  68.3988146  28.7511774  14.1705933  68.5938222  30.2287144
  12.6615947  60.6887624  44.4864430  11.9856584  60.5881754  45.1566805
  13.4843581  60.5326838  44.9500427   4.4094806  66.9259561  37.1076945
   4.9948243  66.1803249  37.2404849   4.2119645  67.2363517  37.9913609
   7.2633461  69.9610808  32.1239387   6.5943837  70.4456936  31.6403427
   7.1246331  70.2080029  33.0382766  11.4038730  71.9954552  38.7222046
  11.9557038  72.1586173  39.4871131  11.7444923  72.5858990  38.0502071
   6.3803223  54.3429702  39.3243930   6.4444550  55.2044532  38.9121328
   6.3170343  53.7303703  38.5916289   5.8555496  56.4152834  42.9716965
   6.4827535  56.0329911  43.5854489   4.9983415  56.1967036  43.3372657
  16.2549604  66.8215809  44.5770700  16.7989508  67.4345767  44.0825655
  15.6736449  67.3795388  45.0937713   2.6321038  58.2229263  28.9035320
   2.9274480  57.3139942  28.8502373   1.7309074  58.2017003  28.5816322
  14.5407117  69.9436527  35.7085728  14.4158257  69.1426267  35.1996673
  15.1986208  70.4382721  35.2199698   6.1615285  56.2985260  34.8862868
   5.4401871  56.9121227  34.7470341   6.9508541  56.8343025  34.8079514
  16.6042026  67.7445547  37.3365278  15.6572361  67.6250898  37.2643605
  16.9524799  66.8568045  37.4191539   8.9641599  53.6339686  41.1603520
   9.4876001  53.8801983  41.9229829   8.7453932  54.4659721  40.7406657
   4.3608880  55.9043361  29.0274645   4.0321586  55.0240740  28.8449751
   4.7148251  55.8491030  29.9151034  13.6088459  67.5398264  33.5369630
  13.4613421  66.6114971  33.7177200  14.4341952  67.5618354  33.0526705
   7.4750703  56.1916331  29.3950122   7.8146776  56.7202252  28.6728731
   7.9222824  56.5296737  30.1708689  17.2122581  68.3626822  34.6234503
  18.1369128  68.1569684  34.4858954  17.0437884  68.1143223  35.5323844
  10.1694144  54.5753381  38.8453190   9.8290964  53.7761194  39.2473870
   9.4633150  54.8755092  38.2730024  10.8210616  51.6602694  37.2980513
  11.6436685  51.1863172  37.1759404  11.0648679  52.4393178  37.7979200
   9.4618850  54.6890952  27.5943415  10.1827213  55.0672205  27.0907132
   8.8384155  55.4079829  27.6978393  13.6049973  55.3936101  28.5301747
  13.8213588  56.2760739  28.2290576  13.1244040  55.0022315  27.8007389
   8.3449195  58.3521814  35.1072492   8.1993775  58.6662117  35.9996774
   7.8674398  58.9706715  34.5543391  10.2045578  55.3424362  35.1553382
  10.1907146  54.4465456  34.8185680  10.9218006  55.3495026  35.7891668
  12.0571708  55.7761703  37.2006509  11.7989486  56.6978773  37.1990839
  11.5256749  55.3792137  37.8906973  17.0017897  68.8812490  29.9796594
  17.1754775  68.3158912  29.2270447  17.4946788  69.6813385  29.7976084
   2.8194857  60.8927159  38.0460153   2.2748325  61.6686967  38.1780428
   3.6974207  61.2397963  37.8879275   9.6082473  54.2238743  30.4240952
   9.7298385  53.2955389  30.6231839   9.3184516  54.2377429  29.5119267
  12.4773664  51.9093653  33.5607672  12.4995361  51.9732986  32.6059651
  12.8941723  51.0698162  33.7548178  22.8557288  61.6448913  31.5986894
  23.2988434  60.8956238  31.2006017  21.9783798  61.6359049  31.2160626
  17.9893069  68.1979254  27.0793493  18.6843974  68.8185947  27.2980807
  18.3316220  67.3474605  27.3545871   3.6060879  60.0197055  40.9390310
   2.8642615  60.1679690  41.5254941   3.2853623  60.2805321  40.0757060
  19.8884493  65.6478960  28.6080823  20.4135817  65.9866232  27.8830143
  19.8006845  64.7125975  28.4243958  11.5504541  69.5613033  40.7370700
  11.8591668  69.3162180  41.6093400  12.3480023  69.7659672  40.2489570
  11.5725153  71.7150943  32.9676077  11.1330144  71.2227322  33.6608933
  12.3233270  71.1723911  32.7268152   4.0517492  67.9062484  32.9700705
   4.8775512  67.6066256  32.5899348   3.7011544  67.1370106  33.4190493
   9.0199026  67.2588952  35.0398378   8.3979035  66.5959657  34.7400606
   9.6903892  67.2850084  34.3572026   2.2526097  65.8248810  33.9289638
   1.4158006  65.3970985  33.7473640   2.2249743  66.0181254  34.8660430
   9.0923553  55.7370740  44.6330884   9.1411708  56.6132863  44.2508654
   9.6346067  55.1948133  44.0602528  19.5778399  66.2811863  43.9132021
  18.7873942  66.2636002  43.3736521  19.3411753  66.8200157  44.6681058
  19.6976274  63.1304330  41.2264750  19.7474279  62.9654337  42.1680273
  19.5890197  62.2631589  40.8362631   8.5812532  65.8092875  28.5156839
   8.7300653  66.4928340  27.8623512   9.3878976  65.7897965  29.0306295
  16.9880036  59.1135258  42.5424057  17.8889899  58.9741723  42.2508054
  17.0628011  59.2789713  43.4822234  11.3222841  56.4902112  41.3877243
  10.4526151  56.7835678  41.1159832  11.5582322  57.0742557  42.1084507
  21.1994471  65.5501271  41.4706772  20.9079279  65.9131252  42.3070232
  20.5866602  64.8368279  41.2920104  22.3990153  63.1154151  33.9909342
  23.2337044  63.5543955  34.1546902  22.5349282  62.6392804  33.1717588
  19.4481659  60.6733886  39.9386829  19.9235780  60.8661532  39.1305681
  18.5247224  60.7293072  39.6930213   6.3365165  61.8358053  29.5217908
   6.0911207  60.9320383  29.7198118   6.5061080  61.8375203  28.5797386
  14.0261875  52.7081729  38.9042663  14.5443819  53.4442756  38.5789152
  13.6717008  53.0145723  39.7389423   5.6060813  57.5686411  27.0204069
   4.9130058  57.6430766  26.3644105   5.3612565  56.8046754  27.5425586
  14.2774469  49.1282012  34.4243560  14.5576223  48.4605201  35.0503987
  15.0625076  49.3211108  33.9118224  12.0807938  68.3041006  25.9868586
  11.5081905  68.9231193  25.5339058  12.6540732  68.8540367  26.5208508
  18.1483328  57.5499646  38.1715135  19.1000751  57.6497744  38.1927359
  17.9786778  56.7577914  38.6813219  16.1697707  54.6355229  38.3574536
  15.5747639  54.9160242  37.6621025  15.8847404  55.1249130  39.1291277
  15.3005198  68.5878156  27.1177169  16.2335871  68.5223718  27.3210044
  15.2128411  69.4234423  26.6591701  17.9293214  67.9044026  24.0781116
  17.8506846  67.5703890  24.9716874  18.7502881  68.3965794  24.0772588
  20.6271406  60.7705766  37.2857435  20.5947726  59.8321766  37.4717119
  21.2372029  60.8489802  36.5523260  12.4654736  59.6401819  23.3284639
  13.4113841  59.5108027  23.3973057  12.0868981  58.9016480  23.8054067
  20.7765894  57.5616809  37.3315718  20.2604943  56.7775266  37.1445647
  21.6605843  57.2335526  37.4962237  18.4376621  51.3057825  33.2911531
  18.2401442  50.9972913  34.1754863  19.0476327  52.0319463  33.4209460
  26.4447955  61.8321772  36.4263472  27.1751344  61.5707061  36.9871175
  25.8354901  61.0950494  36.4665540  24.5263253  59.9729635  37.0237923
  23.7996416  59.8385600  36.4154414  24.1110539  60.2806464  37.8294641
  12.3493429  63.6919565  44.7885296  13.2696438  63.8698164  44.9825342
  12.3143012  62.7475610  44.6364995  10.6497654  57.5651795  23.2639524
   9.7429109  57.2684908  23.3402238  10.9273635  57.2681613  22.3973810
   1.5675594  58.8858158  33.7138570   1.2478378  58.0323467  33.4212944
   1.0209022  59.1006736  34.4696538   5.3455502  61.6020599  37.4308077
   5.5641511  62.5337707  37.4496111   5.7581275  61.2428574  38.2162881
  12.2659719  52.1088685  29.4183765  11.4560448  51.7635770  29.7939011
  12.9544136  51.7996228  30.0071377  14.1950268  51.1866731  31.0408062
  14.7481306  51.6062185  31.6998085  14.4320354  50.2602480  31.0831018
  10.2183367  57.1753805  46.8210826  10.1180094  58.1248162  46.7522917
  10.0004909  56.8472044  45.9486896   9.4196438  54.4238730  23.4051503
  10.2815602  54.7493628  23.6647321   9.6046782  53.6370226  22.8924569
   1.4363854  62.5061070  35.6831692   0.7427325  62.0915023  35.1701646
   2.1836845  62.5481606  35.0865111  17.5729075  53.2967257  30.5486726
  16.9927744  53.9552061  30.1664779  17.3065007  52.4744601  30.1374144
  16.0232641  52.6972314  32.7508047  16.5232419  52.8088849  31.9422365
  16.6668249  52.3933367  33.3908855  10.0814637  60.6050944  45.6375888
   9.5981719  61.4051304  45.8439777  10.1675576  60.6158889  44.6843332
   3.3500596  62.4379324  33.5597707   3.3271285  62.5367011  32.6079590
   3.6601233  63.2844474  33.8814873   6.0087974  64.4955479  37.6744321
   6.9631228  64.4639421  37.6074253   5.8100498  64.0346102  38.4894547
   6.5987357  63.0656595  40.2415119   7.4180245  63.5600673  40.2649956
   6.8724164  62.1488563  40.2132686  16.3553953  55.4567347  29.6043074
  15.4679808  55.7416998  29.3863269  16.7707942  55.2961110  28.7570351
  19.7068489  55.4813868  33.3197414  20.4828879  55.9710320  33.5922031
  18.9816623  55.9071922  33.7769283  22.1441047  56.1941487  34.3771354
  22.7385538  55.9537223  33.6664663  22.2167631  55.4748618  35.0044891
   4.3638203  70.0375098  34.6914519   4.2292671  69.2775499  34.1252517
   3.9470265  70.7615998  34.2243308  15.4997166  65.2212022  23.6991094
  16.2033016  65.4262024  24.3148750  14.7759815  65.7888784  23.9640178
  16.3294976  60.9721883  29.8193365  16.2730178  61.4290434  28.9800997
  16.8823319  60.2112568  29.6416207  20.1399782  56.7611615  30.6443484
  19.8836717  56.3608250  31.4751692  19.5152650  57.4755409  30.5193623
  24.4512120  59.5007688  33.1514776  23.8911678  59.5700877  33.9246338
  23.8455624  59.3248673  32.4314272   7.5207329  70.9344415  34.9032962
   7.4039713  71.8789848  34.8011652   6.6999775  70.6317977  35.2918761
  17.4083864  65.6594551  25.7489555  18.2429468  65.2275749  25.5667029
  17.2468206  65.4876565  26.6766449  17.0629756  62.1626664  27.1145894
  17.0078560  61.9970936  26.1734338  16.4375811  62.8702697  27.2708084
   1.8522271  57.3994729  40.9407316   2.4981134  56.8893683  41.4294541
   1.6439422  58.1363410  41.5150741  14.3775663  64.4675576  46.4399457
  15.2466823  64.6416228  46.0786092  13.8982414  65.2869993  46.3175186
  10.3725881  51.6634773  26.6931212  10.3604551  52.6076613  26.8499483
  11.2649303  51.4804919  26.3990673   8.5461843  71.5872677  38.1188890
   9.4489090  71.6196287  38.4355385   8.3199213  70.6573128  38.1335226
  10.3015445  70.3403664  34.7798969   9.3511076  70.3405525  34.6663341
  10.6047931  69.5936398  34.2635003  14.1878001  48.2577550  30.9477149
  13.4210396  47.7036037  31.0933831  14.5988706  48.3299419  31.8091301
   6.1919762  54.5462346  45.0382330   7.0551223  54.1899150  45.2485655
   5.6185172  54.2076240  45.7257735  26.0368139  76.1764202  35.8444731
  26.6746549  76.0570949  35.1408071  25.9188982  77.1245046  35.9032683
  22.8457845  76.1291630  35.7806256  22.5076356  76.0132695  34.8926791
  23.7147613  75.7282795  35.7607262  18.7044661  77.9827106  31.7703147
  18.1409526  77.8917043  31.0019435  18.5897056  77.1627011  32.2505639
  23.3277628  77.2826482  41.7392461  23.3166269  76.8879280  40.8672965
  23.4898267  76.5492554  42.3326233  16.2509093  79.4778298  34.6087367
  17.0430385  79.1369123  34.1933667  16.4905743  79.5873273  35.5289521
  24.2844219  81.6498074  27.0817612  23.6332199  82.2352155  26.6951626
  25.0788582  82.1804269  27.1412649  18.2099847  78.7387211  27.4804746
  18.9830723  78.1916198  27.3417622  18.5625245  79.6031461  27.6919208
  20.0484889  80.0663594  40.6871645  19.7574755  80.9709224  40.5718312
  20.6841873  80.1080121  41.4015715  20.9741096  77.4440442  37.2773005
  21.5704668  77.2196465  36.5629968  21.0316067  76.7025188  37.8798453
  20.5466124  74.8979877  25.1123196  20.7991645  74.3761399  24.3506659
  19.6090683  74.7346023  25.2149880  25.5909407  73.9015656  32.9197939
  26.3772496  73.4835079  32.5688356  25.8548111  74.8061748  33.0879588
  25.7619485  79.3388506  27.6186596  25.1265317  79.4123133  28.3307501
  25.4316891  79.9282105  26.9405675  30.9917834  73.8390889  33.8230918
  31.7243006  73.2690106  34.0568747  30.2357190  73.4512489  34.2637423
  20.2662413  76.8007983  27.3147571  20.1498671  76.1252887  27.9828655
  20.3764673  76.3140357  26.4979724  22.6093954  76.2618131  31.0194260
  22.2452161  75.7348751  31.7307182  23.4661070  75.8716600  30.8460746
  28.5143255  67.5512463  38.2825526  28.1826579  68.4207874  38.0586741
  27.9188868  67.2348747  38.9619557  22.2499441  71.2908030  26.0155609
  22.4173843  72.1588267  26.3826080  22.0596610  71.4535312  25.0916898
  25.0074774  79.7525009  37.6821439  24.7075497  80.6550048  37.5737246
  24.6625834  79.4857192  38.5342592  18.4587256  76.2038806  33.7158144
  17.5337752  76.0715020  33.9235835  18.7071669  76.9833025  34.2128086
  28.4071918  72.2707549  35.3618876  27.4988795  72.2022958  35.0677637
  28.3559514  72.7479494  36.1900702  22.2288662  73.7465688  27.0002276
  22.1088287  74.1922738  27.8387756  21.5341250  74.0951005  26.4415814
  15.8196067  75.8472080  34.5501933  15.9488448  76.1006558  35.4641344
  15.1393518  76.4399788  34.2306588  19.9895554  86.5169329  30.6492407
  19.9119584  87.4677155  30.7280887  19.3857198  86.1715202  31.3067333
  22.4812784  73.6897195  43.3053774  21.7046118  74.2491115  43.2956638
  23.1203347  74.1753978  43.8268644  30.2733564  70.4723988  37.1396750
  29.6307945  70.7656521  36.4936545  29.7688493  70.3576908  37.9449947
  27.9273728  74.2187161  27.8282610  28.8391584  74.4514548  27.6530307
  27.4183375  74.8024205  27.2657688  20.7359156  76.4982648  42.8671741
  21.4773840  77.0367692  42.5906564  20.0296142  77.1248937  43.0243293
  26.2114496  78.6411789  41.4643902  26.6197852  78.1994199  40.7198535
  25.4891757  78.0664416  41.7178095  22.5645566  73.5784395  38.8377459
  23.4106761  74.0023809  38.9812108  22.5044203  72.9218020  39.5316022
  26.5343310  79.2012979  35.2196191  25.9052173  79.3658693  34.5172259
  26.1468972  79.6154589  35.9907155  30.4132542  80.1367417  32.5740555
  29.7283580  80.5166319  32.0237588  30.4976392  80.7462744  33.3072503
  25.7145011  71.2388764  40.4958633  25.4705943  71.9930824  39.9592909
  25.9904942  71.6174111  41.3305880  27.6683474  77.7827376  39.1735898
  27.8800369  78.4259136  38.4970279  27.6213222  76.9489693  38.7057828
  25.2709703  70.3945197  36.0772471  24.4094182  70.6926450  36.3689208
  25.2972137  70.6115596  35.1453503  22.0871272  78.9387387  32.4846276
  22.5509618  79.2175090  31.6950899  21.8228070  78.0370832  32.3019367
  18.9795353  78.4858869  35.4226039  19.5496710  78.9146137  34.7843524
  19.5703465  78.2041454  36.1210225  21.0240158  75.0610540  29.2935841
  21.7264202  75.5131583  29.7609768  20.6920787  74.4194359  29.9215734
  19.4720520  73.6522296  43.6687051  18.8419180  74.3338577  43.9022448
  19.3656608  73.5405378  42.7240189  14.7665492  73.3194092  34.5952975
  13.9764546  73.5751621  34.1193086  15.2576740  74.1342430  34.7005015
  28.7829302  80.6599332  37.3458256  29.6046746  80.2579519  37.0640937
  28.7791705  80.5567566  38.2974372  16.7180238  73.6838672  31.5536452
  15.9211401  73.7957366  32.0719947  16.4905830  74.0225324  30.6877342
  22.5485905  80.2083375  39.5018966  22.6130338  80.6703782  40.3377138
  21.8396829  79.5780740  39.6301276  13.0503195  73.5724583  37.0267966
  13.3011234  74.4571593  37.2925542  13.5862744  73.3929184  36.2543058
  36.8735295  77.0038080  33.6943227  36.1199003  76.4345478  33.5387232
  37.0082836  76.9700745  34.6413862  22.2633923  81.8751482  29.3697947
  22.1279598  82.7203018  29.7982794  22.8043735  82.0770760  28.6063880
  18.7501263  67.9543062  46.0312302  18.3568208  67.4009261  46.7059946
  19.5667403  68.2653641  46.4218819  15.7163320  79.3926920  29.9425872
  16.2287841  80.1870171  30.0931436  16.3686033  78.6953211  29.8759473
  17.5258205  82.5092677  32.0248625  17.7024833  83.4310641  31.8369609
  18.3215039  82.1951096  32.4543005  21.6669224  69.3700941  43.6232558
  22.4078937  69.9708095  43.5437021  21.8987146  68.6278579  43.0650601
  16.8110562  74.5557309  41.9010788  16.6964077  73.6542566  42.2017887
  15.9555079  74.8021005  41.5495605  23.8902399  82.4975049  43.4998289
  23.4466253  81.7111428  43.1819193  24.5519613  82.6854199  42.8342179
  18.6489520  84.0270851  38.0258967  19.1996946  83.8987914  37.2535961
  17.8100996  84.3265740  37.6753860  25.9883637  82.7777849  41.5279690
  25.9702113  83.5986730  41.0359959  26.9103557  82.6531924  41.7529831
  22.4456691  80.2921978  42.3703198  22.9785028  79.5310267  42.1402506
  21.9170773  79.9995630  43.1127353  25.6126386  65.3982044  37.8996840
  25.2690656  66.2883686  37.8235951  25.9805349  65.2083702  37.0366425
  13.6812237  77.7215575  30.7185442  14.5187459  78.1312583  30.5019150
  13.8590505  76.7815017  30.6885636  25.5776669  75.3890655  26.4069275
  25.0623293  76.1595260  26.6457663  25.3053978  74.7155792  27.0302337
  23.1623780  70.2340356  31.4654514  22.3065377  69.8447207  31.2860152
  23.5750732  70.3132317  30.6054299  24.6922927  67.7686699  35.8646073
  24.1887722  67.7316835  35.0513879  24.9853534  68.6779442  35.9242730
  20.9365813  67.8525429  34.8712255  21.8018810  67.6568238  34.5118144
  21.0043322  67.6235781  35.7981612  30.5510943  78.1423010  28.3422449
  29.7740386  77.8034170  27.8977611  31.2302424  78.1475633  27.6677414
  25.3662972  73.2617748  28.2329056  25.0613108  73.5763897  29.0839200
  26.3193414  73.3399167  28.2756389  23.8109404  79.4207971  29.8822010
  23.2830766  78.6860730  29.5695248  23.3096907  80.1982647  29.6361979
  28.7902250  77.6156991  34.9989057  28.1325925  78.3056253  35.0869185
  29.5942649  78.0053423  35.3423043  18.5428132  70.0827637  32.2428622
  19.1171884  69.8602819  31.5101815  19.1299114  70.1516332  32.9957223
  27.6007709  75.9701364  33.0492998  28.1139591  76.6031356  33.5514708
  28.2508933  75.3702560  32.6836358  18.8697719  72.1132098  26.2624507
  18.0335031  72.4506785  26.5833782  18.7302489  71.9781078  25.3251644
  20.8450800  66.9568886  30.9703691  20.1915212  66.6417903  30.3460306
  20.8031274  66.3344626  31.6963514  21.9562004  77.2388181  22.8856983
  21.0489066  77.0077435  23.0848132  22.4533036  76.4425800  23.0730965
  24.8630083  85.9485688  25.8053670  24.1891782  86.2517385  26.4138627
  25.2495905  86.7514769  25.4559127  24.0788540  73.4450820  35.2951339
  23.1611101  73.6665767  35.1373027  24.4948684  73.5197130  34.4363046
  24.8623588  74.8442235  30.4254019  25.6095407  75.3563632  30.1161141
  25.1315177  74.5226288  31.2858413  23.1350238  77.3400776  27.4080973
  22.2261457  77.0559809  27.5053443  23.1645322  77.7599855  26.5484280
  28.3669505  80.9507365  31.1772141  27.9131832  80.1098275  31.2337331
  27.7363472  81.5868764  31.5146921  27.3102425  71.8799351  32.4072808
  26.5725182  71.3676738  32.7383051  27.5629198  71.4399733  31.5956085
  26.8102444  82.7883862  32.1121959  27.1025419  83.3488919  31.3934325
  27.3201065  83.0812423  32.8675118  27.4114052  64.6575604  33.0014578
  27.7172929  63.7972967  32.7140493  28.1366657  65.2493224  32.8013572
  13.7038408  75.0606290  31.3896176  13.5062808  74.4675651  30.6647242
  13.1485072  74.7558500  32.1072114  21.6835132  74.9529397  33.5090769
  21.7383742  74.0003233  33.4333245  20.8726334  75.1088836  33.9932067
  22.8326326  78.8809520  24.7469052  22.3945756  78.1645379  24.2874689
  23.5736766  79.1085634  24.1854143  19.6227492  73.5706456  31.2681148
  18.8095357  73.8700627  31.6746340  20.1186486  73.1762145  31.9855630
  21.7736070  83.5664213  33.2015412  21.7312248  83.7925060  32.2723944
  22.6898769  83.3327588  33.3501213  25.2201703  74.0348281  40.0996042
  25.5751091  74.2619754  40.9590507  25.8673835  74.3666658  39.4773297
  30.9499440  77.1566717  30.8045371  30.8117339  77.3468313  29.8766560
  30.5935659  77.9186099  31.2613422  19.1141567  71.1424812  36.8842383
  19.7540946  71.0013571  36.1865346  18.2819097  70.8559325  36.5080985
  30.9768820  79.2243244  35.8156642  31.4105327  79.1318533  36.6639696
  31.6900401  79.2000744  35.1776658  19.8901870  80.4427242  32.9977375
  20.6842469  79.9477562  32.7959950  19.1793563  79.9145105  32.6345081
  24.7096715  82.8245338  37.3489743  24.7633737  83.3936274  38.1167459
  23.8411496  82.9947223  36.9843780  16.1984634  74.5870324  29.0737128
  15.2682222  74.5254779  29.2907090  16.2942106  74.0646277  28.2773769
  16.1170183  71.1125137  31.6615369  16.3777000  72.0270470  31.5524530
  16.9387355  70.6449579  31.8111982  17.5895108  72.5262894  38.8314194
  18.2618162  72.3180256  38.1826843  16.7624895  72.3284980  38.3919426
  31.8384370  79.2666944  38.3489527  32.0320260  80.1712755  38.5948802
  31.7384988  78.8074363  39.1828113  23.4920680  69.1524835  40.8479855
  22.8448595  69.8514785  40.7544331  24.2621696  69.5860979  41.2156103
  26.8999478  79.4173687  43.9230408  26.7484985  79.1884239  43.0060492
  26.8904158  80.3744289  43.9361753  23.6684815  76.9905600  38.9076675
  24.5976875  77.1416759  38.7345642  23.2475845  77.0789621  38.0525321
  22.4673146  81.0156264  36.6775212  22.3284232  80.6475049  37.5501150
  21.6787743  81.5303904  36.5059170  23.0621298  86.1165361  28.0200749
  23.2373054  85.6453404  28.8346371  22.3754086  86.7431127  28.2482009
  24.0178362  80.3937867  34.0664050  23.6828194  80.3538637  34.9621700
  23.5182307  79.7282583  33.5934460  17.9922606  75.8005497  39.5916631
  17.8542403  75.0685736  40.1928170  18.9027529  75.7114397  39.3100819
  26.9537553  77.7393901  24.3401110  26.3366724  77.0140729  24.2434162
  26.4854042  78.5003262  23.9968184  20.6204906  75.5125456  39.0800311
  21.3304525  74.8718648  39.0386929  20.5774214  75.7638351  40.0026492
  28.6091685  82.4492810  42.0006890  28.5504231  81.7652030  41.3337473
  29.0111203  83.1911800  41.5487516  19.3333840  72.4990674  40.8995950
  18.7971197  72.0481413  41.5517547  18.7450549  72.6336583  40.1566415
  17.6282384  89.2654723  34.7940609  17.8678982  89.8973248  35.4719627
  16.7851580  88.9142763  35.0805968  18.7436099  71.9579326  23.4622414
  17.8665565  71.8368126  23.0984661  19.2193852  71.1665404  23.2101303
  28.6109092  80.4132394  40.2320870  27.7235871  80.0758315  40.3547269
  29.1807643  79.6815425  40.4689635  10.2638239  76.7456485  33.5563921
  10.9509279  76.4318215  32.9684936  10.1086368  77.6497850  33.2831172
  15.0672961  71.6346682  37.9848945  14.9831150  71.0272351  37.2499355
  14.2455668  72.1255700  37.9858441  22.1410246  85.0733846  37.1982113
  22.0680417  85.8788817  37.7101417  21.6987639  85.2725812  36.3730134
  21.9300025  84.3105616  30.7084934  21.1467547  84.8527296  30.8023159
  22.6292770  84.8279596  31.1079176  25.2396675  70.1200245  33.3519140
  25.7365375  69.3670208  33.0320210  24.4683657  70.1564562  32.7862349
  33.0926433  75.8240611  34.9937431  33.0816309  76.7065326  34.6231364
  32.2243812  75.4712162  34.7991968  24.6008929  84.9720680  39.3540271
  25.3136901  85.6068145  39.2816173  24.1098958  85.0684546  38.5380273
  26.3226456  78.8771933  30.9257563  25.3882735  78.9973395  30.7562267
  26.5003124  77.9744399  30.6617573  21.8231644  72.2617628  33.0790824
  21.4529432  71.7088669  33.7671730  22.3190736  71.6575762  32.5265824
  29.7099007  74.7189252  31.4607597  30.1759460  75.5517243  31.3867900
  30.1606508  74.2534233  32.1652856  19.6520843  82.7215123  40.1745842
  20.3530302  83.3551606  40.3275237  19.1815958  83.0629855  39.4141482
  27.7775238  81.0633073  28.4593749  28.0535082  80.9489668  29.3687623
  26.9079737  80.6650558  28.4205922  27.6815670  67.0869839  35.4998499
  26.7678750  67.3174066  35.6680706  28.1108772  67.1708283  36.3512531
  27.4522129  75.2759731  37.9998393  26.7993579  75.5235638  37.3450845
  27.8302508  74.4623869  37.6660870  24.4129302  85.3119424  32.1026563
  24.5951697  84.4941080  32.5654315  25.2362288  85.5287116  31.6651453
  24.7471468  84.2387609  29.3641611  25.2759234  83.7280064  28.7511774
  25.0099688  83.9230139  30.2287144  23.5009702  76.0179542  44.4864430
  22.8250339  75.9173671  45.1566805  24.3237335  75.8618756  44.9500427
  15.2488561  82.2551478  37.1076945  15.8341997  81.5095166  37.2404849
  15.0513399  82.5655435  37.9913609  18.1027216  85.2902726  32.1239387
  17.4337591  85.7748853  31.6403427  17.9640086  85.5371946  33.0382766
   9.8406215  74.8257079  35.8281388   9.8790315  74.2920669  36.6218506
   9.3346508  74.2992284  35.2092365  22.2432484  87.3246469  38.7222046
  22.7950793  87.4878091  39.4871131  22.5838678  87.9150907  38.0502071
  17.2196978  69.6721619  39.3243930  17.2838304  70.5336450  38.9121328
  17.1564098  69.0595621  38.5916289  16.6949250  71.7444752  42.9716965
  17.3221289  71.3621829  43.5854489  15.8377169  71.5258954  43.3372657
  27.0943359  82.1507727  44.5770700  27.6383263  82.7637685  44.0825655
  26.5130204  82.7087305  45.0937713  13.4714793  73.5521181  28.9035320
  13.7668234  72.6431859  28.8502373  12.5702829  73.5308920  28.5816322
  25.3800872  85.2728445  35.7085728  25.2552011  84.4718185  35.1996673
  26.0379963  85.7674638  35.2199698  17.0009040  71.6277177  34.8862868
  16.2795626  72.2413145  34.7470341  17.7902296  72.1634942  34.8079514
  27.4435780  83.0737465  37.3365278  26.4966116  82.9542816  37.2643605
  27.7918553  82.1859963  37.4191539  19.8035354  68.9631604  41.1603520
  20.3269755  69.2093900  41.9229829  19.5847687  69.7951639  40.7406657
  15.2002635  71.2335278  29.0274645  14.8715341  70.3532657  28.8449751
  15.5542005  71.1782947  29.9151034  24.4482213  82.8690181  33.5369630
  24.3007176  81.9406889  33.7177200  25.2735707  82.8910272  33.0526705
  18.3144458  71.5208248  29.3950122  18.6540530  72.0494170  28.6728731
  18.7616578  71.8588654  30.1708689  28.0516335  83.6918740  34.6234503
  28.9762883  83.4861601  34.4858954  27.8831639  83.4435141  35.5323844
  21.0087899  69.9045299  38.8453190  20.6684719  69.1053112  39.2473870
  20.3026905  70.2047010  38.2730024  21.6604370  66.9894611  37.2980513
  22.4830440  66.5155090  37.1759404  21.9042434  67.7685095  37.7979200
  20.3012605  70.0182870  27.5943415  21.0220967  70.3964123  27.0907132
  19.6777909  70.7371747  27.6978393  24.4443728  70.7228019  28.5301747
  24.6607342  71.6052657  28.2290576  23.9637795  70.3314232  27.8007389
  19.1842949  73.6813732  35.1072492  19.0387530  73.9954035  35.9996774
  18.7068153  74.2998632  34.5543391  21.0439332  70.6716280  35.1553382
  21.0300901  69.7757373  34.8185680  21.7611760  70.6786944  35.7891668
  22.8965463  71.1053620  37.2006509  22.6383241  72.0270691  37.1990839
  22.3650503  70.7084055  37.8906973  27.8411651  84.2104407  29.9796594
  28.0148529  83.6450830  29.2270447  28.3340543  85.0105302  29.7976084
  13.6588611  76.2219076  38.0460153  13.1142079  76.9978884  38.1780428
  14.5367961  76.5689881  37.8879275  20.4476228  69.5530660  30.4240952
  20.5692139  68.6247307  30.6231839  20.1578270  69.5669346  29.5119267
  23.3167418  67.2385571  33.5607672  23.3389115  67.3024904  32.6059651
  23.7335477  66.3990079  33.7548178  33.6951043  76.9740830  31.5986894
  34.1382189  76.2248156  31.2006017  32.8177553  76.9650967  31.2160626
  28.8286824  83.5271172  27.0793493  29.5237729  84.1477864  27.2980807
  29.1709974  82.6766523  27.3545871  14.4454633  75.3488973  40.9390310
  13.7036369  75.4971608  41.5254941  14.1247377  75.6097238  40.0757060
  30.7278247  80.9770877  28.6080823  31.2529571  81.3158150  27.8830143
  30.6400600  80.0417893  28.4243958  22.3898296  84.8904951  40.7370700
  22.6985422  84.6454098  41.6093400  23.1873778  85.0951589  40.2489570
  22.4118908  87.0442861  32.9676077  21.9723898  86.5519239  33.6608933
  23.1627025  86.5015828  32.7268152  14.8911247  83.2354401  32.9700705
  15.7169267  82.9358173  32.5899348  14.5405299  82.4662024  33.4190493
  19.8592780  82.5880870  35.0398378  19.2372789  81.9251575  34.7400606
  20.5297647  82.6142002  34.3572026  13.0919852  81.1540728  33.9289638
  12.2551760  80.7262902  33.7473640  13.0643497  81.3473171  34.8660430
  19.9317307  71.0662658  44.6330884  19.9805463  71.9424781  44.2508654
  20.4739822  70.5240051  44.0602528  30.4172153  81.6103781  43.9132021
  29.6267697  81.5927920  43.3736521  30.1805508  82.1492075  44.6681058
  30.5370028  78.4596247  41.2264750  30.5868033  78.2946255  42.1680273
  30.4283952  77.5923506  40.8362631  19.4206287  81.1384793  28.5156839
  19.5694407  81.8220257  27.8623512  20.2272730  81.1189883  29.0306295
  27.8273791  74.4427175  42.5424057  28.7283653  74.3033640  42.2508054
  27.9021765  74.6081630  43.4822234  22.1616596  71.8194030  41.3877243
  21.2919905  72.1127596  41.1159832  22.3976076  72.4034475  42.1084507
  32.0388225  80.8793189  41.4706772  31.7473033  81.2423169  42.3070232
  31.4260356  80.1660197  41.2920104  33.2383907  78.4446069  33.9909342
  34.0730799  78.8835873  34.1546902  33.3743036  77.9684722  33.1717588
  30.2875413  76.0025803  39.9386829  30.7629535  76.1953450  39.1305681
  29.3640979  76.0584989  39.6930213  17.1758920  77.1649971  29.5217908
  16.9304962  76.2612301  29.7198118  17.3454834  77.1667121  28.5797386
  24.8655630  68.0373647  38.9042663  25.3837574  68.7734674  38.5789152
  24.5110763  68.3437640  39.7389423  16.4454567  72.8978328  27.0204069
  15.7523812  72.9722683  26.3644105  16.2006319  72.1338672  27.5425586
  25.1168224  64.4573930  34.4243560  25.3969978  63.7897119  35.0503987
  25.9018831  64.6503025  33.9118224  22.9201692  83.6332923  25.9868586
  22.3475660  84.2523111  25.5339058  23.4934486  84.1832285  26.5208508
  28.9877082  72.8791564  38.1715135  29.9394505  72.9789661  38.1927359
  28.8180533  72.0869832  38.6813219  27.0091462  69.9647147  38.3574536
  26.4141394  70.2452159  37.6621025  26.7241158  70.4541048  39.1291277
  26.1398952  83.9170074  27.1177169  27.0729625  83.8515635  27.3210044
  26.0522165  84.7526340  26.6591701  28.7686969  83.2335944  24.0781116
  28.6900600  82.8995808  24.9716874  29.5896636  83.7257712  24.0772588
  31.4665160  76.0997683  37.2857435  31.4341480  75.1613684  37.4717119
  32.0765784  76.1781720  36.5523260  23.3048491  74.9693736  23.3284639
  24.2507596  74.8399944  23.3973057  22.9262736  74.2308398  23.8054067
  31.6159649  72.8908727  37.3315718  31.0998697  72.1067183  37.1445647
  32.4999597  72.5627443  37.4962237  29.2770375  66.6349742  33.2911531
  29.0795197  66.3264830  34.1754863  29.8870081  67.3611381  33.4209460
  37.2841710  77.1613690  36.4263472  38.0145098  76.8998978  36.9871175
  36.6748655  76.4242412  36.4665540  35.3657007  75.3021553  37.0237923
  34.6390171  75.1677518  36.4154414  34.9504294  75.6098381  37.8294641
  23.1887183  79.0211482  44.7885296  24.1090193  79.1990081  44.9825342
  23.1536767  78.0767528  44.6364995  21.4891408  72.8943713  23.2639524
  20.5822863  72.5976825  23.3402238  21.7667389  72.5973531  22.3973810
  12.4069348  74.2150076  33.7138570  12.0872133  73.3615384  33.4212944
  11.8602777  74.4298654  34.4696538  16.1849256  76.9312517  37.4308077
  16.4035266  77.8629625  37.4496111  16.5975030  76.5720491  38.2162881
  23.1053474  67.4380602  29.4183765  22.2954202  67.0927687  29.7939011
  23.7937891  67.1288146  30.0071377  25.0344022  66.5158649  31.0408062
  25.5875061  66.9354103  31.6998085  25.2714108  65.5894397  31.0831018
  21.0577121  72.5045723  46.8210826  20.9573848  73.4540080  46.7522917
  20.8398663  72.1763962  45.9486896  20.2590193  69.7530648  23.4051503
  21.1209357  70.0785546  23.6647321  20.4440537  68.9662144  22.8924569
  12.2757608  77.8352988  35.6831692  11.5821080  77.4206940  35.1701646
  13.0230599  77.8773524  35.0865111  28.4122829  68.6259174  30.5486726
  27.8321498  69.2843978  30.1664779  28.1458762  67.8036519  30.1374144
  26.8626396  68.0264232  32.7508047  27.3626174  68.1380767  31.9422365
  27.5062003  67.7225285  33.3908855  20.9208391  75.9342862  45.6375888
  20.4375473  76.7343222  45.8439777  21.0069330  75.9450806  44.6843332
  14.1894351  77.7671241  33.5597707  14.1665039  77.8658929  32.6079590
  14.4994987  78.6136392  33.8814873  16.8481729  79.8247396  37.6744321
  17.8024982  79.7931339  37.6074253  16.6494252  79.3638020  38.4894547
  17.4381111  78.3948512  40.2415119  18.2574000  78.8892591  40.2649956
  17.7117919  77.4780481  40.2132686  27.1947707  70.7859265  29.6043074
  26.3073562  71.0708915  29.3863269  27.6101696  70.6253028  28.7570351
  30.5462243  70.8105786  33.3197414  31.3222633  71.3002238  33.5922031
  29.8210378  71.2363840  33.7769283  32.9834802  71.5233405  34.3771354
  33.5779293  71.2829141  33.6664663  33.0561386  70.8040535  35.0044891
  15.2031958  85.3667016  34.6914519  15.0686426  84.6067417  34.1252517
  14.7864020  86.0907916  34.2243308  26.3390921  80.5503939  23.6991094
  27.0426771  80.7553942  24.3148750  25.6153569  81.1180701  23.9640178
  27.1688731  76.3013801  29.8193365  27.1123932  76.7582352  28.9800997
  27.7217073  75.5404485  29.6416207  30.9793537  72.0903532  30.6443484
  30.7230471  71.6900168  31.4751692  30.3546405  72.8047326  30.5193623
  35.2905875  74.8299606  33.1514776  34.7305433  74.8992795  33.9246338
  34.6849378  74.6540590  32.4314272  18.3601084  86.2636333  34.9032962
  18.2433468  87.2081765  34.8011652  17.5393530  85.9609894  35.2918761
  28.2477618  80.9886469  25.7489555  29.0823222  80.5567667  25.5667029
  28.0861961  80.8168482  26.6766449  27.9023510  77.4918582  27.1145894
  27.8472314  77.3262853  26.1734338  27.2769566  78.1994615  27.2708084
  12.6916025  72.7286646  40.9407316  13.3374889  72.2185600  41.4294541
  12.4833176  73.4655328  41.5150741  25.2169417  79.7967494  46.4399457
  26.0860577  79.9708146  46.0786092  24.7376169  80.6161911  46.3175186
  21.2119636  66.9926691  26.6931212  21.1998306  67.9368531  26.8499483
  22.1043058  66.8096836  26.3990673  19.3855598  86.9164595  38.1188890
  20.2882844  86.9488205  38.4355385  19.1592968  85.9865046  38.1335226
  21.1409200  85.6695581  34.7798969  20.1904831  85.6697443  34.6663341
  21.4441686  84.9228316  34.2635003  25.0271755  63.5869467  30.9477149
  24.2604151  63.0327954  31.0933831  25.4382460  63.6591336  31.8091301
  17.0313516  69.8754263  45.0382330  17.8944978  69.5191068  45.2485655
  16.4578927  69.5368158  45.7257735  36.8761893  91.5056120  35.8444731
  37.5140303  91.3862867  35.1408071  36.7582736  92.4536964  35.9032683
  33.6851599  91.4583548  35.7806256  33.3470111  91.3424612  34.8926791
  34.5541368  91.0574713  35.7607262  29.5438415  93.3119024  31.7703147
  28.9803280  93.2208961  31.0019435  29.4290810  92.4918929  32.2505639
  34.1671382  92.6118399  41.7392461  34.1560023  92.2171198  40.8672965
  34.3292022  91.8784472  42.3326233  27.0902847  94.8070216  34.6087367
  27.8824139  94.4661040  34.1933667  27.3299497  94.9165191  35.5289521
  35.1237974  96.9789992  27.0817612  34.4725954  97.5644072  26.6951626
  35.9182337  97.5096187  27.1412649  29.0493601  94.0679129  27.4804746
  29.8224477  93.5208116  27.3417622  29.4019000  94.9323378  27.6919208
  30.8878644  95.3955511  40.6871645  30.5968510  96.3001142  40.5718312
  31.5235628  95.4372039  41.4015715  31.8134850  92.7732360  37.2773005
  32.4098423  92.5488382  36.5629968  31.8709822  92.0317105  37.8798453
  31.3859879  90.2271795  25.1123196  31.6385400  89.7053316  24.3506659
  30.4484438  90.0637941  25.2149880  36.4303162  89.2307574  32.9197939
  37.2166251  88.8126997  32.5688356  36.6941866  90.1353666  33.0879588
  36.6013239  94.6680424  27.6186596  35.9659072  94.7415050  28.3307501
  36.2710645  95.2574023  26.9405675  41.8311589  89.1682807  33.8230918
  42.5636761  88.5982024  34.0568747  41.0750944  88.7804407  34.2637423
  31.1056168  92.1299901  27.3147571  30.9892426  91.4544804  27.9828655
  31.2158427  91.6432275  26.4979724  33.4487709  91.5910048  31.0194260
  33.0845916  91.0640669  31.7307182  34.3054824  91.2008517  30.8460746
  39.3537009  82.8804381  38.2825526  39.0220334  83.7499792  38.0586741
  38.7582623  82.5640665  38.9619557  33.0893195  86.6199948  26.0155609
  33.2567598  87.4880184  26.3826080  32.8990365  86.7827230  25.0916898
  35.8468529  95.0816927  37.6821439  35.5469252  95.9841966  37.5737246
  35.5019588  94.8149110  38.5342592  29.2981010  91.5330724  33.7158144
  28.3731507  91.4006938  33.9235835  29.5465423  92.3124943  34.2128086
  39.2465672  87.5999467  35.3618876  38.3382550  87.5314875  35.0677637
  39.1953268  88.0771412  36.1900702  33.0682416  89.0757605  27.0002276
  32.9482042  89.5214656  27.8387756  32.3735005  89.4242923  26.4415814
  26.6589821  91.1763997  34.5501933  26.7882202  91.4298476  35.4641344
  25.9787272  91.7691705  34.2306588  30.8289308 101.8461247  30.6492407
  30.7513338 102.7969072  30.7280887  30.2250952 101.5007120  31.3067333
  33.3206538  89.0189113  43.3053774  32.5439872  89.5783033  43.2956638
  33.9597101  89.5045896  43.8268644  41.1127319  85.8015905  37.1396750
  40.4701699  86.0948439  36.4936545  40.6082247  85.6868826  37.9449947
  38.7667483  89.5479079  27.8282610  39.6785339  89.7806465  27.6530307
  38.2577130  90.1316123  27.2657688  31.5752911  91.8274566  42.8671741
  32.3167595  92.3659610  42.5906564  30.8689896  92.4540855  43.0243293
  37.0508250  93.9703706  41.4643902  37.4591606  93.5286117  40.7198535
  36.3285512  93.3956334  41.7178095  33.4039320  88.9076313  38.8377459
  34.2500515  89.3315727  38.9812108  33.3437958  88.2509937  39.5316022
  37.3737065  94.5304897  35.2196191  36.7445927  94.6950611  34.5172259
  36.9862727  94.9446507  35.9907155  41.2526297  95.4659335  32.5740555
  40.5677335  95.8458236  32.0237588  41.3370146  96.0754662  33.3072503
  36.5538766  86.5680682  40.4958633  36.3099697  87.3222742  39.9592909
  36.8298696  86.9466029  41.3305880  38.5077228  93.1119294  39.1735898
  38.7194124  93.7551054  38.4970279  38.4606977  92.2781610  38.7057828
  36.1103457  85.7237115  36.0772471  35.2487936  86.0218368  36.3689208
  36.1365892  85.9407513  35.1453503  32.9265027  94.2679305  32.4846276
  33.3903372  94.5467008  31.6950899  32.6621825  93.3662750  32.3019367
  29.8189108  93.8150787  35.4226039  30.3890465  94.2438055  34.7843524
  30.4097220  93.5333371  36.1210225  31.8633913  90.3902457  29.2935841
  32.5657956  90.8423501  29.7609768  31.5314541  89.7486276  29.9215734
  30.3114274  88.9814214  43.6687051  29.6812935  89.6630495  43.9022448
  30.2050362  88.8697296  42.7240189  25.6059247  88.6486010  34.5952975
  24.8158301  88.9043539  34.1193086  26.0970494  89.4634348  34.7005015
  39.6223056  95.9891249  37.3458256  40.4440500  95.5871437  37.0640937
  39.6185459  95.8859483  38.2974372  27.5573992  89.0130589  31.5536452
  26.7605155  89.1249284  32.0719947  27.3299584  89.3517242  30.6877342
  33.3879660  95.5375293  39.5018966  33.4524092  95.9995700  40.3377138
  32.6790584  94.9072658  39.6301276  23.8896950  88.9016501  37.0267966
  24.1404988  89.7863511  37.2925542  24.4256498  88.7221102  36.2543058
  47.7129049  92.3329998  33.6943227  46.9592758  91.7637396  33.5387232
  47.8476591  92.2992662  34.6413862  33.1027677  97.2043400  29.3697947
  32.9673352  98.0494936  29.7982794  33.6437490  97.4062678  28.6063880
  29.5895017  83.2834980  46.0312302  29.1961963  82.7301179  46.7059946
  30.4061157  83.5945558  46.4218819  26.5557075  94.7218838  29.9425872
  27.0681595  95.5162088  30.0931436  27.2079788  94.0245129  29.8759473
  28.3651959  97.8384594  32.0248625  28.5418588  98.7602559  31.8369609
  29.1608793  97.5243014  32.4543005  32.5062978  84.6992859  43.6232558
  33.2472691  85.3000012  43.5437021  32.7380901  83.9570497  43.0650601
  27.6504316  89.8849226  41.9010788  27.5357831  88.9834484  42.2017887
  26.7948834  90.1312923  41.5495605  34.7296154  97.8266967  43.4998289
  34.2860008  97.0403345  43.1819193  35.3913367  98.0146117  42.8342179
  29.4883275  99.3562768  38.0258967  30.0390700  99.2279832  37.2535961
  28.6494751  99.6557657  37.6753860  36.8277392  98.1069767  41.5279690
  36.8095867  98.9278648  41.0359959  37.7497312  97.9823842  41.7529831
  33.2850446  95.6213896  42.3703198  33.8178783  94.8602184  42.1402506
  32.7564527  95.3287548  43.1127353  36.4520141  80.7273962  37.8996840
  36.1084410  81.6175604  37.8235951  36.8199104  80.5375620  37.0366425
  24.5205992  93.0507492  30.7185442  25.3581214  93.4604501  30.5019150
  24.6984259  92.1106935  30.6885636  36.4170424  90.7182573  26.4069275
  35.9017047  91.4887178  26.6457663  36.1447732  90.0447709  27.0302337
  34.0017535  85.5632274  31.4654514  33.1459131  85.1739124  31.2860152
  34.4144486  85.6424235  30.6054299  35.5316681  83.0978617  35.8646073
  35.0281477  83.0608752  35.0513879  35.8247288  84.0071360  35.9242730
  31.7759567  83.1817347  34.8712255  32.6412564  82.9860156  34.5118144
  31.8437076  82.9527699  35.7981612  41.3904698  93.4714928  28.3422449
  40.6134141  93.1326087  27.8977611  42.0696179  93.4767551  27.6677414
  36.2056727  88.5909665  28.2329056  35.9006862  88.9055814  29.0839200
  37.1587169  88.6691085  28.2756389  34.6503159  94.7499889  29.8822010
  34.1224520  94.0152648  29.5695248  34.1490661  95.5274565  29.6361979
  39.6296005  92.9448909  34.9989057  38.9719679  93.6348170  35.0869185
  40.4336404  93.3345341  35.3423043  29.3821886  85.4119555  32.2428622
  29.9565638  85.1894736  31.5101815  29.9692869  85.4808249  32.9957223
  38.4401464  91.2993282  33.0492998  38.9533345  91.9323274  33.5514708
  39.0902687  90.6994477  32.6836358  29.7091473  87.4424016  26.2624507
  28.8728786  87.7798702  26.5833782  29.5696243  87.3072996  25.3251644
  31.6844554  82.2860804  30.9703691  31.0308966  81.9709821  30.3460306
  31.6425028  81.6636544  31.6963514  32.7955759  92.5680099  22.8856983
  31.8882821  92.3369352  23.0848132  33.2926791  91.7717718  23.0730965
  35.7023838 101.2777606  25.8053670  35.0285537 101.5809303  26.4138627
  36.0889660 102.0806686  25.4559127  34.9182294  88.7742737  35.2951339
  34.0004856  88.9957684  35.1373027  35.3342438  88.8489048  34.4363046
  35.7017342  90.1734153  30.4254019  36.4489161  90.6855550  30.1161141
  35.9708932  89.8518206  31.2858413  33.9743992  92.6692694  27.4080973
  33.0655212  92.3851726  27.5053443  34.0039076  93.0891772  26.5484280
  39.2063260  96.2799283  31.1772141  38.7525587  95.4390193  31.2337331
  38.5757226  96.9160682  31.5146921  38.1496179  87.2091269  32.4072808
  37.4118936  86.6968655  32.7383051  38.4022953  86.7691651  31.5956085
  37.6496199  98.1175780  32.1121959  37.9419173  98.6780837  31.3934325
  38.1594820  98.4104341  32.8675118  38.2507807  79.9867521  33.0014578
  38.5566683  79.1264885  32.7140493  38.9760411  80.5785141  32.8013572
  24.5432163  90.3898208  31.3896176  24.3456563  89.7967568  30.6647242
  23.9878827  90.0850418  32.1072114  32.5228886  90.2821314  33.5090769
  32.5777496  89.3295151  33.4333245  31.7120088  90.4380753  33.9932067
  33.6720080  94.2101437  24.7469052  33.2339510  93.4937296  24.2874689
  34.4130521  94.4377552  24.1854143  30.4621246  88.8998374  31.2681148
  29.6489112  89.1992545  31.6746340  30.9580240  88.5054063  31.9855630
  32.6129824  98.8956131  33.2015412  32.5706003  99.1216977  32.2723944
  33.5292523  98.6619506  33.3501213  36.0595458  89.3640198  40.0996042
  36.4144846  89.5911672  40.9590507  36.7067589  89.6958575  39.4773297
  41.7893195  92.4858634  30.8045371  41.6511093  92.6760230  29.8766560
  41.4329414  93.2478017  31.2613422  29.9535321  86.4716730  36.8842383
  30.5934700  86.3305489  36.1865346  29.1212852  86.1851243  36.5080985
  41.8162574  94.5535161  35.8156642  42.2499081  94.4610450  36.6639696
  42.5294155  94.5292662  35.1776658  30.7295625  95.7719160  32.9977375
  31.5236223  95.2769480  32.7959950  30.0187317  95.2437023  32.6345081
  35.5490469  98.1537255  37.3489743  35.6027492  98.7228192  38.1167459
  34.6805251  98.3239141  36.9843780  27.0378388  89.9162242  29.0737128
  26.1075976  89.8546697  29.2907090  27.1335860  89.3938194  28.2773769
  26.9563937  86.4417055  31.6615369  27.2170755  87.3562388  31.5524530
  27.7781110  85.9741497  31.8111982  28.4288863  87.8554812  38.8314194
  29.1011916  87.6472174  38.1826843  27.6018649  87.6576898  38.3919426
  42.6778124  94.5958862  38.3489527  42.8714014  95.5004673  38.5948802
  42.5778742  94.1366281  39.1828113  34.3314435  84.4816753  40.8479855
  33.6842350  85.1806702  40.7544331  35.1015450  84.9152897  41.2156103
  37.7393233  94.7465605  43.9230408  37.5878739  94.5176156  43.0060492
  37.7297912  95.7036206  43.9361753  34.5078569  92.3197518  38.9076675
  35.4370629  92.4708677  38.7345642  34.0869599  92.4081538  38.0525321
  33.3066901  96.3448182  36.6775212  33.1677987  95.9766966  37.5501150
  32.5181497  96.8595821  36.5059170  33.9015053 101.4457278  28.0200749
  34.0766809 100.9745322  28.8346371  33.2147841 102.0723045  28.2482009
  34.8572116  95.7229785  34.0664050  34.5221949  95.6830555  34.9621700
  34.3576062  95.0574501  33.5934460  28.8316360  91.1297415  39.5916631
  28.6936158  90.3977653  40.1928170  29.7421283  91.0406315  39.3100819
  37.7931308  93.0685819  24.3401110  37.1760478  92.3432647  24.2434162
  37.3247796  93.8295179  23.9968184  31.4598661  90.8417374  39.0800311
  32.1698279  90.2010566  39.0386929  31.4167969  91.0930269  40.0026492
  39.4485439  97.7784727  42.0006890  39.3897986  97.0943947  41.3337473
  39.8504958  98.5203717  41.5487516  30.1727595  87.8282592  40.8995950
  29.6364952  87.3773330  41.5517547  29.5844303  87.9628501  40.1566415
  28.4676138 104.5946641  34.7940609  28.7072736 105.2265165  35.4719627
  27.6245335 104.2434681  35.0805968  29.5829854  87.2871243  23.4622414
  28.7059320  87.1660044  23.0984661  30.0587607  86.4957322  23.2101303
  39.4502847  95.7424311  40.2320870  38.5629625  95.4050233  40.3547269
  40.0201398  95.0107342  40.4689635  21.1031994  92.0748403  33.5563921
  21.7903034  91.7610133  32.9684936  20.9480122  92.9789768  33.2831172
  25.9066716  86.9638600  37.9848945  25.8224905  86.3564269  37.2499355
  25.0849422  87.4547618  37.9858441  32.9804000 100.4025764  37.1982113
  32.9074172 101.2080735  37.7101417  32.5381393 100.6017729  36.3730134
  32.7693780  99.6397534  30.7084934  31.9861302 100.1819214  30.8023159
  33.4686525 100.1571513  31.1079176  36.0790430  85.4492163  33.3519140
  36.5759129  84.6962125  33.0320210  35.3077411  85.4856480  32.7862349
  43.9320187  91.1532529  34.9937431  43.9210063  92.0357244  34.6231364
  43.0637567  90.8004079  34.7991968  35.4402684 100.3012598  39.3540271
  36.1530656 100.9360062  39.2816173  34.9492712 100.3976464  38.5380273
  37.1620210  94.2063850  30.9257563  36.2276489  94.3265313  30.7562267
  37.3396879  93.3036317  30.6617573  32.6625399  87.5909546  33.0790824
  32.2923186  87.0380586  33.7671730  33.1584491  86.9867680  32.5265824
  40.5492762  90.0481170  31.4607597  41.0153214  90.8809161  31.3867900
  41.0000262  89.5826151  32.1652856  30.4914597  98.0507041  40.1745842
  31.1924057  98.6843524  40.3275237  30.0209712  98.3921773  39.4141482
  38.6168993  96.3924991  28.4593749  38.8928837  96.2781585  29.3687623
  37.7473492  95.9942476  28.4205922  38.5209425  82.4161757  35.4998499
  37.6072504  82.6465983  35.6680706  38.9502526  82.5000201  36.3512531
  38.2915883  90.6051649  37.9998393  37.6387333  90.8527556  37.3450845
  38.6696263  89.7915787  37.6660870  35.2523057 100.6411342  32.1026563
  35.4345451  99.8232998  32.5654315  36.0756043 100.8579034  31.6651453
  35.5865222  99.5679527  29.3641611  36.1152989  99.0571981  28.7511774
  35.8493442  99.2522057  30.2287144  34.3403456  91.3471460  44.4864430
  33.6644093  91.2465589  45.1566805  35.1631090  91.1910673  44.9500427
  26.0882315  97.5843396  37.1076945  26.6735752  96.8387084  37.2404849
  25.8907154  97.8947353  37.9913609  28.9420970 100.6194644  32.1239387
  28.2731346 101.1040771  31.6403427  28.8033840 100.8663864  33.0382766
  20.6799970  90.1548996  35.8281388  20.7184069  89.6212587  36.6218506
  20.1740263  89.6284202  35.2092365  33.0826239 102.6538387  38.7222046
  33.6344547 102.8170009  39.4871131  33.4232432 103.2442825  38.0502071
  28.0590732  85.0013537  39.3243930  28.1232059  85.8628368  38.9121328
  27.9957852  84.3887539  38.5916289  27.5343005  87.0736669  42.9716965
  28.1615044  86.6913747  43.5854489  26.6770924  86.8550871  43.3372657
  37.9337113  97.4799645  44.5770700  38.4777017  98.0929603  44.0825655
  37.3523958  98.0379223  45.0937713  24.3108547  88.8813099  28.9035320
  24.6061989  87.9723777  28.8502373  23.4096583  88.8600838  28.5816322
  36.2194626 100.6020363  35.7085728  36.0945766  99.8010102  35.1996673
  36.8773717 101.0966556  35.2199698  27.8402794  86.9569095  34.8862868
  27.1189380  87.5705063  34.7470341  28.6296050  87.4926860  34.8079514
  38.2829535  98.4029383  37.3365278  37.3359870  98.2834734  37.2643605
  38.6312308  97.5151881  37.4191539  30.6429108  84.2923522  41.1603520
  31.1663510  84.5385818  41.9229829  30.4241441  85.1243556  40.7406657
  26.0396389  86.5627196  29.0274645  25.7109095  85.6824575  28.8449751
  26.3935760  86.5074865  29.9151034  35.2875968  98.1982099  33.5369630
  35.1400930  97.2698806  33.7177200  36.1129461  98.2202190  33.0526705
  29.1538212  86.8500166  29.3950122  29.4934285  87.3786087  28.6728731
  29.6010333  87.1880572  30.1708689  38.8910090  99.0210658  34.6234503
  39.8156637  98.8153519  34.4858954  38.7225393  98.7727059  35.5323844
  31.8481653  85.2337217  38.8453190  31.5078473  84.4345030  39.2473870
  31.1420659  85.5338928  38.2730024  32.4998125  82.3186529  37.2980513
  33.3224194  81.8447007  37.1759404  32.7436188  83.0977013  37.7979200
  31.1406359  85.3474788  27.5943415  31.8614722  85.7256040  27.0907132
  30.5171663  86.0663664  27.6978393  35.2837482  86.0519937  28.5301747
  35.5001097  86.9344574  28.2290576  34.8031549  85.6606150  27.8007389
  30.0236704  89.0105650  35.1072492  29.8781284  89.3245953  35.9996774
  29.5461907  89.6290550  34.5543391  31.8833087  86.0008198  35.1553382
  31.8694655  85.1049291  34.8185680  32.6005515  86.0078861  35.7891668
  33.7359217  86.4345538  37.2006509  33.4776995  87.3562609  37.1990839
  33.2044258  86.0375972  37.8906973  38.6805406  99.5396325  29.9796594
  38.8542284  98.9742748  29.2270447  39.1734297 100.3397220  29.7976084
  24.4982366  91.5510994  38.0460153  23.9535834  92.3270802  38.1780428
  25.3761716  91.8981799  37.8879275  31.2869982  84.8822578  30.4240952
  31.4085894  83.9539224  30.6231839  30.9972025  84.8961264  29.5119267
  34.1561173  82.5677488  33.5607672  34.1782870  82.6316822  32.6059651
  34.5729232  81.7281997  33.7548178  44.5344797  92.3032748  31.5986894
  44.9775943  91.5540073  31.2006017  43.6571307  92.2942884  31.2160626
  39.6680578  98.8563089  27.0793493  40.3631483  99.4769782  27.2980807
  40.0103729  98.0058441  27.3545871  25.2848388  90.6780890  40.9390310
  24.5430124  90.8263526  41.5254941  24.9641132  90.9389156  40.0757060
  41.5672002  96.3062795  28.6080823  42.0923326  96.6450068  27.8830143
  41.4794354  95.3709810  28.4243958  33.2292050 100.2196869  40.7370700
  33.5379177  99.9746015  41.6093400  34.0267532 100.4243507  40.2489570
  33.2512662 102.3734778  32.9676077  32.8117653 101.8811157  33.6608933
  34.0020779 101.8307746  32.7268152  25.7305001  98.5646319  32.9700705
  26.5563021  98.2650091  32.5899348  25.3799053  97.7953942  33.4190493
  30.6986534  97.9172787  35.0398378  30.0766544  97.2543492  34.7400606
  31.3691401  97.9433919  34.3572026  23.9313606  96.4832646  33.9289638
  23.0945515  96.0554820  33.7473640  23.9037252  96.6765089  34.8660430
  30.7711062  86.3954575  44.6330884  30.8199217  87.2716698  44.2508654
  31.3133576  85.8531968  44.0602528  41.2565908  96.9395699  43.9132021
  40.4661451  96.9219837  43.3736521  41.0199262  97.4783992  44.6681058
  41.3763783  93.7888165  41.2264750  41.4261788  93.6238172  42.1680273
  41.2677706  92.9215424  40.8362631  30.2600041  96.4676711  28.5156839
  30.4088162  97.1512175  27.8623512  31.0666485  96.4481801  29.0306295
  38.6667545  89.7719093  42.5424057  39.5677408  89.6325558  42.2508054
  38.7415520  89.9373548  43.4822234  33.0010350  87.1485948  41.3877243
  32.1313660  87.4419514  41.1159832  33.2369831  87.7326393  42.1084507
  42.8781980  96.2085107  41.4706772  42.5866788  96.5715087  42.3070232
  42.2654111  95.4952115  41.2920104  44.0777662  93.7737986  33.9909342
  44.9124553  94.2127790  34.1546902  44.2136791  93.2976640  33.1717588
  41.1269168  91.3317721  39.9386829  41.6023289  91.5245367  39.1305681
  40.2034733  91.3876907  39.6930213  28.0152674  92.4941888  29.5217908
  27.7698716  91.5904218  29.7198118  28.1848589  92.4959039  28.5797386
  35.7049384  83.3665565  38.9042663  36.2231328  84.1026592  38.5789152
  35.3504517  83.6729558  39.7389423  27.2848322  88.2270246  27.0204069
  26.5917567  88.3014601  26.3644105  27.0400074  87.4630590  27.5425586
  35.9561978  79.7865847  34.4243560  36.2363732  79.1189036  35.0503987
  36.7412585  79.9794943  33.9118224  33.7595447  98.9624841  25.9868586
  33.1869414  99.5815028  25.5339058  34.3328241  99.5124203  26.5208508
  39.8270837  88.2083481  38.1715135  40.7788260  88.3081579  38.1927359
  39.6574287  87.4161750  38.6813219  37.8485216  85.2939064  38.3574536
  37.2535148  85.5744077  37.6621025  37.5634913  85.7832965  39.1291277
  36.9792707  99.2461991  27.1177169  37.9123380  99.1807553  27.3210044
  36.8915920 100.0818258  26.6591701  39.6080723  98.5627862  24.0781116
  39.5294355  98.2287725  24.9716874  40.4290390  99.0549630  24.0772588
  42.3058915  91.4289601  37.2857435  42.2735235  90.4905602  37.4717119
  42.9159538  91.5073638  36.5523260  34.1442245  90.2985654  23.3284639
  35.0901350  90.1691862  23.3973057  33.7656490  89.5600316  23.8054067
  42.4553403  88.2200644  37.3315718  41.9392452  87.4359101  37.1445647
  43.3393352  87.8919361  37.4962237  40.1164130  81.9641660  33.2911531
  39.9188951  81.6556748  34.1754863  40.7263836  82.6903299  33.4209460
  48.1235464  92.4905608  36.4263472  48.8538853  92.2290896  36.9871175
  47.5142410  91.7534330  36.4665540  46.2050762  90.6313470  37.0237923
  45.4783925  90.4969435  36.4154414  45.7898048  90.9390299  37.8294641
  34.0280938  94.3503400  44.7885296  34.9483947  94.5281999  44.9825342
  33.9930521  93.4059445  44.6364995  32.3285163  88.2235630  23.2639524
  31.4216618  87.9268743  23.3402238  32.6061144  87.9265448  22.3973810
  23.2463103  89.5441994  33.7138570  22.9265887  88.6907302  33.4212944
  22.6996531  89.7590572  34.4696538  27.0243011  92.2604435  37.4308077
  27.2429020  93.1921543  37.4496111  27.4368784  91.9012409  38.2162881
  33.9447228  82.7672520  29.4183765  33.1347957  82.4219605  29.7939011
  34.6331645  82.4580064  30.0071377  35.8737777  81.8450567  31.0408062
  36.4268815  82.2646020  31.6998085  36.1107863  80.9186315  31.0831018
  31.8970876  87.8337640  46.8210826  31.7967603  88.7831997  46.7522917
  31.6792418  87.5055879  45.9486896  31.0983947  85.0822566  23.4051503
  31.9603111  85.4077464  23.6647321  31.2834291  84.2954061  22.8924569
  23.1151363  93.1644905  35.6831692  22.4214834  92.7498858  35.1701646
  23.8624354  93.2065442  35.0865111  39.2516584  83.9551092  30.5486726
  38.6715253  84.6135896  30.1664779  38.9852516  83.1328437  30.1374144
  37.7020150  83.3556150  32.7508047  38.2019928  83.4672684  31.9422365
  38.3455758  83.0517203  33.3908855  31.7602146  91.2634779  45.6375888
  31.2769228  92.0635139  45.8439777  31.8463085  91.2742724  44.6843332
  25.0288105  93.0963159  33.5597707  25.0058794  93.1950846  32.6079590
  25.3388742  93.9428310  33.8814873  27.6875483  95.1539314  37.6744321
  28.6418737  95.1223256  37.6074253  27.4888007  94.6929938  38.4894547
  28.2774865  93.7240430  40.2415119  29.0967754  94.2184509  40.2649956
  28.5511673  92.8072398  40.2132686  38.0341462  86.1151182  29.6043074
  37.1467317  86.4000833  29.3863269  38.4495451  85.9544946  28.7570351
  41.3855998  86.1397703  33.3197414  42.1616388  86.6294156  33.5922031
  40.6604132  86.5655758  33.7769283  43.8228556  86.8525323  34.3771354
  44.4173047  86.6121059  33.6664663  43.8955140  86.1332453  35.0044891
  26.0425712 100.6958933  34.6914519  25.9080180  99.9359334  34.1252517
  25.6257774 101.4199833  34.2243308  37.1784675  95.8795857  23.6991094
  37.8820525  96.0845860  24.3148750  36.4547324  96.4472619  23.9640178
  38.0082485  91.6305718  29.8193365  37.9517687  92.0874270  28.9800997
  38.5610828  90.8696403  29.6416207  41.8187291  87.4195450  30.6443484
  41.5624226  87.0192086  31.4751692  41.1940159  88.1339244  30.5193623
  46.1299629  90.1591523  33.1514776  45.5699187  90.2284713  33.9246338
  45.5243133  89.9832508  32.4314272  29.1994838 101.5928251  34.9032962
  29.0827222 102.5373683  34.8011652  28.3787284 101.2901812  35.2918761
  39.0871373  96.3178386  25.7489555  39.9216976  95.8859585  25.5667029
  38.9255715  96.1460400  26.6766449  38.7417265  92.8210500  27.1145894
  38.6866069  92.6554771  26.1734338  38.1163320  93.5286532  27.2708084
  23.5309780  88.0578564  40.9407316  24.1768643  87.5477518  41.4294541
  23.3226931  88.7947246  41.5150741  36.0563172  95.1259411  46.4399457
  36.9254332  95.3000064  46.0786092  35.5769923  95.9453828  46.3175186
  32.0513390  82.3218609  26.6931212  32.0392060  83.2660448  26.8499483
  32.9436812  82.1388754  26.3990673  30.2249352 102.2456512  38.1188890
  31.1276599 102.2780123  38.4355385  29.9986722 101.3156963  38.1335226
  31.9802954 100.9987499  34.7798969  31.0298585 100.9989361  34.6663341
  32.2835440 100.2520234  34.2635003  35.8665510  78.9161385  30.9477149
  35.0997905  78.3619872  31.0933831  36.2776215  78.9883254  31.8091301
  27.8707271  85.2046181  45.0382330  28.7338732  84.8482986  45.2485655
  27.2972681  84.8660076  45.7257735  47.7155648 106.8348037  35.8444731
  48.3534058 106.7154785  35.1408071  47.5976491 107.7828881  35.9032683
  44.5245354 106.7875465  35.7806256  44.1863865 106.6716530  34.8926791
  45.3935122 106.3866631  35.7607262  40.3832170 108.6410942  31.7703147
  39.8197035 108.5500879  31.0019435  40.2684565 107.8210846  32.2505639
  45.0065137 107.9410317  41.7392461  44.9953778 107.5463115  40.8672965
  45.1685776 107.2076390  42.3326233  37.9296602 110.1362133  34.6087367
  38.7217893 109.7952958  34.1933667  38.1693252 110.2457108  35.5289521
  45.9631728 112.3081910  27.0817612  45.3119708 112.8935990  26.6951626
  46.7576091 112.8388104  27.1412649  39.8887355 109.3971047  27.4804746
  40.6618231 108.8500034  27.3417622  40.2412754 110.2615296  27.6919208
  41.7272398 110.7247429  40.6871645  41.4362264 111.6293060  40.5718312
  42.3629382 110.7663957  41.4015715  42.6528605 108.1024277  37.2773005
  43.2492177 107.8780300  36.5629968  42.7103576 107.3609023  37.8798453
  42.2253633 105.5563713  25.1123196  42.4779154 105.0345234  24.3506659
  41.2878192 105.3929858  25.2149880  47.2696916 104.5599491  32.9197939
  48.0560005 104.1418914  32.5688356  47.5335620 105.4645583  33.0879588
  47.4406993 109.9972341  27.6186596  46.8052826 110.0706968  28.3307501
  47.1104400 110.5865940  26.9405675  52.6705343 104.4974724  33.8230918
  53.4030515 103.9273941  34.0568747  51.9144699 104.1096325  34.2637423
  41.9449922 107.4591819  27.3147571  41.8286180 106.7836722  27.9828655
  42.0552182 106.9724193  26.4979724  44.2881463 106.9201966  31.0194260
  43.9239670 106.3932587  31.7307182  45.1448579 106.5300435  30.8460746
  50.1930764  98.2096298  38.2825526  49.8614088  99.0791709  38.0586741
  49.5976377  97.8932582  38.9619557  43.9286950 101.9491866  26.0155609
  44.0961352 102.8172102  26.3826080  43.7384119 102.1119147  25.0916898
  46.6862283 110.4108844  37.6821439  46.3863006 111.3133883  37.5737246
  46.3413343 110.1441028  38.5342592  40.1374765 106.8622641  33.7158144
  39.2125261 106.7298855  33.9235835  40.3859178 107.6416861  34.2128086
  50.0859427 102.9291385  35.3618876  49.1776304 102.8606793  35.0677637
  50.0347023 103.4063330  36.1900702  43.9076171 104.4049523  27.0002276
  43.7875796 104.8506574  27.8387756  43.2128759 104.7534841  26.4415814
  37.4983576 106.5055915  34.5501933  37.6275957 106.7590394  35.4641344
  36.8181027 107.0983623  34.2306588  41.6683063 117.1753165  30.6492407
  41.5907093 118.1260990  30.7280887  41.0644707 116.8299037  31.3067333
  44.1600293 104.3481030  43.3053774  43.3833627 104.9074950  43.2956638
  44.7990856 104.8337813  43.8268644  51.9521073 101.1307823  37.1396750
  51.3095454 101.4240356  36.4936545  51.4476002 101.0160743  37.9449947
  49.6061237 104.8770996  27.8282610  50.5179093 105.1098383  27.6530307
  49.0970884 105.4608040  27.2657688  42.4146665 107.1566484  42.8671741
  43.1561349 107.6951528  42.5906564  41.7083650 107.7832772  43.0243293
  47.8902005 109.2995624  41.4643902  48.2985361 108.8578035  40.7198535
  47.1679266 108.7248252  41.7178095  44.2433075 104.2368231  38.8377459
  45.0894270 104.6607644  38.9812108  44.1831712 103.5801855  39.5316022
  48.2130819 109.8596815  35.2196191  47.5839682 110.0242529  34.5172259
  47.8256481 110.2738424  35.9907155  52.0920051 110.7951253  32.5740555
  51.4071089 111.1750154  32.0237588  52.1763901 111.4046579  33.3072503
  47.3932520 101.8972599  40.4958633  47.1493452 102.6514660  39.9592909
  47.6692451 102.2757947  41.3305880  49.3470983 108.4411212  39.1735898
  49.5587878 109.0842971  38.4970279  49.3000731 107.6073528  38.7057828
  46.9497212 101.0529032  36.0772471  46.0881691 101.3510286  36.3689208
  46.9759646 101.2699431  35.1453503  43.7658781 109.5971223  32.4846276
  44.2297127 109.8758926  31.6950899  43.5015579 108.6954667  32.3019367
  40.6582862 109.1442704  35.4226039  41.2284219 109.5729973  34.7843524
  41.2490974 108.8625289  36.1210225  42.7027667 105.7194375  29.2935841
  43.4051711 106.1715419  29.7609768  42.3708296 105.0778194  29.9215734
  41.1508029 104.3106132  43.6687051  40.5206689 104.9922413  43.9022448
  41.0444117 104.1989213  42.7240189  36.4453001 103.9777928  34.5952975
  35.6552055 104.2335456  34.1193086  36.9364249 104.7926266  34.7005015
  50.4616811 111.3183167  37.3458256  51.2834254 110.9163354  37.0640937
  50.4579214 111.2151401  38.2974372  38.3967747 104.3422507  31.5536452
  37.5998910 104.4541201  32.0719947  38.1693339 104.6809159  30.6877342
  44.2273414 110.8667210  39.5018966  44.2917847 111.3287618  40.3377138
  43.5184338 110.2364575  39.6301276  34.7290704 104.2308418  37.0267966
  34.9798743 105.1155428  37.2925542  35.2650253 104.0513020  36.2543058
  58.5522804 107.6621915  33.6943227  57.7986512 107.0929314  33.5387232
  58.6870345 107.6284580  34.6413862  43.9421432 112.5335318  29.3697947
  43.8067107 113.3786854  29.7982794  44.4831244 112.7354595  28.6063880
  40.4288772  98.6126898  46.0312302  40.0355717  98.0593096  46.7059946
  41.2454912  98.9237476  46.4218819  37.3950829 110.0510756  29.9425872
  37.9075350 110.8454006  30.0931436  38.0473542 109.3537046  29.8759473
  39.2045714 113.1676512  32.0248625  39.3812342 114.0894477  31.8369609
  40.0002547 112.8534931  32.4543005  43.3456732 100.0284777  43.6232558
  44.0866446 100.6291930  43.5437021  43.5774655  99.2862415  43.0650601
  38.4898071 105.2141144  41.9010788  38.3751586 104.3126401  42.2017887
  37.6342588 105.4604841  41.5495605  45.5689908 113.1558884  43.4998289
  45.1253762 112.3695263  43.1819193  46.2307122 113.3438035  42.8342179
  40.3277029 114.6854686  38.0258967  40.8784455 114.5571749  37.2535961
  39.4888505 114.9849575  37.6753860  47.6671146 113.4361684  41.5279690
  47.6489622 114.2570565  41.0359959  48.5891066 113.3115759  41.7529831
  44.1244200 110.9505814  42.3703198  44.6572537 110.1894102  42.1402506
  43.5958282 110.6579466  43.1127353  47.2913895  96.0565880  37.8996840
  46.9478165  96.9467521  37.8235951  47.6592858  95.8667537  37.0366425
  35.3599746 108.3799410  30.7185442  36.1974968 108.7896418  30.5019150
  35.5378014 107.4398852  30.6885636  47.2564178 106.0474491  26.4069275
  46.7410802 106.8179095  26.6457663  46.9841487 105.3739627  27.0302337
  44.8411289 100.8924192  31.4654514  43.9852886 100.5031042  31.2860152
  45.2538241 100.9716152  30.6054299  46.3710436  98.4270535  35.8646073
  45.8675231  98.3900670  35.0513879  46.6641043  99.3363278  35.9242730
  42.6153322  98.5109265  34.8712255  43.4806318  98.3152073  34.5118144
  42.6830831  98.2819616  35.7981612  52.2298452 108.8006845  28.3422449
  51.4527895 108.4618005  27.8977611  52.9089933 108.8059469  27.6677414
  47.0450481 103.9201583  28.2329056  46.7400617 104.2347732  29.0839200
  47.9980923 103.9983003  28.2756389  45.4896913 110.0791806  29.8822010
  44.9618275 109.3444566  29.5695248  44.9884416 110.8566483  29.6361979
  50.4689759 108.2740827  34.9989057  49.8113434 108.9640088  35.0869185
  51.2730158 108.6637259  35.3423043  40.2215641 100.7411472  32.2428622
  40.7959393 100.5186654  31.5101815  40.8086623 100.8100167  32.9957223
  49.2795218 106.6285199  33.0492998  49.7927100 107.2615191  33.5514708
  49.9296442 106.0286395  32.6836358  40.5485228 102.7715934  26.2624507
  39.7122540 103.1090620  26.5833782  40.4089998 102.6364913  25.3251644
  42.5238308  97.6152721  30.9703691  41.8702721  97.3001739  30.3460306
  42.4818783  96.9928462  31.6963514  43.6349513 107.8972016  22.8856983
  42.7276575 107.6661270  23.0848132  44.1320545 107.1009636  23.0730965
  46.5417592 116.6069524  25.8053670  45.8679291 116.9101220  26.4138627
  46.9283414 117.4098604  25.4559127  45.7576049 104.1034655  35.2951339
  44.8398610 104.3249602  35.1373027  46.1736192 104.1780965  34.4363046
  46.5411097 105.5026071  30.4254019  47.2882916 106.0147468  30.1161141
  46.8102686 105.1810123  31.2858413  44.8137747 107.9984611  27.4080973
  43.9048966 107.7143644  27.5053443  44.8432831 108.4183690  26.5484280
  50.0457014 111.6091201  31.1772141  49.5919341 110.7682111  31.2337331
  49.4150981 112.2452599  31.5146921  48.9889934 102.5383187  32.4072808
  48.2512691 102.0260573  32.7383051  49.2416707 102.0983568  31.5956085
  48.4889953 113.4467698  32.1121959  48.7812928 114.0072755  31.3934325
  48.9988574 113.7396259  32.8675118  49.0901561  95.3159439  33.0014578
  49.3960438  94.4556802  32.7140493  49.8154166  95.9077059  32.8013572
  35.3825917 105.7190125  31.3896176  35.1850317 105.1259486  30.6647242
  34.8272581 105.4142336  32.1072114  43.3622641 105.6113232  33.5090769
  43.4171251 104.6587068  33.4333245  42.5513843 105.7672671  33.9932067
  44.5113835 109.5393355  24.7469052  44.0733265 108.8229214  24.2874689
  45.2524275 109.7669470  24.1854143  41.3015001 104.2290292  31.2681148
  40.4882866 104.5284462  31.6746340  41.7973995 103.8345980  31.9855630
  43.4523579 114.2248049  33.2015412  43.4099757 114.4508895  32.2723944
  44.3686278 113.9911423  33.3501213  46.8989212 104.6932116  40.0996042
  47.2538600 104.9203589  40.9590507  47.5461344 105.0250493  39.4773297
  52.6286949 107.8150552  30.8045371  52.4904848 108.0052148  29.8766560
  52.2723168 108.5769935  31.2613422  40.7929076 101.8008647  36.8842383
  41.4328455 101.6597406  36.1865346  39.9606606 101.5143161  36.5080985
  52.6556329 109.8827079  35.8156642  53.0892836 109.7902368  36.6639696
  53.3687910 109.8584580  35.1776658  41.5689379 111.1011078  32.9977375
  42.3629978 110.6061398  32.7959950  40.8581072 110.5728941  32.6345081
  46.3884224 113.4829173  37.3489743  46.4421246 114.0520109  38.1167459
  45.5199005 113.6531058  36.9843780  37.8772143 105.2454159  29.0737128
  36.9469731 105.1838615  29.2907090  37.9729615 104.7230112  28.2773769
  37.7957692 101.7708972  31.6615369  38.0564509 102.6854305  31.5524530
  38.6174864 101.3033415  31.8111982  39.2682617 103.1846729  38.8314194
  39.9405671 102.9764091  38.1826843  38.4412404 102.9868815  38.3919426
  53.5171879 109.9250780  38.3489527  53.7107769 110.8296590  38.5948802
  53.4172497 109.4658199  39.1828113  45.1708189  99.8108670  40.8479855
  44.5236104 100.5098620  40.7544331  45.9409205 100.2444814  41.2156103
  48.5786987 110.0757522  43.9230408  48.4272494 109.8468074  43.0060492
  48.5691667 111.0328124  43.9361753  45.3472324 107.6489435  38.9076675
  46.2764384 107.8000595  38.7345642  44.9263354 107.7373456  38.0525321
  44.1460655 111.6740100  36.6775212  44.0071741 111.3058884  37.5501150
  43.3575252 112.1887739  36.5059170  44.7408807 116.7749196  28.0200749
  44.9160563 116.3037239  28.8346371  44.0541595 117.4014962  28.2482009
  45.6965871 111.0521702  34.0664050  45.3615703 111.0122472  34.9621700
  45.1969816 110.3866418  33.5934460  39.6710115 106.4589332  39.5916631
  39.5329912 105.7269571  40.1928170  40.5815038 106.3698232  39.3100819
  48.6325062 108.3977737  24.3401110  48.0154233 107.6724565  24.2434162
  48.1641551 109.1587097  23.9968184  42.2992415 106.1709292  39.0800311
  43.0092034 105.5302484  39.0386929  42.2561723 106.4222186  40.0026492
  50.2879194 113.1076645  42.0006890  50.2291740 112.4235865  41.3337473
  50.6898712 113.8495635  41.5487516  41.0121349 103.1574510  40.8995950
  40.4758706 102.7065248  41.5517547  40.4238058 103.2920418  40.1566415
  40.4223608 102.6163161  23.4622414  39.5453074 102.4951962  23.0984661
  40.8981361 101.8249239  23.2101303  50.2896601 111.0716229  40.2320870
  49.4023380 110.7342151  40.3547269  50.8595152 110.3399260  40.4689635
  31.9425748 107.4040321  33.5563921  32.6296788 107.0902051  32.9684936
  31.7873877 108.3081685  33.2831172  36.7460470 102.2930517  37.9848945
  36.6618659 101.6856187  37.2499355  35.9243177 102.7839536  37.9858441
  43.8197755 115.7317681  37.1982113  43.7467926 116.5372653  37.7101417
  43.3775148 115.9309647  36.3730134  43.6087534 114.9689451  30.7084934
  42.8255056 115.5111131  30.8023159  44.3080279 115.4863431  31.1079176
  46.9184184 100.7784081  33.3519140  47.4152884 100.0254043  33.0320210
  46.1471166 100.8148397  32.7862349  54.7713942 106.4824446  34.9937431
  54.7603818 107.3649162  34.6231364  53.9031321 106.1295997  34.7991968
  46.2796438 115.6304515  39.3540271  46.9924410 116.2651980  39.2816173
  45.7886467 115.7268381  38.5380273  48.0013965 109.5355768  30.9257563
  47.0670244 109.6557230  30.7562267  48.1790633 108.6328235  30.6617573
  43.5019153 102.9201464  33.0790824  43.1316941 102.3672504  33.7671730
  43.9978245 102.3159597  32.5265824  51.3886516 105.3773087  31.4607597
  51.8546969 106.2101079  31.3867900  51.8394017 104.9118069  32.1652856
  41.3308352 113.3798959  40.1745842  42.0317811 114.0135442  40.3275237
  40.8603467 113.7213690  39.4141482  49.4562747 111.7216909  28.4593749
  49.7322591 111.6073503  29.3687623  48.5867246 111.3234393  28.4205922
  49.3603179  97.7453674  35.4998499  48.4466259  97.9757901  35.6680706
  49.7896281  97.8292118  36.3512531  49.1309638 105.9343566  37.9998393
  48.4781088 106.1819474  37.3450845  49.5090017 105.1207704  37.6660870
  46.0916811 115.9703259  32.1026563  46.2739206 115.1524915  32.5654315
  46.9149797 116.1870952  31.6651453  46.4258977 114.8971445  29.3641611
  46.9546743 114.3863899  28.7511774  46.6887197 114.5813975  30.2287144
  45.1797211 106.6763377  44.4864430  44.5037848 106.5757507  45.1566805
  46.0024844 106.5202591  44.9500427  36.9276070 112.9135314  37.1076945
  37.5129506 112.1679002  37.2404849  36.7300908 113.2239271  37.9913609
  39.7814725 115.9486561  32.1239387  39.1125100 116.4332689  31.6403427
  39.6427595 116.1955782  33.0382766  31.5193724 105.4840914  35.8281388
  31.5577824 104.9504505  36.6218506  31.0134017 104.9576120  35.2092365
  43.9219993 117.9830305  38.7222046  44.4738301 118.1461926  39.4871131
  44.2626187 118.5734743  38.0502071  38.8984487 100.3305455  39.3243930
  38.9625813 101.1920285  38.9121328  38.8351607  99.7179456  38.5916289
  38.3736759 102.4028587  42.9716965  39.0008798 102.0205664  43.5854489
  37.5164678 102.1842789  43.3372657  48.7730868 112.8091562  44.5770700
  49.3170772 113.4221521  44.0825655  48.1917713 113.3671141  45.0937713
  35.1502302 104.2105016  28.9035320  35.4455743 103.3015695  28.8502373
  34.2490338 104.1892756  28.5816322  47.0588381 115.9312280  35.7085728
  46.9339520 115.1302020  35.1996673  47.7167472 116.4258474  35.2199698
  38.6796549 102.2861013  34.8862868  37.9583135 102.8996980  34.7470341
  39.4689805 102.8218778  34.8079514  49.1223289 113.7321300  37.3365278
  48.1753625 113.6126652  37.2643605  49.4706062 112.8443798  37.4191539
  41.4822862  99.6215439  41.1603520  42.0057264  99.8677736  41.9229829
  41.2635196 100.4535474  40.7406657  36.8790144 101.8919114  29.0274645
  36.5502850 101.0116493  28.8449751  37.2329514 101.8366783  29.9151034
  46.1269722 113.5274017  33.5369630  45.9794685 112.5990724  33.7177200
  46.9523216 113.5494107  33.0526705  39.9931967 102.1792084  29.3950122
  40.3328039 102.7078005  28.6728731  40.4404087 102.5172490  30.1708689
  49.7303844 114.3502575  34.6234503  50.6550392 114.1445437  34.4858954
  49.5619148 114.1018976  35.5323844  42.6875408 100.5629134  38.8453190
  42.3472228  99.7636947  39.2473870  41.9814414 100.8630845  38.2730024
  43.3391879  97.6478447  37.2980513  44.1617949  97.1738925  37.1759404
  43.5829943  98.4268931  37.7979200  41.9800114 100.6766705  27.5943415
  42.7008476 101.0547958  27.0907132  41.3565418 101.3955582  27.6978393
  46.1231237 101.3811854  28.5301747  46.3394851 102.2636492  28.2290576
  45.6425304 100.9898068  27.8007389  40.8630458 104.3397567  35.1072492
  40.7175039 104.6537870  35.9996774  40.3855662 104.9582468  34.5543391
  42.7226841 101.3300115  35.1553382  42.7088410 100.4341209  34.8185680
  43.4399269 101.3370779  35.7891668  44.5752972 101.7637456  37.2006509
  44.3170750 102.6854526  37.1990839  44.0438012 101.3667890  37.8906973
  49.5199160 114.8688243  29.9796594  49.6936038 114.3034665  29.2270447
  50.0128052 115.6689138  29.7976084  35.3376120 106.8802912  38.0460153
  34.7929588 107.6562720  38.1780428  36.2155470 107.2273716  37.8879275
  42.1263737 100.2114496  30.4240952  42.2479648  99.2831142  30.6231839
  41.8365779 100.2253182  29.5119267  44.9954927  97.8969406  33.5607672
  45.0176624  97.9608739  32.6059651  45.4122986  97.0573915  33.7548178
  55.3738552 107.6324666  31.5986894  55.8169698 106.8831991  31.2006017
  54.4965062 107.6234802  31.2160626  50.5074333 114.1855007  27.0793493
  51.2025238 114.8061700  27.2980807  50.8497483 113.3350358  27.3545871
  36.1242142 106.0072808  40.9390310  35.3823878 106.1555443  41.5254941
  35.8034886 106.2681074  40.0757060  52.4065756 111.6354713  28.6080823
  52.9317080 111.9741985  27.8830143  52.3188109 110.7001728  28.4243958
  44.0685805 115.5488786  40.7370700  44.3772931 115.3037933  41.6093400
  44.8661287 115.7535425  40.2489570  44.0906417 117.7026696  32.9676077
  43.6511407 117.2103075  33.6608933  44.8414534 117.1599664  32.7268152
  36.5698756 113.8938237  32.9700705  37.3956776 113.5942009  32.5899348
  36.2192808 113.1245859  33.4190493  41.5380289 113.2464705  35.0398378
  40.9160298 112.5835410  34.7400606  42.2085156 113.2725837  34.3572026
  34.7707361 111.8124563  33.9289638  33.9339269 111.3846738  33.7473640
  34.7431006 112.0057007  34.8660430  41.6104816 101.7246493  44.6330884
  41.6592972 102.6008616  44.2508654  42.1527331 101.1823886  44.0602528
  52.0959662 112.2687616  43.9132021  51.3055206 112.2511755  43.3736521
  51.8593017 112.8075910  44.6681058  52.2157537 109.1180083  41.2264750
  52.2655542 108.9530090  42.1680273  52.1071461 108.2507342  40.8362631
  41.0993796 111.7968628  28.5156839  41.2481916 112.4804093  27.8623512
  41.9060239 111.7773718  29.0306295  49.5061300 105.1011011  42.5424057
  50.4071162 104.9617476  42.2508054  49.5809274 105.2665466  43.4822234
  43.8404105 102.4777865  41.3877243  42.9707414 102.7711432  41.1159832
  44.0763585 103.0618310  42.1084507  53.7175734 111.5377024  41.4706772
  53.4260542 111.9007005  42.3070232  53.1047865 110.8244032  41.2920104
  54.9171416 109.1029904  33.9909342  55.7518308 109.5419708  34.1546902
  55.0530545 108.6268557  33.1717588  51.9662922 106.6609639  39.9386829
  52.4417044 106.8537285  39.1305681  51.0428488 106.7168825  39.6930213
  38.8546429 107.8233806  29.5217908  38.6092471 106.9196136  29.7198118
  39.0242343 107.8250956  28.5797386  46.5443139  98.6957482  38.9042663
  47.0625083  99.4318509  38.5789152  46.1898272  99.0021476  39.7389423
  38.1242076 103.5562164  27.0204069  37.4311321 103.6306519  26.3644105
  37.8793828 102.7922507  27.5425586  46.7955733  95.1157765  34.4243560
  47.0757487  94.4480954  35.0503987  47.5806340  95.3086861  33.9118224
  44.5989201 114.2916759  25.9868586  44.0263168 114.9106946  25.5339058
  45.1721995 114.8416121  26.5208508  50.6664591 103.5375399  38.1715135
  51.6182014 103.6373497  38.1927359  50.4968042 102.7453667  38.6813219
  48.6878971 100.6230982  38.3574536  48.0928903 100.9035995  37.6621025
  48.4028667 101.1124883  39.1291277  47.8186461 114.5753909  27.1177169
  48.7517134 114.5099471  27.3210044  47.7309674 115.4110176  26.6591701
  50.4474478 113.8919779  24.0781116  50.3688109 113.5579643  24.9716874
  51.2684145 114.3841547  24.0772588  53.1452669 106.7581519  37.2857435
  53.1128989 105.8197519  37.4717119  53.7553293 106.8365555  36.5523260
  44.9836000 105.6277572  23.3284639  45.9295105 105.4983780  23.3973057
  44.6050245 104.8892233  23.8054067  53.2947158 103.5492562  37.3315718
  52.7786206 102.7651019  37.1445647  54.1787106 103.2211279  37.4962237
  50.9557884  97.2933578  33.2911531  50.7582706  96.9848666  34.1754863
  51.5657590  98.0195217  33.4209460  58.9629219 107.8197525  36.4263472
  59.6932607 107.5582814  36.9871175  58.3536164 107.0826247  36.4665540
  57.0444516 105.9605388  37.0237923  56.3177680 105.8261353  36.4154414
  56.6291803 106.2682217  37.8294641  44.8674692 109.6795318  44.7885296
  45.7877702 109.8573917  44.9825342  44.8324275 108.7351363  44.6364995
  43.1678917 103.5527548  23.2639524  42.2610372 103.2560661  23.3402238
  43.4454898 103.2557366  22.3973810  34.0856857 104.8733911  33.7138570
  33.7659642 104.0199220  33.4212944  33.5390286 105.0882490  34.4696538
  37.8636765 107.5896352  37.4308077  38.0822775 108.5213460  37.4496111
  38.2762539 107.2304327  38.2162881  44.7840983  98.0964438  29.4183765
  43.9741711  97.7511523  29.7939011  45.4725400  97.7871981  30.0071377
  46.7131531  97.1742484  31.0408062  47.2662570  97.5937938  31.6998085
  46.9501617  96.2478233  31.0831018  42.7364630 103.1629558  46.8210826
  42.6361357 104.1123915  46.7522917  42.5186172 102.8347797  45.9486896
  41.9377702 100.4114483  23.4051503  42.7996866 100.7369382  23.6647321
  42.1228046  99.6245979  22.8924569  33.9545117 108.4936823  35.6831692
  33.2608589 108.0790776  35.1701646  34.7018108 108.5357359  35.0865111
  50.0910338  99.2843010  30.5486726  49.5109007  99.9427814  30.1664779
  49.8246271  98.4620354  30.1374144  48.5413905  98.6848067  32.7508047
  49.0413683  98.7964602  31.9422365  49.1849512  98.3809120  33.3908855
  42.5995900 106.5926697  45.6375888  42.1162982 107.3927057  45.8439777
  42.6856839 106.6034642  44.6843332  35.8681860 108.4255077  33.5597707
  35.8452548 108.5242764  32.6079590  36.1782496 109.2720227  33.8814873
  38.5269238 110.4831232  37.6744321  39.4812491 110.4515174  37.6074253
  38.3281761 110.0221855  38.4894547  39.1168620 109.0532348  40.2415119
  39.9361509 109.5476426  40.2649956  39.3905428 108.1364316  40.2132686
  48.8735216 101.4443100  29.6043074  47.9861071 101.7292751  29.3863269
  49.2889205 101.2836863  28.7570351  52.2249752 101.4689621  33.3197414
  53.0010142 101.9586073  33.5922031  51.4997886 101.8947675  33.7769283
  54.6622311 102.1817240  34.3771354  55.2566802 101.9412976  33.6664663
  54.7348895 101.4624371  35.0044891  48.0178430 111.2087775  23.6991094
  48.7214280 111.4137777  24.3148750  47.2941078 111.7764537  23.9640178
  48.8476240 106.9597636  29.8193365  48.7911441 107.4166187  28.9800997
  49.4004582 106.1988321  29.6416207  52.6581046 102.7487368  30.6443484
  52.4017980 102.3484003  31.4751692  52.0333914 103.4631162  30.5193623
  56.9693384 105.4883441  33.1514776  56.4092942 105.5576630  33.9246338
  56.3636887 105.3124426  32.4314272  49.9265127 111.6470304  25.7489555
  50.7610731 111.2151502  25.5667029  49.7649470 111.4752318  26.6766449
  49.5811019 108.1502417  27.1145894  49.5259823 107.9846689  26.1734338
  48.9557075 108.8578450  27.2708084  34.3703534 103.3870482  40.9407316
  35.0162398 102.8769436  41.4294541  34.1620685 104.1239163  41.5150741
  46.8956926 110.4551329  46.4399457  47.7648086 110.6291981  46.0786092
  46.4163678 111.2745746  46.3175186  42.8907145  97.6510526  26.6931212
  42.8785815  98.5952366  26.8499483  43.7830567  97.4680672  26.3990673
  41.0643107 117.5748430  38.1188890  41.9670353 117.6072040  38.4355385
  40.8380477 116.6448881  38.1335226  42.8196709 116.3279417  34.7798969
  41.8692340 116.3281278  34.6663341  43.1229195 115.5812151  34.2635003
  46.7059264  94.2453303  30.9477149  45.9391660  93.6911790  31.0933831
  47.1169969  94.3175172  31.8091301  38.7101025 100.5338099  45.0382330
  39.5732487 100.1774904  45.2485655  38.1366436 100.1951993  45.7257735
  58.5549402 122.1639955  35.8444731  59.1927812 122.0446702  35.1408071
  58.4370245 123.1120799  35.9032683  55.3639108 122.1167383  35.7806256
  55.0257620 122.0008448  34.8926791  56.2328877 121.7158548  35.7607262
  55.8458891 123.2702235  41.7392461  55.8347532 122.8755033  40.8672965
  56.0079531 122.5368307  42.3326233  53.0647388 120.8855631  25.1123196
  53.3172908 120.3637152  24.3506659  52.1271947 120.7221776  25.2149880
  58.1090671 119.8891409  32.9197939  58.8953760 119.4710832  32.5688356
  58.3729375 120.7937501  33.0879588  63.5099098 119.8266642  33.8230918
  64.2424270 119.2565859  34.0568747  62.7538453 119.4388243  34.2637423
  55.1275217 122.2493884  31.0194260  54.7633425 121.7224505  31.7307182
  55.9842333 121.8592353  30.8460746  61.0324518 113.5388216  38.2825526
  60.7007843 114.4083627  38.0586741  60.4370131 113.2224500  38.9619557
  54.7680704 117.2783783  26.0155609  54.9355107 118.1464020  26.3826080
  54.5777874 117.4411065  25.0916898  60.9253181 118.2583302  35.3618876
  60.0170059 118.1898711  35.0677637  60.8740777 118.7355247  36.1900702
  54.7469925 119.7341441  27.0002276  54.6269551 120.1798492  27.8387756
  54.0522514 120.0826758  26.4415814  54.9994047 119.6772948  43.3053774
  54.2227381 120.2366868  43.2956638  55.6384610 120.1629731  43.8268644
  62.7914828 116.4599741  37.1396750  62.1489208 116.7532274  36.4936545
  62.2869756 116.3452661  37.9449947  60.4454991 120.2062914  27.8282610
  61.3572848 120.4390301  27.6530307  59.9364639 120.7899958  27.2657688
  55.0826829 119.5660149  38.8377459  55.9288024 119.9899562  38.9812108
  55.0225467 118.9093773  39.5316022  58.2326275 117.2264517  40.4958633
  57.9887206 117.9806577  39.9592909  58.5086205 117.6049864  41.3305880
  60.1864737 123.7703129  39.1735898  60.3981633 124.4134889  38.4970279
  60.1394486 122.9365446  38.7057828  57.7890966 116.3820950  36.0772471
  56.9275445 116.6802203  36.3689208  57.8153401 116.5991349  35.1453503
  53.5421422 121.0486293  29.2935841  54.2445465 121.5007337  29.7609768
  53.2102050 120.4070112  29.9215734  51.9901783 119.6398049  43.6687051
  51.3600444 120.3214330  43.9022448  51.8837871 119.5281131  42.7240189
  47.2846756 119.3069845  34.5952975  46.4945810 119.5627374  34.1193086
  47.7758003 120.1218183  34.7005015  49.2361501 119.6714425  31.5536452
  48.4392664 119.7833119  32.0719947  49.0087093 120.0101077  30.6877342
  69.3916558 122.9913833  33.6943227  68.6380267 122.4221231  33.5387232
  69.5264100 122.9576498  34.6413862  51.2682526 113.9418815  46.0312302
  50.8749472 113.3885014  46.7059946  52.0848666 114.2529394  46.4218819
  54.1850487 115.3576694  43.6232558  54.9260200 115.9583848  43.5437021
  54.4168410 114.6154332  43.0650601  58.1307650 111.3857797  37.8996840
  57.7871919 112.2759439  37.8235951  58.4986613 111.1959455  37.0366425
  58.0957933 121.3766408  26.4069275  57.5804556 122.1471013  26.6457663
  57.8235241 120.7031545  27.0302337  55.6805044 116.2216109  31.4654514
  54.8246640 115.8322960  31.2860152  56.0931995 116.3008070  30.6054299
  57.2104190 113.7562453  35.8646073  56.7068986 113.7192588  35.0513879
  57.5034797 114.6655195  35.9242730  53.4547076 113.8401182  34.8712255
  54.3200073 113.6443991  34.5118144  53.5224585 113.6111534  35.7981612
  63.0692207 124.1298763  28.3422449  62.2921650 123.7909923  27.8977611
  63.7483688 124.1351386  27.6677414  57.8844236 119.2493501  28.2329056
  57.5794371 119.5639650  29.0839200  58.8374678 119.3274920  28.2756389
  61.3083514 123.6032744  34.9989057  60.6507188 124.2932006  35.0869185
  62.1123913 123.9929176  35.3423043  51.0609395 116.0703390  32.2428622
  51.6353147 115.8478572  31.5101815  51.6480378 116.1392085  32.9957223
  60.1188972 121.9577117  33.0492998  60.6320854 122.5907109  33.5514708
  60.7690196 121.3578313  32.6836358  51.3878982 118.1007851  26.2624507
  50.5516295 118.4382538  26.5833782  51.2483752 117.9656831  25.3251644
  53.3632063 112.9444639  30.9703691  52.7096475 112.6293656  30.3460306
  53.3212537 112.3220380  31.6963514  56.5969803 119.4326573  35.2951339
  55.6792365 119.6541520  35.1373027  57.0129947 119.5072883  34.4363046
  57.3804851 120.8317988  30.4254019  58.1276670 121.3439385  30.1161141
  57.6496441 120.5102041  31.2858413  59.8283688 117.8675105  32.4072808
  59.0906445 117.3552491  32.7383051  60.0810462 117.4275486  31.5956085
  59.9295316 110.6451357  33.0014578  60.2354192 109.7848720  32.7140493
  60.6547920 111.2368977  32.8013572  54.2016395 120.9405150  33.5090769
  54.2565005 119.9878986  33.4333245  53.3907597 121.0964589  33.9932067
  52.1408755 119.5582209  31.2681148  51.3276621 119.8576380  31.6746340
  52.6367749 119.1637898  31.9855630  57.7382967 120.0224034  40.0996042
  58.0932355 120.2495507  40.9590507  58.3855098 120.3542411  39.4773297
  63.4680704 123.1442470  30.8045371  63.3298602 123.3344066  29.8766560
  63.1116923 123.9061853  31.2613422  51.6322830 117.1300565  36.8842383
  52.2722209 116.9889324  36.1865346  50.8000361 116.8435078  36.5080985
  63.4950083 125.2118997  35.8156642  63.9286590 125.1194286  36.6639696
  64.2081664 125.1876497  35.1776658  48.7165897 120.5746077  29.0737128
  47.7863485 120.5130533  29.2907090  48.8123369 120.0522030  28.2773769
  48.6351446 117.1000890  31.6615369  48.8958264 118.0146223  31.5524530
  49.4568619 116.6325332  31.8111982  50.1076372 118.5138647  38.8314194
  50.7799425 118.3056009  38.1826843  49.2806158 118.3160733  38.3919426
  64.3565633 125.2542697  38.3489527  64.5501523 126.1588508  38.5948802
  64.2566251 124.7950116  39.1828113  56.0101944 115.1400588  40.8479855
  55.3629859 115.8390538  40.7544331  56.7802959 115.5736732  41.2156103
  56.1866078 122.9781353  38.9076675  57.1158138 123.1292512  38.7345642
  55.7657108 123.0665374  38.0525321  59.4718817 123.7269654  24.3401110
  58.8547987 123.0016482  24.2434162  59.0035305 124.4879015  23.9968184
  53.1386170 121.5001209  39.0800311  53.8485788 120.8594402  39.0386929
  53.0955478 121.7514104  40.0026492  51.8515104 118.4866427  40.8995950
  51.3152461 118.0357166  41.5517547  51.2631812 118.6212336  40.1566415
  51.2617363 117.9455079  23.4622414  50.3846829 117.8243879  23.0984661
  51.7375116 117.1541157  23.2101303  47.5854225 117.6222435  37.9848945
  47.5012414 117.0148104  37.2499355  46.7636931 118.1131453  37.9858441
  57.7577939 116.1075998  33.3519140  58.2546638 115.3545961  33.0320210
  56.9864920 116.1440315  32.7862349  65.6107696 121.8116364  34.9937431
  65.5997572 122.6941079  34.6231364  64.7425076 121.4587915  34.7991968
  54.3412908 118.2493381  33.0790824  53.9710695 117.6964422  33.7671730
  54.8372000 117.6451515  32.5265824  62.2280271 120.7065005  31.4607597
  62.6940723 121.5392997  31.3867900  62.6787771 120.2409987  32.1652856
  60.1996934 113.0745592  35.4998499  59.2860013 113.3049819  35.6680706
  60.6290035 113.1584036  36.3512531  59.9703392 121.2635484  37.9998393
  59.3174842 121.5111391  37.3450845  60.3483772 120.4499622  37.6660870
  56.0190965 122.0055295  44.4864430  55.3431602 121.9049424  45.1566805
  56.8418599 121.8494509  44.9500427  49.7378241 115.6597372  39.3243930
  49.8019568 116.5212203  38.9121328  49.6745361 115.0471374  38.5916289
  49.2130514 117.7320505  42.9716965  49.8402553 117.3497582  43.5854489
  48.3558433 117.5134707  43.3372657  45.9896056 119.5396934  28.9035320
  46.2849498 118.6307612  28.8502373  45.0884092 119.5184673  28.5816322
  49.5190303 117.6152930  34.8862868  48.7976889 118.2288898  34.7470341
  50.3083559 118.1510695  34.8079514  52.3216617 114.9507357  41.1603520
  52.8451019 115.1969653  41.9229829  52.1028950 115.7827392  40.7406657
  47.7183898 117.2211032  29.0274645  47.3896604 116.3408410  28.8449751
  48.0723269 117.1658700  29.9151034  50.8325721 117.5084001  29.3950122
  51.1721794 118.0369923  28.6728731  51.2797842 117.8464407  30.1708689
  53.5269162 115.8921052  38.8453190  53.1865982 115.0928865  39.2473870
  52.8208168 116.1922763  38.2730024  54.1785634 112.9770364  37.2980513
  55.0011703 112.5030843  37.1759404  54.4223697 113.7560848  37.7979200
  52.8193868 116.0058623  27.5943415  53.5402231 116.3839876  27.0907132
  52.1959172 116.7247500  27.6978393  56.9624991 116.7103772  28.5301747
  57.1788606 117.5928410  28.2290576  56.4819058 116.3189985  27.8007389
  51.7024213 119.6689485  35.1072492  51.5568793 119.9829788  35.9996774
  51.2249416 120.2874385  34.5543391  53.5620595 116.6592033  35.1553382
  53.5482164 115.7633126  34.8185680  54.2793024 116.6662697  35.7891668
  55.4146726 117.0929373  37.2006509  55.1564504 118.0146444  37.1990839
  54.8831767 116.6959808  37.8906973  52.9657491 115.5406413  30.4240952
  53.0873403 114.6123060  30.6231839  52.6759534 115.5545099  29.5119267
  55.8348682 113.2261324  33.5607672  55.8570379 113.2900657  32.6059651
  56.2516741 112.3865832  33.7548178  66.2132306 122.9616583  31.5986894
  66.6563452 122.2123909  31.2006017  65.3358816 122.9526720  31.2160626
  52.4498571 117.0538411  44.6330884  52.4986726 117.9300534  44.2508654
  52.9921085 116.5115804  44.0602528  63.0551292 124.4472000  41.2264750
  63.1049297 124.2822008  42.1680273  62.9465215 123.5799259  40.8362631
  60.3455054 120.4302928  42.5424057  61.2464917 120.2909393  42.2508054
  60.4203029 120.5957383  43.4822234  54.6797859 117.8069783  41.3877243
  53.8101169 118.1003349  41.1159832  54.9157340 118.3910228  42.1084507
  65.7565171 124.4321822  33.9909342  66.5912062 124.8711626  34.1546902
  65.8924300 123.9560475  33.1717588  62.8056677 121.9901556  39.9386829
  63.2810798 122.1829203  39.1305681  61.8822242 122.0460742  39.6930213
  57.3836893 114.0249400  38.9042663  57.9018837 114.7610427  38.5789152
  57.0292026 114.3313393  39.7389423  48.9635831 118.8854081  27.0204069
  48.2705076 118.9598436  26.3644105  48.7187583 118.1214425  27.5425586
  57.6349487 110.4449683  34.4243560  57.9151241 109.7772872  35.0503987
  58.4200094 110.6378778  33.9118224  61.5058346 118.8667317  38.1715135
  62.4575769 118.9665414  38.1927359  61.3361796 118.0745585  38.6813219
  59.5272725 115.9522900  38.3574536  58.9322657 116.2327913  37.6621025
  59.2422422 116.4416801  39.1291277  63.9846424 122.0873436  37.2857435
  63.9522744 121.1489437  37.4717119  64.5947047 122.1657473  36.5523260
  55.8229754 120.9569489  23.3284639  56.7688859 120.8275697  23.3973057
  55.4443999 120.2184151  23.8054067  64.1340912 118.8784480  37.3315718
  63.6179961 118.0942936  37.1445647  65.0180861 118.5503196  37.4962237
  61.7951639 112.6225495  33.2911531  61.5976460 112.3140583  34.1754863
  62.4051345 113.3487134  33.4209460  69.8022973 123.1489443  36.4263472
  70.5326362 122.8874731  36.9871175  69.1929919 122.4118165  36.4665540
  67.8838271 121.2897306  37.0237923  67.1571434 121.1553271  36.4154414
  67.4685557 121.5974134  37.8294641  54.0072672 118.8819466  23.2639524
  53.1004127 118.5852578  23.3402238  54.2848653 118.5849284  22.3973810
  55.6234737 113.4256355  29.4183765  54.8135466 113.0803440  29.7939011
  56.3119154 113.1163899  30.0071377  57.5525286 112.5034402  31.0408062
  58.1056324 112.9229856  31.6998085  57.7895372 111.5770150  31.0831018
  53.5758385 118.4921476  46.8210826  53.4755112 119.4415833  46.7522917
  53.3579927 118.1639715  45.9486896  52.7771456 115.7406401  23.4051503
  53.6390620 116.0661299  23.6647321  52.9621800 114.9537897  22.8924569
  60.9304093 114.6134927  30.5486726  60.3502762 115.2719731  30.1664779
  60.6640025 113.7912272  30.1374144  59.3807659 114.0139985  32.7508047
  59.8807437 114.1256520  31.9422365  60.0243267 113.7101038  33.3908855
  59.7128971 116.7735018  29.6043074  58.8254826 117.0584668  29.3863269
  60.1282960 116.6128781  28.7570351  63.0643507 116.7981539  33.3197414
  63.8403897 117.2877991  33.5922031  62.3391641 117.2239593  33.7769283
  65.5016065 117.5109158  34.3771354  66.0960556 117.2704894  33.6664663
  65.5742649 116.7916288  35.0044891  59.6869994 122.2889554  29.8193365
  59.6305196 122.7458105  28.9800997  60.2398337 121.5280238  29.6416207
  63.4974800 118.0779286  30.6443484  63.2411735 117.6775921  31.4751692
  62.8727668 118.7923079  30.5193623  67.8087138 120.8175359  33.1514776
  67.2486696 120.8868548  33.9246338  67.2030642 120.6416343  32.4314272
  60.4204774 123.4794335  27.1145894  60.3653578 123.3138606  26.1734338
  59.7950829 124.1870368  27.2708084  45.2097289 118.7162399  40.9407316
  45.8556152 118.2061353  41.4294541  45.0014440 119.4531081  41.5150741
  53.7300899 112.9802444  26.6931212  53.7179569 113.9244284  26.8499483
  54.6224321 112.7972589  26.3990673  57.5453019 109.5745221  30.9477149
  56.7785414 109.0203707  31.0933831  57.9563724 109.6467089  31.8091301
  49.5494780 115.8630016  45.0382330  50.4126241 115.5066821  45.2485655
  48.9760190 115.5243911  45.7257735  68.9701404 126.7149715  37.8996840
  68.6265674 127.6051357  37.8235951  69.3380367 126.5251373  37.0366425
  70.7689070 125.9743274  33.0014578  71.0747947 125.1140638  32.7140493
  71.4941675 126.5660894  32.8013572  68.4743242 125.7741600  34.4243560
  68.7544996 125.1064789  35.0503987  69.2593849 125.9670696  33.9118224
  72.6345393 127.9517413  33.2911531  72.4370215 127.6432501  34.1754863
  73.2445099 128.6779052  33.4209460  68.3846773 124.9037138  30.9477149
  67.6179169 124.3495625  31.0933831  68.7957478 124.9759007  31.8091301
   6.9304177  28.7971097  28.7252197   6.8716723  28.1130317  28.0582780
   7.3323696  29.5390087  28.2732823   5.4155851  28.4986014  31.3016007
   5.9595755  29.1115972  30.8070962   4.8342696  29.0565593  31.8183020
   8.7384645  27.9582068  30.6377328   7.9480189  27.9406207  30.0981827
   8.5018000  28.4970362  31.3926365  10.3600717  27.2271476  28.1952078
  10.0685526  27.5901457  29.0315539   9.7472849  26.5138484  28.0165410
   3.5381910  26.1445781  33.1644763   4.4073069  26.3186433  32.8031398
   3.0588661  26.9640198  33.0420493  15.1974385  37.8534407  22.5690038
  15.8352795  37.7341154  21.8653378  15.0795228  38.8015251  22.6277990
  12.0064092  37.8061835  22.5051563  11.6682603  37.6902900  21.6172097
  12.8753860  37.4053000  22.4852569  12.4883875  38.9596687  28.4637768
  12.4772515  38.5649485  27.5918272  12.6504514  38.2262759  29.0571540
   5.4115339  41.1548503  21.3332674   6.2036631  40.8139328  20.9178973
   5.6511990  41.2643478  22.2534827   9.2091136  41.7433799  27.4116952
   8.9181002  42.6479429  27.2963618   9.8448120  41.7850326  28.1261022
  10.1347343  39.1210647  24.0018312  10.7310915  38.8966669  23.2875275
  10.1922314  38.3795393  24.6043760  20.1524081  35.5161094  20.5476224
  20.8849253  34.9460311  20.7814054  19.3963437  35.1282694  20.9882730
  17.6749501  29.2282668  25.0070833  17.3432826  30.0978079  24.7832048
  17.0795115  28.9118952  25.6864863  14.1681021  41.4295214  24.4066746
  13.8681744  42.3320253  24.2982553  13.8232080  41.1627397  25.2587899
  17.5678165  33.9477754  22.0864183  16.6595042  33.8793163  21.7922944
  17.5165761  34.4249699  22.9146009   9.1501801  48.1939534  17.3737713
   9.0725830  49.1447359  17.4526194   8.5463444  47.8485407  18.0312640
  11.6419031  35.3667400  30.0299080  10.8652365  35.9261320  30.0201945
  12.2809594  35.8524183  30.5513951  19.4339811  32.1494193  23.8642057
  18.7914191  32.4426726  23.2181852  18.9294740  32.0347113  24.6695254
   9.8965403  38.1752853  29.5917047  10.6380087  38.7137897  29.3151871
   9.1902388  38.8019142  29.7488599  15.3720742  40.3181994  28.1889209
  15.7804098  39.8764404  27.4443841  14.6498004  39.7434621  28.4423402
  11.7251812  35.2554600  25.5622766  12.5713008  35.6794014  25.7057415
  11.6650450  34.5988225  26.2561329  15.6949557  40.8783184  21.9441498
  15.0658420  41.0428898  21.2417566  15.3075219  41.2924794  22.7152462
  19.5738789  41.8137622  19.2985862  18.8889827  42.1936523  18.7482895
  19.6582638  42.4232949  20.0317809  14.8751258  32.9158969  27.2203939
  14.6312190  33.6701029  26.6838215  15.1511188  33.2944316  28.0551187
  16.8289721  39.4597581  25.8981205  17.0406616  40.1029341  25.2215586
  16.7819469  38.6259898  25.4303135   8.1401600  40.1629074  22.1471346
   8.7102957  40.5916342  21.5088831   8.7309712  39.8811659  22.8455532
   8.6326767  35.3292501  30.3932357   8.0025427  36.0108782  30.6267754
   8.5262854  35.2175583  29.4485496  17.9435549  42.3369537  24.0703562
  18.7652992  41.9349724  23.7886244  17.9397951  42.2337771  25.0219678
  11.7092152  41.8853580  26.2264273  11.7736585  42.3473987  27.0622445
  11.0003076  41.2550945  26.3546583  26.0341542  38.6808285  20.4188534
  25.2805250  38.1115683  20.2632538  26.1689083  38.6470950  21.3659169
   7.9107509  29.6313267  32.7557608   7.5174455  29.0779466  33.4305253
   8.7273650  29.9423846  33.1464126   6.6864452  44.1862882  18.7493931
   6.8631080  45.1080846  18.5614915   7.4821285  43.8721301  19.1788311
  10.8275470  31.0471146  30.3477865  11.5685184  31.6478299  30.2682327
  11.0593393  30.3048784  29.7895908   5.9716808  36.2327514  28.6256095
   5.8570323  35.3312771  28.9263194   5.1161326  36.4791210  28.2740911
  13.0508646  44.1745254  30.2243595  12.6072500  43.3881632  29.9064500
  13.7125860  44.3624404  29.5587486   7.8095767  45.7041055  24.7504274
   8.3603192  45.5758119  23.9781268   6.9707243  46.0035944  24.3999167
  15.1489884  44.4548054  28.2524997  15.1308359  45.2756935  27.7605266
  16.0709804  44.3302129  28.4775138  11.6062938  41.9692183  29.0948505
  12.1391275  41.2080471  28.8647813  11.0777019  41.6765835  29.8372659
  17.9508497  39.2927196  21.7234363  17.2932171  39.9826458  21.8114492
  18.7548896  39.6823628  22.0668350  16.7613956  37.6471569  19.7738305
  17.2745838  38.2801561  20.2760015  17.4115180  37.0472764  19.4081665
  13.2394787  35.1221024  22.0196646  12.3217348  35.3435971  21.8618334
  13.6554930  35.1967335  21.1608353  17.5275752  42.6277570  17.9017448
  17.0738079  41.7868480  17.9582638  16.8969719  43.2638969  18.2392228
  15.9708691  44.4654067  18.8367266  16.2631666  45.0259124  18.1179631
  16.4807312  44.7582628  19.5920425  10.9342316  45.2434418  19.9260719
  10.8918495  45.4695264  18.9969251  11.8505015  45.0097793  20.0746520
  14.3807950  35.7118486  26.8241348  14.7357338  35.9389959  27.6835814
  15.0280081  36.0436862  26.2018603  20.1105687  38.8336922  17.5290677
  19.9723586  39.0238518  16.6011866  19.7541906  39.5956304  17.9858728
  20.1375067  40.9013449  22.5401949  20.5711573  40.8088738  23.3885003
  20.8506647  40.8770949  21.9021965  13.8702962  44.5015543  24.0735049
  13.9239984  45.0706479  24.8412765  13.0017743  44.6717428  23.7089086
   6.7501355  34.2033099  25.5559501   7.4224408  33.9950461  24.9072149
   5.9231142  34.0055185  25.1164733  20.9990616  40.9437149  25.0734834
  21.1926506  41.8482960  25.3194109  20.8991234  40.4844568  25.9073419
  12.6526927  30.8295040  27.5725161  12.0054842  31.5284989  27.4789638
  13.4227942  31.2631184  27.9401410  16.0605725  41.0943892  30.6475715
  15.9091231  40.8654444  29.7305798  16.0510404  42.0514493  30.6607060
  12.8291061  38.6675805  25.6321981  13.7583121  38.8186964  25.4590948
  12.4082091  38.7559826  24.7770628  11.6279393  42.6926469  23.4020519
  11.4890479  42.3245254  24.2746457  10.8393989  43.2074109  23.2304477
  12.2227545  47.7935566  14.7446055  12.3979301  47.3223609  15.5591678
  11.5360333  48.4201332  14.9727316  13.1784608  42.0708072  20.7909357
  12.8434441  42.0308842  21.6867006  12.6788554  41.4052788  20.3179767
   7.1528852  37.4775702  26.3161938   7.0148650  36.7455941  26.9173477
   8.0633776  37.3884602  26.0346125   9.7811153  37.1895661  25.8045617
  10.4910771  36.5488853  25.7632236   9.7380461  37.4408556  26.7271798
  17.7697932  44.1263015  28.7252197  17.7110478  43.4422235  28.0582780
  18.1717450  44.8682005  28.2732823   8.4940087  34.1760879  27.6241257
   7.9577444  33.7251618  28.2762853   7.9056795  34.3106788  26.8811721
   6.7888630  50.9424928  21.5185915   7.0285229  51.5743453  22.1964934
   5.9457827  50.5912968  21.8051275  17.7715339  42.0902598  26.9566176
  16.8842118  41.7528520  27.0792575  18.3413890  41.3585630  27.1934942
  11.3016492  46.7504051  23.9227419  11.2286664  47.5559022  24.4346724
  10.8593885  46.9496017  23.0975441  11.0906272  45.9875821  17.4330241
  10.3073794  46.5297501  17.5268466  11.7899017  46.5049801  17.8324482
  22.2532679  37.5010816  21.7182738  22.2422556  38.3835531  21.3476671
  21.3850059  37.1482367  21.5237275  13.7615176  46.6490885  26.0785578
  14.4743148  47.2838350  26.0061480  13.2705204  46.7454751  25.2625580
   8.8127089  44.3985328  26.8991149   9.5136549  45.0321811  27.0520543
   8.3422204  44.7400060  26.1386788  16.6128375  36.9529936  24.7243699
  15.9599826  37.2005843  24.0696152  16.9908755  36.1394074  24.3906177
  13.5735549  46.9889629  18.8271870  13.7557944  46.1711285  19.2899622
  14.3968535  47.2057321  18.3896760  13.9077715  45.9157814  16.0886918
  14.4365481  45.4050269  15.4757080  14.1705934  45.6000344  16.9532451
  12.6615948  37.6949747  31.2109736  11.9856585  37.5943876  31.8812112
  13.4843582  37.5388961  31.6745734   4.4094807  43.9321683  23.8322252
   4.9948244  43.1865371  23.9650156   4.2119646  44.2425640  24.7158916
   7.2633463  46.9672931  18.8484694   6.5943838  47.4519058  18.3648734
   7.1246332  47.2142151  19.7628073  11.4038731  49.0016674  25.4467352
  11.9557039  49.1648296  26.2116438  11.7444925  49.5921112  24.7747377
   5.8555497  33.4214957  29.6962271   6.4827536  33.0392034  30.3099796
   4.9983416  33.2029159  30.0617964  16.2549606  43.8277932  31.3016007
  16.7989510  44.4407890  30.8070962  15.6736450  44.3857510  31.8183020
  14.5407119  46.9498650  22.4331035  14.4158258  46.1488390  21.9241980
  15.1986210  47.4444843  21.9445005  16.6042027  44.7507670  24.0610585
  15.6572362  44.6313021  23.9888911  16.9524800  43.8630168  24.1436846
   8.9641600  30.6401809  27.8848827   9.4876002  30.8864105  28.6475136
   8.7453934  31.4721844  27.4651964  13.6088460  44.5460386  20.2614937
  13.4613423  43.6177094  20.4422507  14.4341954  44.5680477  19.7772012
  17.2122582  45.3688945  21.3479810  18.1369130  45.1631806  21.2104261
  17.0437885  45.1205346  22.2569151  10.1694145  31.5815504  25.5698497
   9.8290966  30.7823317  25.9719177   9.4633152  31.8817215  24.9975330
  12.0571709  32.7823825  23.9251816  11.7989487  33.7040896  23.9236146
  11.5256750  32.3854260  24.6152280  17.0017898  45.8874612  16.7041901
  17.1754776  45.3221035  15.9515754  17.4946789  46.6875507  16.5221391
   2.8194858  37.8989281  24.7705460   2.2748326  38.6749089  24.9025734
   3.6974208  38.2460086  24.6124581  22.8557289  38.6511035  18.3232201
  23.2988435  37.9018360  17.9251324  21.9783800  38.6421172  17.9405933
  17.9893071  45.2041377  13.8038799  18.6843975  45.8248069  14.0226114
  18.3316221  44.3536728  14.0791177   3.6060880  37.0259178  27.6635617
   2.8642616  37.1741813  28.2500247   3.2853624  37.2867443  26.8002366
  19.8884494  42.6541082  15.3326130  20.4135818  42.9928355  14.6075450
  19.8006846  41.7188098  15.1489265  11.5504543  46.5675156  27.4616007
  11.8591669  46.3224303  28.3338706  12.3480025  46.7721794  26.9734877
  11.5725155  48.7213066  19.6921383  11.1330145  48.2289444  20.3854240
  12.3233272  48.1786033  19.4513459   4.0517494  44.9124606  19.6946011
   4.8775514  44.6128378  19.3144655   3.7011546  44.1432229  20.1435800
   9.0199027  44.2651075  21.7643685   8.3979036  43.6021780  21.4645913
   9.6903894  44.2912206  21.0817333   9.0923554  32.7432863  31.3576191
   9.1411710  33.6194985  30.9753961   9.6346068  32.2010256  30.7847834
  19.5778400  43.2873986  30.6377328  18.7873944  43.2698125  30.0981827
  19.3411754  43.8262280  31.3926365  19.6976275  40.1366452  27.9510057
  19.7474280  39.9716460  28.8925579  19.5890198  39.2693711  27.5607937
  16.9880037  36.1197380  29.2669363  17.8889900  35.9803845  28.9753361
  17.0628012  36.2851835  30.2067541  11.3222843  33.4964235  28.1122550
  10.4526152  33.7897801  27.8405138  11.5582323  34.0804680  28.8329813
  21.1994472  42.5563394  28.1952078  20.9079280  42.9193374  29.0315539
  20.5866603  41.8430402  28.0165410  22.3990154  40.1216274  20.7154648
  23.2337046  40.5606078  20.8792209  22.5349283  39.6454927  19.8962894
  19.4481660  37.6796008  26.6632136  19.9235782  37.8723655  25.8550988
  18.5247225  37.7355194  26.4175520  14.0261877  29.7143852  25.6287970
  14.5443820  30.4504879  25.3034459  13.6717009  30.0207845  26.4634729
  18.1483329  34.5561768  24.8960442  19.1000752  34.6559866  24.9172666
  17.9786779  33.7640037  25.4058526  16.1697709  31.6417352  25.0819843
  15.5747641  31.9222364  24.3866331  15.8847405  32.1311253  25.8536584
  20.6271407  37.7767888  24.0102741  20.5947727  36.8383889  24.1962425
  21.2372030  37.8551925  23.2768566  20.7765895  34.5678932  24.0561025
  20.2604944  33.7837388  23.8690953  21.6605844  34.2397648  24.2207544
  26.4447957  38.8383895  23.1508778  27.1751345  38.5769183  23.7116482
  25.8354902  38.1012617  23.1910846  24.5263254  36.9791758  23.7483229
  23.7996417  36.8447723  23.1399721  24.1110541  37.2868586  24.5539947
  12.3493430  40.6981687  31.5130602  13.2696440  40.8760286  31.7070649
  12.3143013  39.7537733  31.3610302   5.3455503  38.6082722  24.1553384
   5.5641513  39.5399830  24.1741417   5.7581277  38.2490696  24.9408187
  10.2183368  34.1815928  33.5456133  10.1180095  35.1310285  33.4768224
  10.0004910  33.8534167  32.6732203  10.0814638  37.6113067  32.3621194
   9.5981720  38.4113427  32.5685083  10.1675577  37.6221011  31.4088638
   6.0087976  41.5017601  24.3989628   6.9631229  41.4701544  24.3319560
   5.8100499  41.0408225  25.2139854   6.5987358  40.0718717  26.9660426
   7.4180247  40.5662796  26.9895263   6.8724165  39.1550685  26.9377993
  22.1441049  33.2003610  21.1016661  22.7385540  32.9599346  20.3909969
  22.2167632  32.4810740  21.7290197   4.3638204  47.0437221  21.4159826
   4.2292672  46.2837622  20.8497824   3.9470267  47.7678121  20.9488615
  24.4512121  36.5069811  19.8760082  23.8911679  36.5763000  20.6491644
  23.8455625  36.3310795  19.1559578   7.5207330  47.9406538  21.6278268
   7.4039714  48.8851970  21.5256959   6.6999777  47.6380099  22.0164068
   1.8522272  34.4056851  27.6652623   2.4981136  33.8955805  28.1539848
   1.6439423  35.1425533  28.2396048  14.3775664  41.4737699  33.1644763
  15.2466824  41.6478351  32.8031398  13.8982416  42.2932115  33.0420493
   8.5461844  48.5934800  24.8434197   9.4489091  48.6258410  25.1600692
   8.3199214  47.6635251  24.8580533  10.3015446  47.3465786  21.5044276
   9.3511077  47.3467648  21.3908648  10.6047933  46.5998521  20.9880310
   6.1919763  31.5524468  31.7627637   7.0551225  31.1961273  31.9730961
   5.6185174  31.2138363  32.4503041  26.0368140  53.1826325  22.5690038
  26.6746550  53.0633072  21.8653378  25.9188983  54.1307169  22.6277990
  22.8457846  53.1353753  22.5051563  22.5076358  53.0194817  21.6172097
  23.7147614  52.7344918  22.4852569  18.7044662  54.9889229  18.4948454
  18.1409527  54.8979166  17.7264741  18.5897057  54.1689134  18.9750946
  23.3277629  54.2888604  28.4637768  23.3166270  53.8941403  27.5918272
  23.4898269  53.5554677  29.0571540  16.2509094  56.4840421  21.3332674
  17.0430386  56.1431245  20.9178973  16.4905744  56.5935396  22.2534827
  24.2844221  58.6560197  13.8062918  23.6332200  59.2414277  13.4196932
  25.0788583  59.1866392  13.8657956  18.2099848  55.7449334  14.2050053
  18.9830724  55.1978321  14.0662929  18.5625247  56.6093583  14.4164514
  20.0484890  57.0725716  27.4116952  19.7574756  57.9771347  27.2963618
  20.6841875  57.1142244  28.1261022  20.9741097  54.4502565  24.0018312
  21.5704669  54.2258587  23.2875275  21.0316069  53.7087310  24.6043760
  20.5466126  51.9042000  11.8368503  20.7991646  51.3823521  11.0751966
  19.6090685  51.7408146  11.9395186  25.5909408  50.9077778  19.6443246
  26.3772498  50.4897202  19.2933663  25.8548113  51.8123871  19.8124894
  25.7619486  56.3450629  14.3431903  25.1265319  56.4185255  15.0552807
  25.4316892  56.9344228  13.6650982  30.9917836  50.8453012  20.5476224
  31.7243007  50.2752228  20.7814054  30.2357191  50.4574612  20.9882730
  20.2662414  53.8070106  14.0392878  20.1498672  53.1315009  14.7073962
  20.3764674  53.3202480  13.2225031  22.6093955  53.2680253  17.7439567
  22.2452162  52.7410874  18.4552488  23.4661071  52.8778722  17.5706052
  28.5143256  44.5574586  25.0070833  28.1826581  45.4269997  24.7832048
  27.9188869  44.2410870  25.6864863  22.2499442  48.2970153  12.7400915
  22.4173845  49.1650389  13.1071386  22.0596611  48.4597435  11.8162205
  25.0074775  56.7587132  24.4066746  24.7075499  57.6612171  24.2982553
  24.6625835  56.4919315  25.2587899  18.4587257  53.2100929  20.4403450
  17.5337753  53.0777143  20.6481142  18.7071670  53.9895148  20.9373393
  28.4071919  49.2769672  22.0864183  27.4988797  49.2085080  21.7922944
  28.3559515  49.7541617  22.9146009  22.2288663  50.7527810  13.7247582
  22.1088288  51.1984861  14.5633063  21.5341251  51.1013128  13.1661120
  15.8196068  52.8534202  21.2747239  15.9488449  53.1068681  22.1886651
  15.1393519  53.4461910  20.9551894  19.9895555  63.5231452  17.3737713
  19.9119585  64.4739277  17.4526194  19.3857199  63.1777325  18.0312640
  22.4812785  50.6959317  30.0299080  21.7046119  51.2553238  30.0201945
  23.1203348  51.1816100  30.5513951  30.2733566  47.4786110  23.8642057
  29.6307946  47.7718643  23.2181852  29.7688494  47.3639031  24.6695254
  27.9273729  51.2249284  14.5527916  28.8391585  51.4576670  14.3775614
  27.4183376  51.8086328  13.9902995  20.7359157  53.5044771  29.5917047
  21.4773842  54.0429815  29.3151871  20.0296143  54.1311060  29.7488599
  26.2114497  55.6473911  28.1889209  26.6197853  55.2056322  27.4443841
  25.4891758  55.0726539  28.4423402  22.5645567  50.5846518  25.5622766
  23.4106762  51.0085932  25.7057415  22.5044205  49.9280142  26.2561329
  26.5343312  56.2075102  21.9441498  25.9052174  56.3720816  21.2417566
  26.1468974  56.6216712  22.7152462  30.4132543  57.1429540  19.2985862
  29.7283582  57.5228441  18.7482895  30.4976393  57.7524866  20.0317809
  25.7145012  48.2450886  27.2203939  25.4705944  48.9992947  26.6838215
  25.9904943  48.6236234  28.0551187  27.6683475  54.7889499  25.8981205
  27.8800370  55.4321259  25.2215586  27.6213223  53.9551815  25.4303135
  25.2709704  47.4007319  22.8017777  24.4094183  47.6988573  23.0934515
  25.2972139  47.6177718  21.8698810  22.0871273  55.9449510  19.2091583
  22.5509619  56.2237213  18.4196205  21.8228072  55.0432955  19.0264674
  18.9795355  55.4920992  22.1471346  19.5496712  55.9208260  21.5088831
  19.5703466  55.2103576  22.8455532  21.0240160  52.0672662  16.0181148
  21.7264203  52.5193706  16.4855074  20.6920788  51.4256481  16.6461041
  19.4720521  50.6584419  30.3932357  18.8419182  51.3400700  30.6267754
  19.3656609  50.5467501  29.4485496  14.7665493  50.3256215  21.3198282
  13.9764547  50.5813744  20.8438392  15.2576741  51.1404553  21.4250322
  28.7829303  57.6661454  24.0703562  29.6046747  57.2641642  23.7886244
  28.7791706  57.5629688  25.0219678  16.7180239  50.6900794  18.2781758
  15.9211402  50.8019489  18.7965254  16.4905831  51.0287447  17.4122649
  22.5485906  57.2145498  26.2264273  22.6130339  57.6765905  27.0622445
  21.8396830  56.5842862  26.3546583  13.0503196  50.5786706  23.7513272
  13.3011235  51.4633715  24.0170848  13.5862745  50.3991307  22.9788364
  36.8735296  54.0100203  20.4188534  36.1199004  53.4407601  20.2632538
  37.0082837  53.9762867  21.3659169  22.2633924  58.8813605  16.0943253
  22.1279599  59.7265141  16.5228101  22.8043737  59.0832883  15.3309187
  18.7501264  44.9605185  32.7557608  18.3568209  44.4071383  33.4305253
  19.5667404  45.2715763  33.1464126  15.7163322  56.3989043  16.6671178
  16.2287842  57.1932293  16.8176743  16.3686034  55.7015334  16.6004780
  17.5258206  59.5154799  18.7493931  17.7024835  60.4372764  18.5614915
  18.3215040  59.2013219  19.1788311  21.6669225  46.3763064  30.3477865
  22.4078938  46.9770217  30.2682327  21.8987148  45.6340702  29.7895908
  16.8110563  51.5619431  28.6256095  16.6964078  50.6604688  28.9263194
  15.9555081  51.8083128  28.2740911  23.8902401  59.5037172  30.2243595
  23.4466255  58.7173550  29.9064500  24.5519614  59.6916322  29.5587486
  18.6489522  61.0332973  24.7504274  19.1996947  60.9050036  23.9781268
  17.8100998  61.3327862  24.3999167  25.9883639  59.7839971  28.2524997
  25.9702114  60.6048853  27.7605266  26.9103559  59.6594047  28.4775138
  22.4456693  57.2984101  29.0948505  22.9785030  56.5372389  28.8647813
  21.9170774  57.0057753  29.8372659  25.6126388  42.4044167  24.6242147
  25.2690657  43.2945809  24.5481257  25.9805350  42.2145825  23.7611732
  13.6812238  54.7277697  17.4430749  14.5187460  55.1374706  17.2264457
  13.8590506  53.7877140  17.4130943  25.5776670  52.3952778  13.1314582
  25.0623294  53.1657383  13.3702969  25.3053979  51.7217914  13.7547643
  23.1623781  47.2402479  18.1899820  22.3065378  46.8509329  18.0105459
  23.5750733  47.3194440  17.3299606  24.6922928  44.7748822  22.5891380
  24.1887724  44.7378957  21.7759185  24.9853535  45.6841565  22.6488037
  20.9365814  44.8587552  21.5957562  21.8018811  44.6630360  21.2363451
  21.0043323  44.6297904  22.5226918  30.5510945  55.1485133  15.0667755
  29.7740387  54.8096292  14.6222917  31.2302426  55.1537756  14.3922720
  25.3662974  50.2679870  14.9574363  25.0613109  50.5826019  15.8084506
  26.3193416  50.3461290  15.0001696  23.8109405  56.4270093  16.6067317
  23.2830767  55.6922853  16.2940554  23.3096908  57.2044770  16.3607285
  28.7902251  54.6219114  21.7234363  28.1325926  55.3118375  21.8114492
  29.5942651  55.0115546  22.0668350  18.5428133  47.0889760  18.9673928
  19.1171885  46.8664941  18.2347121  19.1299115  47.1578454  19.7202530
  27.6007710  52.9763487  19.7738305  28.1139592  53.6093478  20.2760015
  28.2508934  52.3764682  19.4081665  18.8697720  49.1194221  12.9869814
  18.0335032  49.4568907  13.3079088  18.7302490  48.9843201  12.0496951
  20.8450801  43.9631009  17.6948998  20.1915213  43.6480026  17.0705613
  20.8031275  43.3406749  18.4208821  21.9562006  54.2450304   9.6102290
  21.0489067  54.0139557   9.8093439  22.4533038  53.4487923   9.7976272
  24.8630085  62.9547811  12.5298976  24.1891783  63.2579508  13.1383934
  25.2495906  63.7576891  12.1804433  24.0788541  50.4512942  22.0196646
  23.1611103  50.6727889  21.8618334  24.4948685  50.5259253  21.1608353
  24.8623589  51.8504358  17.1499326  25.6095408  52.3625755  16.8406448
  25.1315178  51.5288411  18.0103719  23.1350239  54.3462899  14.1326280
  22.2261458  54.0621931  14.2298750  23.1645323  54.7661977  13.2729587
  28.3669506  57.9569488  17.9017448  27.9131834  57.1160398  17.9582638
  27.7363473  58.5930886  18.2392228  27.3102426  48.8861474  19.1318115
  26.5725183  48.3738860  19.4628358  27.5629200  48.4461856  18.3201392
  26.8102446  59.7945985  18.8367266  27.1025420  60.3551042  18.1179631
  27.3201066  60.0874546  19.5920425  27.4114053  41.6637726  19.7259884
  27.7172930  40.8035090  19.4385799  28.1366658  42.2555346  19.5258878
  13.7038409  52.0668413  18.1141482  13.5062809  51.4737773  17.3892549
  13.1485073  51.7620623  18.8317421  21.6835133  51.9591519  20.2336075
  21.7383743  51.0065356  20.1578552  20.8726335  52.1150958  20.7177374
  22.8326327  55.8871642  11.4714359  22.3945757  55.1707501  11.0119996
  23.5736768  56.1147757  10.9099450  19.6227493  50.5768579  17.9926454
  18.8095359  50.8762749  18.3991646  20.1186487  50.1824268  18.7100937
  21.7736071  60.5726336  19.9260719  21.7312250  60.7987182  18.9969251
  22.6898770  60.3389710  20.0746520  25.2201705  51.0410403  26.8241348
  25.5751092  51.2681877  27.6835814  25.8673836  51.3728780  26.2018603
  30.9499442  54.1628839  17.5290677  30.8117340  54.3530435  16.6011866
  30.5935660  54.9248222  17.9858728  19.1141568  48.1486934  23.6087689
  19.7540947  48.0075694  22.9110653  18.2819098  47.8621448  23.2326291
  30.9768821  56.2305366  22.5401949  31.4105328  56.1380655  23.3885003
  31.6900402  56.2062867  21.9021965  19.8901872  57.4489365  19.7222682
  20.6842470  56.9539685  19.5205257  19.1793564  56.9207228  19.3590387
  24.7096716  59.8307460  24.0735049  24.7633738  60.3998397  24.8412765
  23.8411498  60.0009345  23.7089086  16.1984635  51.5932447  15.7982434
  15.2682223  51.5316902  16.0152397  16.2942107  51.0708399  15.0019076
  16.1170184  48.1187259  18.3860676  16.3777002  49.0332593  18.2769837
  16.9387357  47.6511702  18.5357289  17.5895110  49.5325017  25.5559501
  18.2618163  49.3242379  24.9072149  16.7624896  49.3347103  25.1164733
  31.8384371  56.2729067  25.0734834  32.0320261  57.1774877  25.3194109
  31.7384989  55.8136486  25.9073419  23.4920682  46.1586958  27.5725161
  22.8448597  46.8576907  27.4789638  24.2621697  46.5923101  27.9401410
  26.8999479  56.4235810  30.6475715  26.7484986  56.1946361  29.7305798
  26.8904159  57.3806411  30.6607060  23.6684816  53.9967722  25.6321981
  24.5976876  54.1478882  25.4590948  23.2475846  54.0851743  24.7770628
  22.4673148  58.0218387  23.4020519  22.3284233  57.6537171  24.2746457
  21.6787744  58.5366026  23.2304477  23.0621300  63.1227483  14.7446055
  23.2373055  62.6515526  15.5591678  22.3754088  63.7493250  14.9727316
  24.0178363  57.3999990  20.7909357  23.6828195  57.3600760  21.6867006
  23.5182309  56.7344705  20.3179767  17.9922607  52.8067620  26.3161938
  17.8542405  52.0747858  26.9173477  18.9027530  52.7176520  26.0346125
  26.9537554  54.7456024  11.0646416  26.3366725  54.0202852  10.9679469
  26.4854043  55.5065384  10.7213491  20.6204907  52.5187579  25.8045617
  21.3304526  51.8780771  25.7632236  20.5774216  52.7700474  26.7271798
  28.6091686  59.4554932  28.7252197  28.5504232  58.7714152  28.0582780
  29.0111205  60.1973922  28.2732823  19.3333841  49.5052797  27.6241257
  18.7971198  49.0543535  28.2762853  18.7450550  49.6398706  26.8811721
  17.6282385  66.2716846  21.5185915  17.8678983  66.9035370  22.1964934
  16.7851581  65.9204886  21.8051275  28.6109093  57.4194516  26.9566176
  27.7235872  57.0820438  27.0792575  29.1807644  56.6877547  27.1934942
  10.2638241  53.7518608  20.2809228  10.9509280  53.4380338  19.6930243
  10.1086369  54.6559973  20.0076479  15.0672963  48.6408804  24.7094251
  14.9831151  48.0334474  23.9744661  14.2455669  49.1317823  24.7103748
  22.1410247  62.0795969  23.9227419  22.0680418  62.8850940  24.4346724
  21.6987640  62.2787934  23.0975441  21.9300026  61.3167739  17.4330241
  21.1467548  61.8589419  17.5268466  22.6292772  61.8341718  17.8324482
  25.2396677  47.1262368  20.0764446  25.7365376  46.3732330  19.7565517
  24.4683658  47.1626685  19.5107656  33.0926434  52.8302734  21.7182738
  33.0816310  53.7127449  21.3476671  32.2243813  52.4774284  21.5237275
  24.6008930  61.9782803  26.0785578  25.3136903  62.6130267  26.0061480
  24.1098959  62.0746669  25.2625580  26.3226457  55.8834055  17.6502870
  25.3882736  56.0035518  17.4807574  26.5003126  54.9806522  17.3862880
  21.8231645  49.2679751  19.8036131  21.4529433  48.7150791  20.4917037
  22.3190738  48.6637884  19.2511131  29.7099009  51.7251375  18.1852904
  30.1759461  52.5579366  18.1113207  30.1606509  51.2596356  18.8898162
  19.6520844  59.7277246  26.8991149  20.3530303  60.3613729  27.0520543
  19.1815959  60.0691978  26.1386788  27.7775240  58.0695196  15.1839056
  28.0535084  57.9551790  16.0932930  26.9079738  57.6712681  15.1451229
  27.6815671  44.0931961  22.2243805  26.7678751  44.3236188  22.3926012
  28.1108773  44.1770406  23.0757838  27.4522130  52.2821853  24.7243699
  26.7993580  52.5297761  24.0696152  27.8302510  51.4685992  24.3906177
  24.4129304  62.3181547  18.8271870  24.5951698  61.5003203  19.2899622
  25.2362290  62.5349239  18.3896760  24.7471469  61.2449732  16.0886918
  25.2759236  60.7342186  15.4757080  25.0099689  60.9292262  16.9532451
  23.5009703  53.0241665  31.2109736  22.8250340  52.9235794  31.8812112
  24.3237337  52.8680878  31.6745734  15.2488562  59.2613601  23.8322252
  15.8341999  58.5157289  23.9650156  15.0513400  59.5717558  24.7158916
  18.1027217  62.2964848  18.8484694  17.4337592  62.7810976  18.3648734
  17.9640087  62.5434069  19.7628073   9.8406217  51.8319201  22.5526695
   9.8790316  51.2982792  23.3463813   9.3346509  51.3054407  21.9337672
  22.2432486  64.3308592  25.4467352  22.7950794  64.4940213  26.2116438
  22.5838679  64.9213030  24.7747377  17.2196979  46.6783742  26.0489237
  17.2838305  47.5398573  25.6366635  17.1564099  46.0657743  25.3161596
  16.6949251  48.7506874  29.6962271  17.3221290  48.3683952  30.3099796
  15.8377170  48.5321076  30.0617964  27.0943360  59.1569849  31.3016007
  27.6383264  59.7699808  30.8070962  26.5130205  59.7149428  31.8183020
  13.4714794  50.5583303  15.6280626  13.7668235  49.6493982  15.5747680
  12.5702830  50.5371043  15.3061629  25.3800873  62.2790567  22.4331035
  25.2552012  61.4780307  21.9241980  26.0379964  62.7736761  21.9445005
  17.0009041  48.6339300  21.6108175  16.2795627  49.2475268  21.4715648
  17.7902297  49.1697065  21.5324821  27.4435781  60.0799588  24.0610585
  26.4966117  59.9604939  23.9888911  27.7918555  59.1922086  24.1436846
  19.8035355  45.9693726  27.8848827  20.3269757  46.2156023  28.6475136
  19.5847688  46.8013761  27.4651964  15.2002636  48.2397401  15.7519951
  14.8715342  47.3594780  15.5695057  15.5542007  48.1845070  16.6396341
  24.4482215  59.8752304  20.2614937  24.3007177  58.9469011  20.4422507
  25.2735708  59.8972395  19.7772012  18.3144459  48.5270371  16.1195429
  18.6540531  49.0556292  15.3974037  18.7616579  48.8650777  16.8953996
  28.0516337  60.6980863  21.3479810  28.9762884  60.4923724  21.2104261
  27.8831640  60.4497264  22.2569151  21.0087900  46.9107422  25.5698497
  20.6684720  46.1115235  25.9719177  20.3026906  47.2109132  24.9975330
  21.6604372  43.9956734  24.0225820  22.4830441  43.5217212  23.9004710
  21.9042435  44.7747218  24.5224506  20.3012606  47.0244992  14.3188722
  21.0220969  47.4026245  13.8152439  19.6777910  47.7433869  14.4223700
  24.4443729  47.7290141  15.2547054  24.6607343  48.6114779  14.9535882
  23.9637796  47.3376355  14.5252696  19.1842950  50.6875855  21.8317799
  19.0387531  51.0016158  22.7242080  18.7068154  51.3060755  21.2788697
  21.0439333  47.6778403  21.8798688  21.0300902  46.7819496  21.5430986
  21.7611761  47.6849066  22.5136974  22.8965464  48.1115743  23.9251816
  22.6383242  49.0332814  23.9236146  22.3650504  47.7146177  24.6152280
  27.8411653  61.2166530  16.7041901  28.0148530  60.6512952  15.9515754
  28.3340544  62.0167425  16.5221391  13.6588613  53.2281199  24.7705460
  13.1142081  54.0041007  24.9025734  14.5367962  53.5752004  24.6124581
  20.4476229  46.5592783  17.1486258  20.5692140  45.6309429  17.3477146
  20.1578272  46.5731469  16.2364574  23.3167420  44.2447693  20.2852978
  23.3389116  44.3087026  19.3304958  23.7335479  43.4052202  20.4793484
  33.6951044  53.9802953  18.3232201  34.1382190  53.2310278  17.9251324
  32.8177554  53.9713089  17.9405933  28.8286825  60.5333294  13.8038799
  29.5237730  61.1539987  14.0226114  29.1709975  59.6828646  14.0791177
  14.4454634  52.3551095  27.6635617  13.7036370  52.5033731  28.2500247
  14.1247379  52.6159361  26.8002366  30.7278248  57.9833000  15.3326130
  31.2529572  58.3220273  14.6075450  30.6400601  57.0480015  15.1489265
  22.3898297  61.8967074  27.4616007  22.6985423  61.6516220  28.3338706
  23.1873779  62.1013712  26.9734877  22.4118909  64.0504983  19.6921383
  21.9723899  63.5581362  20.3854240  23.1627026  63.5077951  19.4513459
  14.8911248  60.2416524  19.6946011  15.7169268  59.9420296  19.3144655
  14.5405300  59.4724146  20.1435800  19.8592781  59.5942992  21.7643685
  19.2372791  58.9313697  21.4645913  20.5297648  59.6204124  21.0817333
  13.0919853  58.1602851  20.6534945  12.2551761  57.7325025  20.4718946
  13.0643499  58.3535294  21.5905736  19.9317309  48.0724780  31.3576191
  19.9805464  48.9486903  30.9753961  20.4739823  47.5302173  30.7847834
  30.4172154  58.6165904  30.6377328  29.6267698  58.5990042  30.0981827
  30.1805509  59.1554197  31.3926365  30.5370029  55.4658370  27.9510057
  30.5868034  55.3008377  28.8925579  30.4283953  54.5985629  27.5607937
  19.4206288  58.1446916  15.2402146  19.5694409  58.8282380  14.5868818
  20.2272732  58.1252006  15.7551601  27.8273792  51.4489298  29.2669363
  28.7283655  51.3095763  28.9753361  27.9021766  51.6143753  30.2067541
  22.1616597  48.8256153  28.1122550  21.2919907  49.1189719  27.8405138
  22.3976078  49.4096598  28.8329813  32.0388226  57.8855311  28.1952078
  31.7473035  58.2485292  29.0315539  31.4260358  57.1722320  28.0165410
  33.2383909  55.4508191  20.7154648  34.0730800  55.8897995  20.8792209
  33.3743037  54.9746844  19.8962894  30.2875415  53.0087926  26.6632136
  30.7629536  53.2015572  25.8550988  29.3640980  53.0647112  26.4175520
  17.1758921  54.1712093  16.2463214  16.9304963  53.2674423  16.4443425
  17.3454836  54.1729244  15.3042692  24.8655631  45.0435770  25.6287970
  25.3837575  45.7796797  25.3034459  24.5110764  45.3499763  26.4634729
  16.4454569  49.9040451  13.7449376  15.7523814  49.9784806  13.0889412
  16.2006321  49.1400794  14.2670893  25.1168225  41.4636052  21.1488867
  25.3969979  40.7959241  21.7749293  25.9018832  41.6565148  20.6363530
  22.9201694  60.6395046  12.7113893  22.3475661  61.2585233  12.2584365
  23.4934487  61.1894408  13.2453815  28.9877084  49.8853686  24.8960442
  29.9394506  49.9851784  24.9172666  28.8180534  49.0931955  25.4058526
  27.0091463  46.9709269  25.0819843  26.4141395  47.2514282  24.3866331
  26.7241160  47.4603170  25.8536584  26.1398953  60.9232196  13.8422475
  27.0729627  60.8577758  14.0455351  26.0522166  61.7588463  13.3837008
  28.7686970  60.2398067  10.8026423  28.6900602  59.9057930  11.6962181
  29.5896637  60.7319834  10.8017895  31.4665161  53.1059806  24.0102741
  31.4341481  52.1675807  24.1962425  32.0765785  53.1843843  23.2768566
  23.3048492  51.9755859  10.0529945  24.2507597  51.8462067  10.1218363
  22.9262737  51.2370521  10.5299374  31.6159650  49.8970849  24.0561025
  31.0998698  49.1129306  23.8690953  32.4999598  49.5689566  24.2207544
  29.2770377  43.6411865  20.0156837  29.0795198  43.3326953  20.9000169
  29.8870082  44.3673504  20.1454767  37.2841711  54.1675813  23.1508778
  38.0145100  53.9061101  23.7116482  36.6748657  53.4304535  23.1910846
  35.3657008  52.3083675  23.7483229  34.6390172  52.1739640  23.1399721
  34.9504295  52.6160504  24.5539947  23.1887185  56.0273605  31.5130602
  24.1090194  56.2052204  31.7070649  23.1536768  55.0829650  31.3610302
  12.4069350  51.2212199  20.4383877  12.0872134  50.3677507  20.1458251
  11.8602778  51.4360777  21.1941844  16.1849257  53.9374640  24.1553384
  16.4035267  54.8691747  24.1741417  16.5975031  53.5782614  24.9408187
  23.1053475  44.4442725  16.1429072  22.2954203  44.0989810  16.5184318
  23.7937892  44.1350269  16.7316684  25.0344023  43.5220772  17.7653369
  25.5875062  43.9416225  18.4243392  25.2714110  42.5956520  17.8076325
  21.0577123  49.5107845  33.5456133  20.9573849  50.4602202  33.4768224
  20.8398665  49.1826084  32.6732203  12.2757610  54.8415110  22.4076999
  11.5821081  54.4269063  21.8946953  13.0230601  54.8835647  21.8110418
  28.4122830  45.6321297  17.2732033  27.8321499  46.2906101  16.8910085
  28.1458763  44.8098641  16.8619450  26.8626397  45.0326355  19.4753353
  27.3626175  45.1442889  18.6667672  27.5062005  44.7287407  20.1154162
  20.9208393  52.9404984  32.3621194  20.4375474  53.7405344  32.5685083
  21.0069332  52.9512929  31.4088638  14.1894352  54.7733364  20.2843014
  14.1665040  54.8721051  19.3324897  14.4994989  55.6198515  20.6060180
  16.8481730  56.8309519  24.3989628  17.8024984  56.7993461  24.3319560
  16.6494254  56.3700143  25.2139854  17.4381112  55.4010635  26.9660426
  18.2574001  55.8954714  26.9895263  17.7117920  54.4842603  26.9377993
  27.1947708  47.7921387  16.3288381  26.3073563  48.0771038  16.1108576
  27.6101698  47.6315151  15.4815658  30.5462245  47.8167908  20.0442720
  31.3222635  48.3064361  20.3167337  29.8210379  48.2425962  20.5014590
  32.9834803  48.5295527  21.1016661  33.5779294  48.2891263  20.3909969
  33.0561387  47.8102658  21.7290197  15.2031959  62.3729138  21.4159826
  15.0686427  61.6129539  20.8497824  14.7864021  63.0970038  20.9488615
  26.3390922  57.5566062  10.4236401  27.0426772  57.7616064  11.0394057
  25.6153571  58.1242824  10.6885485  27.1688732  53.3075923  16.5438671
  27.1123934  53.7644475  15.7046304  27.7217075  52.5466608  16.3661514
  30.9793538  49.0965655  17.3688791  30.7230472  48.6962291  18.1996998
  30.3546406  49.8109449  17.2438930  35.2905876  51.8361728  19.8760082
  34.7305434  51.9054918  20.6491644  34.6849379  51.6602713  19.1559578
  18.3601085  63.2698455  21.6278268  18.2433469  64.2143888  21.5256959
  17.5393531  62.9672017  22.0164068  28.2477619  57.9948591  12.4734861
  29.0823223  57.5629790  12.2912336  28.0861962  57.8230605  13.4011756
  27.9023512  54.4980704  13.8391200  27.8472315  54.3324976  12.8979645
  27.2769567  55.2056737  13.9953390  12.6916026  49.7348769  27.6652623
  13.3374890  49.2247723  28.1539848  12.4833178  50.4717450  28.2396048
  25.2169419  56.8029616  33.1644763  26.0860578  56.9770269  32.8031398
  24.7376170  57.6224033  33.0420493  21.2119637  43.9988813  13.4176519
  21.1998307  44.9430653  13.5744790  22.1043059  43.8158959  13.1235980
  19.3855599  63.9226717  24.8434197  20.2882846  63.9550328  25.1600692
  19.1592969  62.9927168  24.8580533  21.1409201  62.6757704  21.5044276
  20.1904832  62.6759565  21.3908648  21.4441687  61.9290438  20.9880310
  25.0271756  40.5931590  17.6722456  24.2604152  40.0390077  17.8179138
  25.4382461  40.6653459  18.5336607  17.0313517  46.8816386  31.7627637
  17.8944979  46.5253191  31.9730961  16.4578928  46.5430281  32.4503041
  36.8761894  68.5118242  22.5690038  37.5140304  68.3924990  21.8653378
  36.7582737  69.4599086  22.6277990  33.6851601  68.4645670  22.5051563
  33.3470112  68.3486735  21.6172097  34.5541369  68.0636835  22.4852569
  29.5438416  70.3181147  18.4948454  28.9803282  70.2271084  17.7264741
  29.4290811  69.4981051  18.9750946  34.1671384  69.6180522  28.4637768
  34.1560024  69.2233320  27.5918272  34.3292023  68.8846595  29.0571540
  27.0902848  71.8132338  21.3332674  27.8824140  71.4723163  20.9178973
  27.3299498  71.9227313  22.2534827  35.1237975  73.9852114  13.8062918
  34.4725955  74.5706195  13.4196932  35.9182338  74.5158309  13.8657956
  29.0493602  71.0741252  14.2050053  29.8224478  70.5270239  14.0662929
  29.4019001  71.9385501  14.4164514  30.8878645  72.4017634  27.4116952
  30.5968511  73.3063265  27.2963618  31.5235629  72.4434161  28.1261022
  31.8134852  69.7794482  24.0018312  32.4098424  69.5550505  23.2875275
  31.8709823  69.0379228  24.6043760  31.3859880  67.2333918  11.8368503
  31.6385401  66.7115439  11.0751966  30.4484439  67.0700063  11.9395186
  36.4303163  66.2369696  19.6443246  37.2166252  65.8189119  19.2933663
  36.6941867  67.1415788  19.8124894  36.6013240  71.6742546  14.3431903
  35.9659073  71.7477173  15.0552807  36.2710647  72.2636145  13.6650982
  41.8311590  66.1744929  20.5476224  42.5636762  65.6044146  20.7814054
  41.0750946  65.7866530  20.9882730  31.1056169  69.1362024  14.0392878
  30.9892427  68.4606927  14.7073962  31.2158429  68.6494398  13.2225031
  33.4487710  68.5972171  17.7439567  33.0845917  68.0702792  18.4552488
  34.3054826  68.2070640  17.5706052  39.3537010  59.8866503  25.0070833
  39.0220335  60.7561914  24.7832048  38.7582624  59.5702787  25.6864863
  33.0893197  63.6262070  12.7400915  33.2567599  64.4942307  13.1071386
  32.8990366  63.7889352  11.8162205  35.8468530  72.0879049  24.4066746
  35.5469253  72.9904088  24.2982553  35.5019589  71.8211233  25.2587899
  29.2981011  68.5392846  20.4403450  28.3731508  68.4069060  20.6481142
  29.5465425  69.3187065  20.9373393  39.2465674  64.6061590  22.0864183
  38.3382551  64.5376998  21.7922944  39.1953269  65.0833535  22.9146009
  33.0682418  66.0819728  13.7247582  32.9482043  66.5276779  14.5633063
  32.3735006  66.4305046  13.1661120  26.6589822  68.1826120  21.2747239
  26.7882204  68.4360599  22.1886651  25.9787274  68.7753828  20.9551894
  30.8289310  78.8523370  17.3737713  30.7513339  79.8031195  17.4526194
  30.2250953  78.5069242  18.0312640  33.3206539  66.0251235  30.0299080
  32.5439874  66.5845155  30.0201945  33.9597103  66.5108018  30.5513951
  41.1127320  62.8078028  23.8642057  40.4701700  63.1010561  23.2181852
  40.6082249  62.6930948  24.6695254  38.7667484  66.5541201  14.5527916
  39.6785340  66.7868588  14.3775614  38.2577131  67.1378245  13.9902995
  31.5752912  68.8336689  29.5917047  32.3167596  69.3721733  29.3151871
  30.8689897  69.4602977  29.7488599  37.0508251  70.9765829  28.1889209
  37.4591607  70.5348240  27.4443841  36.3285513  70.4018457  28.4423402
  33.4039321  65.9138436  25.5622766  34.2500517  66.3377849  25.7057415
  33.3437959  65.2572060  26.2561329  37.3737066  71.5367020  21.9441498
  36.7445929  71.7012734  21.2417566  36.9862728  71.9508629  22.7152462
  41.2526298  72.4721457  19.2985862  40.5677336  72.8520359  18.7482895
  41.3370147  73.0816784  20.0317809  36.5538767  63.5742804  27.2203939
  36.3099699  64.3284865  26.6838215  36.8298697  63.9528152  28.0551187
  38.5077230  70.1181416  25.8981205  38.7194125  70.7613176  25.2215586
  38.4606978  69.2843733  25.4303135  36.1103459  62.7299237  22.8017777
  35.2487938  63.0280491  23.0934515  36.1365893  62.9469636  21.8698810
  32.9265028  71.2741428  19.2091583  33.3903373  71.5529131  18.4196205
  32.6621826  70.3724872  19.0264674  29.8189109  70.8212909  22.1471346
  30.3890466  71.2500178  21.5088831  30.4097221  70.5395494  22.8455532
  31.8633914  67.3964580  16.0181148  32.5657957  67.8485624  16.4855074
  31.5314543  66.7548399  16.6461041  30.3114276  65.9876337  30.3932357
  29.6812936  66.6692618  30.6267754  30.2050363  65.8759418  29.4485496
  25.6059248  65.6548133  21.3198282  24.8158302  65.9105661  20.8438392
  26.0970495  66.4696471  21.4250322  39.6223058  72.9953372  24.0703562
  40.4440501  72.5933559  23.7886244  39.6185460  72.8921606  25.0219678
  27.5573993  66.0192712  18.2781758  26.7605157  66.1311406  18.7965254
  27.3299586  66.3579364  17.4122649  33.3879661  72.5437415  26.2264273
  33.4524093  73.0057822  27.0622445  32.6790585  71.9134780  26.3546583
  23.8896951  65.9078623  23.7513272  24.1404989  66.7925633  24.0170848
  24.4256499  65.7283225  22.9788364  47.7129051  69.3392120  20.4188534
  46.9592759  68.7699518  20.2632538  47.8476592  69.3054785  21.3659169
  33.1027679  74.2105523  16.0943253  32.9673353  75.0557058  16.5228101
  33.6437491  74.4124800  15.3309187  29.5895018  60.2897103  32.7557608
  29.1961964  59.7363301  33.4305253  30.4061159  60.6007681  33.1464126
  26.5557076  71.7280961  16.6671178  27.0681597  72.5224211  16.8176743
  27.2079789  71.0307251  16.6004780  28.3651961  74.8446717  18.7493931
  28.5418589  75.7664682  18.5614915  29.1608794  74.5305136  19.1788311
  32.5062979  61.7054982  30.3477865  33.2472693  62.3062135  30.2682327
  32.7380902  60.9632619  29.7895908  27.6504317  66.8911349  28.6256095
  27.5357832  65.9896606  28.9263194  26.7948835  67.1375046  28.2740911
  34.7296155  74.8329089  30.2243595  34.2860009  74.0465468  29.9064500
  35.3913369  75.0208240  29.5587486  29.4883276  76.3624891  24.7504274
  30.0390701  76.2341954  23.9781268  28.6494752  76.6619780  24.3999167
  36.8277393  75.1131889  28.2524997  36.8095868  75.9340770  27.7605266
  37.7497313  74.9885964  28.4775138  33.2850447  72.6276019  29.0948505
  33.8178784  71.8664307  28.8647813  32.7564528  72.3349670  29.8372659
  36.4520142  57.7336085  24.6242147  36.1084412  58.6237726  24.5481257
  36.8199105  57.5437742  23.7611732  24.5205993  70.0569615  17.4430749
  25.3581215  70.4666623  17.2264457  24.6984261  69.1169057  17.4130943
  36.4170425  67.7244696  13.1314582  35.9017048  68.4949300  13.3702969
  36.1447733  67.0509832  13.7547643  34.0017536  62.5694396  18.1899820
  33.1459132  62.1801247  18.0105459  34.4144488  62.6486357  17.3299606
  35.5316683  60.1040740  22.5891380  35.0281478  60.0670875  21.7759185
  35.8247289  61.0133482  22.6488037  31.7759568  60.1879469  21.5957562
  32.6412565  59.9922278  21.2363451  31.8437077  59.9589821  22.5226918
  41.3904699  70.4777050  15.0667755  40.6134142  70.1388210  14.6222917
  42.0696180  70.4829674  14.3922720  36.2056728  65.5971788  14.9574363
  35.9006864  65.9117937  15.8084506  37.1587170  65.6753208  15.0001696
  34.6503160  71.7562011  16.6067317  34.1224522  71.0214771  16.2940554
  34.1490663  72.5336687  16.3607285  39.6296006  69.9511032  21.7234363
  38.9719680  70.6410293  21.8114492  40.4336405  70.3407464  22.0668350
  29.3821888  62.4181677  18.9673928  29.9565639  62.1956859  18.2347121
  29.9692870  62.4870372  19.7202530  38.4401465  68.3055404  19.7738305
  38.9533347  68.9385396  20.2760015  39.0902689  67.7056600  19.4081665
  29.7091475  64.4486138  12.9869814  28.8728787  64.7860825  13.3079088
  29.5696244  64.3135118  12.0496951  31.6844555  59.2922926  17.6948998
  31.0308968  58.9771943  17.0705613  31.6425029  58.6698667  18.4208821
  32.7955760  69.5742221   9.6102290  31.8882822  69.3431475   9.8093439
  33.2926792  68.7779841   9.7976272  35.7023839  78.2839729  12.5298976
  35.0285538  78.5871425  13.1383934  36.0889661  79.0868809  12.1804433
  34.9182296  65.7804860  22.0196646  34.0004857  66.0019807  21.8618334
  35.3342439  65.8551170  21.1608353  35.7017343  67.1796276  17.1499326
  36.4489162  67.6917673  16.8406448  35.9708933  66.8580328  18.0103719
  33.9743994  69.6754816  14.1326280  33.0655213  69.3913849  14.2298750
  34.0039077  70.0953895  13.2729587  39.2063261  73.2861406  17.9017448
  38.7525588  72.4452316  17.9582638  38.5757228  73.9222804  18.2392228
  38.1496181  64.2153392  19.1318115  37.4118937  63.7030778  19.4628358
  38.4022954  63.7753773  18.3201392  37.6496200  75.1237902  18.8367266
  37.9419175  75.6842960  18.1179631  38.1594821  75.4166463  19.5920425
  38.2507808  56.9929644  19.7259884  38.5566685  56.1327007  19.4385799
  38.9760413  57.5847264  19.5258878  24.5432164  67.3960330  18.1141482
  24.3456564  66.8029691  17.3892549  23.9878828  67.0912541  18.8317421
  32.5228888  67.2883437  20.2336075  32.5777497  66.3357273  20.1578552
  31.7120090  67.4442876  20.7177374  33.6720081  71.2163560  11.4714359
  33.2339511  70.4999419  11.0119996  34.4130522  71.4439675  10.9099450
  30.4621248  65.9060497  17.9926454  29.6489113  66.2054667  18.3991646
  30.9580242  65.5116185  18.7100937  32.6129825  75.9018254  19.9260719
  32.5706004  76.1279100  18.9969251  33.5292524  75.6681628  20.0746520
  36.0595459  66.3702321  26.8241348  36.4144847  66.5973794  27.6835814
  36.7067590  66.7020698  26.2018603  41.7893196  69.4920757  17.5290677
  41.6511095  69.6822353  16.6011866  41.4329415  70.2540140  17.9858728
  29.9535322  63.4778852  23.6087689  30.5934702  63.3367611  22.9110653
  29.1212853  63.1913365  23.2326291  41.8162576  71.5597284  22.5401949
  42.2499082  71.4672573  23.3885003  42.5294156  71.5354784  21.9021965
  30.7295626  72.7781283  19.7222682  31.5236225  72.2831603  19.5205257
  30.0187319  72.2499146  19.3590387  35.5490471  75.1599378  24.0735049
  35.6027493  75.7290314  24.8412765  34.6805252  75.3301263  23.7089086
  27.0378390  66.9224364  15.7982434  26.1075978  66.8608820  16.0152397
  27.1335862  66.4000317  15.0019076  26.9563939  63.4479177  18.3860676
  27.2170756  64.3624510  18.2769837  27.7781111  62.9803620  18.5357289
  28.4288864  64.8616934  25.5559501  29.1011917  64.6534296  24.9072149
  27.6018651  64.6639020  25.1164733  42.6778125  71.6020985  25.0734834
  42.8714015  72.5066795  25.3194109  42.5778743  71.1428404  25.9073419
  34.3314436  61.4878875  27.5725161  33.6842351  62.1868825  27.4789638
  35.1015451  61.9215019  27.9401410  37.7393234  71.7527727  30.6475715
  37.5878740  71.5238279  29.7305798  37.7297913  72.7098329  30.6607060
  34.5078570  69.3259640  25.6321981  35.4370630  69.4770800  25.4590948
  34.0869600  69.4143661  24.7770628  33.3066902  73.3510305  23.4020519
  33.1677988  72.9829089  24.2746457  32.5181498  73.8657944  23.2304477
  33.9015054  78.4519401  14.7446055  34.0766810  77.9807444  15.5591678
  33.2147842  79.0785167  14.9727316  34.8572117  72.7291907  20.7909357
  34.5221950  72.6892677  21.6867006  34.3576063  72.0636623  20.3179767
  28.8316361  68.1359537  26.3161938  28.6936159  67.4039776  26.9173477
  29.7421285  68.0468437  26.0346125  37.7931309  70.0747942  11.0646416
  37.1760480  69.3494770  10.9679469  37.3247797  70.8357302  10.7213491
  31.4598662  67.8479497  25.8045617  32.1698280  67.2072689  25.7632236
  31.4167970  68.0992391  26.7271798  39.4485441  74.7846850  28.7252197
  39.3897987  74.1006070  28.0582780  39.8504959  75.5265840  28.2732823
  30.1727596  64.8344714  27.6241257  29.6364953  64.3835453  28.2762853
  29.5844304  64.9690623  26.8811721  28.4676139  81.6008764  21.5185915
  28.7072738  82.2327288  22.1964934  27.6245336  81.2496804  21.8051275
  29.5829855  64.2933366  10.1867721  28.7059321  64.1722167   9.8229967
  30.0587608  63.5019444   9.9346609  39.4502848  72.7486434  26.9566176
  38.5629627  72.4112356  27.0792575  40.0201399  72.0169465  27.1934942
  21.1031995  69.0810526  20.2809228  21.7903035  68.7672256  19.6930243
  20.9480124  69.9851890  20.0076479  25.9066717  63.9700722  24.7094251
  25.8224906  63.3626392  23.9744661  25.0849424  64.4609740  24.7103748
  32.9804001  77.4087886  23.9227419  32.9074173  78.2142858  24.4346724
  32.5381394  77.6079852  23.0975441  32.7693781  76.6459656  17.4330241
  31.9861303  77.1881336  17.5268466  33.4686526  77.1633636  17.8324482
  36.0790431  62.4554286  20.0764446  36.5759131  61.7024248  19.7565517
  35.3077413  62.4918602  19.5107656  43.9320188  68.1594651  21.7182738
  43.9210065  69.0419367  21.3476671  43.0637568  67.8066202  21.5237275
  35.4402685  77.3074720  26.0785578  36.1530657  77.9422185  26.0061480
  34.9492713  77.4038586  25.2625580  37.1620212  71.2125973  17.6502870
  36.2276490  71.3327435  17.4807574  37.3396880  70.3098440  17.3862880
  32.6625400  64.5971669  19.8036131  32.2923187  64.0442709  20.4917037
  33.1584492  63.9929802  19.2511131  40.5492763  67.0543292  18.1852904
  41.0153215  67.8871284  18.1113207  41.0000264  66.5888274  18.8898162
  30.4914598  75.0569164  26.8991149  31.1924058  75.6905647  27.0520543
  30.0209713  75.3983895  26.1386788  38.6168994  73.3987113  15.1839056
  38.8928838  73.2843708  16.0932930  37.7473493  73.0004598  15.1451229
  38.5209426  59.4223879  22.2243805  37.6072506  59.6528106  22.3926012
  38.9502527  59.5062323  23.0757838  38.2915884  67.6113771  24.7243699
  37.6387335  67.8589679  24.0696152  38.6696264  66.7977909  24.3906177
  35.2523058  77.6473464  18.8271870  35.4345453  76.8295120  19.2899622
  36.0756044  77.8641157  18.3896760  35.5865224  76.5741649  16.0886918
  36.1152990  76.0634104  15.4757080  35.8493443  76.2584180  16.9532451
  34.3403457  68.3533582  31.2109736  33.6644094  68.2527712  31.8812112
  35.1631091  68.1972796  31.6745734  26.0882316  74.5905519  23.8322252
  26.6735753  73.8449207  23.9650156  25.8907155  74.9009475  24.7158916
  28.9420972  77.6256766  18.8484694  28.2731347  78.1102894  18.3648734
  28.8033841  77.8725987  19.7628073  20.6799971  67.1611119  22.5526695
  20.7184071  66.6274710  23.3463813  20.1740264  66.6346324  21.9337672
  33.0826240  79.6600510  25.4467352  33.6344548  79.8232131  26.2116438
  33.4232434  80.2504947  24.7747377  28.0590733  62.0075659  26.0489237
  28.1232060  62.8690490  25.6366635  27.9957854  61.3949661  25.3161596
  27.5343006  64.0798792  29.6962271  28.1615045  63.6975869  30.3099796
  26.6770925  63.8612994  30.0617964  37.9337115  74.4861767  31.3016007
  38.4777019  75.0991725  30.8070962  37.3523959  75.0441346  31.8183020
  24.3108549  65.8875221  15.6280626  24.6061990  64.9785900  15.5747680
  23.4096584  65.8662961  15.3061629  36.2194627  77.6082485  22.4331035
  36.0945767  76.8072225  21.9241980  36.8773719  78.1028679  21.9445005
  27.8402796  63.9631218  21.6108175  27.1189381  64.5767185  21.4715648
  28.6296051  64.4988982  21.5324821  38.2829536  75.4091505  24.0610585
  37.3359871  75.2896856  23.9888911  38.6312309  74.5214003  24.1436846
  30.6429109  61.2985644  27.8848827  31.1663511  61.5447941  28.6475136
  30.4241443  62.1305679  27.4651964  26.0396390  63.5689319  15.7519951
  25.7109096  62.6886698  15.5695057  26.3935761  63.5136987  16.6396341
  35.2875969  75.2044221  20.2614937  35.1400932  74.2760929  20.4422507
  36.1129463  75.2264312  19.7772012  29.1538213  63.8562289  16.1195429
  29.4934286  64.3848210  15.3974037  29.6010334  64.1942695  16.8953996
  38.8910091  76.0272780  21.3479810  39.8156638  75.8215642  21.2104261
  38.7225394  75.7789181  22.2569151  31.8481654  62.2399339  25.5698497
  31.5078475  61.4407152  25.9719177  31.1420661  62.5401050  24.9975330
  32.4998126  59.3248652  24.0225820  33.3224195  58.8509130  23.9004710
  32.7436190  60.1039135  24.5224506  31.1406361  62.3536910  14.3188722
  31.8614723  62.7318163  13.8152439  30.5171665  63.0725787  14.4223700
  35.2837483  63.0582059  15.2547054  35.5001098  63.9406697  14.9535882
  34.8031551  62.6668273  14.5252696  30.0236705  66.0167772  21.8317799
  29.8781286  66.3308075  22.7242080  29.5461909  66.6352673  21.2788697
  31.8833088  63.0070320  21.8798688  31.8694657  62.1111414  21.5430986
  32.6005516  63.0140984  22.5136974  33.7359218  63.4407661  23.9251816
  33.4776996  64.3624731  23.9236146  33.2044259  63.0438095  24.6152280
  38.6805407  76.5458448  16.7041901  38.8542285  75.9804870  15.9515754
  39.1734298  77.3459343  16.5221391  24.4982367  68.5573117  24.7705460
  23.9535835  69.3332925  24.9025734  25.3761717  68.9043921  24.6124581
  31.2869984  61.8884701  17.1486258  31.4085895  60.9601347  17.3477146
  30.9972026  61.9023387  16.2364574  34.1561174  59.5739611  20.2852978
  34.1782871  59.6378944  19.3304958  34.5729233  58.7344120  20.4793484
  44.5344798  69.3094871  18.3232201  44.9775944  68.5602196  17.9251324
  43.6571309  69.3005007  17.9405933  39.6680580  75.8625212  13.8038799
  40.3631484  76.4831905  14.0226114  40.0103730  75.0120563  14.0791177
  25.2848389  67.6843013  27.6635617  24.5430125  67.8325648  28.2500247
  24.9641133  67.9451279  26.8002366  41.5672003  73.3124918  15.3326130
  42.0923327  73.6512190  14.6075450  41.4794355  72.3771933  15.1489265
  33.2292052  77.2258991  27.4616007  33.5379178  76.9808138  28.3338706
  34.0267534  77.4305630  26.9734877  33.2512664  79.3796901  19.6921383
  32.8117654  78.8873280  20.3854240  34.0020781  78.8369869  19.4513459
  25.7305003  75.5708442  19.6946011  26.5563022  75.2712214  19.3144655
  25.3799055  74.8016064  20.1435800  30.6986536  74.9234910  21.7643685
  30.0766545  74.2605615  21.4645913  31.3691403  74.9496042  21.0817333
  23.9313608  73.4894768  20.6534945  23.0945516  73.0616943  20.4718946
  23.9037253  73.6827212  21.5905736  30.7711063  63.4016698  31.3576191
  30.8199219  64.2778821  30.9753961  31.3133577  62.8594091  30.7847834
  41.2565909  73.9457821  30.6377328  40.4661453  73.9281960  30.0981827
  41.0199263  74.4846115  31.3926365  41.3763784  70.7950288  27.9510057
  41.4261789  70.6300295  28.8925579  41.2677707  69.9277547  27.5607937
  30.2600043  73.4738833  15.2402146  30.4088163  74.1574298  14.5868818
  31.0666486  73.4543923  15.7551601  38.6667546  66.7781216  29.2669363
  39.5677409  66.6387680  28.9753361  38.7415521  66.9435670  30.2067541
  33.0010352  64.1548070  28.1122550  32.1313661  64.4481636  27.8405138
  33.2369832  64.7388515  28.8329813  42.8781981  73.2147229  28.1952078
  42.5866789  73.5777210  29.0315539  42.2654112  72.5014237  28.0165410
  44.0777663  70.7800109  20.7154648  44.9124554  71.2189913  20.8792209
  44.2136792  70.3038762  19.8962894  41.1269169  68.3379844  26.6632136
  41.6023291  68.5307490  25.8550988  40.2034734  68.3939030  26.4175520
  28.0152676  69.5004011  16.2463214  27.7698718  68.5966341  16.4443425
  28.1848590  69.5021161  15.3042692  35.7049386  60.3727687  25.6287970
  36.2231329  61.1088714  25.3034459  35.3504518  60.6791681  26.4634729
  27.2848323  65.2332369  13.7449376  26.5917568  65.3076723  13.0889412
  27.0400075  64.4692712  14.2670893  35.9561980  56.7927970  21.1488867
  36.2363733  56.1251159  21.7749293  36.7412587  56.9857065  20.6363530
  33.7595448  75.9686964  12.7113893  33.1869415  76.5877151  12.2584365
  34.3328242  76.5186325  13.2453815  39.8270838  65.2145604  24.8960442
  40.7788261  65.3143701  24.9172666  39.6574288  64.4223872  25.4058526
  37.8485217  62.3001187  25.0819843  37.2535150  62.5806200  24.3866331
  37.5634914  62.7895088  25.8536584  36.9792708  76.2524114  13.8422475
  37.9123381  76.1869676  14.0455351  36.8915921  77.0880381  13.3837008
  39.6080725  75.5689984  10.8026423  39.5294356  75.2349848  11.6962181
  40.4290391  76.0611752  10.8017895  42.3058916  68.4351724  24.0102741
  42.2735236  67.4967724  24.1962425  42.9159539  68.5135760  23.2768566
  34.1442247  67.3047777  10.0529945  35.0901351  67.1753985  10.1218363
  33.7656492  66.5662438  10.5299374  42.4553404  65.2262767  24.0561025
  41.9392453  64.4421224  23.8690953  43.3393353  64.8981484  24.2207544
  40.1164131  58.9703783  20.0156837  39.9188952  58.6618871  20.9000169
  40.7263837  59.6965421  20.1454767  48.1235466  69.4967730  23.1508778
  48.8538854  69.2353018  23.7116482  47.5142411  68.7596452  23.1910846
  46.2050763  67.6375593  23.7483229  45.4783926  67.5031558  23.1399721
  45.7898050  67.9452422  24.5539947  34.0280939  71.3565523  31.5130602
  34.9483949  71.5344122  31.7070649  33.9930522  70.4121568  31.3610302
  32.3285164  65.2297753   9.9884831  31.4216619  64.9330866  10.0647544
  32.6061145  64.9327571   9.1219117  23.2463104  66.5504116  20.4383877
  22.9265889  65.6969424  20.1458251  22.6996532  66.7652694  21.1941844
  27.0243012  69.2666557  24.1553384  27.2429022  70.1983665  24.1741417
  27.4368786  68.9074532  24.9408187  33.9447230  59.7734643  16.1429072
  33.1347958  59.4281728  16.5184318  34.6331646  59.4642186  16.7316684
  35.8737778  58.8512689  17.7653369  36.4268816  59.2708143  18.4243392
  36.1107864  57.9248438  17.8076325  31.8970877  64.8399763  33.5456133
  31.7967604  65.7894120  33.4768224  31.6792419  64.5118002  32.6732203
  31.0983948  62.0884688  10.1296810  31.9603112  62.4139586  10.3892627
  31.2834293  61.3016184   9.6169876  23.1151364  70.1707028  22.4076999
  22.4214836  69.7560981  21.8946953  23.8624355  70.2127564  21.8110418
  39.2516585  60.9613215  17.2732033  38.6715254  61.6198019  16.8910085
  38.9852518  60.1390559  16.8619450  37.7020151  60.3618272  19.4753353
  38.2019930  60.4734807  18.6667672  38.3455759  60.0579325  20.1154162
  31.7602147  68.2696902  32.3621194  31.2769229  69.0697262  32.5685083
  31.8463086  68.2804847  31.4088638  25.0288107  70.1025282  20.2843014
  25.0058795  70.2012969  19.3324897  25.3388743  70.9490432  20.6060180
  27.6875485  72.1601437  24.3989628  28.6418738  72.1285379  24.3319560
  27.4888008  71.6992060  25.2139854  28.2774867  70.7302553  26.9660426
  29.0967756  71.2246631  26.9895263  28.5511674  69.8134521  26.9377993
  38.0341463  63.1213305  16.3288381  37.1467318  63.4062956  16.1108576
  38.4495452  62.9607068  15.4815658  41.3855999  63.1459826  20.0442720
  42.1616389  63.6356278  20.3167337  40.6604133  63.5717880  20.5014590
  43.8228558  63.8587445  21.1016661  44.4173049  63.6183181  20.3909969
  43.8955141  63.1394576  21.7290197  26.0425713  77.7021056  21.4159826
  25.9080181  76.9421457  20.8497824  25.6257776  78.4261956  20.9488615
  37.1784676  72.8857980  10.4236401  37.8820527  73.0907982  11.0394057
  36.4547325  73.4534742  10.6885485  38.0082487  68.6367841  16.5438671
  37.9517688  69.0936392  15.7046304  38.5610829  67.8758525  16.3661514
  41.8187293  64.4257573  17.3688791  41.5624227  64.0254208  18.1996998
  41.1940161  65.1401367  17.2438930  46.1299630  67.1653646  19.8760082
  45.5699188  67.2346835  20.6491644  45.5243134  66.9894631  19.1559578
  29.1994839  78.5990373  21.6278268  29.0827223  79.5435806  21.5256959
  28.3787286  78.2963935  22.0164068  39.0871374  73.3240509  12.4734861
  39.9216978  72.8921707  12.2912336  38.9255717  73.1522523  13.4011756
  38.7417266  69.8272622  13.8391200  38.6866070  69.6616894  12.8979645
  38.1163321  70.5348655  13.9953390  23.5309781  65.0640687  27.6652623
  24.1768645  64.5539640  28.1539848  23.3226932  65.8009368  28.2396048
  36.0563173  72.1321534  33.1644763  36.9254333  72.3062186  32.8031398
  35.5769925  72.9515951  33.0420493  32.0513391  59.3280731  13.4176519
  32.0392061  60.2722571  13.5744790  32.9436813  59.1450877  13.1235980
  30.2249353  79.2518635  24.8434197  31.1276600  79.2842245  25.1600692
  29.9986723  78.3219086  24.8580533  31.9802955  78.0049622  21.5044276
  31.0298586  78.0051483  21.3908648  32.2835442  77.2582356  20.9880310
  35.8665511  55.9223508  17.6722456  35.0997907  55.3681994  17.8179138
  36.2776216  55.9945377  18.5336607  27.8707272  62.2108304  31.7627637
  28.7338734  61.8545108  31.9730961  27.2972683  61.8722198  32.4503041
  47.7155649  83.8410160  22.5690038  48.3534059  83.7216907  21.8653378
  47.5976492  84.7891004  22.6277990  44.5245355  83.7937588  22.5051563
  44.1863867  83.6778653  21.6172097  45.3935123  83.3928753  22.4852569
  40.3832171  85.6473064  18.4948454  39.8197036  85.5563001  17.7264741
  40.2684566  84.8272969  18.9750946  45.0065138  84.9472440  28.4637768
  44.9953779  84.5525238  27.5918272  45.1685778  84.2138512  29.0571540
  37.9296603  87.1424256  21.3332674  38.7217895  86.8015081  20.9178973
  38.1693253  87.2519231  22.2534827  45.9631730  89.3144032  13.8062918
  45.3119709  89.8998113  13.4196932  46.7576092  89.8450227  13.8657956
  39.8887357  86.4033169  14.2050053  40.6618233  85.8562156  14.0662929
  40.2412756  87.2677419  14.4164514  41.7272399  87.7309552  27.4116952
  41.4362265  88.6355182  27.2963618  42.3629384  87.7726079  28.1261022
  42.6528606  85.1086400  24.0018312  43.2492178  84.8842422  23.2875275
  42.7103578  84.3671146  24.6043760  42.2253635  82.5625835  11.8368503
  42.4779155  82.0407357  11.0751966  41.2878194  82.3991981  11.9395186
  47.2696917  81.5661614  19.6443246  48.0560007  81.1481037  19.2933663
  47.5335622  82.4707706  19.8124894  47.4406995  87.0034464  14.3431903
  46.8052828  87.0769091  15.0552807  47.1104401  87.5928063  13.6650982
  52.6705345  81.5036847  20.5476224  53.4030516  80.9336064  20.7814054
  51.9144700  81.1158447  20.9882730  41.9449923  84.4653941  14.0392878
  41.8286181  83.7898845  14.7073962  42.0552183  83.9786315  13.2225031
  44.2881464  83.9264088  17.7439567  43.9239671  83.3994709  18.4552488
  45.1448580  83.5362558  17.5706052  50.1930765  75.2158421  25.0070833
  49.8614090  76.0853832  24.7832048  49.5976378  74.8994705  25.6864863
  43.9286951  78.9553988  12.7400915  44.0961354  79.8234225  13.1071386
  43.7384120  79.1181270  11.8162205  46.6862284  87.4170967  24.4066746
  46.3863007  88.3196006  24.2982553  46.3413344  87.1503150  25.2587899
  40.1374766  83.8684764  20.4403450  39.2125262  83.7360978  20.6481142
  40.3859179  84.6478983  20.9373393  50.0859428  79.9353507  22.0864183
  49.1776306  79.8668916  21.7922944  50.0347024  80.4125452  22.9146009
  43.9076172  81.4111646  13.7247582  43.7875797  81.8568696  14.5633063
  43.2128760  81.7596963  13.1661120  37.4983577  83.5118037  21.2747239
  37.6275958  83.7652516  22.1886651  36.8181028  84.1045745  20.9551894
  41.6683064  94.1815287  17.3737713  41.5907094  95.1323113  17.4526194
  41.0644708  93.8361160  18.0312640  44.1600294  81.3543153  30.0299080
  43.3833628  81.9137073  30.0201945  44.7990857  81.8399936  30.5513951
  51.9521075  78.1369946  23.8642057  51.3095455  78.4302479  23.2181852
  51.4476003  78.0222866  24.6695254  49.6061238  81.8833119  14.5527916
  50.5179094  82.1160506  14.3775614  49.0970885  82.4670163  13.9902995
  42.4146666  84.1628606  29.5917047  43.1561351  84.7013650  29.3151871
  41.7083652  84.7894895  29.7488599  47.8902006  86.3057747  28.1889209
  48.2985362  85.8640157  27.4443841  47.1679267  85.7310374  28.4423402
  44.2433076  81.2430353  25.5622766  45.0894271  81.6669767  25.7057415
  44.1831714  80.5863978  26.2561329  48.2130821  86.8658937  21.9441498
  47.5839683  87.0304651  21.2417566  47.8256483  87.2800547  22.7152462
  52.0920052  87.8013375  19.2985862  51.4071091  88.1812277  18.7482895
  52.1763902  88.4108702  20.0317809  47.3932521  78.9034722  27.2203939
  47.1493453  79.6576782  26.6838215  47.6692452  79.2820069  28.0551187
  49.3470984  85.4473334  25.8981205  49.5587879  86.0905094  25.2215586
  49.3000732  84.6135651  25.4303135  46.9497213  78.0591155  22.8017777
  46.0881692  78.3572408  23.0934515  46.9759648  78.2761554  21.8698810
  43.7658782  86.6033345  19.2091583  44.2297128  86.8821048  18.4196205
  43.5015581  85.7016790  19.0264674  40.6582864  86.1504827  22.1471346
  41.2284221  86.5792095  21.5088831  41.2490975  85.8687412  22.8455532
  42.7027669  82.7256498  16.0181148  43.4051712  83.1777541  16.4855074
  42.3708297  82.0840317  16.6461041  41.1508030  81.3168254  30.3932357
  40.5206691  81.9984535  30.6267754  41.0444118  81.2051336  29.4485496
  36.4453002  80.9840050  21.3198282  35.6552056  81.2397579  20.8438392
  36.9364250  81.7988388  21.4250322  50.4616812  88.3245290  24.0703562
  51.2834256  87.9225477  23.7886244  50.4579215  88.2213524  25.0219678
  38.3967748  81.3484630  18.2781758  37.5998911  81.4603324  18.7965254
  38.1693340  81.6871282  17.4122649  44.2273415  87.8729333  26.2264273
  44.2917848  88.3349740  27.0622445  43.5184339  87.2426698  26.3546583
  34.7290705  81.2370541  23.7513272  34.9798744  82.1217551  24.0170848
  35.2650254  81.0575142  22.9788364  58.5522805  84.6684038  20.4188534
  57.7986513  84.0991436  20.2632538  58.6870346  84.6346703  21.3659169
  43.9421433  89.5397440  16.0943253  43.8067108  90.3848976  16.5228101
  44.4831246  89.7416718  15.3309187  40.4288773  75.6189020  32.7557608
  40.0355718  75.0655219  33.4305253  41.2454913  75.9299599  33.1464126
  37.3950831  87.0572878  16.6671178  37.9075351  87.8516129  16.8176743
  38.0473543  86.3599169  16.6004780  39.2045715  90.1738635  18.7493931
  39.3812344  91.0956599  18.5614915  40.0002549  89.8597054  19.1788311
  43.3456734  77.0346899  30.3477865  44.0866447  77.6354052  30.2682327
  43.5774657  76.2924537  29.7895908  38.4898072  82.2203267  28.6256095
  38.3751587  81.3188524  28.9263194  37.6342590  82.4666963  28.2740911
  45.5689910  90.1621007  30.2243595  45.1253764  89.3757385  29.9064500
  46.2307123  90.3500157  29.5587486  40.3277031  91.6916808  24.7504274
  40.8784456  91.5633872  23.9781268  39.4888507  91.9911698  24.3999167
  47.6671148  90.4423807  28.2524997  47.6489623  91.2632688  27.7605266
  48.5891068  90.3177882  28.4775138  44.1244202  87.9567936  29.0948505
  44.6572539  87.1956224  28.8647813  43.5958283  87.6641588  29.8372659
  47.2913897  73.0628002  24.6242147  46.9478166  73.9529644  24.5481257
  47.6592859  72.8729660  23.7611732  35.3599747  85.3861533  17.4430749
  36.1974969  85.7958541  17.2264457  35.5378015  84.4460975  17.4130943
  47.2564179  83.0536613  13.1314582  46.7410803  83.8241218  13.3702969
  46.9841488  82.3801750  13.7547643  44.8411290  77.8986314  18.1899820
  43.9852887  77.5093165  18.0105459  45.2538242  77.9778275  17.3299606
  46.3710437  75.4332657  22.5891380  45.8675233  75.3962793  21.7759185
  46.6641044  76.3425400  22.6488037  42.6153323  75.5171387  21.5957562
  43.4806320  75.3214196  21.2363451  42.6830832  75.2881739  22.5226918
  52.2298454  85.8068968  15.0667755  51.4527896  85.4680128  14.6222917
  52.9089935  85.8121591  14.3922720  47.0450483  80.9263705  14.9574363
  46.7400618  81.2409855  15.8084506  47.9980925  81.0045125  15.0001696
  45.4896914  87.0853929  16.6067317  44.9618276  86.3506688  16.2940554
  44.9884417  87.8628605  16.3607285  50.4689760  85.2802949  21.7234363
  49.8113435  85.9702211  21.8114492  51.2730160  85.6699381  22.0668350
  40.2215642  77.7473595  18.9673928  40.7959394  77.5248777  18.2347121
  40.8086624  77.8162290  19.7202530  49.2795219  83.6347322  19.7738305
  49.7927101  84.2677314  20.2760015  49.9296443  83.0348517  19.4081665
  40.5485229  79.7778056  12.9869814  39.7122541  80.1152743  13.3079088
  40.4089999  79.6427036  12.0496951  42.5238310  74.6214844  17.6948998
  41.8702722  74.3063861  17.0705613  42.4818784  73.9990584  18.4208821
  43.6349515  84.9034139   9.6102290  42.7276576  84.6723393   9.8093439
  44.1320547  84.1071758   9.7976272  46.5417593  93.6131646  12.5298976
  45.8679292  93.9163343  13.1383934  46.9283415  94.4160727  12.1804433
  45.7576050  81.1096778  22.0196646  44.8398611  81.3311725  21.8618334
  46.1736194  81.1843088  21.1608353  46.5411098  82.5088193  17.1499326
  47.2882917  83.0209590  16.8406448  46.8102687  82.1872246  18.0103719
  44.8137748  85.0046734  14.1326280  43.9048967  84.7205767  14.2298750
  44.8432832  85.4245812  13.2729587  50.0457015  88.6153323  17.9017448
  49.5919343  87.7744233  17.9582638  49.4150982  89.2514722  18.2392228
  48.9889935  79.5445309  19.1318115  48.2512692  79.0322696  19.4628358
  49.2416709  79.1045691  18.3201392  48.4889955  90.4529820  18.8367266
  48.7812929  91.0134877  18.1179631  48.9988575  90.7458381  19.5920425
  49.0901562  72.3221561  19.7259884  49.3960439  71.4618925  19.4385799
  49.8154167  72.9139182  19.5258878  35.3825918  82.7252248  18.1141482
  35.1850318  82.1321609  17.3892549  34.8272582  82.4204458  18.8317421
  43.3622642  82.6175355  20.2336075  43.4171252  81.6649191  20.1578552
  42.5513844  82.7734794  20.7177374  44.5113836  86.5455478  11.4714359
  44.0733266  85.8291337  11.0119996  45.2524277  86.7731592  10.9099450
  41.3015002  81.2352414  17.9926454  40.4882868  81.5346585  18.3991646
  41.7973996  80.8408103  18.7100937  43.4523580  91.2310171  19.9260719
  43.4099759  91.4571018  18.9969251  44.3686279  90.9973546  20.0746520
  46.8989214  81.6994239  26.8241348  47.2538601  81.9265712  27.6835814
  47.5461345  82.0312616  26.2018603  52.6286951  84.8212675  17.5290677
  52.4904849  85.0114271  16.6011866  52.2723169  85.5832057  17.9858728
  40.7929077  78.8070770  23.6087689  41.4328456  78.6659529  22.9110653
  39.9606607  78.5205283  23.2326291  52.6556330  86.8889202  22.5401949
  53.0892837  86.7964491  23.3885003  53.3687911  86.8646702  21.9021965
  41.5689381  88.1073200  19.7222682  42.3629979  87.6123520  19.5205257
  40.8581073  87.5791063  19.3590387  46.3884225  90.4891296  24.0735049
  46.4421247  91.0582232  24.8412765  45.5199007  90.6593181  23.7089086
  37.8772144  82.2516282  15.7982434  36.9469732  82.1900737  16.0152397
  37.9729616  81.7292235  15.0019076  37.7957693  78.7771095  18.3860676
  38.0564510  79.6916428  18.2769837  38.6174866  78.3095537  18.5357289
  39.2682619  80.1908852  25.5559501  39.9405672  79.9826214  24.9072149
  38.4412405  79.9930938  25.1164733  53.5171880  86.9312902  25.0734834
  53.7107770  87.8358713  25.3194109  53.4172498  86.4720321  25.9073419
  45.1708191  76.8170793  27.5725161  44.5236106  77.5160743  27.4789638
  45.9409206  77.2506937  27.9401410  48.5786988  87.0819645  30.6475715
  48.4272495  86.8530197  29.7305798  48.5691668  88.0390246  30.6607060
  45.3472325  84.6551558  25.6321981  46.2764385  84.8062717  25.4590948
  44.9263355  84.7435579  24.7770628  44.1460657  88.6802222  23.4020519
  44.0071742  88.3121007  24.2746457  43.3575253  89.1949862  23.2304477
  44.7408809  93.7811319  14.7446055  44.9160564  93.3099362  15.5591678
  44.0541597  94.4077085  14.9727316  45.6965872  88.0583825  20.7909357
  45.3615704  88.0184595  21.6867006  45.1969817  87.3928541  20.3179767
  39.6710116  83.4651455  26.3161938  39.5329914  82.7331694  26.9173477
  40.5815039  83.3760355  26.0346125  48.6325063  85.4039859  11.0646416
  48.0154234  84.6786687  10.9679469  48.1641552  86.1649220  10.7213491
  42.2992416  83.1771414  25.8045617  43.0092035  82.5364606  25.7632236
  42.2561725  83.4284309  26.7271798  50.2879195  90.1138768  28.7252197
  50.2291741  89.4297988  28.0582780  50.6898714  90.8557758  28.2732823
  41.0121350  80.1636632  27.6241257  40.4758707  79.7127371  28.2762853
  40.4238059  80.2982541  26.8811721  39.3069894  96.9300681  21.5185915
  39.5466492  97.5619206  22.1964934  38.4639090  96.5788721  21.8051275
  40.4223609  79.6225284  10.1867721  39.5453076  79.5014084   9.8229967
  40.8981362  78.8311362   9.9346609  50.2896602  88.0778352  26.9566176
  49.4023381  87.7404273  27.0792575  50.8595153  87.3461383  27.1934942
  31.9425750  84.4102443  20.2809228  32.6296789  84.0964173  19.6930243
  31.7873878  85.3143808  20.0076479  36.7460472  79.2992640  24.7094251
  36.6618660  78.6918309  23.9744661  35.9243178  79.7901658  24.7103748
  43.8197756  92.7379804  23.9227419  43.7467927  93.5434775  24.4346724
  43.3775149  92.9371770  23.0975441  43.6087535  91.9751574  17.4330241
  42.8255057  92.5173254  17.5268466  44.3080281  92.4925554  17.8324482
  46.9184186  77.7846203  20.0764446  47.4152885  77.0316166  19.7565517
  46.1471167  77.8210520  19.5107656  54.7713943  83.4886569  21.7182738
  54.7603819  84.3711284  21.3476671  53.9031322  83.1358120  21.5237275
  46.2796439  92.6366638  26.0785578  46.9924412  93.2714103  26.0061480
  45.7886468  92.7330504  25.2625580  48.0013966  86.5417891  17.6502870
  47.0670245  86.6619353  17.4807574  48.1790635  85.6390357  17.3862880
  43.5019154  79.9263586  19.8036131  43.1316942  79.3734627  20.4917037
  43.9978247  79.3221720  19.2511131  51.3886518  82.3835210  18.1852904
  51.8546970  83.2163201  18.1113207  51.8394018  81.9180191  18.8898162
  41.3308353  90.3861081  26.8991149  42.0317812  91.0197564  27.0520543
  40.8603468  90.7275813  26.1386788  49.4562749  88.7279031  15.1839056
  49.7322593  88.6135626  16.0932930  48.5867247  88.3296516  15.1451229
  49.3603180  74.7515797  22.2243805  48.4466260  74.9820024  22.3926012
  49.7896282  74.8354241  23.0757838  49.1309639  82.9405689  24.7243699
  48.4781089  83.1881596  24.0696152  49.5090019  82.1269827  24.3906177
  46.0916813  92.9765382  18.8271870  46.2739207  92.1587038  19.2899622
  46.9149799  93.1933074  18.3896760  46.4258978  91.9033567  16.0886918
  46.9546745  91.3926022  15.4757080  46.6887198  91.5876097  16.9532451
  45.1797212  83.6825500  31.2109736  44.5037849  83.5819629  31.8812112
  46.0024846  83.5264714  31.6745734  36.9276071  89.9197436  23.8322252
  37.5129508  89.1741124  23.9650156  36.7300909  90.2301393  24.7158916
  39.7814726  92.9548684  18.8484694  39.1125101  93.4394811  18.3648734
  39.6427596  93.2017904  19.7628073  31.5193726  82.4903037  22.5526695
  31.5577825  81.9566627  23.3463813  31.0134018  81.9638242  21.9337672
  43.9219995  94.9892427  25.4467352  44.4738303  95.1524049  26.2116438
  44.2626188  95.5796865  24.7747377  38.8984488  77.3367577  26.0489237
  38.9625814  78.1982408  25.6366635  38.8351608  76.7241579  25.3161596
  38.3736760  79.4090710  29.6962271  39.0008799  79.0267787  30.3099796
  37.5164679  79.1904912  30.0617964  48.7730869  89.8153685  31.3016007
  49.3170773  90.4283643  30.8070962  48.1917714  90.3733263  31.8183020
  35.1502303  81.2167139  15.6280626  35.4455744  80.3077817  15.5747680
  34.2490339  81.1954878  15.3061629  47.0588382  92.9374403  22.4331035
  46.9339521  92.1364143  21.9241980  47.7167473  93.4320596  21.9445005
  38.6796550  79.2923135  21.6108175  37.9583136  79.9059103  21.4715648
  39.4689806  79.8280900  21.5324821  49.1223290  90.7383423  24.0610585
  48.1753626  90.6188774  23.9888911  49.4706063  89.8505921  24.1436846
  41.4822864  76.6277562  27.8848827  42.0057266  76.8739858  28.6475136
  41.2635197  77.4597597  27.4651964  36.8790145  78.8981236  15.7519951
  36.5502851  78.0178615  15.5695057  37.2329515  78.8428905  16.6396341
  46.1269724  90.5336139  20.2614937  45.9794686  89.6052847  20.4422507
  46.9523217  90.5556230  19.7772012  39.9931968  79.1854206  16.1195429
  40.3328040  79.7140127  15.3974037  40.4404088  79.5234612  16.8953996
  49.7303846  91.3564698  21.3479810  50.6550393  91.1507559  21.2104261
  49.5619149  91.1081099  22.2569151  42.6875409  77.5691257  25.5698497
  42.3472229  76.7699070  25.9719177  41.9814415  77.8692968  24.9975330
  43.3391881  74.6540569  24.0225820  44.1617950  74.1801048  23.9004710
  43.5829944  75.4331053  24.5224506  41.9800115  77.6828828  14.3188722
  42.7008478  78.0610081  13.8152439  41.3565419  78.4017705  14.4223700
  46.1231238  78.3873977  15.2547054  46.3394852  79.2698615  14.9535882
  45.6425305  77.9960190  14.5252696  40.8630459  81.3459690  21.8317799
  40.7175040  81.6599993  22.7242080  40.3855663  81.9644590  21.2788697
  42.7226842  78.3362238  21.8798688  42.7088411  77.4403331  21.5430986
  43.4399270  78.3432902  22.5136974  44.5752973  78.7699578  23.9251816
  44.3170751  79.6916649  23.9236146  44.0438013  78.3730013  24.6152280
  49.5199162  91.8750365  16.7041901  49.6936039  91.3096788  15.9515754
  50.0128053  92.6751260  16.5221391  35.3376122  83.8865034  24.7705460
  34.7929590  84.6624842  24.9025734  36.2155471  84.2335839  24.6124581
  42.1263738  77.2176618  17.1486258  42.2479649  76.2893264  17.3477146
  41.8365781  77.2315304  16.2364574  44.9954929  74.9031529  20.2852978
  45.0176625  74.9670862  19.3304958  45.4122988  74.0636037  20.4793484
  55.3738553  84.6386788  18.3232201  55.8169699  83.8894113  17.9251324
  54.4965063  84.6296925  17.9405933  50.5074334  91.1917130  13.8038799
  51.2025239  91.8123822  14.0226114  50.8497484  90.3412481  14.0791177
  36.1242143  83.0134931  27.6635617  35.3823879  83.1617566  28.2500247
  35.8034888  83.2743196  26.8002366  52.4065757  88.6416835  15.3326130
  52.9317081  88.9804108  14.6075450  52.3188110  87.7063851  15.1489265
  44.0685806  92.5550909  27.4616007  44.3772932  92.3100056  28.3338706
  44.8661288  92.7597547  26.9734877  44.0906418  94.7088819  19.6921383
  43.6511408  94.2165197  20.3854240  44.8414535  94.1661786  19.4513459
  36.5698757  90.9000359  19.6946011  37.3956777  90.6004131  19.3144655
  36.2192809  90.1307982  20.1435800  41.5380290  90.2526828  21.7643685
  40.9160300  89.5897533  21.4645913  42.2085157  90.2787960  21.0817333
  34.7707362  88.8186686  20.6534945  33.9339270  88.3908860  20.4718946
  34.7431008  89.0119129  21.5905736  41.6104818  78.7308616  31.3576191
  41.6592973  79.6070738  30.9753961  42.1527332  78.1886009  30.7847834
  52.0959663  89.2749739  30.6377328  51.3055207  89.2573878  30.0981827
  51.8593018  89.8138033  31.3926365  52.2157538  86.1242205  27.9510057
  52.2655543  85.9592213  28.8925579  52.1071462  85.2569464  27.5607937
  41.0993797  88.8030751  15.2402146  41.2481918  89.4866215  14.5868818
  41.9060241  88.7835841  15.7551601  49.5061301  82.1073133  29.2669363
  50.4071164  81.9679598  28.9753361  49.5809275  82.2727588  30.2067541
  43.8404106  79.4839988  28.1122550  42.9707416  79.7773554  27.8405138
  44.0763587  80.0680433  28.8329813  53.7175735  88.5439147  28.1952078
  53.4260544  88.9069127  29.0315539  53.1047867  87.8306155  28.0165410
  54.9171418  86.1092027  20.7154648  55.7518309  86.5481831  20.8792209
  55.0530546  85.6330680  19.8962894  51.9662924  83.6671761  26.6632136
  52.4417045  83.8599408  25.8550988  51.0428489  83.7230947  26.4175520
  38.8546430  84.8295929  16.2463214  38.6092472  83.9258259  16.4443425
  39.0242345  84.8313079  15.3042692  46.5443140  75.7019605  25.6287970
  47.0625084  76.4380632  25.3034459  46.1898273  76.0083598  26.4634729
  38.1242078  80.5624286  13.7449376  37.4311323  80.6368641  13.0889412
  37.8793830  79.7984630  14.2670893  46.7955734  72.1219888  21.1488867
  47.0757488  71.4543077  21.7749293  47.5806341  72.3148983  20.6363530
  44.5989203  91.2978881  12.7113893  44.0263170  91.9169069  12.2584365
  45.1721996  91.8478243  13.2453815  50.6664593  80.5437522  24.8960442
  51.6182015  80.6435619  24.9172666  50.4968043  79.7515790  25.4058526
  48.6878972  77.6293105  25.0819843  48.0928904  77.9098117  24.3866331
  48.4028669  78.1187006  25.8536584  47.8186462  91.5816032  13.8422475
  48.7517136  91.5161593  14.0455351  47.7309675  92.4172298  13.3837008
  50.4474479  90.8981902  10.8026423  50.3688111  90.5641765  11.6962181
  51.2684146  91.3903670  10.8017895  53.1452670  83.7643641  24.0102741
  53.1128990  82.8259642  24.1962425  53.7553294  83.8427678  23.2768566
  44.9836001  82.6339694  10.0529945  45.9295106  82.5045902  10.1218363
  44.6050246  81.8954356  10.5299374  53.2947159  80.5554685  24.0561025
  52.7786207  79.7713141  23.8690953  54.1787107  80.2273401  24.2207544
  50.9557886  74.2995700  20.0156837  50.7582707  73.9910788  20.9000169
  51.5657591  75.0257339  20.1454767  58.9629220  84.8259648  23.1508778
  59.6932609  84.5644936  23.7116482  58.3536166  84.0888370  23.1910846
  57.0444517  82.9667511  23.7483229  56.3177681  82.8323476  23.1399721
  56.6291804  83.2744339  24.5539947  44.8674694  86.6857440  31.5130602
  45.7877703  86.8636039  31.7070649  44.8324277  85.7413486  31.3610302
  43.1678918  80.5589671   9.9884831  42.2610374  80.2622783  10.0647544
  43.4454899  80.2619489   9.1219117  34.0856859  81.8796034  20.4383877
  33.7659643  81.0261342  20.1458251  33.5390287  82.0944612  21.1941844
  37.8636766  84.5958475  24.1553384  38.0822776  85.5275583  24.1741417
  38.2762540  84.2366449  24.9408187  44.7840984  75.1026560  16.1429072
  43.9741712  74.7573645  16.5184318  45.4725401  74.7934104  16.7316684
  46.7131532  74.1804607  17.7653369  47.2662571  74.6000061  18.4243392
  46.9501619  73.2540355  17.8076325  42.7364632  80.1691681  33.5456133
  42.6361358  81.1186038  33.4768224  42.5186174  79.8409920  32.6732203
  41.9377703  77.4176606  10.1296810  42.7996867  77.7431504  10.3892627
  42.1228047  76.6308102   9.6169876  33.9545119  85.4998945  22.4076999
  33.2608590  85.0852898  21.8946953  34.7018110  85.5419482  21.8110418
  50.0910339  76.2905132  17.2732033  49.5109008  76.9489936  16.8910085
  49.8246272  75.4682477  16.8619450  48.5413906  75.6910190  19.4753353
  49.0413684  75.8026724  18.6667672  49.1849514  75.3871243  20.1154162
  42.5995902  83.5988820  32.3621194  42.1162983  84.3989180  32.5685083
  42.6856841  83.6096764  31.4088638  35.8681861  85.4317199  20.2843014
  35.8452549  85.5304887  19.3324897  36.1782498  86.2782350  20.6060180
  38.5269239  87.4893354  24.3989628  39.4812493  87.4577297  24.3319560
  38.3281763  87.0283978  25.2139854  39.1168621  86.0594470  26.9660426
  39.9361510  86.5538549  26.9895263  39.3905429  85.1426438  26.9377993
  48.8735217  78.4505223  16.3288381  47.9861072  78.7354873  16.1108576
  49.2889207  78.2898986  15.4815658  52.2249754  78.4751744  20.0442720
  53.0010144  78.9648196  20.3167337  51.4997888  78.9009798  20.5014590
  54.6622312  79.1879363  21.1016661  55.2566803  78.9475099  20.3909969
  54.7348896  78.4686493  21.7290197  36.8819468  93.0312974  21.4159826
  36.7473936  92.2713375  20.8497824  36.4651530  93.7553874  20.9488615
  48.0178431  88.2149897  10.4236401  48.7214281  88.4199900  11.0394057
  47.2941080  88.7826659  10.6885485  48.8476241  83.9659759  16.5438671
  48.7911443  84.4228310  15.7046304  49.4004584  83.2050443  16.3661514
  52.6581047  79.7549490  17.3688791  52.4017981  79.3546126  18.1996998
  52.0333915  80.4693284  17.2438930  56.9693385  82.4945564  19.8760082
  56.4092943  82.5638753  20.6491644  56.3636888  82.3186548  19.1559578
  40.0388594  93.9282291  21.6278268  39.9220978  94.8727723  21.5256959
  39.2181040  93.6255852  22.0164068  49.9265128  88.6532426  12.4734861
  50.7610732  88.2213625  12.2912336  49.7649471  88.4814440  13.4011756
  49.5811020  85.1564540  13.8391200  49.5259824  84.9908811  12.8979645
  48.9557076  85.8640573  13.9953390  34.3703535  80.3932604  27.6652623
  35.0162399  79.8831558  28.1539848  34.1620687  81.1301286  28.2396048
  46.8956928  87.4613452  33.1644763  47.7648087  87.6354104  32.8031398
  46.4163679  88.2807868  33.0420493  42.8907146  74.6572649  13.4176519
  42.8785816  75.6014489  13.5744790  43.7830568  74.4742794  13.1235980
  41.0643108  94.5810553  24.8434197  41.9670355  94.6134163  25.1600692
  40.8380478  93.6511004  24.8580533  42.8196710  93.3341539  21.5044276
  41.8692341  93.3343401  21.3908648  43.1229196  92.5874274  20.9880310
  46.7059265  71.2515425  17.6722456  45.9391661  70.6973912  17.8179138
  47.1169970  71.3237294  18.5336607  38.7101026  77.5400221  31.7627637
  39.5732488  77.1837026  31.9730961  38.1366437  77.2014116  32.4503041
  58.5549403  99.1702078  22.5690038  59.1927813  99.0508825  21.8653378
  58.4370246 100.1182922  22.6277990  55.3639110  99.1229506  22.5051563
  55.0257621  99.0070570  21.6172097  56.2328878  98.7220671  22.4852569
  51.2225925 100.9764982  18.4948454  50.6590791 100.8854919  17.7264741
  51.1078320 100.1564887  18.9750946  55.8458893 100.2764357  28.4637768
  55.8347533  99.8817156  27.5918272  56.0079532  99.5430430  29.0571540
  48.7690357 102.4716174  21.3332674  49.5611649 102.1306998  20.9178973
  49.0087007 102.5811149  22.2534827  56.8025484 104.6435950  13.8062918
  56.1513464 105.2290030  13.4196932  57.5969847 105.1742145  13.8657956
  50.7281111 101.7325087  14.2050053  51.5011987 101.1854074  14.0662929
  51.0806510 102.5969336  14.4164514  52.5666154 103.0601469  27.4116952
  52.2756020 103.9647100  27.2963618  53.2023138 103.1017997  28.1261022
  53.4922361 100.4378318  24.0018312  54.0885933 100.2134340  23.2875275
  53.5497332  99.6963063  24.6043760  53.0647389  97.8917753  11.8368503
  53.3172910  97.3699274  11.0751966  52.1271948  97.7283899  11.9395186
  58.1090672  96.8953531  19.6443246  58.8953761  96.4772955  19.2933663
  58.3729376  97.7999624  19.8124894  58.2800749 102.3326382  14.3431903
  57.6446582 102.4061008  15.0552807  57.9498156 102.9219981  13.6650982
  63.5099099  96.8328765  20.5476224  64.2424271  96.2627981  20.7814054
  62.7538455  96.4450365  20.9882730  52.7843678  99.7945859  14.0392878
  52.6679936  99.1190762  14.7073962  52.8945938  99.3078233  13.2225031
  55.1275219  99.2556006  17.7439567  54.7633426  98.7286627  18.4552488
  55.9842335  98.8654475  17.5706052  61.0324519  90.5450339  25.0070833
  60.7007844  91.4145750  24.7832048  60.4370133  90.2286623  25.6864863
  54.7680706  94.2845906  12.7400915  54.9355108  95.1526142  13.1071386
  54.5777875  94.4473188  11.8162205  57.5256039 102.7462885  24.4066746
  57.2256762 103.6487924  24.2982553  57.1807098 102.4795068  25.2587899
  50.9768520  99.1976682  20.4403450  50.0519017  99.0652896  20.6481142
  51.2252934  99.9770901  20.9373393  60.9253183  95.2645425  22.0864183
  60.0170060  95.1960833  21.7922944  60.8740778  95.7417370  22.9146009
  54.7469927  96.7403563  13.7247582  54.6269552  97.1860614  14.5633063
  54.0522515  97.0888881  13.1661120  48.3377331  98.8409955  21.2747239
  48.4669713  99.0944434  22.1886651  47.6574783  99.4337663  20.9551894
  52.5076819 109.5107205  17.3737713  52.4300848 110.4615030  17.4526194
  51.9038462 109.1653078  18.0312640  54.9994048  96.6835071  30.0299080
  54.2227383  97.2428991  30.0201945  55.6384612  97.1691854  30.5513951
  62.7914829  93.4661863  23.8642057  62.1489209  93.7594396  23.2181852
  62.2869758  93.3514784  24.6695254  60.4454993  97.2125037  14.5527916
  61.3572849  97.4452423  14.3775614  59.9364640  97.7962081  13.9902995
  53.2540421  99.4920524  29.5917047  53.9955105 100.0305568  29.3151871
  52.5477406 100.1186813  29.7488599  58.7295760 101.6349664  28.1889209
  59.1379116 101.1932075  27.4443841  58.0073022 101.0602292  28.4423402
  55.0826830  96.5722271  25.5622766  55.9288026  96.9961685  25.7057415
  55.0225468  95.9155895  26.2561329  59.0524575 102.1950855  21.9441498
  58.4233438 102.3596569  21.2417566  58.6650237 102.6092465  22.7152462
  62.9313807 103.1305293  19.2985862  62.2464845 103.5104194  18.7482895
  63.0157656 103.7400619  20.0317809  58.2326276  94.2326639  27.2203939
  57.9887208  94.9868700  26.6838215  58.5086206  94.6111987  28.0551187
  60.1864739 100.7765252  25.8981205  60.3981634 101.4197012  25.2215586
  60.1394487  99.9427568  25.4303135  57.7890968  93.3883072  22.8017777
  56.9275447  93.6864326  23.0934515  57.8153402  93.6053471  21.8698810
  54.6052537 101.9325263  19.2091583  55.0690882 102.2112966  18.4196205
  54.3409335 101.0308708  19.0264674  51.4976618 101.4796745  22.1471346
  52.0677975 101.9084013  21.5088831  52.0884730 101.1979329  22.8455532
  53.5421423  98.0548415  16.0181148  54.2445466  98.5069459  16.4855074
  53.2102051  97.4132234  16.6461041  51.9901785  96.6460172  30.3932357
  51.3600445  97.3276453  30.6267754  51.8837872  96.5343254  29.4485496
  47.2846757  96.3131968  21.3198282  46.4945811  96.5689497  20.8438392
  47.7758004  97.1280306  21.4250322  61.3010567 103.6537207  24.0703562
  62.1228010 103.2517395  23.7886244  61.2972969 103.5505441  25.0219678
  49.2361502  96.6776547  18.2781758  48.4392666  96.7895242  18.7965254
  49.0087095  97.0163200  17.4122649  55.0667170 103.2021251  26.2264273
  55.1311602 103.6641658  27.0622445  54.3578094 102.5718615  26.3546583
  45.5684460  96.5662459  23.7513272  45.8192498  97.4509468  24.0170848
  46.1044008  96.3867060  22.9788364  69.3916560  99.9975956  20.4188534
  68.6380268  99.4283354  20.2632538  69.5264101  99.9638620  21.3659169
  54.7815188 104.8689358  16.0943253  54.6460862 105.7140894  16.5228101
  55.3225000 105.0708636  15.3309187  51.2682527  90.9480938  32.7557608
  50.8749473  90.3947136  33.4305253  52.0848668  91.2591516  33.1464126
  48.2344585 102.3864796  16.6671178  48.7469106 103.1808046  16.8176743
  48.8867298 101.6891087  16.6004780  50.0439470 105.5030552  18.7493931
  50.2206098 106.4248517  18.5614915  50.8396303 105.1888972  19.1788311
  54.1850488  92.3638817  30.3477865  54.9260202  92.9645970  30.2682327
  54.4168411  91.6216455  29.7895908  49.3291826  97.5495184  28.6256095
  49.2145341  96.6480441  28.9263194  48.4736344  97.7958881  28.2740911
  56.4083664 105.4912925  30.2243595  55.9647518 104.7049303  29.9064500
  57.0700878 105.6792075  29.5587486  51.1670785 107.0208726  24.7504274
  51.7178210 106.8925790  23.9781268  50.3282261 107.3203615  24.3999167
  58.5064902 105.7715724  28.2524997  58.4883377 106.5924606  27.7605266
  59.4284822 105.6469800  28.4775138  54.9637956 103.2859854  29.0948505
  55.4966293 102.5248142  28.8647813  54.4352037 102.9933506  29.8372659
  58.1307651  88.3919920  24.6242147  57.7871921  89.2821562  24.5481257
  58.4986614  88.2021578  23.7611732  46.1993502 100.7153450  17.4430749
  47.0368724 101.1250459  17.2264457  46.3771769  99.7752893  17.4130943
  58.0957934  98.3828531  13.1314582  57.5804557  99.1533136  13.3702969
  57.8235242  97.7093667  13.7547643  55.6805045  93.2278232  18.1899820
  54.8246641  92.8385082  18.0105459  56.0931997  93.3070193  17.3299606
  57.2104192  90.7624575  22.5891380  56.7068987  90.7254710  21.7759185
  57.5034798  91.6717318  22.6488037  53.4547077  90.8463305  21.5957562
  54.3200074  90.6506113  21.2363451  53.5224586  90.6173657  22.5226918
  63.0692208 101.1360886  15.0667755  62.2921651 100.7972045  14.6222917
  63.7483689 101.1413509  14.3922720  57.8844237  96.2555623  14.9574363
  57.5794373  96.5701772  15.8084506  58.8374679  96.3337043  15.0001696
  56.3290669 102.4145846  16.6067317  55.8012030 101.6798606  16.2940554
  55.8278172 103.1920523  16.3607285  61.3083515 100.6094867  21.7234363
  60.6507189 101.2994128  21.8114492  62.1123914 100.9991299  22.0668350
  51.0609397  93.0765513  18.9673928  51.6353148  92.8540694  18.2347121
  51.6480379  93.1454207  19.7202530  60.1188974  98.9639240  19.7738305
  60.6320855  99.5969231  20.2760015  60.7690198  98.3640435  19.4081665
  51.3878984  95.1069974  12.9869814  50.5516296  95.4444660  13.3079088
  51.2483753  94.9718954  12.0496951  53.3632064  89.9506762  17.6948998
  52.7096477  89.6355779  17.0705613  53.3212538  89.3282502  18.4208821
  54.4743269 100.2326057   9.6102290  53.5670331 100.0015310   9.8093439
  54.9714301  99.4363676   9.7976272  56.5969805  96.4388695  22.0196646
  55.6792366  96.6603642  21.8618334  57.0129948  96.5135006  21.1608353
  57.3804852  97.8380111  17.1499326  58.1276671  98.3501508  16.8406448
  57.6496442  97.5164164  18.0103719  55.6531503 100.3338652  14.1326280
  54.7442722 100.0497684  14.2298750  55.6826586 100.7537730  13.2729587
  60.8850770 103.9445241  17.9017448  60.4313097 103.1036151  17.9582638
  60.2544737 104.5806639  18.2392228  59.8283690  94.8737227  19.1318115
  59.0906446  94.3614613  19.4628358  60.0810463  94.4337609  18.3201392
  59.3283709 105.7821738  18.8367266  59.6206684 106.3426795  18.1179631
  59.8382330 106.0750299  19.5920425  59.9295317  87.6513479  19.7259884
  60.2354194  86.7910843  19.4385799  60.6547922  88.2431099  19.5258878
  46.2219673  98.0544166  18.1141482  46.0244073  97.4613526  17.3892549
  45.6666337  97.7496376  18.8317421  54.2016397  97.9467272  20.2336075
  54.2565006  96.9941109  20.1578552  53.3907599  98.1026711  20.7177374
  55.3507590 101.8747395  11.4714359  54.9127020 101.1583254  11.0119996
  56.0918031 102.1023510  10.9099450  52.1408757  96.5644332  17.9926454
  51.3276622  96.8638502  18.3991646  52.6367751  96.1700021  18.7100937
  54.2917334 106.5602089  19.9260719  54.2493513 106.7862935  18.9969251
  55.2080033 106.3265463  20.0746520  57.7382968  97.0286156  26.8241348
  58.0932356  97.2557630  27.6835814  58.3855099  97.3604533  26.2018603
  63.4680705 100.1504592  17.5290677  63.3298604 100.3406188  16.6011866
  63.1116924 100.9123975  17.9858728  51.6322831  94.1362687  23.6087689
  52.2722211  93.9951447  22.9110653  50.8000362  93.8497201  23.2326291
  63.4950085 102.2181119  22.5401949  63.9286591 102.1256408  23.3885003
  64.2081665 102.1938620  21.9021965  52.4083135 103.4365118  19.7222682
  53.2023734 102.9415438  19.5205257  51.6974828 102.9082981  19.3590387
  57.2277980 105.8183213  24.0735049  57.2815002 106.3874150  24.8412765
  56.3592761 105.9885098  23.7089086  48.7165899  97.5808200  15.7982434
  47.7863487  97.5192655  16.0152397  48.8123371  97.0584152  15.0019076
  48.6351448  94.1063012  18.3860676  48.8958265  95.0208346  18.2769837
  49.4568620  93.6387455  18.5357289  50.1076373  95.5200770  25.5559501
  50.7799426  95.3118132  24.9072149  49.2806160  95.3222856  25.1164733
  64.3565634 102.2604820  25.0734834  64.5501524 103.1650630  25.3194109
  64.2566252 101.8012239  25.9073419  56.0101945  92.1462711  27.5725161
  55.3629860  92.8452660  27.4789638  56.7802960  92.5798854  27.9401410
  59.4180743 102.4111563  30.6475715  59.2666249 102.1822114  29.7305798
  59.4085422 103.3682164  30.6607060  56.1866079  99.9843475  25.6321981
  57.1158139 100.1354635  25.4590948  55.7657109 100.0727496  24.7770628
  54.9854411 104.0094140  23.4020519  54.8465497 103.6412924  24.2746457
  54.1969007 104.5241779  23.2304477  55.5802563 109.1103236  14.7446055
  55.7554319 108.6391280  15.5591678  54.8935351 109.7369003  14.9727316
  56.5359626 103.3875743  20.7909357  56.2009459 103.3476513  21.6867006
  56.0363572 102.7220458  20.3179767  50.5103870  98.7943373  26.3161938
  50.3723668  98.0623611  26.9173477  51.4208794  98.7052273  26.0346125
  59.4718818 100.7331777  11.0646416  58.8547989 100.0078605  10.9679469
  59.0035306 101.4941137  10.7213491  53.1386171  98.5063332  25.8045617
  53.8485789  97.8656524  25.7632236  53.0955479  98.7576227  26.7271798
  61.1272950 105.4430685  28.7252197  61.0685496 104.7589905  28.0582780
  61.5292468 106.1849675  28.2732823  51.8515105  95.4928550  27.6241257
  51.3152462  95.0419288  28.2762853  51.2631813  95.6274459  26.8811721
  50.1463648 112.2592599  21.5185915  50.3860247 112.8911123  22.1964934
  49.3032845 111.9080639  21.8051275  51.2617364  94.9517201  10.1867721
  50.3846830  94.8306002   9.8229967  51.7375117  94.1603280   9.9346609
  61.1290357 103.4070269  26.9566176  60.2417136 103.0696191  27.0792575
  61.6988908 102.6753300  27.1934942  42.7819504  99.7394361  20.2809228
  43.4690544  99.4256091  19.6930243  42.6267633 100.6435726  20.0076479
  47.5854226  94.6284558  24.7094251  47.5012415  94.0210227  23.9744661
  46.7636933  95.1193576  24.7103748  54.6591510 108.0671722  23.9227419
  54.5861682 108.8726693  24.4346724  54.2168903 108.2663687  23.0975441
  54.4481290 107.3043492  17.4330241  53.6648812 107.8465172  17.5268466
  55.1474035 107.8217471  17.8324482  57.7577940  93.1138121  20.0764446
  58.2546640  92.3608083  19.7565517  56.9864922  93.1502438  19.5107656
  65.6107697  98.8178487  21.7182738  65.5997574  99.7003202  21.3476671
  64.7425077  98.4650037  21.5237275  57.1190194 107.9658556  26.0785578
  57.8318166 108.6006020  26.0061480  56.6280222 108.0622422  25.2625580
  58.8407721 101.8709808  17.6502870  57.9063999 101.9911271  17.4807574
  59.0184389 100.9682275  17.3862880  54.3412909  95.2555504  19.8036131
  53.9710696  94.7026544  20.4917037  54.8372001  94.6513637  19.2511131
  62.2280272  97.7127128  18.1852904  62.6940724  98.5455119  18.1113207
  62.6787773  97.2472109  18.8898162  52.1702107 105.7152999  26.8991149
  52.8711567 106.3489482  27.0520543  51.6997222 106.0567731  26.1386788
  60.2956503 104.0570949  15.1839056  60.5716347 103.9427543  16.0932930
  59.4261002 103.6588434  15.1451229  60.1996935  90.0807715  22.2243805
  59.2860015  90.3111941  22.3926012  60.6290036  90.1646159  23.0757838
  59.9703393  98.2697606  24.7243699  59.3174844  98.5173514  24.0696152
  60.3483773  97.4561745  24.3906177  56.9310567 108.3057300  18.8271870
  57.1132962 107.4878956  19.2899622  57.7543553 108.5224992  18.3896760
  57.2652733 107.2325485  16.0886918  57.7940499 106.7217939  15.4757080
  57.5280952 106.9168015  16.9532451  56.0190966  99.0117418  31.2109736
  55.3431603  98.9111547  31.8812112  56.8418600  98.8556631  31.6745734
  47.7669825 105.2489354  23.8322252  48.3523262 104.5033042  23.9650156
  47.5694664 105.5593311  24.7158916  50.6208481 108.2840601  18.8484694
  49.9518856 108.7686729  18.3648734  50.4821350 108.5309822  19.7628073
  42.3587480  97.8194954  22.5526695  42.3971580  97.2858545  23.3463813
  41.8527773  97.2930160  21.9337672  54.7613749 110.3184345  25.4467352
  55.3132057 110.4815966  26.2116438  55.1019943 110.9088783  24.7747377
  49.7378242  92.6659495  26.0489237  49.8019569  93.5274326  25.6366635
  49.6745363  92.0533496  25.3161596  49.2130515  94.7382627  29.6962271
  49.8402554  94.3559705  30.3099796  48.3558434  94.5196829  30.0617964
  59.6124624 105.1445603  31.3016007  60.1564528 105.7575561  30.8070962
  59.0311468 105.7025181  31.8183020  45.9896058  96.5459056  15.6280626
  46.2849499  95.6369735  15.5747680  45.0884093  96.5246796  15.3061629
  57.8982136 108.2666321  22.4331035  57.7733276 107.4656060  21.9241980
  58.5561228 108.7612514  21.9445005  49.5190305  94.6215053  21.6108175
  48.7976890  95.2351021  21.4715648  50.3083560  95.1572818  21.5324821
  59.9617045 106.0675341  24.0610585  59.0147380 105.9480692  23.9888911
  60.3099818 105.1797839  24.1436846  52.3216618  91.9569480  27.8848827
  52.8451020  92.2031776  28.6475136  52.1028952  92.7889514  27.4651964
  47.7183899  94.2273154  15.7519951  47.3896605  93.3470533  15.5695057
  48.0723270  94.1720823  16.6396341  56.9663478 105.8628057  20.2614937
  56.8188441 104.9344764  20.4422507  57.7916972 105.8848148  19.7772012
  50.8325722  94.5146124  16.1195429  51.1721795  95.0432045  15.3974037
  51.2797843  94.8526530  16.8953996  60.5697600 106.6856616  21.3479810
  61.4944147 106.4799477  21.2104261  60.4012903 106.4373017  22.2569151
  53.5269163  92.8983175  25.5698497  53.1865984  92.0990988  25.9719177
  52.8208170  93.1984885  24.9975330  54.1785635  89.9832487  24.0225820
  55.0011704  89.5092965  23.9004710  54.4223699  90.7622971  24.5224506
  52.8193870  93.0120745  14.3188722  53.5402232  93.3901998  13.8152439
  52.1959174  93.7309622  14.4223700  56.9624992  93.7165894  15.2547054
  57.1788607  94.5990532  14.9535882  56.4819060  93.3252108  14.5252696
  51.7024214  96.6751608  21.8317799  51.5568795  96.9891911  22.7242080
  51.2249417  97.2936508  21.2788697  53.5620597  93.6654156  21.8798688
  53.5482165  92.7695249  21.5430986  54.2793025  93.6724819  22.5136974
  55.4146727  94.0991496  23.9251816  55.1564505  95.0208567  23.9236146
  54.8831768  93.7021930  24.6152280  60.3592916 107.2042283  16.7041901
  60.5329794 106.6388705  15.9515754  60.8521807 108.0043178  16.5221391
  46.1769876  99.2156952  24.7705460  45.6323344  99.9916760  24.9025734
  47.0549226  99.5627757  24.6124581  52.9657493  92.5468536  17.1486258
  53.0873404  91.6185182  17.3477146  52.6759535  92.5607222  16.2364574
  55.8348683  90.2323446  20.2852978  55.8570380  90.2962779  19.3304958
  56.2516742  89.3927955  20.4793484  66.2132307  99.9678706  18.3232201
  66.6563453  99.2186031  17.9251324  65.3358818  99.9588842  17.9405933
  61.3468089 106.5209047  13.8038799  62.0418993 107.1415740  14.0226114
  61.6891239 105.6704399  14.0791177  46.9635898  98.3426848  27.6635617
  46.2217634  98.4909484  28.2500247  46.6428642  98.6035114  26.8002366
  63.2459512 103.9708753  15.3326130  63.7710836 104.3096026  14.6075450
  63.1581864 103.0355768  15.1489265  54.9079561 107.8842827  27.4616007
  55.2166687 107.6391973  28.3338706  55.7055043 108.0889465  26.9734877
  54.9300173 110.0380736  19.6921383  54.4905163 109.5457115  20.3854240
  55.6808290 109.4953704  19.4513459  47.4092512 106.2292277  19.6946011
  48.2350531 105.9296049  19.3144655  47.0586564 105.4599900  20.1435800
  52.3774045 105.5818745  21.7643685  51.7554054 104.9189450  21.4645913
  53.0478912 105.6079877  21.0817333  45.6101117 104.1478604  20.6534945
  44.7733025 103.7200778  20.4718946  45.5824762 104.3411047  21.5905736
  52.4498572  94.0600533  31.3576191  52.4986728  94.9362656  30.9753961
  52.9921086  93.5177926  30.7847834  62.9353418 104.6041657  30.6377328
  62.1448962 104.5865795  30.0981827  62.6986772 105.1429950  31.3926365
  63.0551293 101.4534123  27.9510057  63.1049298 101.2884130  28.8925579
  62.9465216 100.5861382  27.5607937  51.9387552 104.1322669  15.2402146
  52.0875672 104.8158133  14.5868818  52.7453995 104.1127759  15.7551601
  60.3455055  97.4365051  29.2669363  61.2464918  97.2971516  28.9753361
  60.4203030  97.6019506  30.2067541  54.6797861  94.8131906  28.1122550
  53.8101170  95.1065472  27.8405138  54.9157341  95.3972351  28.8329813
  64.5569490 103.8731064  28.1952078  64.2654298 104.2361045  29.0315539
  63.9441621 103.1598073  28.0165410  65.7565172 101.4383944  20.7154648
  66.5912063 101.8773748  20.8792209  65.8924301 100.9622597  19.8962894
  62.8056678  98.9963679  26.6632136  63.2810800  99.1891325  25.8550988
  61.8822243  99.0522865  26.4175520  49.6940185 100.1587846  16.2463214
  49.4486227  99.2550176  16.4443425  49.8636099 100.1604997  15.3042692
  57.3836894  91.0311523  25.6287970  57.9018838  91.7672550  25.3034459
  57.0292027  91.3375516  26.4634729  48.9635832  95.8916204  13.7449376
  48.2705077  95.9660559  13.0889412  48.7187584  95.1276547  14.2670893
  57.6349489  87.4511805  21.1488867  57.9151242  86.7834994  21.7749293
  58.4200096  87.6440901  20.6363530  55.4382957 106.6270799  12.7113893
  54.8656924 107.2460986  12.2584365  56.0115751 107.1770161  13.2453815
  61.5058347  95.8729439  24.8960442  62.4575770  95.9727537  24.9172666
  61.3361797  95.0807708  25.4058526  59.5272726  92.9585022  25.0819843
  58.9322659  93.2390035  24.3866331  59.2422423  93.4478923  25.8536584
  58.6580217 106.9107949  13.8422475  59.5910890 106.8453511  14.0455351
  58.5703430 107.7464216  13.3837008  63.9846425  99.0935559  24.0102741
  63.9522745  98.1551560  24.1962425  64.5947048  99.1719596  23.2768566
  55.8229756  97.9631612  10.0529945  56.7688860  97.8337820  10.1218363
  55.4444001  97.2246274  10.5299374  64.1340913  95.8846602  24.0561025
  63.6179962  95.1005059  23.8690953  65.0180862  95.5565319  24.2207544
  61.7951640  89.6287618  20.0156837  61.5976461  89.3202706  20.9000169
  62.4051346  90.3549257  20.1454767  69.8022975 100.1551566  23.1508778
  70.5326363  99.8936854  23.7116482  69.1929920  99.4180288  23.1910846
  67.8838272  98.2959428  23.7483229  67.1571435  98.1615393  23.1399721
  67.4685559  98.6036257  24.5539947  55.7068448 102.0149358  31.5130602
  56.6271458 102.1927957  31.7070649  55.6718031 101.0705403  31.3610302
  54.0072673  95.8881588   9.9884831  53.1004128  95.5914701  10.0647544
  54.2848654  95.5911406   9.1219117  44.9250613  97.2087952  20.4383877
  44.6053398  96.3553260  20.1458251  44.3784041  97.4236530  21.1941844
  48.7030521  99.9250393  24.1553384  48.9216531 100.8567500  24.1741417
  49.1156295  99.5658367  24.9408187  55.6234739  90.4318478  16.1429072
  54.8135467  90.0865563  16.5184318  56.3119155  90.1226022  16.7316684
  57.5525287  89.5096525  17.7653369  58.1056325  89.9291978  18.4243392
  57.7895373  88.5832273  17.8076325  53.5758386  95.4983598  33.5456133
  53.4755113  96.4477955  33.4768224  53.3579928  95.1701837  32.6732203
  52.7771457  92.7468523  10.1296810  53.6390621  93.0723422  10.3892627
  52.9621802  91.9600019   9.6169876  44.7938873 100.8290863  22.4076999
  44.1002345 100.4144816  21.8946953  45.5411864 100.8711400  21.8110418
  60.9304094  91.6197050  17.2732033  60.3502763  92.2781854  16.8910085
  60.6640027  90.7974395  16.8619450  59.3807660  91.0202108  19.4753353
  59.8807439  91.1318642  18.6667672  60.0243268  90.7163160  20.1154162
  53.4389656  98.9280737  32.3621194  52.9556738  99.7281097  32.5685083
  53.5250595  98.9388682  31.4088638  46.7075616 100.7609117  20.2843014
  46.6846304 100.8596804  19.3324897  47.0176252 101.6074268  20.6060180
  49.3662994 102.8185272  24.3989628  50.3206247 102.7869214  24.3319560
  49.1675517 102.3575896  25.2139854  49.9562376 101.3886388  26.9660426
  50.7755265 101.8830467  26.9895263  50.2299183 100.4718356  26.9377993
  59.7128972  93.7797140  16.3288381  58.8254827  94.0646791  16.1108576
  60.1282961  93.6190904  15.4815658  63.0643508  93.8043661  20.0442720
  63.8403898  94.2940114  20.3167337  62.3391642  94.2301715  20.5014590
  65.5016067  94.5171281  21.1016661  66.0960557  94.2767016  20.3909969
  65.5742650  93.7978411  21.7290197  47.7213222 108.3604891  21.4159826
  47.5867690 107.6005292  20.8497824  47.3045285 109.0845791  20.9488615
  59.6869996  99.2951676  16.5438671  59.6305197  99.7520228  15.7046304
  60.2398338  98.5342361  16.3661514  63.4974802  95.0841408  17.3688791
  63.2411736  94.6838044  18.1996998  62.8727670  95.7985202  17.2438930
  67.8087139  97.8237481  19.8760082  67.2486697  97.8930671  20.6491644
  67.2030643  97.6478466  19.1559578  50.8782348 109.2574208  21.6278268
  50.7614732 110.2019641  21.5256959  50.0574795 108.9547770  22.0164068
  60.7658883 103.9824344  12.4734861  61.6004487 103.5505543  12.2912336
  60.6043226 103.8106358  13.4011756  60.4204775 100.4856457  13.8391200
  60.3653579 100.3200729  12.8979645  59.7950830 101.1932490  13.9953390
  45.2097290  95.7224522  27.6652623  45.8556154  95.2123476  28.1539848
  45.0014441  96.4593203  28.2396048  57.7350682 102.7905369  33.1644763
  58.6041842 102.9646022  32.8031398  57.2557434 103.6099786  33.0420493
  53.7300900  89.9864566  13.4176519  53.7179570  90.9306406  13.5744790
  54.6224322  89.8034712  13.1235980  51.9036862 109.9102470  24.8434197
  52.8064109 109.9426081  25.1600692  51.6774232 108.9802921  24.8580533
  53.6590464 108.6633457  21.5044276  52.7086095 108.6635318  21.3908648
  53.9622951 107.9166191  20.9880310  57.5453020  86.5807343  17.6722456
  56.7785416  86.0265830  17.8179138  57.9563725  86.6529212  18.5336607
  49.5494781  92.8692139  31.7627637  50.4126243  92.5128944  31.9730961
  48.9760192  92.5306034  32.4503041  69.3943158 114.4993995  22.5690038
  70.0321568 114.3800743  21.8653378  69.2764001 115.4474839  22.6277990
  66.2032864 114.4521423  22.5051563  65.8651376 114.3362488  21.6172097
  67.0722632 114.0512588  22.4852569  66.6852647 115.6056275  28.4637768
  66.6741288 115.2109073  27.5918272  66.8473287 114.8722348  29.0571540
  59.6084112 117.8008091  21.3332674  60.4005404 117.4598916  20.9178973
  59.8480762 117.9103066  22.2534827  63.4059908 118.3893387  27.4116952
  63.1149774 119.2939018  27.2963618  64.0416893 118.4309915  28.1261022
  64.3316115 115.7670235  24.0018312  64.9279687 115.5426258  23.2875275
  64.3891087 115.0254981  24.6043760  71.8718274 105.8742256  25.0070833
  71.5401599 106.7437667  24.7832048  71.2763887 105.5578540  25.6864863
  68.3649793 118.0754802  24.4066746  68.0650516 118.9779841  24.2982553
  68.0200853 117.8086986  25.2587899  61.8162275 114.5268599  20.4403450
  60.8912771 114.3944813  20.6481142  62.0646688 115.3062819  20.9373393
  71.7646937 110.5937343  22.0864183  70.8563815 110.5252751  21.7922944
  71.7134533 111.0709288  22.9146009  59.1771086 114.1701873  21.2747239
  59.3063467 114.4236352  22.1886651  58.4968537 114.7629581  20.9551894
  65.8387803 112.0126988  30.0299080  65.0621137 112.5720908  30.0201945
  66.4778366 112.4983771  30.5513951  73.6308584 108.7953781  23.8642057
  72.9882964 109.0886314  23.2181852  73.1263512 108.6806701  24.6695254
  64.0934175 114.8212442  29.5917047  64.8348860 115.3597486  29.3151871
  63.3871161 115.4478730  29.7488599  69.5689515 116.9641582  28.1889209
  69.9772871 116.5223993  27.4443841  68.8466776 116.3894210  28.4423402
  65.9220585 111.9014189  25.5622766  66.7681780 112.3253602  25.7057415
  65.8619223 111.2447813  26.2561329  69.0720030 109.5618557  27.2203939
  68.8280962 110.3160618  26.6838215  69.3479961 109.9403905  28.0551187
  71.0258493 116.1057170  25.8981205  71.2375388 116.7488929  25.2215586
  70.9788241 115.2719486  25.4303135  68.6284722 108.7174990  22.8017777
  67.7669201 109.0156244  23.0934515  68.6547157 108.9345389  21.8698810
  62.3370372 116.8088662  22.1471346  62.9071730 117.2375931  21.5088831
  62.9278484 116.5271247  22.8455532  62.8295539 111.9752090  30.3932357
  62.1994200 112.6568371  30.6267754  62.7231627 111.8635171  29.4485496
  58.1240511 111.6423886  21.3198282  57.3339565 111.8981414  20.8438392
  58.6151759 112.4572224  21.4250322  60.0755257 112.0068465  18.2781758
  59.2786420 112.1187159  18.7965254  59.8480849 112.3455117  17.4122649
  65.9060924 118.5313168  26.2264273  65.9705357 118.9933575  27.0622445
  65.1971848 117.9010533  26.3546583  56.4078214 111.8954376  23.7513272
  56.6586253 112.7801386  24.0170848  56.9437763 111.7158978  22.9788364
  62.1076282 106.2772856  32.7557608  61.7143227 105.7239054  33.4305253
  62.9242422 106.5883434  33.1464126  65.0244243 107.6930735  30.3477865
  65.7653956 108.2937888  30.2682327  65.2562166 106.9508372  29.7895908
  60.1685581 112.8787102  28.6256095  60.0539096 111.9772359  28.9263194
  59.3130098 113.1250799  28.2740911  67.2477418 120.8204842  30.2243595
  66.8041273 120.0341221  29.9064500  67.9094632 121.0083993  29.5587486
  62.0064540 122.3500644  24.7504274  62.5571965 122.2217707  23.9781268
  61.1676016 122.6495533  24.3999167  69.3458657 121.1007642  28.2524997
  69.3277132 121.9216523  27.7605266  70.2678577 120.9761717  28.4775138
  65.8031711 118.6151772  29.0948505  66.3360048 117.8540060  28.8647813
  65.2745792 118.3225423  29.8372659  68.9701406 103.7211838  24.6242147
  68.6265675 104.6113479  24.5481257  69.3380368 103.5313495  23.7611732
  66.5198799 108.5570150  18.1899820  65.6640396 108.1677000  18.0105459
  66.9325751 108.6362110  17.3299606  68.0497946 106.0916493  22.5891380
  67.5462742 106.0546628  21.7759185  68.3428553 107.0009235  22.6488037
  64.2940832 106.1755222  21.5957562  65.1593829 105.9798031  21.2363451
  64.3618341 105.9465574  22.5226918  61.9003151 108.4057430  18.9673928
  62.4746903 108.1832612  18.2347121  62.4874133 108.4746125  19.7202530
  64.2025819 105.2798679  17.6948998  63.5490231 104.9647696  17.0705613
  64.1606293 104.6574420  18.4208821  67.4363559 111.7680613  22.0196646
  66.5186120 111.9895560  21.8618334  67.8523703 111.8426923  21.1608353
  70.7689071 102.9805397  19.7259884  71.0747948 102.1202760  19.4385799
  71.4941676 103.5723017  19.5258878  57.0613427 113.3836083  18.1141482
  56.8637827 112.7905444  17.3892549  56.5060091 113.0788294  18.8317421
  65.0410151 113.2759190  20.2336075  65.0958761 112.3233026  20.1578552
  64.2301353 113.4318629  20.7177374  62.9802511 111.8936250  17.9926454
  62.1670377 112.1930420  18.3991646  63.4761505 111.4991938  18.7100937
  68.5776723 112.3578074  26.8241348  68.9326110 112.5849547  27.6835814
  69.2248854 112.6896451  26.2018603  62.4716586 109.4654605  23.6087689
  63.1115965 109.3243364  22.9110653  61.6394116 109.1789119  23.2326291
  59.4745202 109.4354930  18.3860676  59.7352019 110.3500263  18.2769837
  60.2962374 108.9679373  18.5357289  60.9470128 110.8492687  25.5559501
  61.6193181 110.6410049  24.9072149  60.1199914 110.6514773  25.1164733
  66.8495700 107.4754628  27.5725161  66.2023615 108.1744578  27.4789638
  67.6196715 107.9090772  27.9401410  70.2574497 117.7403480  30.6475715
  70.1060004 117.5114032  29.7305798  70.2479177 118.6974082  30.6607060
  67.0259834 115.3135393  25.6321981  67.9551894 115.4646553  25.4590948
  66.6050864 115.4019414  24.7770628  65.8248166 119.3386058  23.4020519
  65.6859251 118.9704842  24.2746457  65.0362762 119.8533697  23.2304477
  61.3497625 114.1235290  26.3161938  61.2117423 113.3915529  26.9173477
  62.2602548 114.0344190  26.0346125  63.9779925 113.8355250  25.8045617
  64.6879544 113.1948442  25.7632236  63.9349234 114.0868144  26.7271798
  71.9666704 120.7722603  28.7252197  71.9079250 120.0881823  28.0582780
  72.3686222 121.5141593  28.2732823  62.6908859 110.8220467  27.6241257
  62.1546216 110.3711206  28.2762853  62.1025568 110.9566376  26.8811721
  71.9684111 118.7362187  26.9566176  71.0810890 118.3988109  27.0792575
  72.5382662 118.0045218  27.1934942  53.6213258 115.0686279  20.2809228
  54.3084298 114.7548009  19.6930243  53.4661387 115.9727643  20.0076479
  58.4247981 109.9576475  24.7094251  58.3406169 109.3502145  23.9744661
  57.6030687 110.4485493  24.7103748  68.5971695 108.4430039  20.0764446
  69.0940394 107.6900001  19.7565517  67.8258676 108.4794355  19.5107656
  65.1806663 110.5847422  19.8036131  64.8104451 110.0318462  20.4917037
  65.6765756 109.9805555  19.2511131  63.0095862 121.0444917  26.8991149
  63.7105321 121.6781400  27.0520543  62.5390977 121.3859648  26.1386788
  71.0390689 105.4099632  22.2243805  70.1253769 105.6403859  22.3926012
  71.4683791 105.4938076  23.0757838  70.8097148 113.5989524  24.7243699
  70.1568598 113.8465432  24.0696152  71.1877528 112.7853662  24.3906177
  66.8584721 114.3409335  31.2109736  66.1825358 114.2403465  31.8812112
  67.6812355 114.1848549  31.6745734  58.6063580 120.5781272  23.8322252
  59.1917017 119.8324960  23.9650156  58.4088418 120.8885228  24.7158916
  53.1981235 113.1486872  22.5526695  53.2365334 112.6150463  23.3463813
  52.6921527 112.6222077  21.9337672  60.5771997 107.9951412  26.0489237
  60.6413323 108.8566243  25.6366635  60.5139117 107.3825414  25.3161596
  60.0524269 110.0674545  29.6962271  60.6796308 109.6851622  30.3099796
  59.1952188 109.8488747  30.0617964  70.4518378 120.4737520  31.3016007
  70.9958282 121.0867478  30.8070962  69.8705223 121.0317099  31.8183020
  56.8289812 111.8750974  15.6280626  57.1243253 110.9661653  15.5747680
  55.9277848 111.8538714  15.3061629  60.3584059 109.9506971  21.6108175
  59.6370645 110.5642938  21.4715648  61.1477315 110.4864736  21.5324821
  63.1610373 107.2861397  27.8848827  63.6844775 107.5323694  28.6475136
  62.9422706 108.1181432  27.4651964  58.5577654 109.5565072  15.7519951
  58.2290360 108.6762451  15.5695057  58.9117024 109.5012740  16.6396341
  64.3662918 108.2275092  25.5698497  64.0259738 107.4282905  25.9719177
  63.6601924 108.5276803  24.9975330  65.0179390 105.3124405  24.0225820
  65.8405459 104.8384883  23.9004710  65.2617453 106.0914888  24.5224506
  62.5417968 112.0043525  21.8317799  62.3962549 112.3183828  22.7242080
  62.0643172 112.6228426  21.2788697  64.4014351 108.9946073  21.8798688
  64.3875920 108.0987167  21.5430986  65.1186779 109.0016737  22.5136974
  66.2540482 109.4283414  23.9251816  65.9958260 110.3500484  23.9236146
  65.7225522 109.0313848  24.6152280  57.0163631 114.5448870  24.7705460
  56.4717099 115.3208678  24.9025734  57.8942980 114.8919674  24.6124581
  63.8051247 107.8760454  17.1486258  63.9267158 106.9477100  17.3477146
  63.5153290 107.8899140  16.2364574  66.6742438 105.5615364  20.2852978
  66.6964134 105.6254697  19.3304958  67.0910497 104.7219873  20.4793484
  57.8029652 113.6718766  27.6635617  57.0611388 113.8201401  28.2500247
  57.4822397 113.9327032  26.8002366  65.7473315 123.2134744  27.4616007
  66.0560441 122.9683891  28.3338706  66.5448797 123.4181383  26.9734877
  56.4494871 119.4770521  20.6534945  55.6126779 119.0492696  20.4718946
  56.4218517 119.6702965  21.5905736  63.2892327 109.3892451  31.3576191
  63.3380482 110.2654574  30.9753961  63.8314841 108.8469844  30.7847834
  73.7747172 119.9333574  30.6377328  72.9842716 119.9157713  30.0981827
  73.5380527 120.4721868  31.3926365  73.8945047 116.7826041  27.9510057
  73.9443052 116.6176048  28.8925579  73.7858971 115.9153300  27.5607937
  71.1848810 112.7656969  29.2669363  72.0858673 112.6263434  28.9753361
  71.2596784 112.9311423  30.2067541  65.5191615 110.1423823  28.1122550
  64.6494925 110.4357389  27.8405138  65.7551096 110.7264268  28.8329813
  75.3963244 119.2022982  28.1952078  75.1048053 119.5652963  29.0315539
  74.7835376 118.4889990  28.0165410  73.6450433 114.3255597  26.6632136
  74.1204554 114.5183243  25.8550988  72.7215998 114.3814783  26.4175520
  68.2230649 106.3603440  25.6287970  68.7412593 107.0964467  25.3034459
  67.8685782 106.6667434  26.4634729  68.4743243 102.7803723  21.1488867
  68.7544997 102.1126912  21.7749293  69.2593850 102.9732818  20.6363530
  72.3452101 111.2021357  24.8960442  73.2969524 111.3019455  24.9172666
  72.1755552 110.4099625  25.4058526  70.3666481 108.2876940  25.0819843
  69.7716413 108.5681953  24.3866331  70.0816178 108.7770841  25.8536584
  74.9734668 111.2138520  24.0561025  74.4573716 110.4296977  23.8690953
  75.8574616 110.8857237  24.2207544  72.6345395 104.9579536  20.0156837
  72.4370216 104.6494624  20.9000169  73.2445100 105.6841174  20.1454767
  66.5462203 117.3441276  31.5130602  67.4665212 117.5219875  31.7070649
  66.5111786 116.3997321  31.3610302  55.7644368 112.5379869  20.4383877
  55.4447152 111.6845178  20.1458251  55.2177796 112.7528447  21.1941844
  59.5424275 115.2542310  24.1553384  59.7610285 116.1859418  24.1741417
  59.9550049 114.8950285  24.9408187  66.4628493 105.7610396  16.1429072
  65.6529221 105.4157481  16.5184318  67.1512910 105.4517939  16.7316684
  68.3919041 104.8388442  17.7653369  68.9450080 105.2583896  18.4243392
  68.6289128 103.9124191  17.8076325  64.4152141 110.8275516  33.5456133
  64.3148867 111.7769873  33.4768224  64.1973683 110.4993755  32.6732203
  55.6332628 116.1582781  22.4076999  54.9396099 115.7436734  21.8946953
  56.3805619 116.2003317  21.8110418  70.2201415 106.3494025  19.4753353
  70.7201193 106.4610560  18.6667672  70.8637023 106.0455078  20.1154162
  64.2783411 114.2572655  32.3621194  63.7950492 115.0573015  32.5685083
  64.3644350 114.2680600  31.4088638  57.5469370 116.0901035  20.2843014
  57.5240058 116.1888722  19.3324897  57.8570007 116.9366185  20.6060180
  60.2056748 118.1477190  24.3989628  61.1600002 118.1161132  24.3319560
  60.0069272 117.6867813  25.2139854  60.7956130 116.7178306  26.9660426
  61.6149019 117.2122384  26.9895263  61.0692938 115.8010274  26.9377993
  56.0491044 111.0516440  27.6652623  56.6949908 110.5415394  28.1539848
  55.8408196 111.7885121  28.2396048  68.5744437 118.1197287  33.1644763
  69.4435596 118.2937939  32.8031398  68.0951188 118.9391704  33.0420493
  62.7430617 125.2394388  24.8434197  63.6457864 125.2717998  25.1600692
  62.5167987 124.3094839  24.8580533  68.3846774 101.9099261  17.6722456
  67.6179170 101.3557748  17.8179138  68.7957479 101.9821130  18.5336607
  60.3888535 108.1984057  31.7627637  61.2519997 107.8420861  31.9730961
  59.8153946 107.8597951  32.4503041  72.9470036 121.6064773  32.7557608
  72.5536982 121.0530972  33.4305253  73.7636177 121.9175352  33.1464126
  75.8637997 123.0222652  30.3477865  76.6047711 123.6229805  30.2682327
  76.0955920 122.2800290  29.7895908  70.8918024 125.3966463  29.6962271
  71.5190063 125.0143540  30.3099796  70.0345943 125.1780665  30.0617964
  74.1286081 124.7184369  31.3576191  74.1774237 125.5946491  30.9753961
  74.6708595 124.1761762  30.7847834  75.2545895 126.1567434  33.5456133
  75.1542622 127.1061791  33.4768224  75.0367437 125.8285673  32.6732203
  66.8884799 126.3808357  27.6652623  67.5343663 125.8707311  28.1539848
  66.6801950 127.1177039  28.2396048  71.2282290 123.5275974  31.7627637
  72.0913752 123.1712779  31.9730961  70.6547701 123.1889869  32.4503041
  28.6091687  36.4617055  15.4497503  28.5504234  35.7776275  14.7828086
  29.0111206  37.2036045  14.9978129  27.0943361  36.1631972  18.0261313
  27.6383265  36.7761930  17.5316268  26.5130206  36.7211550  18.5428326
  30.4172156  35.6228026  17.3622635  29.6267699  35.6052165  16.8227134
  30.1805510  36.1616320  18.1171671  32.0388228  34.8917434  14.9197385
  31.7473036  35.2547415  15.7560846  31.4260359  34.1784442  14.7410717
  25.2169420  33.8091739  19.8890070  26.0860580  33.9832391  19.5276705
  24.7376171  34.6286156  19.7665799  36.8761896  45.5180365   9.2935345
  37.5140306  45.3987112   8.5898685  36.7582739  46.4661209   9.3523297
  33.6851602  45.4707793   9.2296869  33.3470113  45.3548858   8.3417404
  34.5541370  45.0698958   9.2097875  34.1671385  46.6242645  15.1883075
  34.1560026  46.2295443  14.3163578  34.3292024  45.8908717  15.7816846
  27.0902850  48.8194461   8.0577981  27.8824142  48.4785286   7.6424280
  27.3299500  48.9289436   8.9780134  30.8878646  49.4079756  14.1362259
  30.5968512  50.3125387  14.0208925  31.5235630  49.4496284  14.8506328
  31.8134853  46.7856605  10.7263618  32.4098425  46.5612627  10.0120581
  31.8709824  46.0441350  11.3289066  41.8311591  43.1807052   7.2721531
  42.5636763  42.6106269   7.5059361  41.0750947  42.7928652   7.7128037
  39.3537012  36.8928626  11.7316140  39.0220336  37.7624037  11.5077355
  38.7582625  36.5764910  12.4110170  35.8468531  49.0941172  11.1312052
  35.5469254  49.9966211  11.0227860  35.5019591  48.8273355  11.9833205
  39.2465675  41.6123712   8.8109490  38.3382552  41.5439121   8.5168251
  39.1953271  42.0895657   9.6391315  30.8289311  55.8585492   4.0983020
  30.7513341  56.8093317   4.1771501  30.2250955  55.5131365   4.7557946
  33.3206541  43.0313358  16.7544387  32.5439875  43.5907278  16.7447252
  33.9597104  43.5170141  17.2759257  41.1127321  39.8140151  10.5887364
  40.4701702  40.1072684   9.9427158  40.6082250  39.6993071  11.3940560
  31.5752913  45.8398811  16.3162354  32.3167597  46.3783855  16.0397178
  30.8689899  46.4665100  16.4733906  37.0508253  47.9827952  14.9134516
  37.4591609  47.5410362  14.1689148  36.3285514  47.4080579  15.1668708
  33.4039323  42.9200558  12.2868072  34.2500518  43.3439972  12.4302721
  33.3437960  42.2634183  12.9806636  37.3737067  48.5429142   8.6686804
  36.7445930  48.7074856   7.9662872  36.9862729  48.9570752   9.4397768
  41.2526299  49.4783580   6.0231168  40.5677337  49.8582481   5.4728201
  41.3370149  50.0878907   6.7563116  36.5538768  40.5804927  13.9449246
  36.3099700  41.3346987  13.4083522  36.8298699  40.9590274  14.7796493
  38.5077231  47.1243539  12.6226512  38.7194126  47.7675299  11.9460893
  38.4606979  46.2905856  12.1548442  29.8189110  47.8275032   8.8716653
  30.3890467  48.2562300   8.2334137  30.4097222  47.5457617   9.5700838
  30.3114277  42.9938459  17.1177664  29.6812937  43.6754740  17.3513061
  30.2050365  42.8821541  16.1730802  39.6223059  50.0015495  10.7948869
  40.4440503  49.5995682  10.5131551  39.6185462  49.8983729  11.7464985
  33.3879662  49.5499538  12.9509580  33.4524095  50.0119945  13.7867751
  32.6790586  48.9196903  13.0791889  47.7129052  46.3454243   7.1433841
  46.9592760  45.7761641   6.9877845  47.8476593  46.3116907   8.0904475
  29.5895020  37.2959225  19.4802915  29.1961965  36.7425424  20.1550559
  30.4061160  37.6069804  19.8709433  28.3651962  51.8508840   5.4739238
  28.5418590  52.7726804   5.2860222  29.1608796  51.5367259   5.9033618
  32.5062981  38.7117104  17.0723172  33.2472694  39.3124257  16.9927634
  32.7380903  37.9694742  16.5141214  27.6504319  43.8973472  15.3501401
  27.5357834  42.9958729  15.6508500  26.7948836  44.1437168  14.9986218
  34.7296156  51.8391212  16.9488902  34.2860010  51.0527590  16.6309806
  35.3913370  52.0270362  16.2832793  29.4883277  53.3687013  11.4749580
  30.0390703  53.2404077  10.7026574  28.6494753  53.6681902  11.1244473
  36.8277394  52.1194012  14.9770303  36.8095870  52.9402893  14.4850572
  37.7497314  51.9948087  15.2020444  33.2850449  49.6338141  15.8193812
  33.8178785  48.8726429  15.5893120  32.7564530  49.3411793  16.5617966
  39.6296007  46.9573154   8.4479670  38.9719682  47.6472416   8.5359799
  40.4336406  47.3469586   8.7913656  38.4401466  45.3117527   6.4983612
  38.9533348  45.9447519   7.0005321  39.0902690  44.7118722   6.1326972
  34.9182297  42.7866982   8.7441952  34.0004858  43.0081929   8.5863640
  35.3342441  42.8613293   7.8853660  39.2063262  50.2923528   4.6262754
  38.7525589  49.4514438   4.6827945  38.5757229  50.9284927   4.9637534
  37.6496201  52.1300025   5.5612572  37.9419176  52.6905082   4.8424938
  38.1594822  52.4228586   6.3165732  32.6129827  52.9080376   6.6506026
  32.5706005  53.1341222   5.7214558  33.5292526  52.6743751   6.7991827
  36.0595460  43.3764444  13.5486655  36.4144848  43.6035917  14.4081121
  36.7067592  43.7082820  12.9263910  41.7893197  46.4982880   4.2535984
  41.6511096  46.6884476   3.3257173  41.4329416  47.2602262   4.7104035
  41.8162577  48.5659407   9.2647255  42.2499084  48.4734696  10.1130309
  42.5294158  48.5416907   8.6267271  35.5490472  52.1661501  10.7980356
  35.6027494  52.7352437  11.5658072  34.6805253  52.3363386  10.4334393
  28.4288865  41.8679057  12.2804807  29.1011919  41.6596419  11.6317456
  27.6018652  41.6701143  11.8410040  42.6778127  48.6083107  11.7980141
  42.8714017  49.5128918  12.0439416  42.5778745  48.1490526  12.6318726
  34.3314437  38.4940998  14.2970468  33.6842352  39.1930947  14.2034945
  35.1015453  38.9277142  14.6646716  37.7393235  48.7589850  17.3721021
  37.5878742  48.5300402  16.4551105  37.7297915  49.7160451  17.3852366
  34.5078572  46.3321763  12.3567288  35.4370632  46.4832922  12.1836255
  34.0869602  46.4205783  11.5015934  33.3066903  50.3572427  10.1265825
  33.1677989  49.9891212  10.9991764  32.5181500  50.8720067   9.9549783
  33.9015055  55.4581524   1.4691362  34.0766811  54.9869567   2.2836985
  33.2147843  56.0847290   1.6972623  34.8572119  49.7354030   7.5154663
  34.5221951  49.6954800   8.4112313  34.3576064  49.0698746   7.0425073
  28.8316363  45.1421660  13.0407244  28.6936160  44.4101899  13.6418783
  29.7421286  45.0530560  12.7591432  31.4598663  44.8541619  12.5290924
  32.1698282  44.2134811  12.4877542  31.4167971  45.1054514  13.4517105
  39.4485442  51.7908972  15.4497503  39.3897988  51.1068193  14.7828086
  39.8504960  52.5327963  14.9978129  30.1727597  41.8406837  14.3486564
  29.6364954  41.3897576  15.0008160  29.5844306  41.9752746  13.6057028
  28.4676141  58.6070886   8.2431222  28.7072739  59.2389411   8.9210241
  27.6245337  58.2558926   8.5296581  39.4502849  49.7548556  13.6811483
  38.5629628  49.4174478  13.8037882  40.0201400  49.0231588  13.9180248
  32.9804003  54.4150009  10.6472726  32.9074174  55.2204980  11.1592031
  32.5381396  54.6141975   9.8220748  32.7693782  53.6521779   4.1575548
  31.9861304  54.1943459   4.2513772  33.4686527  54.1695758   4.5569789
  43.9320190  45.1656774   8.4428045  43.9210066  46.0481489   8.0721978
  43.0637569  44.8128325   8.2482582  35.4402686  54.3136843  12.8030885
  36.1530658  54.9484308  12.7306786  34.9492715  54.4100709  11.9870887
  30.4914600  52.0631286  13.6236456  31.1924059  52.6967769  13.7765850
  30.0209715  52.4046018  12.8632095  38.2915886  44.6175894  11.4489006
  37.6387336  44.8651801  10.7941459  38.6696265  43.8040032  11.1151483
  35.2523059  54.6535587   5.5517176  35.4345454  53.8357243   6.0144929
  36.0756045  54.8703279   5.1142066  35.5865225  53.5803772   2.8132225
  36.1152991  53.0696227   2.2002387  35.8493445  53.2646302   3.6777758
  34.3403459  45.3595705  17.9355043  33.6644096  45.2589834  18.6057418
  35.1631092  45.2034919  18.3991040  26.0882318  51.5967641  10.5567558
  26.6735754  50.8511329  10.6895462  25.8907156  51.9071598  11.4404222
  28.9420973  54.6318889   5.5730001  28.2731348  55.1165016   5.0894041
  28.8033843  54.8788109   6.4873379  33.0826241  56.6662632  12.1712659
  33.6344550  56.8294254  12.9361744  33.4232435  57.2567070  11.4992684
  27.5343007  41.0860915  16.4207578  28.1615046  40.7037992  17.0345102
  26.6770926  40.8675117  16.7863270  37.9337116  51.4923890  18.0261313
  38.4777020  52.1053848  17.5316268  37.3523961  52.0503468  18.5428326
  36.2194629  54.6144608   9.1576341  36.0945768  53.8134348   8.6487287
  36.8773720  55.1090801   8.6690311  38.2829537  52.4153628  10.7855891
  37.3359873  52.2958979  10.7134218  38.6312310  51.5276126  10.8682153
  30.6429111  38.3047767  14.6094133  31.1663512  38.5510063  15.3720442
  30.4241444  39.1367802  14.1897271  35.2875970  52.2106344   6.9860244
  35.1400933  51.2823051   7.1667814  36.1129464  52.2326435   6.5017319
  38.8910092  53.0334903   8.0725116  39.8156640  52.8277764   7.9349567
  38.7225396  52.7851304   8.9814458  31.8481656  39.2461462  12.2943804
  31.5078476  38.4469275  12.6964484  31.1420662  39.5463173  11.7220637
  33.7359220  40.4469783  10.6497122  33.4776998  41.3686854  10.6481453
  33.2044260  40.0500218  11.3397586  38.6805408  53.5520570   3.4287208
  38.8542286  52.9866993   2.6761060  39.1734300  54.3521465   3.2466698
  24.4982368  45.5635239  11.4950767  23.9535836  46.3395047  11.6271041
  25.3761718  45.9106044  11.3369888  44.5344800  46.3156993   5.0477507
  44.9775946  45.5664318   4.6496631  43.6571310  46.3067130   4.6651239
  39.6680581  52.8687335   0.5284106  40.3631486  53.4894027   0.7471421
  40.0103731  52.0182686   0.8036484  25.2848390  44.6905136  14.3880923
  24.5430126  44.8387771  14.9745554  24.9641134  44.9513401  13.5247673
  41.5672004  50.3187040   2.0571437  42.0923328  50.6574313   1.3320757
  41.4794357  49.3834056   1.8734571  33.2292053  54.2321114  14.1861313
  33.5379179  53.9870261  15.0584013  34.0267535  54.4367752  13.6980184
  33.2512665  56.3859023   6.4166690  32.8117655  55.8935402   7.1099547
  34.0020782  55.8431991   6.1758765  25.7305004  52.5770564   6.4191318
  26.5563024  52.2774336   6.0389962  25.3799056  51.8078187   6.8681107
  30.6986537  51.9297033   8.4888992  30.0766546  51.2667738   8.1891219
  31.3691404  51.9558164   7.8062639  30.7711064  40.4078821  18.0821498
  30.8199220  41.2840943  17.6999267  31.3133579  39.8656214  17.5093141
  41.2565910  50.9519944  17.3622635  40.4661454  50.9344083  16.8227134
  41.0199265  51.4908238  18.1171671  41.3763785  47.8012410  14.6755363
  41.4261790  47.6362418  15.6170886  41.2677709  46.9339669  14.2853244
  38.6667548  43.7843338  15.9914670  39.5677410  43.6449803  15.6998668
  38.7415522  43.9497793  16.9312847  33.0010353  41.1610193  14.8367856
  32.1313662  41.4543759  14.5650445  33.2369833  41.7450638  15.5575120
  42.8781982  50.2209352  14.9197385  42.5866790  50.5839332  15.7560846
  42.2654113  49.5076360  14.7410717  44.0777664  47.7862231   7.4399955
  44.9124556  48.2252036   7.6037515  44.2136793  47.3100885   6.6208201
  41.1269170  45.3441966  13.3877443  41.6023292  45.5369613  12.5796294
  40.2034736  45.4001152  13.1420826  35.7049387  37.3789810  12.3533277
  36.2231331  38.1150837  12.0279765  35.3504520  37.6853803  13.1880036
  39.8270839  42.2207726  11.6205748  40.7788262  42.3205824  11.6417972
  39.6574290  41.4285995  12.1303833  37.8485219  39.3063310  11.8065149
  37.2535151  39.5868322  11.1111638  37.5634915  39.7957211  12.5781890
  42.3058917  45.4413846  10.7348048  42.2735237  44.5029847  10.9207732
  42.9159541  45.5197883  10.0013873  42.4553406  42.2324890  10.7806331
  41.9392454  41.4483346  10.5936260  43.3393354  41.9043606  10.9452851
  48.1235467  46.5029853   9.8754085  48.8538855  46.2415141  10.4361788
  47.5142412  45.7658575   9.9156153  46.2050764  44.6437716  10.4728536
  45.4783928  44.5093680   9.8645028  45.7898051  44.9514544  11.2785254
  34.0280940  48.3627645  18.2375909  34.9483950  48.5406244  18.4315956
  33.9930524  47.4183691  18.0855608  27.0243013  46.2728680  10.8798690
  27.2429023  47.2045788  10.8986724  27.4368787  45.9136654  11.6653494
  31.8970878  41.8461886  20.2701439  31.7967605  42.7956243  20.2013530
  31.6792420  41.5180125  19.3977509  31.7602148  45.2759024  19.0866501
  31.2769230  46.0759385  19.2930390  31.8463087  45.2866969  18.1333945
  27.6875486  49.1663559  11.1234935  28.6418739  49.1347502  11.0564866
  27.4888009  48.7054183  11.9385160  28.2774868  47.7364675  13.6905732
  29.0967757  48.2308754  13.7140570  28.5511676  46.8196643  13.6623300
  43.8228559  40.8649568   7.8261968  44.4173050  40.6245304   7.1155276
  43.8955143  40.1456698   8.4535504  26.0425715  54.7083179   8.1405132
  25.9080183  53.9483580   7.5743130  25.6257777  55.4324079   7.6733921
  46.1299632  44.1715769   6.6005389  45.5699190  44.2408958   7.3736951
  45.5243135  43.9956753   5.8804885  29.1994841  55.6052496   8.3523575
  29.0827225  56.5497928   8.2502265  28.3787287  55.3026057   8.7409374
  23.5309782  42.0702809  14.3897929  24.1768646  41.5601763  14.8785154
  23.3226933  42.8071491  14.9641355  36.0563174  49.1383657  19.8890070
  36.9254334  49.3124309  19.5276705  35.5769926  49.9578073  19.7665799
  30.2249355  56.2580758  11.5679504  31.1276601  56.2904368  11.8845998
  29.9986725  55.3281209  11.5825839  31.9802957  55.0111744   8.2289582
  31.0298588  55.0113606   8.1153954  32.2835443  54.2644479   7.7125617
  27.8707273  39.2170426  18.4872944  28.7338735  38.8607231  18.6976268
  27.2972684  38.8784321  19.1748348  47.7155650  60.8472283   9.2935345
  48.3534060  60.7279030   8.5898685  47.5976493  61.7953126   9.3523297
  44.5245356  60.7999711   9.2296869  44.1863868  60.6840775   8.3417404
  45.3935125  60.3990876   9.2097875  40.3832172  62.6535187   5.2193760
  39.8197037  62.5625124   4.4510048  40.2684567  61.8335091   5.6996253
  45.0065139  61.9534562  15.1883075  44.9953780  61.5587361  14.3163578
  45.1685779  61.2200635  15.7816846  37.9296604  64.1486379   8.0577981
  38.7217896  63.8077203   7.6424280  38.1693254  64.2581354   8.9780134
  45.9631731  66.3206155   0.5308225  45.3119711  66.9060235   0.1442239
  46.7576094  66.8512350   0.5903263  39.8887358  63.4095292   0.9295359
  40.6618234  62.8624279   0.7908235  40.2412757  64.2739541   1.1409821
  41.7272401  64.7371674  14.1362259  41.4362267  65.6417305  14.0208925
  42.3629385  64.7788202  14.8506328  42.6528607  62.1148523  10.7263618
  43.2492180  61.8904545  10.0120581  42.7103579  61.3733268  11.3289066
  42.2253636  59.5687958  -1.4386191  42.4779157  59.0469479  -2.2002728
  41.2878195  59.4054103  -1.3359507  47.2696919  58.5723736   6.3688553
  48.0560008  58.1543160   6.0178970  47.5335623  59.4769829   6.5370201
  47.4406996  64.0096587   1.0677209  46.8052829  64.0831213   1.7798114
  47.1104402  64.5990186   0.3896289  52.6705346  58.5098970   7.2721531
  53.4030518  57.9398186   7.5059361  51.9144701  58.1220570   7.7128037
  41.9449925  61.4716064   0.7638184  41.8286183  60.7960967   1.4319269
  42.0552184  60.9848438  -0.0529663  44.2881466  60.9326211   4.4684874
  43.9239673  60.4056832   5.1797795  45.1448581  60.5424680   4.2951359
  50.1930766  52.2220544  11.7316140  49.8614091  53.0915955  11.5077355
  49.5976380  51.9056828  12.4110170  43.9286952  55.9616111  -0.5353778
  44.0961355  56.8296347  -0.1683307  43.7384122  56.1243392  -1.4592489
  46.6862286  64.4233090  11.1312052  46.3863009  65.3258128  11.0227860
  46.3413345  64.1565273  11.9833205  40.1374767  60.8746887   7.1648757
  39.2125264  60.7423101   7.3726449  40.3859180  61.6541106   7.6618699
  50.0859429  56.9415630   8.8109490  49.1776307  56.8731038   8.5168251
  50.0347025  57.4187575   9.6391315  43.9076173  58.4173768   0.4492889
  43.7875799  58.8630819   1.2878369  43.2128762  58.7659086  -0.1093573
  37.4983578  60.5180160   7.9992546  37.6275959  60.7714639   8.9131958
  36.8181029  61.1107868   7.6797201  41.6683065  71.1877410   4.0983020
  41.5907095  72.1385235   4.1771501  41.0644709  70.8423283   4.7557946
  44.1600295  58.3605275  16.7544387  43.3833629  58.9199196  16.7447252
  44.7990858  58.8462058  17.2759257  51.9521076  55.1432068  10.5887364
  51.3095456  55.4364601   9.9427158  51.4476004  55.0284989  11.3940560
  49.6061240  58.8895241   1.2773223  50.5179096  59.1222628   1.1020920
  49.0970887  59.4732286   0.7148302  42.4146668  61.1690729  16.3162354
  43.1561352  61.7075773  16.0397178  41.7083653  61.7957018  16.4733906
  47.8902007  63.3119869  14.9134516  48.2985363  62.8702280  14.1689148
  47.1679269  62.7372497  15.1668708  44.2433077  58.2492476  12.2868072
  45.0894272  58.6731890  12.4302721  44.1831715  57.5926100  12.9806636
  48.2130822  63.8721060   8.6686804  47.5839684  64.0366774   7.9662872
  47.8256484  64.2862669   9.4397768  52.0920054  64.8075498   6.0231168
  51.4071092  65.1874399   5.4728201  52.1763903  65.4170824   6.7563116
  47.3932523  55.9096844  13.9449246  47.1493454  56.6638905  13.4083522
  47.6692453  56.2882192  14.7796493  49.3470985  62.4535457  12.6226512
  49.5587881  63.0967217  11.9460893  49.3000734  61.6197773  12.1548442
  46.9497214  55.0653277   9.5263084  46.0881693  55.3634531   9.8179821
  46.9759649  55.2823676   8.5944116  43.7658784  63.6095468   5.9336890
  44.2297129  63.8883171   5.1441512  43.5015582  62.7078913   5.7509980
  40.6582865  63.1566950   8.8716653  41.2284222  63.5854218   8.2334137
  41.2490977  62.8749534   9.5700838  42.7027670  59.7318620   2.7426455
  43.4051713  60.1839664   3.2100381  42.3708298  59.0902439   3.3706348
  41.1508031  58.3230377  17.1177664  40.5206692  59.0046658  17.3513061
  41.0444119  58.2113459  16.1730802  36.4453004  57.9902173   8.0443588
  35.6552058  58.2459702   7.5683699  36.9364251  58.8050511   8.1495629
  50.4616813  65.3307412  10.7948869  51.2834257  64.9287599  10.5131551
  50.4579216  65.2275646  11.7464985  38.3967749  58.3546752   5.0027065
  37.5998912  58.4665447   5.5210561  38.1693341  58.6933404   4.1367955
  44.2273417  64.8791455  12.9509580  44.2917849  65.3411863  13.7867751
  43.5184341  64.2488820  13.0791889  34.7290707  58.2432663  10.4758579
  34.9798745  59.1279673  10.7416155  35.2650255  58.0637265   9.7033671
  58.5522806  61.6746161   7.1433841  57.7986515  61.1053559   6.9877845
  58.6870348  61.6408825   8.0904475  43.9421434  66.5459563   2.8188560
  43.8067109  67.3911099   3.2473408  44.4831247  66.7478841   2.0554494
  40.4288774  52.6251143  19.4802915  40.0355720  52.0717341  20.1550559
  41.2454914  52.9361721  19.8709433  37.3950832  64.0635001   3.3916485
  37.9075352  64.8578251   3.5422050  38.0473545  63.3661291   3.3250086
  39.2045716  67.1800757   5.4739238  39.3812345  68.1018722   5.2860222
  40.0002550  66.8659177   5.9033618  43.3456735  54.0409022  17.0723172
  44.0866448  54.6416175  16.9927634  43.5774658  53.2986660  16.5141214
  38.4898073  59.2265389  15.3501401  38.3751588  58.3250646  15.6508500
  37.6342591  59.4729086  14.9986218  45.5689911  67.1683129  16.9488902
  45.1253765  66.3819508  16.6309806  46.2307124  67.3562280  16.2832793
  40.3277032  68.6978931  11.4749580  40.8784457  68.5695994  10.7026574
  39.4888508  68.9973820  11.1244473  47.6671149  67.4485929  14.9770303
  47.6489624  68.2694810  14.4850572  48.5891069  67.3240005  15.2020444
  44.1244203  64.9630059  15.8193812  44.6572540  64.2018347  15.5893120
  43.5958284  64.6703711  16.5617966  47.2913898  50.0690125  11.3487453
  46.9478167  50.9591767  11.2726564  47.6592861  49.8791782  10.4857038
  35.3599749  62.3923655   4.1676055  36.1974971  62.8020664   3.9509763
  35.5378016  61.4523097   4.1376249  47.2564181  60.0598736  -0.1440112
  46.7410804  60.8303341   0.0948276  46.9841489  59.3863872   0.4792950
  44.8411292  54.9048437   4.9145127  43.9852888  54.5155287   4.7350766
  45.2538243  54.9840398   4.0544912  46.3710438  52.4394780   9.3136687
  45.8675234  52.4024915   8.5004492  46.6641045  53.3487523   9.3733343
  42.6153324  52.5233510   8.3202868  43.4806321  52.3276318   7.9608758
  42.6830833  52.2943862   9.2472225  52.2298455  62.8131091   1.7913062
  51.4527898  62.4742250   1.3468224  52.9089936  62.8183714   1.1168027
  47.0450484  57.9325828   1.6819670  46.7400619  58.2471977   2.5329813
  47.9980926  58.0107248   1.7247003  45.4896916  64.0916051   3.3312624
  44.9618277  63.3568811   3.0185861  44.9884418  64.8690728   3.0852592
  50.4689762  62.2865072   8.4479670  49.8113436  62.9764333   8.5359799
  51.2730161  62.6761504   8.7913656  40.2215643  54.7535718   5.6919235
  40.7959395  54.5310899   4.9592428  40.8086626  54.8224412   6.4447836
  49.2795221  60.6409445   6.4983612  49.7927102  61.2739436   7.0005321
  49.9296444  60.0410640   6.1326972  40.5485230  56.7840179  -0.2884880
  39.7122543  57.1214865   0.0324395  40.4090000  56.6489158  -1.2257743
  42.5238311  51.6276967   4.4194305  41.8702723  51.3125984   3.7950919
  42.4818785  51.0052707   5.1454127  43.6349516  61.9096262  -3.6652403
  42.7276578  61.6785515  -3.4661254  44.1320548  61.1133881  -3.4778422
  46.5417595  70.6193769  -0.7455717  45.8679294  70.9225466  -0.1370759
  46.9283417  71.4222849  -1.0950260  45.7576051  58.1158900   8.7441952
  44.8398613  58.3373847   8.5863640  46.1736195  58.1905211   7.8853660
  46.5411099  59.5150316   3.8744632  47.2882918  60.0271713   3.5651754
  46.8102689  59.1934369   4.7349026  44.8137749  62.0108857   0.8571587
  43.9048969  61.7267889   0.9544056  44.8432833  62.4307935  -0.0025106
  50.0457017  65.6215446   4.6262754  49.5919344  64.7806356   4.6827945
  49.4150983  66.2576844   4.9637534  48.9889936  56.5507432   5.8563422
  48.2512693  56.0384818   6.1873664  49.2416710  56.1107814   5.0446699
  48.4889956  67.4591943   5.5612572  48.7812930  68.0197000   4.8424938
  48.9988577  67.7520504   6.3165732  49.0901564  49.3283684   6.4505191
  49.3960440  48.4681047   6.1631106  49.8154168  49.9201304   6.2504185
  35.3825920  59.7314371   4.8386789  35.1850320  59.1383731   4.1137855
  34.8272584  59.4266581   5.5562728  43.3622643  59.6237477   6.9581382
  43.4171253  58.6711314   6.8823859  42.5513845  59.7796916   7.4422680
  44.5113837  63.5517600  -1.8040335  44.0733267  62.8353459  -2.2634697
  45.2524278  63.7793715  -2.3655243  41.3015003  58.2414537   4.7171761
  40.4882869  58.5408707   5.1236953  41.7973997  57.8470226   5.4346243
  43.4523581  68.2372294   6.6506026  43.4099760  68.4633140   5.7214558
  44.3686280  68.0035668   6.7991827  46.8989215  58.7056361  13.5486655
  47.2538603  58.9327834  14.4081121  47.5461346  59.0374738  12.9263910
  52.6286952  61.8274797   4.2535984  52.4904850  62.0176393   3.3257173
  52.2723171  62.5894180   4.7104035  40.7929078  55.8132892  10.3332996
  41.4328457  55.6721651   9.6355959  39.9606609  55.5267406   9.9571598
  52.6556331  63.8951324   9.2647255  53.0892838  63.8026613  10.1130309
  53.3687912  63.8708825   8.6267271  41.5689382  65.1135323   6.4467988
  42.3629980  64.6185643   6.2450563  40.8581074  64.5853186   6.0835694
  46.3884226  67.4953418  10.7980356  46.4421249  68.0644355  11.5658072
  45.5199008  67.6655303  10.4334393  37.8772145  59.2578405   2.5227741
  36.9469733  59.1962860   2.7397703  37.9729617  58.7354357   1.7264382
  37.7957694  55.7833217   5.1105983  38.0564512  56.6978551   5.0015143
  38.6174867  55.3157660   5.2602596  39.2682620  57.1970975  12.2804807
  39.9405673  56.9888337  11.6317456  38.4412406  56.9993061  11.8410040
  53.5171881  63.9375025  11.7980141  53.7107771  64.8420835  12.0439416
  53.4172499  63.4782444  12.6318726  45.1708192  53.8232915  14.2970468
  44.5236107  54.5222865  14.2034945  45.9409207  54.2569059  14.6646716
  48.5786990  64.0881768  17.3721021  48.4272496  63.8592319  16.4551105
  48.5691669  65.0452369  17.3852366  45.3472326  61.6613680  12.3567288
  46.2764386  61.8124840  12.1836255  44.9263356  61.7497701  11.5015934
  44.1460658  65.6864345  10.1265825  44.0071744  65.3183129  10.9991764
  43.3575254  66.2011984   9.9549783  44.7408810  70.7873441   1.4691362
  44.9160566  70.3161484   2.2836985  44.0541598  71.4139207   1.6972623
  45.6965873  65.0645947   7.5154663  45.3615706  65.0246717   8.4112313
  45.1969819  64.3990663   7.0425073  39.6710117  60.4713578  13.0407244
  39.5329915  59.7393816  13.6418783  40.5815041  60.3822478  12.7591432
  48.6325065  62.4101982  -2.2108277  48.0154235  61.6848810  -2.3075224
  48.1641553  63.1711342  -2.5541203  42.2992418  60.1833537  12.5290924
  43.0092036  59.5426729  12.4877542  42.2561726  60.4346432  13.4517105
  50.2879196  67.1200890  15.4497503  50.2291743  66.4360110  14.7828086
  50.6898715  67.8619880  14.9978129  41.0121352  57.1698755  14.3486564
  40.4758709  56.7189493  15.0008160  40.4238060  57.3044664  13.6057028
  39.3069895  73.9362804   8.2431222  39.5466493  74.5681328   8.9210241
  38.4639092  73.5850844   8.5296581  50.2896604  65.0840474  13.6811483
  49.4023382  64.7466396  13.8037882  50.8595155  64.3523505  13.9180248
  31.9425751  61.4164566   7.0054534  32.6296791  61.1026296   6.4175550
  31.7873879  62.3205930   6.7321786  36.7460473  56.3054762  11.4339558
  36.6618662  55.6980432  10.6989968  35.9243179  56.7963781  11.4349054
  43.8197757  69.7441926  10.6472726  43.7467929  70.5496898  11.1592031
  43.3775150  69.9433892   9.8220748  43.6087537  68.9813696   4.1575548
  42.8255059  69.5235377   4.2513772  44.3080282  69.4987676   4.5569789
  46.9184187  54.7908326   6.8009753  47.4152886  54.0378288   6.4810823
  46.1471168  54.8272643   6.2352962  54.7713944  60.4948691   8.4428045
  54.7603820  61.3773407   8.0721978  53.9031324  60.1420242   8.2482582
  46.2796441  69.6428760  12.8030885  46.9924413  70.2776225  12.7306786
  45.7886469  69.7392626  11.9870887  48.0013967  63.5480013   4.3748176
  47.0670246  63.6681476   4.2052881  48.1790636  62.6452480   4.1108186
  43.5019156  56.9325709   6.5281438  43.1316943  56.3796749   7.2162343
  43.9978248  56.3283842   5.9756438  51.3886519  59.3897332   4.9098211
  51.8546971  60.2225324   4.8358513  51.8394019  58.9242314   5.6143469
  41.3308354  67.3923204  13.6236456  42.0317814  68.0259687  13.7765850
  40.8603469  67.7337936  12.8632095  49.4562750  65.7341154   1.9084363
  49.7322594  65.6197748   2.8178237  48.5867249  65.3358639   1.8696536
  49.3603182  51.7577919   8.9489112  48.4466261  51.9882146   9.1171319
  49.7896283  51.8416364   9.8003144  49.1309640  59.9467811  11.4489006
  48.4781090  60.1943719  10.7941459  49.5090020  59.1331950  11.1151483
  46.0916814  69.9827505   5.5517176  46.2739208  69.1649161   6.0144929
  46.9149800  70.1995197   5.1142066  46.4258979  68.9095690   2.8132225
  46.9546746  68.3988144   2.2002387  46.6887199  68.5938220   3.6777758
  45.1797213  60.6887622  17.9355043  44.5037850  60.5881752  18.6057418
  46.0024847  60.5326836  18.3991040  36.9276072  66.9259559  10.5567558
  37.5129509  66.1803247  10.6895462  36.7300911  67.2363516  11.4404222
  39.7814727  69.9610806   5.5730001  39.1125103  70.4456934   5.0894041
  39.6427597  70.2080027   6.4873379  31.5193727  59.4965159   9.2772001
  31.5577826  58.9628750  10.0709120  31.0134020  58.9700365   8.6582979
  43.9219996  71.9954550  12.1712659  44.4738304  72.1586171  12.9361744
  44.2626189  72.5858988  11.4992684  38.8984489  54.3429700  12.7734544
  38.9625816  55.2044531  12.3611941  38.8351609  53.7303701  12.0406902
  38.3736762  56.4152832  16.4207578  39.0008801  56.0329910  17.0345102
  37.5164681  56.1967034  16.7863270  48.7730870  66.8215807  18.0261313
  49.3170774  67.4345766  17.5316268  48.1917715  67.3795386  18.5428326
  35.1502304  58.2229261   2.3525933  35.4455746  57.3139940   2.2992987
  34.2490340  58.2017001   2.0306935  47.0588383  69.9436525   9.1576341
  46.9339523  69.1426265   8.6487287  47.7167474  70.4382719   8.6690311
  38.6796551  56.2985258   8.3353481  37.9583137  56.9121226   8.1960955
  39.4689807  56.8343023   8.2570127  49.1223292  67.7445546  10.7855891
  48.1753627  67.6250897  10.7134218  49.4706065  66.8568044  10.8682153
  41.4822865  53.6339684  14.6094133  42.0057267  53.8801981  15.3720442
  41.2635198  54.4659719  14.1897271  36.8790146  55.9043359   2.4765258
  36.5502852  55.0240738   2.2940364  37.2329517  55.8491028   3.3641647
  46.1269725  67.5398262   6.9860244  45.9794687  66.6114969   7.1667814
  46.9523218  67.5618352   6.5017319  39.9931969  56.1916329   2.8440736
  40.3328042  56.7202250   2.1219344  40.4404090  56.5296735   3.6199302
  49.7303847  68.3626820   8.0725116  50.6550394  68.1569682   7.9349567
  49.5619150  68.1143222   8.9814458  42.6875410  54.5753380  12.2943804
  42.3472230  53.7761193  12.6964484  41.9814416  54.8755090  11.7220637
  43.3391882  51.6602692  10.7471127  44.1617951  51.1863170  10.6250017
  43.5829945  52.4393176  11.2469813  41.9800116  54.6890950   1.0434028
  42.7008479  55.0672203   0.5397745  41.3565420  55.4079827   1.1469006
  46.1231239  55.3936099   1.9792361  46.3394854  56.2760737   1.6781189
  45.6425306  55.0022313   1.2498003  40.8630461  58.3521813   8.5563105
  40.7175041  58.6662116   9.4487387  40.3855664  58.9706713   8.0034004
  42.7226844  55.3424361   8.6043995  42.7088412  54.4465454   8.2676293
  43.4399272  55.3495024   9.2382281  44.5752974  55.7761701  10.6497122
  44.3170752  56.6978771  10.6481453  44.0438015  55.3792135  11.3397586
  49.5199163  68.8812488   3.4287208  49.6936041  68.3158910   2.6761060
  50.0128054  69.6813383   3.2466698  35.3376123  60.8927157  11.4950767
  34.7929591  61.6686965  11.6271041  36.2155473  61.2397961  11.3369888
  42.1263739  54.2238741   3.8731565  42.2479651  53.2955387   4.0722453
  41.8365782  54.2377427   2.9609880  44.9954930  51.9093651   7.0098285
  45.0176627  51.9732984   6.0550264  45.4122989  51.0698160   7.2038791
  55.3738554  61.6448911   5.0477507  55.8169700  60.8956236   4.6496631
  54.4965064  61.6359047   4.6651239  50.5074335  68.1979252   0.5284106
  51.2025240  68.8185945   0.7471421  50.8497486  67.3474604   0.8036484
  36.1242145  60.0197053  14.3880923  35.3823881  60.1679689  14.9745554
  35.8034889  60.2805319  13.5247673  52.4065759  65.6478958   2.0571437
  52.9317083  65.9866231   1.3320757  52.3188111  64.7125973   1.8734571
  44.0685807  69.5613032  14.1861313  44.3772934  69.3162178  15.0584013
  44.8661289  69.7659670  13.6980184  44.0906419  71.7150941   6.4166690
  43.6511410  71.2227320   7.1099547  44.8414536  71.1723909   6.1758765
  36.5698758  67.9062482   6.4191318  37.3956778  67.6066254   6.0389962
  36.2192810  67.1370104   6.8681107  41.5380291  67.2588950   8.4888992
  40.9160301  66.5959655   8.1891219  42.2085158  67.2850082   7.8062639
  34.7707363  65.8248808   7.3780252  33.9339272  65.3970983   7.1964253
  34.7431009  66.0181252   8.3151043  41.6104819  55.7370738  18.0821498
  41.6592974  56.6132861  17.6999267  42.1527333  55.1948131  17.5093141
  52.0959665  66.2811862  17.3622635  51.3055208  66.2636000  16.8227134
  51.8593019  66.8200155  18.1171671  52.2157540  63.1304328  14.6755363
  52.2655545  62.9654335  15.6170886  52.1071463  62.2631587  14.2853244
  41.0993798  65.8092874   1.9647452  41.2481919  66.4928338   1.3114125
  41.9060242  65.7897964   2.4796908  49.5061302  59.1135256  15.9914670
  50.4071165  58.9741721  15.6998668  49.5809277  59.2789711  16.9312847
  43.8404107  56.4902111  14.8367856  42.9707417  56.7835677  14.5650445
  44.0763588  57.0742556  15.5575120  53.7175737  65.5501269  14.9197385
  53.4260545  65.9131250  15.7560846  53.1047868  64.8368278  14.7410717
  54.9171419  63.1154149   7.4399955  55.7518310  63.5543953   7.6037515
  55.0530548  62.6392802   6.6208201  51.9662925  60.6733884  13.3877443
  52.4417046  60.8661530  12.5796294  51.0428490  60.7293070  13.1420826
  38.8546431  61.8358051   2.9708521  38.6092473  60.9320381   3.1688731
  39.0242346  61.8375202   2.0287999  46.5443141  52.7081728  12.3533277
  47.0625085  53.4442755  12.0279765  46.1898274  53.0145721  13.1880036
  38.1242079  57.5686409   0.4694683  37.4311324  57.6430764  -0.1865282
  37.8793831  56.8046752   0.9916199  46.7955735  49.1282010   7.8734173
  47.0757489  48.4605199   8.4994600  47.5806342  49.3211106   7.3608837
  44.5989204  68.3041004  -0.5640800  44.0263171  68.9231191  -1.0170329
  45.1721998  68.8540366  -0.0300878  50.6664594  57.5499644  11.6205748
  51.6182017  57.6497742  11.6417972  50.4968044  56.7577913  12.1303833
  48.6878973  54.6355227  11.8065149  48.0928905  54.9160240  11.1111638
  48.4028670  55.1249128  12.5781890  47.8186464  68.5878154   0.5667782
  48.7517137  68.5223716   0.7700657  47.7309677  69.4234421   0.1082315
  50.4474480  67.9044024  -2.4728271  50.3688112  67.5703888  -1.5792513
  51.2684147  68.3965792  -2.4736798  53.1452672  60.7705764  10.7348048
  53.1128992  59.8321765  10.9207732  53.7553295  60.8489801  10.0013873
  44.9836002  59.6401817  -3.2224748  45.9295107  59.5108025  -3.1536330
  44.6050247  58.9016479  -2.7455320  53.2947160  57.5616807  10.7806331
  52.7786209  56.7775264  10.5936260  54.1787109  57.2335524  10.9452851
  50.9557887  51.3057823   6.7402144  50.7582708  50.9972911   7.6245476
  51.5657593  52.0319462   6.8700074  58.9629221  61.8321771   9.8754085
  59.6932610  61.5707059  10.4361788  58.3536167  61.0950493   9.9156153
  57.0444519  59.9729633  10.4728536  56.3177682  59.8385598   9.8645028
  56.6291805  60.2806462  11.2785254  44.8674695  63.6919563  18.2375909
  45.7877704  63.8698162  18.4315956  44.8324278  62.7475608  18.0855608
  34.0856860  58.8858157   7.1629184  33.7659644  58.0323465   6.8703558
  33.5390288  59.1006735   7.9187151  37.8636768  61.6020598  10.8798690
  38.0822777  62.5337705  10.8986724  38.2762541  61.2428572  11.6653494
  44.7840985  52.1088683   2.8674379  43.9741714  51.7635768   3.2429625
  45.4725402  51.7996227   3.4561990  46.7131534  51.1866730   4.4898675
  47.2662572  51.6062183   5.1488698  46.9501620  50.2602478   4.5321631
  42.7364633  57.1753803  20.2701439  42.6361360  58.1248160  20.2013530
  42.5186175  56.8472042  19.3977509  33.9545120  62.5061068   9.1322305
  33.2608591  62.0915021   8.6192260  34.7018111  62.5481605   8.5355724
  50.0910341  53.2967255   3.9977340  49.5109010  53.9552059   3.6155392
  49.8246273  52.4744599   3.5864757  48.5413907  52.6972313   6.1998660
  49.0413685  52.8088847   5.3912979  49.1849515  52.3933365   6.8399468
  42.5995903  60.6050942  19.0866501  42.1162985  61.4051302  19.2930390
  42.6856842  60.6158887  18.1333945  35.8681862  62.4379322   7.0088320
  35.8452551  62.5367009   6.0570203  36.1782499  63.2844473   7.3305486
  38.5269240  64.4955477  11.1234935  39.4812494  64.4639419  11.0564866
  38.3281764  64.0346101  11.9385160  39.1168622  63.0656593  13.6905732
  39.9361511  63.5600672  13.7140570  39.3905430  62.1488561  13.6623300
  48.8735219  55.4567345   3.0533688  47.9861074  55.7416996   2.8353883
  49.2889208  55.2961109   2.2060965  52.2249755  55.4813866   6.7688027
  53.0010145  55.9710319   7.0412644  51.4997889  55.9071920   7.2259897
  54.6622313  56.1941485   7.8261968  55.2566804  55.9537221   7.1155276
  54.7348897  55.4748616   8.4535504  36.8819469  70.0375096   8.1405132
  36.7473937  69.2775497   7.5743130  36.4651531  70.7615996   7.6733921
  48.0178432  65.2212020  -2.8518292  48.7214282  65.4262022  -2.2360637
  47.2941081  65.7888782  -2.5869209  48.8476242  60.9721881   3.2683978
  48.7911444  61.4290433   2.4291610  49.4004585  60.2112566   3.0906821
  52.6581048  56.7611613   4.0934097  52.4017983  56.3608249   4.9242305
  52.0333916  57.4755407   3.9684237  56.9693386  59.5007686   6.6005389
  56.4092944  59.5700876   7.3736951  56.3636890  59.3248671   5.8804885
  40.0388595  70.9344413   8.3523575  39.9220979  71.8789846   8.2502265
  39.2181041  70.6317975   8.7409374  49.9265130  65.6594549  -0.8019832
  50.7610733  65.2275748  -0.9842357  49.7649472  65.4876563   0.1257062
  49.5811022  62.1626662   0.5636507  49.5259826  61.9970934  -0.3775049
  48.9557077  62.8702695   0.7198697  34.3703537  57.3994727  14.3897929
  35.0162400  56.8893681  14.8785154  34.1620688  58.1363408  14.9641355
  46.8956929  64.4675574  19.8890070  47.7648089  64.6416227  19.5276705
  46.4163680  65.2869991  19.7665799  42.8907147  51.6634771   0.1421825
  42.8785817  52.6076611   0.2990096  43.7830569  51.4804917  -0.1518713
  41.0643109  71.5872675  11.5679504  41.9670356  71.6196286  11.8845998
  40.8380479  70.6573126  11.5825839  42.8196711  70.3403662   8.2289582
  41.8692342  70.3405523   8.1153954  43.1229197  69.5936396   7.7125617
  46.7059267  48.2577548   4.3967762  45.9391662  47.7036035   4.5424445
  47.1169972  48.3299417   5.2581914  38.7101028  54.5462344  18.4872944
  39.5732489  54.1899149  18.6976268  38.1366438  54.2076239  19.1748348
  58.5549405  76.1764200   9.2935345  59.1927815  76.0570948   8.5898685
  58.4370248  77.1245044   9.3523297  55.3639111  76.1291628   9.2296869
  55.0257622  76.0132693   8.3417404  56.2328879  75.7282793   9.2097875
  51.2225927  77.9827105   5.2193760  50.6590792  77.8917042   4.4510048
  51.1078322  77.1627009   5.6996253  55.8458894  77.2826480  15.1883075
  55.8347535  76.8879278  14.3163578  56.0079533  76.5492553  15.7816846
  48.7690359  79.4778296   8.0577981  49.5611650  79.1369121   7.6424280
  49.0087009  79.5873271   8.9780134  56.8025485  81.6498072   0.5308225
  56.1513465  82.2352153   0.1442239  57.5969848  82.1804267   0.5903263
  50.7281113  78.7387210   0.9295359  51.5011989  78.1916197   0.7908235
  51.0806511  79.6031459   1.1409821  52.5666155  80.0663592  14.1362259
  52.2756021  80.9709223  14.0208925  53.2023139  80.1080119  14.8506328
  53.4922362  77.4440440  10.7263618  54.0885934  77.2196463  10.0120581
  53.5497333  76.7025186  11.3289066  53.0647390  74.8979876  -1.4386191
  53.3172911  74.3761397  -2.2002728  52.1271949  74.7346021  -1.3359507
  58.1090673  73.9015654   6.3688553  58.8953762  73.4835077   6.0178970
  58.3729377  74.8061746   6.5370201  58.2800750  79.3388504   1.0677209
  57.6446583  79.4123131   1.7798114  57.9498157  79.9282103   0.3896289
  63.5099100  73.8390887   7.2721531  64.2424272  73.2690104   7.5059361
  62.7538456  73.4512488   7.7128037  52.7843679  76.8007982   0.7638184
  52.6679937  76.1252885   1.4319269  52.8945939  76.3140356  -0.0529663
  55.1275220  76.2618129   4.4684874  54.7633427  75.7348750   5.1797795
  55.9842336  75.8716598   4.2951359  61.0324521  67.5512461  11.7316140
  60.7007845  68.4207872  11.5077355  60.4370134  67.2348745  12.4110170
  54.7680707  71.2908028  -0.5353778  54.9355109  72.1588265  -0.1683307
  54.5777876  71.4535310  -1.4592489  57.5256040  79.7525007  11.1312052
  57.2256763  80.6550046  11.0227860  57.1807100  79.4857191  11.9833205
  50.9768522  76.2038804   7.1648757  50.0519018  76.0715018   7.3726449
  51.2252935  76.9833023   7.6618699  60.9253184  72.2707548   8.8109490
  60.0170061  72.2022956   8.5168251  60.8740780  72.7479492   9.6391315
  54.7469928  73.7465686   0.4492889  54.6269553  74.1922737   1.2878369
  54.0522516  74.0951004  -0.1093573  48.3377333  75.8472078   7.9992546
  48.4669714  76.1006557   8.9131958  47.6574784  76.4399786   7.6797201
  52.5076820  86.5169328   4.0983020  52.4300850  87.4677153   4.1771501
  51.9038464  86.1715200   4.7557946  54.9994050  73.6897193  16.7544387
  54.2227384  74.2491113  16.7447252  55.6384613  74.1753976  17.2759257
  62.7914830  70.4723986  10.5887364  62.1489211  70.7656519   9.9427158
  62.2869759  70.3576906  11.3940560  60.4454994  74.2187159   1.2773223
  61.3572850  74.4514546   1.1020920  59.9364641  74.8024203   0.7148302
  53.2540422  76.4982646  16.3162354  53.9955106  77.0367690  16.0397178
  52.5477408  77.1248935  16.4733906  58.7295762  78.6411787  14.9134516
  59.1379118  78.1994197  14.1689148  58.0073023  78.0664414  15.1668708
  55.0826832  73.5784394  12.2868072  55.9288027  74.0023807  12.4302721
  55.0225469  72.9218018  12.9806636  59.0524576  79.2012978   8.6686804
  58.4233439  79.3658692   7.9662872  58.6650238  79.6154587   9.4397768
  62.9313808  80.1367415   6.0231168  62.2464846  80.5166317   5.4728201
  63.0157658  80.7462742   6.7563116  58.2326277  71.2388762  13.9449246
  57.9887209  71.9930823  13.4083522  58.5086208  71.6174110  14.7796493
  60.1864740  77.7827374  12.6226512  60.3981635  78.4259134  11.9460893
  60.1394488  76.9489691  12.1548442  57.7890969  70.3945195   9.5263084
  56.9275448  70.6926449   9.8179821  57.8153403  70.6115594   8.5944116
  54.6052538  78.9387386   5.9336890  55.0690884  79.2175089   5.1441512
  54.3409336  78.0370830   5.7509980  51.4976619  78.4858867   8.8716653
  52.0677976  78.9146136   8.2334137  52.0884731  78.2041452   9.5700838
  53.5421424  75.0610538   2.7426455  54.2445468  75.5131582   3.2100381
  53.2102053  74.4194357   3.3706348  51.9901786  73.6522295  17.1177664
  51.3600446  74.3338576  17.3513061  51.8837874  73.5405376  16.1730802
  47.2846758  73.3194091   8.0443588  46.4945812  73.5751619   7.5683699
  47.7758006  74.1342429   8.1495629  61.3010568  80.6599330  10.7948869
  62.1228011  80.2579517  10.5131551  61.2972971  80.5567564  11.7464985
  49.2361504  73.6838670   5.0027065  48.4392667  73.7957364   5.5210561
  49.0087096  74.0225322   4.1367955  55.0667171  80.2083373  12.9509580
  55.1311604  80.6703780  13.7867751  54.3578095  79.5780738  13.0791889
  45.5684461  73.5724581  10.4758579  45.8192500  74.4571591  10.7416155
  46.1044010  73.3929183   9.7033671  69.3916561  77.0038078   7.1433841
  68.6380269  76.4345476   6.9877845  69.5264102  76.9700743   8.0904475
  54.7815189  81.8751481   2.8188560  54.6460864  82.7203016   3.2473408
  55.3225001  82.0770758   2.0554494  51.2682529  67.9543061  19.4802915
  50.8749474  67.4009259  20.1550559  52.0848669  68.2653639  19.8709433
  48.2344586  79.3926919   3.3916485  48.7469107  80.1870169   3.5422050
  48.8867299  78.6953209   3.3250086  50.0439471  82.5092675   5.4739238
  50.2206099  83.4310640   5.2860222  50.8396304  82.1951094   5.9033618
  54.1850490  69.3700940  17.0723172  54.9260203  69.9708093  16.9927634
  54.4168412  68.6278577  16.5141214  49.3291828  74.5557307  15.3501401
  49.2145343  73.6542564  15.6508500  48.4736345  74.8021004  14.9986218
  56.4083665  82.4975047  16.9488902  55.9647519  81.7111426  16.6309806
  57.0700879  82.6854198  16.2832793  51.1670786  84.0270849  11.4749580
  51.7178212  83.8987912  10.7026574  50.3282262  84.3265738  11.1244473
  58.5064903  82.7777847  14.9770303  58.4883379  83.5986728  14.4850572
  59.4284823  82.6531922  15.2020444  54.9637957  80.2921977  15.8193812
  55.4966294  79.5310265  15.5893120  54.4352039  79.9995628  16.5617966
  58.1307652  65.3982043  11.3487453  57.7871922  66.2883684  11.2726564
  58.4986615  65.2083700  10.4857038  46.1993503  77.7215573   4.1676055
  47.0368725  78.1312581   3.9509763  46.3771771  76.7815015   4.1376249
  58.0957935  75.3890654  -0.1440112  57.5804559  76.1595258   0.0948276
  57.8235244  74.7155790   0.4792950  55.6805046  70.2340354   4.9145127
  54.8246643  69.8447205   4.7350766  56.0931998  70.3132315   4.0544912
  57.2104193  67.7686698   9.3136687  56.7068988  67.7316833   8.5004492
  57.5034800  68.6779440   9.3733343  53.4547079  67.8525427   8.3202868
  54.3200075  67.6568236   7.9608758  53.5224588  67.6235779   9.2472225
  63.0692209  78.1423008   1.7913062  62.2921652  77.8034168   1.3468224
  63.7483690  78.1475631   1.1168027  57.8844238  73.2617746   1.6819670
  57.5794374  73.5763895   2.5329813  58.8374680  73.3399166   1.7247003
  56.3290670  79.4207969   3.3312624  55.8012032  78.6860729   3.0185861
  55.8278173  80.1982645   3.0852592  61.3083516  77.6156990   8.4479670
  60.6507191  78.3056251   8.5359799  62.1123915  78.0053421   8.7913656
  51.0609398  70.0827635   5.6919235  51.6353150  69.8602817   4.9592428
  51.6480380  70.1516330   6.4447836  60.1188975  75.9701362   6.4983612
  60.6320857  76.6031354   7.0005321  60.7690199  75.3702558   6.1326972
  51.3878985  72.1132096  -0.2884880  50.5516297  72.4506783   0.0324395
  51.2483755  71.9781076  -1.2257743  53.3632066  66.9568884   4.4194305
  52.7096478  66.6417901   3.7950919  53.3212540  66.3344625   5.1454127
  54.4743270  77.2388179  -3.6652403  53.5670332  77.0077433  -3.4661254
  54.9714302  76.4425799  -3.4778422  56.5969806  73.4450818   8.7441952
  55.6792367  73.6665765   8.5863640  57.0129949  73.5197128   7.8853660
  57.3804854  74.8442233   3.8744632  58.1276673  75.3563631   3.5651754
  57.6496443  74.5226286   4.7349026  55.6531504  77.3400774   0.8571587
  54.7442723  77.0559807   0.9544056  55.6826588  77.7599853  -0.0025106
  60.8850771  80.9507364   4.6262754  60.4313098  80.1098274   4.6827945
  60.2544738  81.5868762   4.9637534  59.8283691  71.8799350   5.8563422
  59.0906448  71.3676736   6.1873664  60.0810464  71.4399731   5.0446699
  59.3283710  82.7883860   5.5612572  59.6206685  83.3488917   4.8424938
  59.8382331  83.0812421   6.3165732  59.9295318  64.6575602   6.4505191
  60.2354195  63.7972965   6.1631106  60.6547923  65.2493222   6.2504185
  46.2219674  75.0606288   4.8386789  46.0244074  74.4675649   4.1137855
  45.6666338  74.7558499   5.5562728  54.2016398  74.9529395   6.9581382
  54.2565008  74.0003231   6.8823859  53.3907600  75.1088834   7.4422680
  55.3507592  78.8809518  -1.8040335  54.9127022  78.1645377  -2.2634697
  56.0918032  79.1085633  -2.3655243  52.1408758  73.5706455   4.7171761
  51.3276623  73.8700625   5.1236953  52.6367752  73.1762143   5.4346243
  54.2917336  83.5664211   6.6506026  54.2493514  83.7925058   5.7214558
  55.2080035  83.3327586   6.7991827  57.7382969  74.0348279  13.5486655
  58.0932357  74.2619752  14.4081121  58.3855101  74.3666656  12.9263910
  63.4680706  77.1566715   4.2535984  63.3298605  77.3468311   3.3257173
  63.1116925  77.9186098   4.7104035  51.6322833  71.1424810  10.3332996
  52.2722212  71.0013569   9.6355959  50.8000363  70.8559323   9.9571598
  63.4950086  79.2243242   9.2647255  63.9286593  79.1318531  10.1130309
  64.2081667  79.2000742   8.6267271  52.4083136  80.4427240   6.4467988
  53.2023735  79.9477561   6.2450563  51.6974829  79.9145104   6.0835694
  57.2277981  82.8245336  10.7980356  57.2815003  83.3936272  11.5658072
  56.3592762  82.9947221  10.4334393  48.7165900  74.5870322   2.5227741
  47.7863488  74.5254778   2.7397703  48.8123372  74.0646275   1.7264382
  48.6351449  71.1125135   5.1105983  48.8958266  72.0270468   5.0015143
  49.4568621  70.6449578   5.2602596  50.1076374  72.5262892  12.2804807
  50.7799428  72.3180254  11.6317456  49.2806161  72.3284978  11.8410040
  64.3565636  79.2666943  11.7980141  64.5501526  80.1712753  12.0439416
  64.2566254  78.8074362  12.6318726  56.0101946  69.1524833  14.2970468
  55.3629861  69.8514783  14.2034945  56.7802962  69.5860977  14.6646716
  59.4180744  79.4173685  17.3721021  59.2666251  79.1884237  16.4551105
  59.4085424  80.3744287  17.3852366  56.1866081  76.9905598  12.3567288
  57.1158141  77.1416758  12.1836255  55.7657111  77.0789619  11.5015934
  54.9854412  81.0156262  10.1265825  54.8465498  80.6475047  10.9991764
  54.1969009  81.5303902   9.9549783  55.5802564  86.1165359   1.4691362
  55.7554320  85.6453402   2.2836985  54.8935352  86.7431125   1.6972623
  56.5359628  80.3937865   7.5154663  56.2009460  80.3538635   8.4112313
  56.0363573  79.7282581   7.0425073  50.5103872  75.8005495  13.0407244
  50.3723669  75.0685734  13.6418783  51.4208795  75.7114395  12.7591432
  59.4718819  77.7393900  -2.2108277  58.8547990  77.0140728  -2.3075224
  59.0035308  78.5003260  -2.5541203  53.1386172  75.5125455  12.5290924
  53.8485791  74.8718647  12.4877542  53.0955480  75.7638349  13.4517105
  61.1272951  82.4492808  15.4497503  61.0685497  81.7652028  14.7828086
  61.5292469  83.1911798  14.9978129  51.8515106  72.4990672  14.3486564
  51.3152463  72.0481411  15.0008160  51.2631815  72.6336581  13.6057028
  50.1463650  89.2654722   8.2431222  50.3860248  89.8973246   8.9210241
  49.3032846  88.9142762   8.5296581  51.2617365  71.9579324  -3.0886973
  50.3846831  71.8368125  -3.4524726  51.7375118  71.1665402  -3.3408084
  61.1290358  80.4132392  13.6811483  60.2417137  80.0758314  13.8037882
  61.6988909  79.6815423  13.9180248  42.7819505  76.7456484   7.0054534
  43.4690545  76.4318214   6.4175550  42.6267634  77.6497848   6.7321786
  47.5854227  71.6346680  11.4339558  47.5012416  71.0272350  10.6989968
  46.7636934  72.1255698  11.4349054  54.6591512  85.0733844  10.6472726
  54.5861683  85.8788816  11.1592031  54.2168905  85.2725810   9.8220748
  54.4481291  84.3105614   4.1575548  53.6648813  84.8527294   4.2513772
  55.1474036  84.8279594   4.5569789  57.7577941  70.1200244   6.8009753
  58.2546641  69.3670206   6.4810823  56.9864923  70.1564560   6.2352962
  65.6107699  75.8240609   8.4428045  65.5997575  76.7065325   8.0721978
  64.7425078  75.4712160   8.2482582  57.1190195  84.9720678  12.8030885
  57.8318167  85.6068143  12.7306786  56.6280224  85.0684544  11.9870887
  58.8407722  78.8771931   4.3748176  57.9064001  78.9973393   4.2052881
  59.0184390  77.9744398   4.1108186  54.3412910  72.2617627   6.5281438
  53.9710698  71.7088667   7.2162343  54.8372002  71.6575760   5.9756438
  62.2280273  74.7189250   4.9098211  62.6940726  75.5517242   4.8358513
  62.6787774  74.2534232   5.6143469  52.1702109  82.7215122  13.6236456
  52.8711568  83.3551605  13.7765850  51.6997224  83.0629853  12.8632095
  60.2956504  81.0633071   1.9084363  60.5716348  80.9489666   2.8178237
  59.4261003  80.6650556   1.8696536  60.1996936  67.0869837   8.9489112
  59.2860016  67.3174064   9.1171319  60.6290038  67.1708281   9.8003144
  59.9703395  75.2759729  11.4489006  59.3174845  75.5235637  10.7941459
  60.3483774  74.4623867  11.1151483  56.9310568  85.3119422   5.5517176
  57.1132963  84.4941078   6.0144929  57.7543554  85.5287115   5.1142066
  57.2652734  84.2387607   2.8132225  57.7940500  83.7280062   2.2002387
  57.5280954  83.9230138   3.6777758  56.0190968  76.0179540  17.9355043
  55.3431605  75.9173669  18.6057418  56.8418601  75.8618754  18.3991040
  47.7669827  82.2551477  10.5567558  48.3523263  81.5095165  10.6895462
  47.5694665  82.5655433  11.4404222  50.6208482  85.2902724   5.5730001
  49.9518857  85.7748852   5.0894041  50.4821352  85.5371945   6.4873379
  42.3587481  74.8257077   9.2772001  42.3971581  74.2920668  10.0709120
  41.8527774  74.2992282   8.6582979  54.7613750  87.3246468  12.1712659
  55.3132058  87.4878089  12.9361744  55.1019944  87.9150905  11.4992684
  49.7378244  69.6721617  12.7734544  49.8019570  70.5336448  12.3611941
  49.6745364  69.0595619  12.0406902  49.2130516  71.7444750  16.4207578
  49.8402555  71.3621827  17.0345102  48.3558435  71.5258952  16.7863270
  59.6124625  82.1507725  18.0261313  60.1564529  82.7637683  17.5316268
  59.0311470  82.7087304  18.5428326  45.9896059  73.5521179   2.3525933
  46.2849500  72.6431857   2.2992987  45.0884095  73.5308918   2.0306935
  57.8982138  85.2728443   9.1576341  57.7733277  84.4718183   8.6487287
  58.5561229  85.7674636   8.6690311  49.5190306  71.6277176   8.3353481
  48.7976892  72.2413143   8.1960955  50.3083562  72.1634940   8.2570127
  59.9617046  83.0737463  10.7855891  59.0147382  82.9542814  10.7134218
  60.3099819  82.1859961  10.8682153  52.3216619  68.9631602  14.6094133
  52.8451021  69.2093899  15.3720442  52.1028953  69.7951637  14.1897271
  47.7183901  71.2335277   2.4765258  47.3896607  70.3532656   2.2940364
  48.0723271  71.1782945   3.3641647  56.9663479  82.8690179   6.9860244
  56.8188442  81.9406887   7.1667814  57.7916973  82.8910270   6.5017319
  50.8325724  71.5208247   2.8440736  51.1721796  72.0494168   2.1219344
  51.2797844  71.8588653   3.6199302  60.5697601  83.6918738   8.0725116
  61.4944149  83.4861599   7.9349567  60.4012905  83.4435139   8.9814458
  53.5269165  69.9045297  12.2943804  53.1865985  69.1053110  12.6964484
  52.8208171  70.2047008  11.7220637  54.1785636  66.9894610  10.7471127
  55.0011706  66.5155088  10.6250017  54.4223700  67.7685093  11.2469813
  52.8193871  70.0182868   1.0434028  53.5402233  70.3964121   0.5397745
  52.1959175  70.7371745   1.1469006  56.9624994  70.7228017   1.9792361
  57.1788608  71.6052655   1.6781189  56.4819061  70.3314230   1.2498003
  51.7024215  73.6813730   8.5563105  51.5568796  73.9954033   9.4487387
  51.2249419  74.2998631   8.0034004  53.5620598  70.6716278   8.6043995
  53.5482167  69.7757372   8.2676293  54.2793026  70.6786942   9.2382281
  55.4146729  71.1053618  10.6497122  55.1564507  72.0270689  10.6481453
  54.8831769  70.7084053  11.3397586  60.3592917  84.2104406   3.4287208
  60.5329795  83.6450828   2.6761060  60.8521809  85.0105300   3.2466698
  46.1769877  76.2219075  11.4950767  45.6323345  76.9978883  11.6271041
  47.0549227  76.5689879  11.3369888  52.9657494  69.5530659   3.8731565
  53.0873405  68.6247305   4.0722453  52.6759536  69.5669345   2.9609880
  55.8348684  67.2385569   7.0098285  55.8570381  67.3024902   6.0550264
  56.2516743  66.3990078   7.2038791  66.2132309  76.9740829   5.0477507
  66.6563455  76.2248154   4.6496631  65.3358819  76.9650965   4.6651239
  61.3468090  83.5271170   0.5284106  62.0418995  84.1477863   0.7471421
  61.6891240  82.6766521   0.8036484  46.9635899  75.3488971  14.3880923
  46.2217635  75.4971606  14.9745554  46.6428643  75.6097237  13.5247673
  63.2459513  80.9770876   2.0571437  63.7710837  81.3158148   1.3320757
  63.1581866  80.0417891   1.8734571  54.9079562  84.8904949  14.1861313
  55.2166688  84.6454096  15.0584013  55.7055044  85.0951588  13.6980184
  54.9300174  87.0442859   6.4166690  54.4905164  86.5519238   7.1099547
  55.6808291  86.5015826   6.1758765  47.4092513  83.2354400   6.4191318
  48.2350533  82.9358172   6.0389962  47.0586565  82.4662022   6.8681107
  52.3774046  82.5880868   8.4888992  51.7554055  81.9251573   8.1891219
  53.0478913  82.6142000   7.8062639  45.6101118  81.1540726   7.3780252
  44.7733026  80.7262900   7.1964253  45.5824763  81.3473169   8.3151043
  52.4498573  71.0662656  18.0821498  52.4986729  71.9424779  17.6999267
  52.9921088  70.5240049  17.5093141  62.9353419  81.6103779  17.3622635
  62.1448963  81.5927918  16.8227134  62.6986774  82.1492073  18.1171671
  63.0551294  78.4596246  14.6755363  63.1049299  78.2946253  15.6170886
  62.9465218  77.5923505  14.2853244  51.9387553  81.1384791   1.9647452
  52.0875673  81.8220256   1.3114125  52.7453996  81.1189881   2.4796908
  60.3455057  74.4427174  15.9914670  61.2464919  74.3033638  15.6998668
  60.4203031  74.6081628  16.9312847  54.6797862  71.8194028  14.8367856
  53.8101171  72.1127594  14.5650445  54.9157342  72.4034473  15.5575120
  64.5569491  80.8793187  14.9197385  64.2654299  81.2423168  15.7560846
  63.9441622  80.1660195  14.7410717  65.7565173  78.4446067   7.4399955
  66.5912065  78.8835871   7.6037515  65.8924302  77.9684720   6.6208201
  62.8056679  76.0025802  13.3877443  63.2810801  76.1953448  12.5796294
  61.8822245  76.0584988  13.1420826  49.6940186  77.1649969   2.9708521
  49.4486228  76.2612299   3.1688731  49.8636100  77.1667119   2.0287999
  57.3836896  68.0373645  12.3533277  57.9018840  68.7734672  12.0279765
  57.0292029  68.3437639  13.1880036  48.9635833  72.8978326   0.4694683
  48.2705078  72.9722681  -0.1865282  48.7187585  72.1338670   0.9916199
  57.6349490  64.4573928   7.8734173  57.9151244  63.7897117   8.4994600
  58.4200097  64.6503023   7.3608837  55.4382958  83.6332922  -0.5640800
  54.8656925  84.2523109  -1.0170329  56.0115752  84.1832283  -0.0300878
  61.5058348  72.8791562  11.6205748  62.4575771  72.9789659  11.6417972
  61.3361799  72.0869830  12.1303833  59.5272728  69.9647145  11.8065149
  58.9322660  70.2452158  11.1111638  59.2422424  70.4541046  12.5781890
  58.6580218  83.9170072   0.5667782  59.5910891  83.8515634   0.7700657
  58.5703431  84.7526339   0.1082315  63.9846426  76.0997681  10.7348048
  63.9522746  75.1613682  10.9207732  64.5947050  76.1781718  10.0013873
  55.8229757  74.9693734  -3.2224748  56.7688862  74.8399943  -3.1536330
  55.4444002  74.2308396  -2.7455320  64.1340915  72.8908725  10.7806331
  63.6179963  72.1067182  10.5936260  65.0180863  72.5627442  10.9452851
  61.7951641  66.6349740   6.7402144  61.5976463  66.3264829   7.6245476
  62.4051347  67.3611379   6.8700074  69.8022976  77.1613688   9.8754085
  70.5326364  76.8998976  10.4361788  69.1929921  76.4242410   9.9156153
  67.8838273  75.3021551  10.4728536  67.1571437  75.1677516   9.8645028
  67.4685560  75.6098380  11.2785254  55.7068449  79.0211481  18.2375909
  56.6271459  79.1990080  18.4315956  55.6718032  78.0767526  18.0855608
  54.0072674  72.8943711  -3.2869863  53.1004129  72.5976824  -3.2107149
  54.2848655  72.5973529  -4.1535576  44.9250614  74.2150074   7.1629184
  44.6053399  73.3615382   6.8703558  44.3784043  74.4298652   7.9187151
  48.7030522  76.9312515  10.8798690  48.9216532  77.8629623  10.8986724
  49.1156296  76.5720490  11.6653494  55.6234740  67.4380601   2.8674379
  54.8135468  67.0927686   3.2429625  56.3119157  67.1288144   3.4561990
  57.5525288  66.5158647   4.4898675  58.1056327  66.9354101   5.1488698
  57.7895374  65.5894395   4.5321631  53.5758387  72.5045721  20.2701439
  53.4755114  73.4540078  20.2013530  53.3579929  72.1763960  19.3977509
  52.7771459  69.7530646  -3.1457884  53.6390623  70.0785544  -2.8862066
  52.9621803  68.9662142  -3.6584818  44.7938874  77.8352986   9.1322305
  44.1002346  77.4206939   8.6192260  45.5411865  77.8773522   8.5355724
  60.9304095  68.6259173   3.9977340  60.3502764  69.2843977   3.6155392
  60.6640028  67.8036517   3.5864757  59.3807662  68.0264230   6.1998660
  59.8807440  68.1380765   5.3912979  60.0243269  67.7225283   6.8399468
  53.4389657  75.9342860  19.0866501  52.9556739  76.7343220  19.2930390
  53.5250596  75.9450805  18.1333945  46.7075617  77.7671240   7.0088320
  46.6846305  77.8658927   6.0570203  47.0176253  78.6136390   7.3305486
  49.3662995  79.8247395  11.1234935  50.3206248  79.7931337  11.0564866
  49.1675518  79.3638018  11.9385160  49.9562377  78.3948511  13.6905732
  50.7755266  78.8892589  13.7140570  50.2299185  77.4780479  13.6623300
  59.7128973  70.7859263   3.0533688  58.8254828  71.0708914   2.8353883
  60.1282962  70.6253026   2.2060965  63.0643509  70.8105784   6.7688027
  63.8403899  71.3002236   7.0412644  62.3391643  71.2363838   7.2259897
  65.5016068  71.5233403   7.8261968  66.0960559  71.2829139   7.1155276
  65.5742652  70.8040534   8.4535504  47.7213224  85.3667014   8.1405132
  47.5867692  84.6067415   7.5743130  47.3045286  86.0907914   7.6733921
  59.6869997  76.3013799   3.2683978  59.6305198  76.7582350   2.4291610
  60.2398339  75.5404483   3.0906821  63.4974803  72.0903531   4.0934097
  63.2411737  71.6900166   4.9242305  62.8727671  72.8047325   3.9684237
  67.8087141  74.8299604   6.6005389  67.2486699  74.8992793   7.3736951
  67.2030644  74.6540589   5.8804885  50.8782350  86.2636331   8.3523575
  50.7614734  87.2081764   8.2502265  50.0574796  85.9609893   8.7409374
  60.7658884  80.9886467  -0.8019832  61.6004488  80.5567665  -0.9842357
  60.6043227  80.8168480   0.1257062  60.4204776  77.4918580   0.5636507
  60.3653580  77.3262852  -0.3775049  59.7950832  78.1994613   0.7198697
  45.2097291  72.7286644  14.3897929  45.8556155  72.2185598  14.8785154
  45.0014442  73.4655326  14.9641355  57.7350683  79.7967492  19.8890070
  58.6041843  79.9708144  19.5276705  57.2557435  80.6161909  19.7665799
  53.7300902  66.9926689   0.1421825  53.7179572  67.9368529   0.2990096
  54.6224324  66.8096834  -0.1518713  51.9036864  86.9164593  11.5679504
  52.8064110  86.9488203  11.8845998  51.6774234  85.9865044  11.5825839
  53.6590466  85.6695579   8.2289582  52.7086097  85.6697441   8.1153954
  53.9622952  84.9228314   7.7125617  57.5453021  63.5869466   4.3967762
  56.7785417  63.0327952   4.5424445  57.9563726  63.6591334   5.2581914
  49.5494782  69.8754262  18.4872944  50.4126244  69.5191066  18.6976268
  48.9760193  69.5368156  19.1748348  69.3943159  91.5056118   9.2935345
  70.0321569  91.3862865   8.5898685  69.2764002  92.4536962   9.3523297
  66.2032865  91.4583546   9.2296869  65.8651377  91.3424611   8.3417404
  67.0722634  91.0574711   9.2097875  66.6852648  92.6118398  15.1883075
  66.6741289  92.2171196  14.3163578  66.8473288  91.8784470  15.7816846
  59.6084113  94.8070214   8.0577981  60.4005405  94.4661039   7.6424280
  59.8480763  94.9165189   8.9780134  63.4059910  95.3955510  14.1362259
  63.1149776  96.3001140  14.0208925  64.0416894  95.4372037  14.8506328
  64.3316116  92.7732358  10.7263618  64.9279689  92.5488380  10.0120581
  64.3891088  92.0317104  11.3289066  71.8718275  82.8804379  11.7316140
  71.5401600  83.7499790  11.5077355  71.2763889  82.5640663  12.4110170
  68.3649795  95.0816925  11.1312052  68.0650518  95.9841964  11.0227860
  68.0200854  94.8149108  11.9833205  61.8162276  91.5330722   7.1648757
  60.8912773  91.4006936   7.3726449  62.0646689  92.3124941   7.6618699
  71.7646938  87.5999465   8.8109490  70.8563816  87.5314874   8.5168251
  71.7134534  88.0771410   9.6391315  59.1771087  91.1763995   7.9992546
  59.3063468  91.4298474   8.9131958  58.4968538  91.7691703   7.6797201
  65.8387804  89.0189111  16.7544387  65.0621138  89.5783031  16.7447252
  66.4778367  89.5045894  17.2759257  73.6308585  85.8015904  10.5887364
  72.9882965  86.0948437   9.9427158  73.1263513  85.6868824  11.3940560
  64.0934177  91.8274564  16.3162354  64.8348861  92.3659608  16.0397178
  63.3871162  92.4540853  16.4733906  69.5689516  93.9703705  14.9134516
  69.9772872  93.5286115  14.1689148  68.8466778  93.3956332  15.1668708
  65.9220586  88.9076311  12.2868072  66.7681781  89.3315725  12.4302721
  65.8619224  88.2509936  12.9806636  69.0720032  86.5680680  13.9449246
  68.8280963  87.3222740  13.4083522  69.3479962  86.9466027  14.7796493
  71.0258494  93.1119292  12.6226512  71.2375390  93.7551052  11.9460893
  70.9788243  92.2781609  12.1548442  68.6284723  85.7237113   9.5263084
  67.7669202  86.0218366   9.8179821  68.6547158  85.9407512   8.5944116
  62.3370374  93.8150785   8.8716653  62.9071731  94.2438053   8.2334137
  62.9278486  93.5333370   9.5700838  62.8295540  88.9814212  17.1177664
  62.1994201  89.6630493  17.3513061  62.7231628  88.8697294  16.1730802
  58.1240513  88.6486008   8.0443588  57.3339567  88.9043537   7.5683699
  58.6151760  89.4634346   8.1495629  60.0755258  89.0130588   5.0027065
  59.2786421  89.1249282   5.5210561  59.8480850  89.3517240   4.1367955
  65.9060926  95.5375291  12.9509580  65.9705358  95.9995698  13.7867751
  65.1971850  94.9072656  13.0791889  56.4078216  88.9016499  10.4758579
  56.6586254  89.7863509  10.7416155  56.9437764  88.7221100   9.7033671
  62.1076283  83.2834978  19.4802915  61.7143229  82.7301177  20.1550559
  62.9242423  83.5945557  19.8709433  65.0244244  84.6992857  17.0723172
  65.7653957  85.3000010  16.9927634  65.2562167  83.9570495  16.5141214
  60.1685582  89.8849225  15.3501401  60.0539097  88.9834482  15.6508500
  59.3130100  90.1312921  14.9986218  67.2477420  97.8266965  16.9488902
  66.8041274  97.0403343  16.6309806  67.9094633  98.0146115  16.2832793
  62.0064541  99.3562766  11.4749580  62.5571966  99.2279830  10.7026574
  61.1676017  99.6557655  11.1244473  69.3458658  98.1069765  14.9770303
  69.3277133  98.9278646  14.4850572  70.2678578  97.9823840  15.2020444
  65.8031712  95.6213894  15.8193812  66.3360049  94.8602182  15.5893120
  65.2745793  95.3287546  16.5617966  68.9701407  80.7273960  11.3487453
  68.6265676  81.6175602  11.2726564  69.3380370  80.5375618  10.4857038
  66.5198801  85.5632272   4.9145127  65.6640397  85.1739122   4.7350766
  66.9325752  85.6424233   4.0544912  68.0497947  83.0978615   9.3136687
  67.5462743  83.0608751   8.5004492  68.3428554  84.0071358   9.3733343
  64.2940833  83.1817345   8.3202868  65.1593830  82.9860154   7.9608758
  64.3618342  82.9527697   9.2472225  61.9003152  85.4119553   5.6919235
  62.4746904  85.1894735   4.9592428  62.4874135  85.4808248   6.4447836
  64.2025820  82.2860802   4.4194305  63.5490232  81.9709819   3.7950919
  64.1606294  81.6636542   5.1454127  67.4363560  88.7742735   8.7441952
  66.5186122  88.9957682   8.5863640  67.8523704  88.8489046   7.8853660
  70.7689073  79.9867519   6.4505191  71.0747949  79.1264883   6.1631106
  71.4941677  80.5785140   6.2504185  57.0613429  90.3898206   4.8386789
  56.8637828  89.7967567   4.1137855  56.5060093  90.0850416   5.5562728
  65.0410152  90.2821312   6.9581382  65.0958762  89.3295149   6.8823859
  64.2301354  90.4380752   7.4422680  62.9802512  88.8998372   4.7171761
  62.1670378  89.1992543   5.1236953  63.4761506  88.5054061   5.4346243
  68.5776724  89.3640197  13.5486655  68.9326112  89.5911670  14.4081121
  69.2248855  89.6958573  12.9263910  62.4716587  86.4716728  10.3332996
  63.1115966  86.3305487   9.6355959  61.6394118  86.1851241   9.9571598
  59.4745203  86.4417053   5.1105983  59.7352021  87.3562386   5.0015143
  60.2962376  85.9741495   5.2602596  60.9470129  87.8554810  12.2804807
  61.6193182  87.6472172  11.6317456  60.1199915  87.6576896  11.8410040
  66.8495701  84.4816751  14.2970468  66.2023616  85.1806700  14.2034945
  67.6196716  84.9152895  14.6646716  70.2574499  94.7465603  17.3721021
  70.1060005  94.5176155  16.4551105  70.2479178  95.7036204  17.3852366
  67.0259835  92.3197516  12.3567288  67.9551895  92.4708675  12.1836255
  66.6050865  92.4081537  11.5015934  65.8248167  96.3448180  10.1265825
  65.6859253  95.9766965  10.9991764  65.0362763  96.8595820   9.9549783
  61.3497626  91.1297413  13.0407244  61.2117424  90.3977652  13.6418783
  62.2602549  91.0406313  12.7591432  63.9779927  90.8417372  12.5290924
  64.6879545  90.2010564  12.4877542  63.9349235  91.0930267  13.4517105
  71.9666705  97.7784726  15.4497503  71.9079252  97.0943946  14.7828086
  72.3686224  98.5203716  14.9978129  62.6908861  87.8282590  14.3486564
  62.1546218  87.3773329  15.0008160  62.1025569  87.9628499  13.6057028
  71.9684113  95.7424309  13.6811483  71.0810891  95.4050231  13.8037882
  72.5382664  95.0107341  13.9180248  53.6213260  92.0748401   7.0054534
  54.3084300  91.7610131   6.4175550  53.4661388  92.9789766   6.7321786
  58.4247982  86.9638598  11.4339558  58.3406171  86.3564267  10.6989968
  57.6030688  87.4547616  11.4349054  68.5971696  85.4492161   6.8009753
  69.0940395  84.6962124   6.4810823  67.8258677  85.4856478   6.2352962
  65.1806665  87.5909544   6.5281438  64.8104452  87.0380585   7.2162343
  65.6765757  86.9867678   5.9756438  63.0095863  98.0507039  13.6236456
  63.7105323  98.6843522  13.7765850  62.5390978  98.3921771  12.8632095
  71.0390691  82.4161755   8.9489112  70.1253770  82.6465982   9.1171319
  71.4683792  82.5000199   9.8003144  70.8097149  90.6051647  11.4489006
  70.1568599  90.8527554  10.7941459  71.1877529  89.7915785  11.1151483
  66.8584722  91.3471458  17.9355043  66.1825359  91.2465587  18.6057418
  67.6812356  91.1910672  18.3991040  58.6063581  97.5843394  10.5567558
  59.1917018  96.8387082  10.6895462  58.4088420  97.8947351  11.4404222
  53.1981236  90.1548995   9.2772001  53.2365335  89.6212585  10.0709120
  52.6921529  89.6284200   8.6582979  60.5771998  85.0013535  12.7734544
  60.6413325  85.8628366  12.3611941  60.5139118  84.3887537  12.0406902
  60.0524271  87.0736668  16.4207578  60.6796310  86.6913745  17.0345102
  59.1952190  86.8550870  16.7863270  70.4518379  97.4799643  18.0261313
  70.9958283  98.0929601  17.5316268  69.8705224  98.0379221  18.5428326
  56.8289813  88.8813097   2.3525933  57.1243255  87.9723775   2.2992987
  55.9277849  88.8600836   2.0306935  60.3584060  86.9569093   8.3353481
  59.6370646  87.5705061   8.1960955  61.1477316  87.4926858   8.2570127
  63.1610374  84.2923520  14.6094133  63.6844776  84.5385816  15.3720442
  62.9422707  85.1243555  14.1897271  58.5577655  86.5627194   2.4765258
  58.2290361  85.6824573   2.2940364  58.9117026  86.5074863   3.3641647
  64.3662919  85.2337215  12.2943804  64.0259739  84.4345028  12.6964484
  63.6601925  85.5338926  11.7220637  65.0179391  82.3186527  10.7471127
  65.8405460  81.8447006  10.6250017  65.2617454  83.0977011  11.2469813
  62.5417970  89.0105648   8.5563105  62.3962550  89.3245951   9.4487387
  62.0643173  89.6290548   8.0034004  64.4014352  86.0008196   8.6043995
  64.3875921  85.1049289   8.2676293  65.1186781  86.0078860   9.2382281
  66.2540483  86.4345536  10.6497122  65.9958261  87.3562607  10.6481453
  65.7225524  86.0375971  11.3397586  57.0163632  91.5510992  11.4950767
  56.4717100  92.3270800  11.6271041  57.8942982  91.8981797  11.3369888
  63.8051248  84.8822576   3.8731565  63.9267160  83.9539222   4.0722453
  63.5153291  84.8961262   2.9609880  66.6742439  82.5677487   7.0098285
  66.6964136  82.6316820   6.0550264  67.0910498  81.7281995   7.2038791
  57.8029654  90.6780889  14.3880923  57.0611390  90.8263524  14.9745554
  57.4822398  90.9389154  13.5247673  65.7473316 100.2196867  14.1861313
  66.0560443  99.9746014  15.0584013  66.5448798 100.4243505  13.6980184
  56.4494872  96.4832644   7.3780252  55.6126781  96.0554818   7.1964253
  56.4218518  96.6765087   8.3151043  63.2892328  86.3954574  18.0821498
  63.3380483  87.2716696  17.6999267  63.8314842  85.8531967  17.5093141
  73.7747174  96.9395697  17.3622635  72.9842717  96.9219836  16.8227134
  73.5380528  97.4783991  18.1171671  73.8945049  93.7888163  14.6755363
  73.9443054  93.6238171  15.6170886  73.7858972  92.9215422  14.2853244
  71.1848811  89.7719091  15.9914670  72.0858674  89.6325556  15.6998668
  71.2596786  89.9373546  16.9312847  65.5191616  87.1485946  14.8367856
  64.6494926  87.4419512  14.5650445  65.7551097  87.7326391  15.5575120
  75.3963246  96.2085105  14.9197385  75.1048054  96.5715085  15.7560846
  74.7835377  95.4952113  14.7410717  73.6450434  91.3317719  13.3877443
  74.1204555  91.5245366  12.5796294  72.7215999  91.3876905  13.1420826
  68.2230650  83.3665563  12.3533277  68.7412594  84.1026590  12.0279765
  67.8685783  83.6729556  13.1880036  68.4743244  79.7865845   7.8734173
  68.7544998  79.1189035   8.4994600  69.2593851  79.9794941   7.3608837
  72.3452103  88.2083479  11.6205748  73.2969526  88.3081577  11.6417972
  72.1755553  87.4161748  12.1303833  70.3666482  85.2939063  11.8065149
  69.7716414  85.5744075  11.1111638  70.0816179  85.7832964  12.5781890
  74.9734669  88.2200643  10.7806331  74.4573718  87.4359099  10.5936260
  75.8574618  87.8919359  10.9452851  72.6345396  81.9641658   6.7402144
  72.4370217  81.6556746   7.6245476  73.2445102  82.6903297   6.8700074
  66.5462204  94.3503398  18.2375909  67.4665213  94.5281997  18.4315956
  66.5111787  93.4059444  18.0855608  55.7644369  89.5441992   7.1629184
  55.4447153  88.6907300   6.8703558  55.2177797  89.7590570   7.9187151
  59.5424276  92.2604433  10.8798690  59.7610286  93.1921541  10.8986724
  59.9550050  91.9012407  11.6653494  66.4628494  82.7672518   2.8674379
  65.6529223  82.4219603   3.2429625  67.1512911  82.4580062   3.4561990
  68.3919043  81.8450565   4.4898675  68.9450081  82.2646018   5.1488698
  68.6289129  80.9186313   4.5321631  64.4152142  87.8337639  20.2701439
  64.3148869  88.7831996  20.2013530  64.1973684  87.5055878  19.3977509
  55.6332629  93.1644903   9.1322305  54.9396100  92.7498856   8.6192260
  56.3805620  93.2065440   8.5355724  70.2201416  83.3556148   6.1998660
  70.7201194  83.4672682   5.3912979  70.8637024  83.0517201   6.8399468
  64.2783412  91.2634778  19.0866501  63.7950494  92.0635138  19.2930390
  64.3644351  91.2742722  18.1333945  57.5469371  93.0963157   7.0088320
  57.5240060  93.1950844   6.0570203  57.8570008  93.9428308   7.3305486
  60.2056749  95.1539312  11.1234935  61.1600003  95.1223255  11.0564866
  60.0069273  94.6929936  11.9385160  60.7956131  93.7240428  13.6905732
  61.6149020  94.2184507  13.7140570  61.0692939  92.8072396  13.6623300
  56.0491046  88.0578562  14.3897929  56.6949909  87.5477516  14.8785154
  55.8408197  88.7947244  14.9641355  68.5744438  95.1259410  19.8890070
  69.4435598  95.3000062  19.5276705  68.0951189  95.9453826  19.7665799
  62.7430618 102.2456511  11.5679504  63.6457865 102.2780121  11.8845998
  62.5167988 101.3156962  11.5825839  68.3846776  78.9161383   4.3967762
  67.6179171  78.3619870   4.5424445  68.7957481  78.9883252   5.2581914
  60.3888537  85.2046179  18.4872944  61.2519998  84.8482984  18.6976268
  59.8153947  84.8660074  19.1748348  72.9470037  98.6126896  19.4802915
  72.5536983  98.0593094  20.1550559  73.7636178  98.9237474  19.8709433
  75.8637998 100.0284775  17.0723172  76.6047712 100.6291928  16.9927634
  76.0955921  99.2862413  16.5141214  70.8918025 102.4028585  16.4207578
  71.5190064 102.0205663  17.0345102  70.0345944 102.1842787  16.7863270
  74.1286082 101.7246491  18.0821498  74.1774238 102.6008614  17.6999267
  74.6708597 101.1823884  17.5093141  75.2545896 103.1629556  20.2701439
  75.1542623 104.1123913  20.2013530  75.0367438 102.8347795  19.3977509
  66.8884800 103.3870480  14.3897929  67.5343664 102.8769434  14.8785154
  66.6801951 104.1239161  14.9641355  71.2282291 100.5338097  18.4872944
  72.0913753 100.1774902  18.6976268  70.6547702 100.1951992  19.1748348
  50.2879198  44.1263013   2.1742810  50.2291744  43.4422233   1.5073393
  50.6898716  44.8682003   1.7223436  48.7730872  43.8277930   4.7506620
  49.3170776  44.4407888   4.2561575  48.1917716  44.3857508   5.2673633
  52.0959666  43.2873984   4.0867941  51.3055210  43.2698123   3.5472441
  51.8593020  43.8262278   4.8416978  53.7175738  42.5563392   1.6442691
  53.4260546  42.9193373   2.4806152  53.1047869  41.8430400   1.4656023
  46.8956930  41.4737697   6.6135377  47.7648090  41.6478349   6.2522011
  46.4163682  42.2932114   6.4911106  58.5549406  53.1826323  -3.9819349
  59.1927816  53.0633070  -4.6856009  58.4370249  54.1307167  -3.9231397
  55.3639112  53.1353751  -4.0457824  55.0257624  53.0194816  -4.9337289
  56.2328880  52.7344916  -4.0656818  55.8458895  54.2888603   1.9128381
  55.8347536  53.8941401   1.0408885  56.0079535  53.5554675   2.5062153
  48.7690360  56.4840419  -5.2176713  49.5611652  56.1431244  -5.6330413
  49.0087010  56.5935394  -4.2974559  52.5666156  57.0725714   0.8607565
  52.2756022  57.9771345   0.7454232  53.2023141  57.1142242   1.5751635
  53.4922363  54.4502563  -2.5491075  54.0885935  54.2258585  -3.2634112
  53.5497335  53.7087308  -1.9465627  63.5099102  50.8453010  -6.0033162
  64.2424273  50.2752227  -5.7695333  62.7538457  50.4574610  -5.5626657
  61.0324522  44.5574584  -1.5438554  60.7007847  45.4269995  -1.7677339
  60.4370135  44.2410868  -0.8644523  57.5256041  56.7587130  -2.1442641
  57.2256765  57.6612169  -2.2526834  57.1807101  56.4919313  -1.2921488
  60.9253185  49.2769670  -4.4645204  60.0170063  49.2085079  -4.7586443
  60.8740781  49.7541615  -3.6363378  52.5076821  63.5231450  -9.1771673
  52.4300851  64.4739275  -9.0983193  51.9038465  63.1777323  -8.5196747
  54.9994051  50.6959316   3.4789694  54.2227385  51.2553236   3.4692558
  55.6384614  51.1816099   4.0004564  62.7914832  47.4786109  -2.6867330
  62.1489212  47.7718642  -3.3327535  62.2869760  47.3639029  -1.8814133
  53.2540423  53.5044769   3.0407661  53.9955108  54.0429813   2.7642484
  52.5477409  54.1311058   3.1979212  58.7295763  55.6473910   1.6379822
  59.1379119  55.2056320   0.8934455  58.0073024  55.0726537   1.8914015
  55.0826833  50.5846516  -0.9886621  55.9288028  51.0085930  -0.8451972
  55.0225471  49.9280141  -0.2948058  59.0524578  56.2075100  -4.6067889
  58.4233440  56.3720814  -5.3091821  58.6650240  56.6216710  -3.8356925
  62.9313809  57.1429538  -7.2523525  62.2464848  57.5228439  -7.8026492
  63.0157659  57.7524865  -6.5191577  58.2326278  48.2450885   0.6694553
  57.9887210  48.9992945   0.1328828  58.5086209  48.6236232   1.5041800
  60.1864741  54.7889497  -0.6528182  60.3981636  55.4321257  -1.3293801
  60.1394489  53.9551814  -1.1206252  51.4976621  55.4920990  -4.4038041
  52.0677978  55.9208258  -5.0420556  52.0884732  55.2103574  -3.7053855
  51.9901787  50.6584417   3.8422971  51.3600448  51.3400698   4.0758367
  51.8837875  50.5467499   2.8976109  61.3010569  57.6661452  -2.4805824
  62.1228013  57.2641640  -2.7623143  61.2972972  57.5629687  -1.5289709
  55.0667172  57.2145496  -0.3245114  55.1311605  57.6765903   0.5113058
  54.3578096  56.5842861  -0.1962804  69.3916562  54.0100201  -6.1320853
  68.6380270  53.4407599  -6.2876848  69.5264103  53.9762865  -5.1850218
  51.2682530  44.9605183   6.2048222  50.8749475  44.4071382   6.8795866
  52.0848670  45.2715762   6.5954739  50.0439472  59.5154798  -7.8015455
  50.2206101  60.4372762  -7.9894471  50.8396306  59.2013217  -7.3721075
  54.1850491  46.3763062   3.7968478  54.9260204  46.9770215   3.7172941
  54.4168414  45.6340700   3.2386521  49.3291829  51.5619429   2.0746708
  49.2145344  50.6604687   2.3753807  48.4736347  51.8083126   1.7231524
  56.4083667  59.5037170   3.6734209  55.9647521  58.7173548   3.3555113
  57.0700880  59.6916320   3.0078099  51.1670788  61.0332971  -1.8005113
  51.7178213  60.9050035  -2.5728119  50.3282264  61.3327860  -2.1510220
  58.5064905  59.7839970   1.7015610  58.4883380  60.6048851   1.2095879
  59.4284825  59.6594045   1.9265751  54.9637959  57.2984099   2.5439118
  55.4966296  56.5372387   2.3138426  54.4352040  57.0057751   3.2863273
  61.3083517  54.6219112  -4.8275023  60.6507192  55.3118374  -4.7394895
  62.1123917  55.0115544  -4.4841037  60.1188976  52.9763485  -6.7771082
  60.6320858  53.6093477  -6.2749372  60.7690200  52.3764680  -7.1427722
  56.5969807  50.4512940  -4.5312741  55.6792368  50.6727887  -4.6891053
  57.0129951  50.5259251  -5.3901034  60.8850772  57.9569486  -8.6491939
  60.4313100  57.1160396  -8.5926749  60.2544739  58.5930885  -8.3117159
  59.3283712  59.7945983  -7.7142121  59.6206686  60.3551040  -8.4329755
  59.8382332  60.0874544  -6.9588962  54.2917337  60.5726334  -6.6248668
  54.2493516  60.7987180  -7.5540136  55.2080036  60.3389709  -6.4762867
  57.7382971  51.0410402   0.2731961  58.0932358  51.2681875   1.1326427
  58.3855102  51.3728778  -0.3490783  63.4680708  54.1628837  -9.0218710
  63.3298606  54.3530433  -9.9497520  63.1116926  54.9248220  -8.5650658
  63.4950087  56.2305364  -4.0107438  63.9286594  56.1380654  -3.1624384
  64.2081668  56.2062865  -4.6487422  57.2277982  59.8307459  -2.4774337
  57.2815004  60.3998395  -1.7096622  56.3592764  60.0009344  -2.8420300
  50.1076376  49.5325015  -0.9949886  50.7799429  49.3242377  -1.6437237
  49.2806162  49.3347101  -1.4344654  64.3565637  56.2729065  -1.4774553
  64.5501527  57.1774876  -1.2315278  64.2566255  55.8136484  -0.6435968
  56.0101948  46.1586956   1.0215775  55.3629863  46.8576905   0.9280251
  56.7802963  46.5923100   1.3892023  59.4180745  56.4235808   4.0966328
  59.2666252  56.1946360   3.1796412  59.4085425  57.3806409   4.1097673
  56.1866082  53.9967721  -0.9187406  57.1158142  54.1478880  -1.0918438
  55.7657112  54.0851741  -1.7738759  54.9854414  58.0218385  -3.1488868
  54.8465499  57.6537169  -2.2762930  54.1969010  58.5366024  -3.3204910
  55.5802566  63.1227482 -11.8063331  55.7554321  62.6515525 -10.9917709
  54.8935354  63.7493248 -11.5782071  56.5359629  57.3999988  -5.7600030
  56.2009461  57.3600758  -4.8642380  56.0363575  56.7344704  -6.2329620
  50.5103873  52.8067618  -0.2347449  50.3723671  52.0747857   0.3664090
  51.4208796  52.7176518  -0.5163261  53.1386173  52.5187577  -0.7463769
  53.8485792  51.8780769  -0.7877151  53.0955482  52.7700472   0.1762411
  61.1272952  59.4554930   2.1742810  61.0685498  58.7714151   1.5073393
  61.5292471  60.1973920   1.7223436  51.8515107  49.5052795   1.0731870
  51.3152464  49.0543533   1.7253466  51.2631816  49.6398704   0.3302334
  50.1463651  66.2716844  -5.0323471  50.3860249  66.9035368  -4.3544453
  49.3032847  65.9204884  -4.7458112  61.1290359  57.4194514   0.4056790
  60.2417138  57.0820436   0.5283188  61.6988910  56.6877546   0.6425555
  54.6591513  62.0795967  -2.6281967  54.5861684  62.8850938  -2.1162663
  54.2168906  62.2787933  -3.4533946  54.4481292  61.3167737  -9.1179146
  53.6648814  61.8589417  -9.0240921  55.1474038  61.8341716  -8.7184905
  65.6107700  52.8302732  -4.8326649  65.5997576  53.7127447  -5.2032716
  64.7425079  52.4774283  -5.0272112  57.1190196  61.9782801  -0.4723809
  57.8318169  62.6130266  -0.5447907  56.6280225  62.0746667  -1.2883807
  52.1702110  59.7277244   0.3481762  52.8711569  60.3613727   0.5011156
  51.6997225  60.0691976  -0.4122599  59.9703396  52.2821852  -1.8265687
  59.3174846  52.5297759  -2.4813235  60.3483776  51.4685990  -2.1603210
  56.9310570  62.3181545  -7.7237517  57.1132964  61.5003201  -7.2609765
  57.7543556  62.5349237  -8.1612627  57.2652735  61.2449730 -10.4622469
  57.7940502  60.7342185 -11.0752307  57.5280955  60.9292260  -9.5976936
  56.0190969  53.0241663   4.6600350  55.3431606  52.9235792   5.3302725
  56.8418603  52.8680876   5.1236347  47.7669828  59.2613599  -2.7187135
  48.3523265  58.5157287  -2.5859231  47.5694666  59.5717556  -1.8350471
  50.6208483  62.2964847  -7.7024693  49.9518858  62.7810974  -8.1860653
  50.4821353  62.5434067  -6.7881314  54.7613752  64.3308590  -1.1042034
  55.3132060  64.4940212  -0.3392949  55.1019945  64.9213028  -1.7762009
  49.2130517  48.7506873   3.1452885  49.8402556  48.3683950   3.7590409
  48.3558436  48.5321074   3.5108577  59.6124626  59.1569848   4.7506620
  60.1564530  59.7699806   4.2561575  59.0311471  59.7149426   5.2673633
  57.8982139  62.2790566  -4.1178352  57.7733278  61.4780306  -4.6267407
  58.5561230  62.7736759  -4.6064382  59.9617047  60.0799586  -2.4898802
  59.0147383  59.9604937  -2.5620475  60.3099820  59.1922084  -2.4072541
  52.3216621  45.9693725   1.3339440  52.8451023  46.2156021   2.0965749
  52.1028954  46.8013760   0.9142577  56.9663481  59.8752302  -6.2894450
  56.8188443  58.9469009  -6.1086880  57.7916974  59.8972393  -6.7737375
  60.5697603  60.6980861  -5.2029577  61.4944150  60.4923722  -5.3405126
  60.4012906  60.4497262  -4.2940236  53.5269166  46.9107420  -0.9810890
  53.1865986  46.1115233  -0.5790210  52.8208172  47.2109131  -1.5534056
  55.4146730  48.1115741  -2.6257571  55.1564508  49.0332812  -2.6273241
  54.8831770  47.7146176  -1.9357107  60.3592919  61.2166528  -9.8467486
  60.5329796  60.6512951 -10.5993633  60.8521810  62.0167423 -10.0287996
  46.1769879  53.2281197  -1.7803927  45.6323347  54.0041005  -1.6483653
  47.0549228  53.5752002  -1.9384805  66.2132310  53.9802951  -8.2277186
  66.6563456  53.2310276  -8.6258063  65.3358820  53.9713088  -8.6103454
  61.3468091  60.5333293 -12.7470587  62.0418996  61.1539985 -12.5283273
  61.6891241  59.6828644 -12.4718209  46.9635900  52.3551094   1.1126230
  46.2217636  52.5033729   1.6990860  46.6428645  52.6159359   0.2492979
  63.2459514  57.9832998 -11.2183257  63.7710838  58.3220271 -11.9433937
  63.1581867  57.0480013 -11.4020122  54.9079563  61.8967072   0.9106620
  55.2166689  61.6516219   1.7829320  55.7055045  62.1013710   0.4225490
  54.9300175  64.0504981  -6.8588003  54.4905165  63.5581360  -6.1655147
  55.6808292  63.5077949  -7.0995928  47.4092514  60.2416522  -6.8563375
  48.2350534  59.9420294  -7.2364732  47.0586566  59.4724145  -6.4073587
  52.3774047  59.5942990  -4.7865702  51.7554057  58.9313696  -5.0863474
  53.0478914  59.6204122  -5.4692054  52.4498575  48.0724779   4.8066804
  52.4986730  48.9486901   4.4244574  52.9921089  47.5302172   4.2338447
  62.9353420  58.6165902   4.0867941  62.1448964  58.5990041   3.5472441
  62.6986775  59.1554195   4.8416978  63.0551295  55.4658368   1.4000670
  63.1049300  55.3008376   2.3416193  62.9465219  54.5985627   1.0098551
  60.3455058  51.4489296   2.7159977  61.2464921  51.3095761   2.4243974
  60.4203032  51.6143751   3.6558154  54.6797863  48.8256151   1.5613163
  53.8101173  49.1189717   1.2895751  54.9157344  49.4096596   2.2820427
  64.5569492  57.8855310   1.6442691  64.2654301  58.2485290   2.4806152
  63.9441624  57.1722318   1.4656023  65.7565175  55.4508189  -5.8354738
  66.5912066  55.8897994  -5.6717178  65.8924303  54.9746843  -6.6546493
  62.8056681  53.0087924   0.1122749  63.2810802  53.2015571  -0.6958399
  61.8822246  53.0647110  -0.1333867  57.3836897  45.0435768  -0.9221417
  57.9018841  45.7796795  -1.2474928  57.0292030  45.3499761  -0.0874658
  61.5058350  49.8853684  -1.6548945  62.4575772  49.9851782  -1.6336721
  61.3361800  49.0931953  -1.1450861  59.5272729  46.9709268  -1.4689544
  58.9322661  47.2514280  -2.1643055  59.2422426  47.4603169  -0.6972803
  63.9846427  53.1059804  -2.5406645  63.9522747  52.1675805  -2.3546962
  64.5947051  53.1843841  -3.2740820  64.1340916  49.8970847  -2.4948362
  63.6179964  49.1129304  -2.6818433  65.0180864  49.5689564  -2.3301843
  69.8022977  54.1675811  -3.4000609  70.5326366  53.9061099  -2.8392905
  69.1929923  53.4304533  -3.3598541  67.8838274  52.3083673  -2.8026157
  67.1571438  52.1739638  -3.4109666  67.4685561  52.6160502  -1.9969439
  55.7068451  56.0273603   4.9621216  56.6271460  56.2052202   5.1561262
  55.6718034  55.0829649   4.8100915  48.7030523  53.9374638  -2.3956003
  48.9216533  54.8691746  -2.3767969  49.1156297  53.5782612  -1.6101199
  53.5758389  49.5107844   6.9946746  53.4755115  50.4602201   6.9258837
  53.3579931  49.1826082   6.1222816  53.4389659  52.9404982   5.8111807
  52.9556740  53.7405343   6.0175696  53.5250598  52.9512927   4.8579251
  49.3662996  56.8309517  -2.1519759  50.3206250  56.7993459  -2.2189827
  49.1675520  56.3700141  -1.3369533  49.9562378  55.4010633   0.4151039
  50.7755267  55.8954712   0.4385876  50.2299186  54.4842601   0.3868606
  65.5016069  48.5295526  -5.4492726  66.0960560  48.2891262  -6.1599418
  65.5742653  47.8102656  -4.8219189  47.7213225  62.3729137  -5.1349561
  47.5867693  61.6129538  -5.7011563  47.3045287  63.0970036  -5.6020772
  67.8087142  51.8361727  -6.6749305  67.2486700  51.9054916  -5.9017742
  67.2030645  51.6602711  -7.3949808  50.8782351  63.2698454  -4.9231118
  50.7614735  64.2143886  -5.0252428  50.0574797  62.9672015  -4.5345319
  45.2097292  49.7348767   1.1143236  45.8556156  49.2247721   1.6030461
  45.0014444  50.4717449   1.6886661  57.7350685  56.8029615   6.6135377
  58.6041844  56.9770267   6.2522011  57.2557436  57.6224031   6.4911106
  51.9036865  63.9226716  -1.7075190  52.8064112  63.9550326  -1.3908695
  51.6774235  62.9927166  -1.6928854  53.6590467  62.6757702  -5.0465111
  52.7086098  62.6759564  -5.1600739  53.9622953  61.9290437  -5.5629077
  49.5494783  46.8816384   5.2118250  50.4126245  46.5253189   5.4221575
  48.9760194  46.5430279   5.8993654  69.3943160  68.5118240  -3.9819349
  70.0321570  68.3924988  -4.6856009  69.2764003  69.4599084  -3.9231397
  66.2032867  68.4645669  -4.0457824  65.8651378  68.3486733  -4.9337289
  67.0722635  68.0636834  -4.0656818  66.6852650  69.6180520   1.9128381
  66.6741290  69.2233319   1.0408885  66.8473289  68.8846593   2.5062153
  59.6084114  71.8132337  -5.2176713  60.4005406  71.4723161  -5.6330413
  59.8480764  71.9227312  -4.2974559  63.4059911  72.4017632   0.8607565
  63.1149777  73.3063263   0.7454232  64.0416895  72.4434160   1.5751635
  64.3316118  69.7794481  -2.5491075  64.9279690  69.5550503  -3.2634112
  64.3891089  69.0379226  -1.9465627  71.8718276  59.8866502  -1.5438554
  71.5401601  60.7561913  -1.7677339  71.2763890  59.5702786  -0.8644523
  68.3649796  72.0879048  -2.1442641  68.0650519  72.9904086  -2.2526834
  68.0200855  71.8211231  -1.2921488  61.8162277  68.5392844  -6.1105937
  60.8912774  68.4069059  -5.9028245  62.0646691  69.3187064  -5.6135994
  71.7646940  64.6061588  -4.4645204  70.8563817  64.5376996  -4.7586443
  71.7134535  65.0833533  -3.6363378  59.1771088  68.1826118  -5.2762147
  59.3063470  68.4360597  -4.3622736  58.4968540  68.7753826  -5.5957492
  65.8387805  66.0251233   3.4789694  65.0621140  66.5845154   3.4692558
  66.4778369  66.5108016   4.0004564  73.6308586  62.8078026  -2.6867330
  72.9882966  63.1010559  -3.3327535  73.1263515  62.6930947  -1.8814133
  64.0934178  68.8336687   3.0407661  64.8348862  69.3721731   2.7642484
  63.3871163  69.4602976   3.1979212  69.5689517  70.9765827   1.6379822
  69.9772873  70.5348238   0.8934455  68.8466779  70.4018455   1.8914015
  65.9220587  65.9138434  -0.9886621  66.7681783  66.3377848  -0.8451972
  65.8619225  65.2572058  -0.2948058  69.0720033  63.5742802   0.6694553
  68.8280965  64.3284863   0.1328828  69.3479963  63.9528150   1.5041800
  71.0258496  70.1181415  -0.6528182  71.2375391  70.7613175  -1.3293801
  70.9788244  69.2843731  -1.1206252  68.6284725  62.7299235  -3.7491610
  67.7669204  63.0280489  -3.4574872  68.6547159  62.9469634  -4.6810577
  62.3370375  70.8212907  -4.4038041  62.9071732  71.2500176  -5.0420556
  62.9278487  70.5395492  -3.7053855  62.8295542  65.9876335   3.8422971
  62.1994202  66.6692616   4.0758367  62.7231629  65.8759417   2.8976109
  58.1240514  65.6548131  -5.2311105  57.3339568  65.9105660  -5.7070995
  58.6151761  66.4696469  -5.1259065  60.0755259  66.0192710  -8.2727628
  59.2786423  66.1311404  -7.7544133  59.8480852  66.3579362  -9.1386738
  65.9060927  72.5437413  -0.3245114  65.9705359  73.0057821   0.5113058
  65.1971851  71.9134778  -0.1962804  56.4078217  65.9078621  -2.7996114
  56.6586255  66.7925631  -2.5338538  56.9437765  65.7283223  -3.5721023
  62.1076284  60.2897101   6.2048222  61.7143230  59.7363299   6.8795866
  62.9242425  60.6007679   6.5954739  65.0244245  61.7054980   3.7968478
  65.7653959  62.3062133   3.7172941  65.2562168  60.9632618   3.2386521
  60.1685583  66.8911347   2.0746708  60.0539098  65.9896604   2.3753807
  59.3130101  67.1375044   1.7231524  67.2477421  74.8329087   3.6734209
  66.8041275  74.0465466   3.3555113  67.9094635  75.0208238   3.0078099
  62.0064542  76.3624889  -1.8005113  62.5571967  76.2341952  -2.5728119
  61.1676018  76.6619778  -2.1510220  69.3458659  75.1131887   1.7015610
  69.3277134  75.9340768   1.2095879  70.2678579  74.9885963   1.9265751
  65.8031713  72.6276017   2.5439118  66.3360050  71.8664305   2.3138426
  65.2745794  72.3349669   3.2863273  68.9701408  57.7336083  -1.9267240
  68.6265678  58.6237724  -2.0028129  69.3380371  57.5437740  -2.7897655
  66.5198802  62.5694395  -8.3609567  65.6640398  62.1801245  -8.5403928
  66.9325754  62.6486355  -9.2209781  68.0497949  60.1040738  -3.9618007
  67.5462744  60.0670873  -4.7750202  68.3428555  61.0133481  -3.9021350
  64.2940834  60.1879468  -4.9551825  65.1593831  59.9922276  -5.3145936
  64.3618343  59.9589819  -4.0282468  61.9003154  62.4181676  -7.5835458
  62.4746905  62.1956857  -8.3162265  62.4874136  62.4870370  -6.8306857
  64.2025821  59.2922925  -8.8560389  63.5490234  58.9771942  -9.4803774
  64.1606295  58.6698665  -8.1300566  67.4363562  65.7804858  -4.5312741
  66.5186123  66.0019805  -4.6891053  67.8523705  65.8551169  -5.3901034
  70.7689074  56.9929642  -6.8249502  71.0747951  56.1327005  -7.1123587
  71.4941679  57.5847262  -7.0250508  57.0613430  67.3960329  -8.4367904
  56.8637830  66.8029689  -9.1616838  56.5060094  67.0912539  -7.7191966
  65.0410154  67.2883435  -6.3173311  65.0958763  66.3357271  -6.3930835
  64.2301356  67.4442874  -5.8332013  62.9802514  65.9060495  -8.5582932
  62.1670379  66.2054665  -8.1517740  63.4761508  65.5116184  -7.8408450
  68.5776725  66.3702319   0.2731961  68.9326113  66.5973792   1.1326427
  69.2248856  66.7020696  -0.3490783  62.4716588  63.4778850  -2.9421697
  63.1115968  63.3367609  -3.6398734  61.6394119  63.1913364  -3.3183095
  59.4745205  63.4479175  -8.1648711  59.7352022  64.3624509  -8.2739550
  60.2962377  62.9803618  -8.0152098  60.9470130  64.8616932  -0.9949886
  61.6193183  64.6534295  -1.6437237  60.1199917  64.6639018  -1.4344654
  66.8495702  61.4878873   1.0215775  66.2023617  62.1868823   0.9280251
  67.6196717  61.9215017   1.3892023  70.2574500  71.7527726   4.0966328
  70.1060006  71.5238277   3.1796412  70.2479179  72.7098327   4.1097673
  67.0259836  69.3259638  -0.9187406  67.9551896  69.4770798  -1.0918438
  66.6050866  69.4143659  -1.7738759  65.8248168  73.3510303  -3.1488868
  65.6859254  72.9829087  -2.2762930  65.0362764  73.8657942  -3.3204910
  61.3497627  68.1359535  -0.2347449  61.2117425  67.4039774   0.3664090
  62.2602551  68.0468436  -0.5163261  63.9779928  67.8479495  -0.7463769
  64.6879546  67.2072687  -0.7877151  63.9349236  68.0992390   0.1762411
  71.9666707  74.7846848   2.1742810  71.9079253  74.1006068   1.5073393
  72.3686225  75.5265838   1.7223436  62.6908862  64.8344713   1.0731870
  62.1546219  64.3835451   1.7253466  62.1025570  64.9690622   0.3302334
  71.9684114  72.7486432   0.4056790  71.0810893  72.4112354   0.5283188
  72.5382665  72.0169463   0.6425555  53.6213261  69.0810524  -6.2700159
  54.3084301  68.7672254  -6.8579144  53.4661390  69.9851888  -6.5432908
  58.4247983  63.9700720  -1.8415135  58.3406172  63.3626390  -2.5764725
  57.6030690  64.4609739  -1.8405639  68.5971697  62.4554284  -6.4744940
  69.0940397  61.7024246  -6.7943870  67.8258679  62.4918601  -7.0401731
  65.1806666  64.5971667  -6.7473256  64.8104453  64.0442707  -6.0592350
  65.6765758  63.9929800  -7.2998256  63.0095864  75.0569162   0.3481762
  63.7105324  75.6905645   0.5011156  62.5390979  75.3983893  -0.4122599
  71.0390692  59.4223877  -4.3265581  70.1253772  59.6528104  -4.1583375
  71.4683793  59.5062321  -3.4751549  70.8097150  67.6113769  -1.8265687
  70.1568601  67.8589677  -2.4813235  71.1877530  66.7977908  -2.1603210
  66.8584723  68.3533580   4.6600350  66.1825360  68.2527710   5.3302725
  67.6812357  68.1972794   5.1236347  58.6063582  74.5905517  -2.7187135
  59.1917019  73.8449205  -2.5859231  58.4088421  74.9009474  -1.8350471
  53.1981237  67.1611117  -3.9982692  53.2365337  66.6274708  -3.2045574
  52.6921530  66.6346323  -4.6171715  60.5771999  62.0075658  -0.5020150
  60.6413326  62.8690489  -0.9142752  60.5139120  61.3949659  -1.2347791
  60.0524272  64.0798790   3.1452885  60.6796311  63.6975868   3.7590409
  59.1952191  63.8612992   3.5108577  70.4518381  74.4861765   4.7506620
  70.9958285  75.0991724   4.2561575  69.8705225  75.0441344   5.2673633
  56.8289815  65.8875219 -10.9228761  57.1243256  64.9785898 -10.9761707
  55.9277850  65.8662959 -11.2447758  60.3584062  63.9631216  -4.9401212
  59.6370647  64.5767184  -5.0793739  61.1477317  64.4988981  -5.0184566
  63.1610375  61.2985642   1.3339440  63.6844777  61.5447939   2.0965749
  62.9422709  62.1305677   0.9142577  58.5577656  63.5689317 -10.7989435
  58.2290362  62.6886696 -10.9814329  58.9117027  63.5136986  -9.9113046
  64.3662920  62.2399338  -0.9810890  64.0259741  61.4407151  -0.5790210
  63.6601927  62.5401048  -1.5534056  65.0179392  59.3248650  -2.5283567
  65.8405461  58.8509128  -2.6504676  65.2617456  60.1039134  -2.0284880
  62.5417971  66.0167771  -4.7191588  62.3962552  66.3308074  -3.8267307
  62.0643174  66.6352671  -5.2720689  64.4014354  63.0070319  -4.6710698
  64.3875923  62.1111412  -5.0078401  65.1186782  63.0140982  -4.0372412
  66.2540484  63.4407659  -2.6257571  65.9958262  64.3624729  -2.6273241
  65.7225525  63.0438093  -1.9357107  57.0163633  68.5573115  -1.7803927
  56.4717101  69.3332923  -1.6483653  57.8942983  68.9043919  -1.9384805
  63.8051250  61.8884699  -9.4023128  63.9267161  60.9601345  -9.2032241
  63.5153292  61.9023385 -10.3144813  66.6742440  59.5739609  -6.2656408
  66.6964137  59.6378942  -7.2204429  67.0910499  58.7344118  -6.0715902
  57.8029655  67.6843011   1.1126230  57.0611391  67.8325647   1.6990860
  57.4822399  67.9451277   0.2492979  65.7473318  77.2258989   0.9106620
  66.0560444  76.9808136   1.7829320  66.5448800  77.4305628   0.4225490
  56.4494874  73.4894766  -5.8974442  55.6126782  73.0616941  -6.0790441
  56.4218519  73.6827210  -4.9603651  63.2892329  63.4016696   4.8066804
  63.3380485  64.2778819   4.4244574  63.8314843  62.8594089   4.2338447
  73.7747175  73.9457819   4.0867941  72.9842719  73.9281958   3.5472441
  73.5380529  74.4846113   4.8416978  73.8945050  70.7950286   1.4000670
  73.9443055  70.6300293   2.3416193  73.7858973  69.9277545   1.0098551
  71.1848812  66.7781214   2.7159977  72.0858675  66.6387679   2.4243974
  71.2596787  66.9435669   3.6558154  65.5191618  64.1548069   1.5613163
  64.6494927  64.4481635   1.2895751  65.7551098  64.7388514   2.2820427
  75.3963247  73.2147227   1.6442691  75.1048055  73.5777208   2.4806152
  74.7835378  72.5014236   1.4656023  73.6450435  68.3379842   0.1122749
  74.1204557  68.5307488  -0.6958399  72.7216000  68.3939028  -0.1333867
  68.2230651  60.3727686  -0.9221417  68.7412595  61.1088712  -1.2474928
  67.8685784  60.6791679  -0.0874658  68.4743246  56.7927968  -5.4020520
  68.7544999  56.1251157  -4.7760094  69.2593853  56.9857064  -5.9145856
  72.3452104  65.2145602  -1.6548945  73.2969527  65.3143700  -1.6336721
  72.1755554  64.4223871  -1.1450861  70.3666483  62.3001185  -1.4689544
  69.7716416  62.5806198  -2.1643055  70.0816180  62.7895086  -0.6972803
  74.9734670  65.2262765  -2.4948362  74.4573719  64.4421222  -2.6818433
  75.8574619  64.8981482  -2.3301843  72.6345397  58.9703781  -6.5352549
  72.4370218  58.6618869  -5.6509218  73.2445103  59.6965420  -6.4054620
  66.5462205  71.3565521   4.9621216  67.4665215  71.5344120   5.1561262
  66.5111788  70.4121566   4.8100915  55.7644370  66.5504115  -6.1125510
  55.4447155  65.6969423  -6.4051136  55.2177798  66.7652693  -5.3567542
  59.5424278  69.2666556  -2.3956003  59.7610288  70.1983663  -2.3767969
  59.9550052  68.9074530  -1.6101199  66.4628496  59.7734641 -10.4080315
  65.6529224  59.4281726 -10.0325069  67.1512912  59.4642185  -9.8192703
  68.3919044  58.8512688  -8.7856018  68.9450082  59.2708141  -8.1265995
  68.6289130  57.9248436  -8.7433062  64.4152143  64.8399761   6.9946746
  64.3148870  65.7894118   6.9258837  64.1973685  64.5118000   6.1222816
  55.6332630  70.1707026  -4.1432388  54.9396102  69.7560979  -4.6562434
  56.3805621  70.2127563  -4.7398969  70.2201417  60.3618270  -7.0756034
  70.7201196  60.4734805  -7.8841715  70.8637025  60.0579323  -6.4355225
  64.2783413  68.2696900   5.8111807  63.7950495  69.0697260   6.0175696
  64.3644352  68.2804845   4.8579251  57.5469373  70.1025280  -6.2666373
  57.5240061  70.2012967  -7.2184490  57.8570009  70.9490431  -5.9449207
  60.2056751  72.1601435  -2.1519759  61.1600004  72.1285377  -2.2189827
  60.0069274  71.6992059  -1.3369533  60.7956133  70.7302551   0.4151039
  61.6149022  71.2246630   0.4385876  61.0692940  69.8134519   0.3868606
  56.0491047  65.0640685   1.1143236  56.6949911  64.5539639   1.6030461
  55.8408198  65.8009366   1.6886661  68.5744439  72.1321532   6.6135377
  69.4435599  72.3062184   6.2522011  68.0951191  72.9515949   6.4911106
  62.7430619  79.2518633  -1.7075190  63.6457866  79.2842243  -1.3908695
  62.5167989  78.3219084  -1.6928854  68.3846777  55.9223506  -8.8786931
  67.6179173  55.3681993  -8.7330249  68.7957482  55.9945375  -8.0172779
  60.3888538  62.2108302   5.2118250  61.2520000  61.8545107   5.4221575
  59.8153949  61.8722197   5.8993654  72.9470039  75.6189018   6.2048222
  72.5536984  75.0655217   6.8795866  73.7636179  75.9299597   6.5954739
  75.8638000  77.0346898   3.7968478  76.6047713  77.6354051   3.7172941
  76.0955923  76.2924535   3.2386521  70.8918026  79.4090708   3.1452885
  71.5190065  79.0267785   3.7590409  70.0345945  79.1904910   3.5108577
  74.1286084  78.7308614   4.8066804  74.1774239  79.6070737   4.4244574
  74.6708598  78.1886007   4.2338447  75.2545898  80.1691679   6.9946746
  75.1542624  81.1186036   6.9258837  75.0367440  79.8409918   6.1222816
  66.8884801  80.3932602   1.1143236  67.5343665  79.8831556   1.6030461
  66.6801953  81.1301284   1.6886661  71.2282292  77.5400219   5.2118250
  72.0913754  77.1837024   5.4221575  70.6547703  77.2014114   5.8993654
  71.9666708  51.7908971 -11.1011883  71.9079254  51.1068191 -11.7681300
  72.3686226  52.5327961 -11.5531257  70.4518382  51.4923888  -8.5248073
  70.9958286  52.1053846  -9.0193118  69.8705227  52.0503466  -8.0081060
  73.7747176  50.9519942  -9.1886752  72.9842720  50.9344081  -9.7282253
  73.5380531  51.4908236  -8.4337715  75.3963248  50.2209350 -11.6312002
  75.1048056  50.5839330 -10.7948541  74.7835379  49.5076358 -11.8098670
  68.5744440  49.1383655  -6.6619317  69.4435600  49.3124307  -7.0232682
  68.0951192  49.9578072  -6.7843588  72.9470040  52.6251141  -7.0706472
  72.5536986  52.0717340  -6.3958827  73.7636180  52.9361720  -6.6799954
  75.8638001  54.0409020  -9.4786215  76.6047714  54.6416173  -9.5581753
  76.0955924  53.2986658 -10.0368173  70.8918028  56.4152830 -10.1301809
  71.5190067  56.0329908  -9.5164284  70.0345947  56.1967032  -9.7646116
  74.1286085  55.7370736  -8.4687889  74.1774240  56.6132859  -8.8510119
  74.6708599  55.1948130  -9.0416246  75.2545899  57.1753802  -6.2807948
  75.1542626  58.1248158  -6.3495856  75.0367441  56.8472040  -7.1531877
  66.8884803  57.3994725 -12.1611457  67.5343666  56.8893679 -11.6724232
  66.6801954  58.1363407 -11.5868032  71.2282294  54.5462342  -8.0636443
  72.0913755  54.1899147  -7.8533119  70.6547704  54.2076237  -7.3761039
   4.3554030  99.9975958  46.9697918   3.6017738  99.4283356  46.8141922
   4.4901571  99.9638622  47.9168552   0.7202643 101.4383946  47.2664032
   1.5549534 101.8773750  47.4301592   0.8561771 100.9622599  46.4472278
   4.7660445 100.1551567  49.7018162   5.4963834  99.8936856  50.2625865
   4.1567391  99.4180289  49.7420230   2.8475742  98.2959430  50.2992613
   2.1208906  98.1615395  49.6909105   2.4323029  98.6036259  51.1049331
   0.4653537  94.5171282  47.6526045   1.0598028  94.2767018  46.9419353
   0.5380121  93.7978413  48.2799581   2.7724610  97.8237483  46.4269466
   2.2124168  97.8930672  47.2001028   2.1668113  97.6478468  45.7068962
   3.9338876 103.7211839  51.1751530   3.5903146 104.6113481  51.0990641
   4.3017839 103.5313497  50.3121115   5.7326542 102.9805399  46.2769268
   6.0385419 102.1202762  45.9895183   6.4579147 103.5723019  46.0768262
   3.4380714 102.7803725  47.6998250   3.7182467 102.1126914  48.3258677
   4.2231321 102.9732820  47.1872914   7.5982865 104.9579537  46.5666221
   7.4007686 104.6494626  47.4509553   8.2082571 105.6841176  46.6964151
   3.3484245 101.9099263  44.2231839   2.5816641 101.3557749  44.3688522
   3.7594950 101.9821131  45.0845991   4.3554031  77.0038080  33.6943224
   3.6017740  76.4345478  33.5387229   4.4901573  76.9700745  34.6413859
   0.7202644  78.4446069  33.9909339   1.5549535  78.8835873  34.1546899
   0.8561773  77.9684722  33.1717584   4.7660446  77.1613690  36.4263468
   5.4963835  76.8998978  36.9871172   4.1567392  76.4242412  36.4665536
   2.8475744  75.3021553  37.0237920   2.1208907  75.1677518  36.4154411
   2.4323030  75.6098381  37.8294638   0.4653538  71.5233405  34.3771351
   1.0598029  71.2829141  33.6664659   0.5380122  70.8040535  35.0044888
   2.7724611  74.8299606  33.1514772   2.2124169  74.8992795  33.9246335
   2.1668115  74.6540590  32.4314269   4.3580630  91.5056120  35.8444728
   4.9959040  91.3862867  35.1408068   4.2401473  92.4536964  35.9032680
   1.1670336  91.4583548  35.7806253   0.8288847  91.3424612  34.8926788
   2.0360104  91.0574713  35.7607259   1.6490119  92.6118399  41.7392458
   1.6378760  92.2171198  40.8672962   1.8110758  91.8784472  42.3326230
   3.9121898  89.2307574  32.9197936   4.6984987  88.8126997  32.5688353
   4.1760603  90.1353666  33.0879585   9.3130325  89.1682807  33.8230915
  10.0455497  88.5982024  34.0568744   8.5569681  88.7804407  34.2637420
   0.9306445  91.5910048  31.0194257   0.5664652  91.0640669  31.7307179
   1.7873561  91.2008517  30.8460743   6.8355746  82.8804381  38.2825523
   6.5039070  83.7499792  38.0586738   6.2401359  82.5640665  38.9619554
   3.3287265  95.0816927  37.6821436   3.0287988  95.9841966  37.5737243
   2.9838325  94.8149110  38.5342589   6.7284409  87.5999467  35.3618873
   5.8201286  87.5314875  35.0677634   6.6772005  88.0771412  36.1900699
   8.5946055  85.8015905  37.1396747   7.9520436  86.0948439  36.4936542
   8.0900984  85.6868826  37.9449944   6.2486219  89.5479079  27.8282607
   7.1604075  89.7806465  27.6530304   5.7395866  90.1316123  27.2657685
   4.5326987  93.9703706  41.4643899   4.9410343  93.5286117  40.7198532
   3.8104248  93.3956334  41.7178092   0.8858057  88.9076313  38.8377456
   1.7319252  89.3315727  38.9812105   0.8256694  88.2509937  39.5316019
   4.8555801  94.5304897  35.2196188   4.2264664  94.6950611  34.5172256
   4.4681463  94.9446507  35.9907152   8.7345033  95.4659335  32.5740552
   8.0496071  95.8458236  32.0237585   8.8188883  96.0754662  33.3072500
   4.0357502  86.5680682  40.4958630   3.7918434  87.3222742  39.9592905
   4.3117433  86.9466029  41.3305877   5.9895965  93.1119294  39.1735895
   6.2012860  93.7551054  38.4970276   5.9425713  92.2781610  38.7057825
   3.5922194  85.7237115  36.0772467   2.7306673  86.0218368  36.3689205
   3.6184628  85.9407513  35.1453500   7.1041793  95.9891249  37.3458253
   7.9259237  95.5871437  37.0640934   7.1004196  95.8859483  38.2974368
  15.1947786  92.3329998  33.6943224  14.4411494  91.7637396  33.5387229
  15.3295327  92.2992662  34.6413859   2.2114890  97.8266967  43.4998286
   1.7678744  97.0403345  43.1819190   2.8732104  98.0146117  42.8342176
   4.3096128  98.1069767  41.5279687   4.2914604  98.9278648  41.0359956
   5.2316048  97.9823842  41.7529828   3.9338877  80.7273962  37.8996837
   3.5903147  81.6175604  37.8235948   4.3017840  80.5375620  37.0366422
   1.4836271  85.5632274  31.4654510   0.6277868  85.1739124  31.2860149
   1.8963223  85.6424235  30.6054296   3.0135418  83.0978617  35.8646070
   2.5100213  83.0608752  35.0513875   3.3066025  84.0071360  35.9242727
   8.8723434  93.4714928  28.3422446   8.0952877  93.1326087  27.8977608
   9.5514915  93.4767551  27.6677411   3.6875463  88.5909665  28.2329053
   3.3825599  88.9055814  29.0839196   4.6405905  88.6691085  28.2756386
   7.1114741  92.9448909  34.9989054   6.4538416  93.6348170  35.0869182
   7.9155140  93.3345341  35.3423040   5.9220200  91.2993282  33.0492995
   6.4352082  91.9323274  33.5514705   6.5721424  90.6994477  32.6836355
   2.4001031  88.7742737  35.2951336   1.4823592  88.9957684  35.1373024
   2.8161175  88.8489048  34.4363043   3.1836079  90.1734153  30.4254016
   3.9307898  90.6855550  30.1161138   3.4527668  89.8518206  31.2858410
   6.6881996  96.2799283  31.1772138   6.2344323  95.4390193  31.2337328
   6.0575963  96.9160682  31.5146918   5.6314916  87.2091269  32.4072805
   4.8937673  86.6968655  32.7383048   5.8841689  86.7691651  31.5956082
   5.1314935  98.1175780  32.1121956   5.4237910  98.6780837  31.3934322
   5.6413556  98.4104341  32.8675115   5.7326543  79.9867521  33.0014575
   6.0385420  79.1264885  32.7140490   6.4579148  80.5785141  32.8013569
   3.5414194  89.3640198  40.0996038   3.8963582  89.5911672  40.9590504
   4.1886326  89.6958575  39.4773294   9.2711931  92.4858634  30.8045367
   9.1329830  92.6760230  29.8766557   8.9148150  93.2478017  31.2613419
   9.2981311  94.5535161  35.8156639   9.7317818  94.4610450  36.6639693
  10.0112892  94.5292662  35.1776655   3.0309206  98.1537255  37.3489740
   3.0846228  98.7228192  38.1167456   2.1623987  98.3239141  36.9843777
  10.1596861  94.5958862  38.3489524  10.3532751  95.5004673  38.5948799
  10.0597479  94.1366281  39.1828109   1.8133171  84.4816753  40.8479852
   1.1661086  85.1806702  40.7544328   2.5834187  84.9152897  41.2156100
   5.2211969  94.7465605  43.9230405   5.0697476  94.5176156  43.0060489
   5.2116649  95.7036206  43.9361750   1.9897306  92.3197518  38.9076671
   2.9189366  92.4708677  38.7345639   1.5688336  92.4081538  38.0525318
   2.3390853  95.7229785  34.0664047   2.0040685  95.6830555  34.9621697
   1.8394798  95.0574501  33.5934457   6.9304176  97.7784727  42.0006887
   6.8716722  97.0943947  41.3337470   7.3323694  98.5203717  41.5487513
   6.9321583  95.7424311  40.2320867   6.0448362  95.4050233  40.3547265
   7.5020134  95.0107342  40.4689632   3.5609166  85.4492163  33.3519137
   4.0577866  84.6962125  33.0320207   2.7896148  85.4856480  32.7862346
  11.4138924  91.1532529  34.9937428  11.4028800  92.0357244  34.6231361
  10.5456303  90.8004079  34.7991965   2.9221420 100.3012598  39.3540268
   3.6349392 100.9360062  39.2816170   2.4311449 100.3976464  38.5380270
   4.6438947  94.2063850  30.9257560   3.7095226  94.3265313  30.7562264
   4.8215615  93.3036317  30.6617570   8.0311498  90.0481170  31.4607594
   8.4971951  90.8809161  31.3867897   8.4818999  89.5826151  32.1652853
   6.0987729  96.3924991  28.4593746   6.3747573  96.2781585  29.3687620
   5.2292228  95.9942476  28.4205919   6.0028161  82.4161757  35.4998496
   5.0891241  82.6465983  35.6680702   6.4321263  82.5000201  36.3512528
   5.7734620  90.6051649  37.9998390   5.1206070  90.8527556  37.3450842
   6.1514999  89.7915787  37.6660867   1.8222193  91.3471460  44.4864427
   1.1462830  91.2465589  45.1566802   2.6449826  91.1910673  44.9500424
   0.5644975 102.6538387  38.7222043   1.1163284 102.8170009  39.4871128
   0.9051169 103.2442825  38.0502068   5.4155850  97.4799645  44.5770697
   5.9595754  98.0929603  44.0825652   4.8342695  98.0379223  45.0937710
   3.7013363 100.6020363  35.7085725   3.5764502  99.8010102  35.1996670
   4.3592454 101.0966556  35.2199695   5.7648271  98.4029383  37.3365275
   4.8178607  98.2834734  37.2643602   6.1131044  97.5151881  37.4191536
   2.7694704  98.1982099  33.5369627   2.6219667  97.2698806  33.7177197
   3.5948198  98.2202190  33.0526702   6.3728826  99.0210658  34.6234500
   7.2975374  98.8153519  34.4858951   6.2044130  98.7727059  35.5323841
   2.7656219  86.0519937  28.5301744   2.9819833  86.9344574  28.2290573
   2.2850286  85.6606150  27.8007386   1.2177954  86.4345538  37.2006506
   0.9595732  87.3562609  37.1990836   0.6862994  86.0375972  37.8906970
   6.1624143  99.5396325  29.9796591   6.3361020  98.9742748  29.2270444
   6.6553034 100.3397220  29.7976081   1.6379909  82.5677488  33.5607669
   1.6601606  82.6316822  32.6059648   2.0547968  81.7281997  33.7548175
  12.0163534  92.3032748  31.5986891  12.4594680  91.5540073  31.2006014
  11.1390044  92.2942884  31.2160623   9.0490738  96.3062795  28.6080820
   9.5742062  96.6450068  27.8830140   8.9613091  95.3709810  28.4243955
   0.7110787 100.2196869  40.7370697   1.0197913  99.9746015  41.6093397
   1.5086269 100.4243507  40.2489567   8.7384644  96.9395699  43.9132018
   7.9480188  96.9219837  43.3736518   8.5017999  97.4783992  44.6681055
   8.8582519  93.7888165  41.2264747   8.9080524  93.6238172  42.1680270
   8.7496443  92.9215424  40.8362628   6.1486282  89.7719093  42.5424054
   7.0496144  89.6325558  42.2508051   6.2234256  89.9373548  43.4822231
  10.3600716  96.2085107  41.4706768  10.0685524  96.5715087  42.3070229
   9.7472847  95.4952115  41.2920101  11.5596398  93.7737986  33.9909339
  12.3943290  94.2127790  34.1546899  11.6955527  93.2976640  33.1717584
   8.6087904  91.3317721  39.9386826   9.0842026  91.5245367  39.1305678
   7.6853470  91.3876907  39.6930210   3.1868121  83.3665565  38.9042660
   3.7050065  84.1026592  38.5789149   2.8323254  83.6729558  39.7389419
   3.4380715  79.7865847  34.4243557   3.7182469  79.1189036  35.0503983
   4.2231322  79.9794943  33.9118221   7.3089573  88.2083481  38.1715132
   8.2606996  88.3081579  38.1927356   7.1393024  87.4161750  38.6813216
   5.3303953  85.2939064  38.3574533   4.7353885  85.5744077  37.6621022
   5.0453649  85.7832965  39.1291274   9.7877651  91.4289601  37.2857432
   9.7553971  90.4905602  37.4717115  10.3978275  91.5073638  36.5523257
   9.9372140  88.2200644  37.3315715   9.4211188  87.4359101  37.1445644
  10.8212088  87.8919361  37.4962234   7.5982866  81.9641660  33.2911528
   7.4007688  81.6556748  34.1754859   8.2082572  82.6903299  33.4209457
  15.6054201  92.4905608  36.4263468  16.3357589  92.2290896  36.9871172
  14.9961146  91.7534330  36.4665536  13.6869498  90.6313470  37.0237920
  12.9602662  90.4969435  36.4154411  13.2716785  90.9390299  37.8294638
   1.5099674  94.3503400  44.7885293   2.4302684  94.5281999  44.9825339
   1.4749258  93.4059445  44.6364992   1.4265965  82.7672520  29.4183762
   0.6166693  82.4219605  29.7939008   2.1150382  82.4580064  30.0071374
   3.3556513  81.8450567  31.0408059   3.9087552  82.2646020  31.6998082
   3.5926599  80.9186315  31.0831015   6.7335320  83.9551092  30.5486723
   6.1533989  84.6135896  30.1664776   6.4671253  83.1328437  30.1374141
   5.1838887  83.3556150  32.7508043   5.6838665  83.4672684  31.9422362
   5.8274494  83.0517203  33.3908852   5.5160198  86.1151182  29.6043071
   4.6286053  86.4000833  29.3863266   5.9314187  85.9544946  28.7570348
   8.8674734  86.1397703  33.3197411   9.6435124  86.6294156  33.5922027
   8.1422869  86.5655758  33.7769280  11.3047293  86.8525323  34.3771351
  11.8991784  86.6121059  33.6664659  11.3773877  86.1332453  35.0044888
   5.4901222  91.6305718  29.8193362   5.4336423  92.0874270  28.9800994
   6.0429564  90.8696403  29.6416204   9.3006028  87.4195450  30.6443481
   9.0442962  87.0192086  31.4751689   8.6758896  88.1339244  30.5193620
  13.6118366  90.1591523  33.1514772  13.0517924  90.2284713  33.9246335
  13.0061869  89.9832508  32.4314269   6.2236001  92.8210500  27.1145891
   6.1684805  92.6554771  26.1734335   5.5982057  93.5286532  27.2708080
   3.5381908  95.1259411  46.4399454   4.4073068  95.3000064  46.0786088
   3.0588660  95.9453828  46.3175183   3.3484246  78.9161385  30.9477146
   2.5816642  78.3619872  31.0933828   3.7594951  78.9883254  31.8091298
  15.1974384 106.8348037  35.8444728  15.8352794 106.7154785  35.1408068
  15.0795227 107.7828881  35.9032680  12.0064090 106.7875465  35.7806253
  11.6682602 106.6716530  34.8926788  12.8753859 106.3866631  35.7607259
  12.4883873 107.9410317  41.7392458  12.4772514 107.5463115  40.8672962
  12.6504513 107.2076390  42.3326230  14.7515653 104.5599491  32.9197936
  15.5378742 104.1418914  32.5688353  15.0154357 105.4645583  33.0879585
  20.1524080 104.4974724  33.8230915  20.8849252 103.9273941  34.0568744
  19.3963436 104.1096325  34.2637420  11.7700200 106.9201966  31.0194257
  11.4058407 106.3932587  31.7307179  12.6267315 106.5300435  30.8460743
  17.6749500  98.2096298  38.2825523  17.3432825  99.0791709  38.0586738
  17.0795114  97.8932582  38.9619554  17.5678163 102.9291385  35.3618873
  16.6595041 102.8606793  35.0677634  17.5165759 103.4063330  36.1900699
  11.6419029 104.3481030  43.3053771  10.8652363 104.9074950  43.2956635
  12.2809592 104.8337813  43.8268641  19.4339810 101.1307823  37.1396747
  18.7914190 101.4240356  36.4936542  18.9294738 101.0160743  37.9449944
  17.0879974 104.8770996  27.8282607  17.9997830 105.1098383  27.6530304
  16.5789621 105.4608040  27.2657685  11.7251811 104.2368231  38.8377456
  12.5713006 104.6607644  38.9812105  11.6650449 103.5801855  39.5316019
  14.8751257 101.8972599  40.4958630  14.6312188 102.6514660  39.9592905
  15.1511187 102.2757947  41.3305877  16.8289719 108.4411212  39.1735895
  17.0406615 109.0842971  38.4970276  16.7819468 107.6073528  38.7057825
  14.4315948 101.0529032  36.0772467  13.5700427 101.3510286  36.3689205
  14.4578383 101.2699431  35.1453500   8.6326765 104.3106132  43.6687048
   8.0025426 104.9922413  43.9022444   8.5262853 104.1989213  42.7240186
  26.0341540 107.6621915  33.6943224  25.2805249 107.0929314  33.5387229
  26.1689082 107.6284580  34.6413859   7.9107508  98.6126898  46.0312299
   7.5174454  98.0593096  46.7059943   8.7273648  98.9237476  46.4218816
  10.8275469 100.0284777  43.6232555  11.5685182 100.6291930  43.5437018
  11.0593392  99.2862415  43.0650598  14.7732632  96.0565880  37.8996837
  14.4296901  96.9467521  37.8235948  15.1411595  95.8667537  37.0366422
  12.3230026 100.8924192  31.4654510  11.4671622 100.5031042  31.2860149
  12.7356977 100.9716152  30.6054296  13.8529172  98.4270535  35.8646070
  13.3493968  98.3900670  35.0513875  14.1459779  99.3363278  35.9242727
  10.0972058  98.5109265  34.8712252  10.9625055  98.3152073  34.5118141
  10.1649567  98.2819616  35.7981609  19.7117189 108.8006845  28.3422446
  18.9346632 108.4618005  27.8977608  20.3908670 108.8059469  27.6677411
  14.5269218 103.9201583  28.2329053  14.2219353 104.2347732  29.0839196
  15.4799660 103.9983003  28.2756386  17.9508496 108.2740827  34.9989054
  17.2932170 108.9640088  35.0869182  18.7548895 108.6637259  35.3423040
   7.7034377 100.7411472  32.2428619   8.2778129 100.5186654  31.5101812
   8.2905360 100.8100167  32.9957220  16.7613955 106.6285199  33.0492995
  17.2745836 107.2615191  33.5514705  17.4115178 106.0286395  32.6836355
  10.0057045  97.6152721  30.9703688   9.3521457  97.3001739  30.3460303
   9.9637519  96.9928462  31.6963511  13.2394785 104.1034655  35.2951336
  12.3217347 104.3249602  35.1373024  13.6554929 104.1780965  34.4363043
  14.0229833 105.5026071  30.4254016  14.7701652 106.0147468  30.1161138
  14.2921423 105.1810123  31.2858410  16.4708670 102.5383187  32.4072805
  15.7331427 102.0260573  32.7383048  16.7235444 102.0983568  31.5956082
  16.5720298  95.3159439  33.0014575  16.8779174  94.4556802  32.7140490
  17.2972902  95.9077059  32.8013569  10.8441377 105.6113232  33.5090766
  10.8989987 104.6587068  33.4333242  10.0332579 105.7672671  33.9932064
   8.7833737 104.2290292  31.2681145   7.9701603 104.5284462  31.6746337
   9.2792731 103.8345980  31.9855627  14.3807949 104.6932116  40.0996038
  14.7357337 104.9203589  40.9590504  15.0280080 105.0250493  39.4773294
  20.1105686 107.8150552  30.8045367  19.9723584 108.0052148  29.8766557
  19.7541905 108.5769935  31.2613419   8.2747812 101.8008647  36.8842380
   8.9147191 101.6597406  36.1865343   7.4425343 101.5143161  36.5080982
  20.1375066 109.8827079  35.8156639  20.5711572 109.7902368  36.6639693
  20.8506646 109.8584580  35.1776655   5.2776428 101.7708972  31.6615366
   5.5383246 102.6854305  31.5524527   6.0993601 101.3033415  31.8111979
   6.7501354 103.1846729  38.8314191   7.4224407 102.9764091  38.1826840
   5.9231140 102.9868815  38.3919423  20.9990615 109.9250780  38.3489524
  21.1926505 110.8296590  38.5948799  20.8991233 109.4658199  39.1828109
  12.6526926  99.8108670  40.8479852  12.0054841 100.5098620  40.7544328
  13.4227941 100.2444814  41.2156100  12.8291060 107.6489435  38.9076671
  13.7583120 107.8000595  38.7345639  12.4082090 107.7373456  38.0525318
   9.7811152 106.1709292  39.0800308  10.4910770 105.5302484  39.0386926
   9.7380460 106.4222186  40.0026488   8.4940086 103.1574510  40.8995947
   7.9577443 102.7065248  41.5517543   7.9056794 103.2920418  40.1566411
   4.2279207 102.2930517  37.9848942   4.1437396 101.6856187  37.2499352
   3.4061913 102.7839536  37.9858438  14.4002921 100.7784081  33.3519137
  14.8971620 100.0254043  33.0320207  13.6289902 100.8148397  32.7862346
  22.2532678 106.4824446  34.9937428  22.2422554 107.3649162  34.6231361
  21.3850058 106.1295997  34.7991965  10.9837890 102.9201464  33.0790821
  10.6135677 102.3672504  33.7671727  11.4796982 102.3159597  32.5265821
  18.8705253 105.3773087  31.4607594  19.3365705 106.2101079  31.3867897
  19.3212753 104.9118069  32.1652853  16.8421916  97.7453674  35.4998496
  15.9284995  97.9757901  35.6680702  17.2715017  97.8292118  36.3512528
  16.6128374 105.9343566  37.9998390  15.9599824 106.1819474  37.3450842
  16.9908754 105.1207704  37.6660867  12.6615947 106.6763377  44.4864427
  11.9856584 106.5757507  45.1566802  13.4843581 106.5202591  44.9500424
   6.3803223 100.3305455  39.3243927   6.4444550 101.1920285  38.9121325
   6.3170343  99.7179456  38.5916286   5.8555496 102.4028587  42.9716962
   6.4827535 102.0205664  43.5854486   4.9983415 102.1842789  43.3372654
   6.1615285 102.2861013  34.8862865   5.4401871 102.8996980  34.7470338
   6.9508541 102.8218778  34.8079511   8.9641599  99.6215439  41.1603517
   9.4876001  99.8677736  41.9229826   8.7453932 100.4535474  40.7406654
  10.1694144 100.5629134  38.8453187   9.8290964  99.7636947  39.2473867
   9.4633150 100.8630845  38.2730021  10.8210616  97.6478447  37.2980510
  11.6436685  97.1738925  37.1759401  11.0648679  98.4268931  37.7979197
  13.6049973 101.3811854  28.5301744  13.8213588 102.2636492  28.2290573
  13.1244040 100.9898068  27.8007386   8.3449195 104.3397567  35.1072489
   8.1993775 104.6537870  35.9996770   7.8674398 104.9582468  34.5543388
  10.2045578 101.3300115  35.1553379  10.1907146 100.4341209  34.8185676
  10.9218006 101.3370779  35.7891665  12.0571708 101.7637456  37.2006506
  11.7989486 102.6854526  37.1990836  11.5256749 101.3667890  37.8906970
   9.6082473 100.2114496  30.4240949   9.7298385  99.2831142  30.6231836
   9.3184516 100.2253182  29.5119264  12.4773664  97.8969406  33.5607669
  12.4995361  97.9608739  32.6059648  12.8941723  97.0573915  33.7548175
  22.8557288 107.6324666  31.5986891  23.2988434 106.8831991  31.2006014
  21.9783798 107.6234802  31.2160623   9.0923553 101.7246493  44.6330881
   9.1411708 102.6008616  44.2508651   9.6346067 101.1823886  44.0602524
  19.6976274 109.1180083  41.2264747  19.7474279 108.9530090  42.1680270
  19.5890197 108.2507342  40.8362628  16.9880036 105.1011011  42.5424054
  17.8889899 104.9617476  42.2508051  17.0628011 105.2665466  43.4822231
  11.3222841 102.4777865  41.3877240  10.4526151 102.7711432  41.1159828
  11.5582322 103.0618310  42.1084504  22.3990153 109.1029904  33.9909339
  23.2337044 109.5419708  34.1546899  22.5349282 108.6268557  33.1717584
  19.4481659 106.6609639  39.9386826  19.9235780 106.8537285  39.1305678
  18.5247224 106.7168825  39.6930210  14.0261875  98.6957482  38.9042660
  14.5443819  99.4318509  38.5789149  13.6717008  99.0021476  39.7389419
  14.2774469  95.1157765  34.4243557  14.5576223  94.4480954  35.0503983
  15.0625076  95.3086861  33.9118221  18.1483328 103.5375399  38.1715132
  19.1000751 103.6373497  38.1927356  17.9786778 102.7453667  38.6813216
  16.1697707 100.6230982  38.3574533  15.5747639 100.9035995  37.6621022
  15.8847404 101.1124883  39.1291274  20.6271406 106.7581519  37.2857432
  20.5947726 105.8197519  37.4717115  21.2372029 106.8365555  36.5523257
  20.7765894 103.5492562  37.3315715  20.2604943 102.7651019  37.1445644
  21.6605843 103.2211279  37.4962234  18.4376621  97.2933578  33.2911528
  18.2401442  96.9848666  34.1754859  19.0476327  98.0195217  33.4209457
  26.4447955 107.8197525  36.4263468  27.1751344 107.5582814  36.9871172
  25.8354901 107.0826247  36.4665536  24.5263253 105.9605388  37.0237920
  23.7996416 105.8261353  36.4154411  24.1110539 106.2682217  37.8294638
  12.2659719  98.0964438  29.4183762  11.4560448  97.7511523  29.7939008
  12.9544136  97.7871981  30.0071374  14.1950268  97.1742484  31.0408059
  14.7481306  97.5937938  31.6998082  14.4320354  96.2478233  31.0831015
  10.2183367 103.1629558  46.8210823  10.1180094 104.1123915  46.7522914
  10.0004909 102.8347797  45.9486893  17.5729075  99.2843010  30.5486723
  16.9927744  99.9427814  30.1664776  17.3065007  98.4620354  30.1374141
  16.0232641  98.6848067  32.7508043  16.5232419  98.7964602  31.9422362
  16.6668249  98.3809120  33.3908852  16.3553953 101.4443100  29.6043071
  15.4679808 101.7292751  29.3863266  16.7707942 101.2836863  28.7570348
  19.7068489 101.4689621  33.3197411  20.4828879 101.9586073  33.5922027
  18.9816623 101.8947675  33.7769280  22.1441047 102.1817240  34.3771351
  22.7385538 101.9412976  33.6664659  22.2167631 101.4624371  35.0044888
  16.3294976 106.9597636  29.8193362  16.2730178 107.4166187  28.9800994
  16.8823319 106.1988321  29.6416204  20.1399782 102.7487368  30.6443481
  19.8836717 102.3484003  31.4751689  19.5152650 103.4631162  30.5193620
  24.4512120 105.4883441  33.1514772  23.8911678 105.5576630  33.9246335
  23.8455624 105.3124426  32.4314269  17.0629756 108.1502417  27.1145891
  17.0078560 107.9846689  26.1734335  16.4375811 108.8578450  27.2708080
   1.8522271 103.3870482  40.9407313   2.4981134 102.8769436  41.4294538
   1.6439422 104.1239163  41.5150738  10.3725881  97.6510526  26.6931209
  10.3604551  98.5952366  26.8499480  11.2649303  97.4680672  26.3990670
  14.1878001  94.2453303  30.9477146  13.4210396  93.6911790  31.0933828
  14.5988706  94.3175172  31.8091298   6.1919762 100.5338099  45.0382327
   7.0551223 100.1774904  45.2485652   5.6185172 100.1951993  45.7257731
  25.6126386 111.3857797  37.8996837  25.2690656 112.2759439  37.8235948
  25.9805349 111.1959455  37.0366422  27.4114052 110.6451357  33.0014575
  27.7172929 109.7848720  32.7140490  28.1366657 111.2368977  32.8013569
  25.1168224 110.4449683  34.4243557  25.3969978 109.7772872  35.0503983
  25.9018831 110.6378778  33.9118221  29.2770375 112.6225495  33.2911528
  29.0795197 112.3140583  34.1754859  29.8870081 113.3487134  33.4209457
  25.0271755 109.5745221  30.9477146  24.2604151 109.0203707  31.0933828
  25.4382460 109.6467089  31.8091298   4.3554033  54.0100203  20.4188531
   3.6017741  53.4407601  20.2632535   4.4901574  53.9762867  21.3659165
   0.7202645  55.4508191  20.7154645   1.5549537  55.8897995  20.8792206
   0.8561774  54.9746844  19.8962891   4.7660448  54.1675813  23.1508775
   5.4963836  53.9061101  23.7116478   4.1567393  53.4304535  23.1910843
   2.8475745  52.3083675  23.7483226   2.1208908  52.1739640  23.1399718
   2.4323032  52.6160504  24.5539944   0.4653540  48.5295527  21.1016658
   1.0598031  48.2891263  20.3909966   0.5380123  47.8102658  21.7290194
   2.7724612  51.8361728  19.8760079   2.2124170  51.9054918  20.6491641
   2.1668116  51.6602713  19.1559575   4.3580631  68.5118242  22.5690035
   4.9959041  68.3924990  21.8653375   4.2401474  69.4599086  22.6277987
   1.1670337  68.4645670  22.5051560   0.8288849  68.3486735  21.6172094
   2.0360105  68.0636835  22.4852566   1.6490120  69.6180522  28.4637765
   1.6378761  69.2233320  27.5918269   1.8110760  68.8846595  29.0571537
   3.9121899  66.2369696  19.6443243   4.6984989  65.8189119  19.2933660
   4.1760604  67.1415788  19.8124891   9.3130327  66.1744929  20.5476221
  10.0455499  65.6044146  20.7814051   8.5569682  65.7866530  20.9882727
   0.9306446  68.5972171  17.7439564   0.5664654  68.0702792  18.4552485
   1.7873562  68.2070640  17.5706049   6.8355747  59.8866503  25.0070830
   6.5039072  60.7561914  24.7832045   6.2401360  59.5702787  25.6864860
   3.3287266  72.0879049  24.4066743   3.0287990  72.9904088  24.2982550
   2.9838326  71.8211233  25.2587896   6.7284410  64.6061590  22.0864180
   5.8201288  64.5376998  21.7922941   6.6772006  65.0833535  22.9146006
   8.5946057  62.8078028  23.8642054   7.9520437  63.1010561  23.2181849
   8.0900985  62.6930948  24.6695251   6.2486220  66.5541201  14.5527913
   7.1604076  66.7868588  14.3775611   5.7395867  67.1378245  13.9902992
   4.5326988  70.9765829  28.1889206   4.9410344  70.5348240  27.4443838
   3.8104249  70.4018457  28.4423399   0.8858058  65.9138436  25.5622763
   1.7319253  66.3377849  25.7057412   0.8256696  65.2572060  26.2561326
   4.8555803  71.5367020  21.9441495   4.2264665  71.7012734  21.2417563
   4.4681465  71.9508629  22.7152459   8.7345035  72.4721457  19.2985858
   8.0496073  72.8520359  18.7482892   8.8188884  73.0816784  20.0317806
   4.0357503  63.5742804  27.2203936   3.7918435  64.3284865  26.6838212
   4.3117434  63.9528152  28.0551183   5.9895966  70.1181416  25.8981202
   6.2012861  70.7613176  25.2215583   5.9425714  69.2843733  25.4303132
   3.5922195  62.7299237  22.8017774   2.7306674  63.0280491  23.0934512
   3.6184630  62.9469636  21.8698807   7.1041794  72.9953372  24.0703559
   7.9259238  72.5933559  23.7886241   7.1004197  72.8921606  25.0219675
  15.1947787  69.3392120  20.4188531  14.4411495  68.7699518  20.2632535
  15.3295328  69.3054785  21.3659165   2.2114892  74.8329089  30.2243592
   1.7678746  74.0465468  29.9064497   2.8732105  75.0208240  29.5587483
   4.3096130  75.1131889  28.2524993   4.2914605  75.9340770  27.7605263
   5.2316050  74.9885964  28.4775135   3.9338879  57.7336085  24.6242144
   3.5903148  58.6237726  24.5481254   4.3017841  57.5437742  23.7611729
   1.4836272  62.5694396  18.1899817   0.6277869  62.1801247  18.0105456
   1.8963224  62.6486357  17.3299603   3.0135419  60.1040740  22.5891377
   2.5100215  60.0670875  21.7759182   3.3066026  61.0133482  22.6488034
   8.8723436  70.4777050  15.0667752   8.0952878  70.1388210  14.6222914
   9.5514917  70.4829674  14.3922717   3.6875465  65.5971788  14.9574360
   3.3825600  65.9117937  15.8084503   4.6405907  65.6753208  15.0001693
   7.1114742  69.9511032  21.7234360   6.4538417  70.6410293  21.8114489
   7.9155142  70.3407464  22.0668347   5.9220201  68.3055404  19.7738302
   6.4352083  68.9385396  20.2760012   6.5721425  67.7056600  19.4081662
   2.4001032  65.7804860  22.0196642   1.4823594  66.0019807  21.8618331
   2.8161176  65.8551170  21.1608350   3.1836080  67.1796276  17.1499323
   3.9307899  67.6917673  16.8406445   3.4527669  66.8580328  18.0103716
   6.6881998  73.2861406  17.9017445   6.2344325  72.4452316  17.9582635
   6.0575964  73.9222804  18.2392225   5.6314917  64.2153392  19.1318112
   4.8937674  63.7030778  19.4628355   5.8841691  63.7753773  18.3201389
   5.1314937  75.1237902  18.8367263   5.4237911  75.6842960  18.1179628
   5.6413557  75.4166463  19.5920422   5.7326544  56.9929644  19.7259881
   6.0385421  56.1327007  19.4385796   6.4579149  57.5847264  19.5258875
   3.5414196  66.3702321  26.8241345   3.8963583  66.5973794  27.6835811
   4.1886327  66.7020698  26.2018600   9.2711933  69.4920757  17.5290674
   9.1329831  69.6822353  16.6011863   8.9148151  70.2540140  17.9858725
   9.2981312  71.5597284  22.5401946   9.7317819  71.4672573  23.3885000
  10.0112893  71.5354784  21.9021962   3.0309207  75.1599378  24.0735046
   3.0846229  75.7290314  24.8412762   2.1623989  75.3301263  23.7089083
  10.1596862  71.6020985  25.0734831  10.3532752  72.5066795  25.3194106
  10.0597480  71.1428404  25.9073416   1.8133173  61.4878875  27.5725158
   1.1661088  62.1868825  27.4789635   2.5834188  61.9215019  27.9401407
   5.2211971  71.7527727  30.6475712   5.0697477  71.5238279  29.7305795
   5.2116650  72.7098329  30.6607057   1.9897307  69.3259640  25.6321978
   2.9189367  69.4770800  25.4590945   1.5688337  69.4143661  24.7770625
   2.3390854  72.7291907  20.7909354   2.0040686  72.6892677  21.6867003
   1.8394800  72.0636623  20.3179764   6.9304177  74.7846850  28.7252194
   6.8716723  74.1006070  28.0582777   7.3323696  75.5265840  28.2732820
   6.9321584  72.7486434  26.9566173   6.0448363  72.4112356  27.0792572
   7.5020135  72.0169465  27.1934939   3.5609168  62.4554286  20.0764443
   4.0577867  61.7024248  19.7565514   2.7896149  62.4918602  19.5107653
  11.4138925  68.1594651  21.7182735  11.4028801  69.0419367  21.3476668
  10.5456304  67.8066202  21.5237272   2.9221421  77.3074720  26.0785575
   3.6349394  77.9422185  26.0061477   2.4311450  77.4038586  25.2625577
   4.6438948  71.2125973  17.6502867   3.7095227  71.3327435  17.4807571
   4.8215617  70.3098440  17.3862877   8.0311500  67.0543292  18.1852901
   8.4971952  67.8871284  18.1113204   8.4819000  66.5888274  18.8898159
   6.0987731  73.3987113  15.1839053   6.3747575  73.2843708  16.0932927
   5.2292229  73.0004598  15.1451226   6.0028162  59.4223879  22.2243802
   5.0891242  59.6528106  22.3926009   6.4321264  59.5062323  23.0757835
   5.7734621  67.6113771  24.7243696   5.1206071  67.8589679  24.0696149
   6.1515001  66.7977909  24.3906174   1.8222194  68.3533582  31.2109733
   1.1462831  68.2527712  31.8812109   2.6449828  68.1972796  31.6745731
   0.5644977  79.6600510  25.4467349   1.1163285  79.8232131  26.2116435
   0.9051170  80.2504947  24.7747374   5.4155851  74.4861767  31.3016004
   5.9595755  75.0991725  30.8070959   4.8342696  75.0441346  31.8183017
   3.7013364  77.6082485  22.4331031   3.5764503  76.8072225  21.9241977
   4.3592455  78.1028679  21.9445001   5.7648272  75.4091505  24.0610582
   4.8178608  75.2896856  23.9888908   6.1131046  74.5214003  24.1436843
   2.7694706  75.2044221  20.2614934   2.6219668  74.2760929  20.4422504
   3.5948199  75.2264312  19.7772009   6.3728828  76.0272780  21.3479807
   7.2975375  75.8215642  21.2104258   6.2044131  75.7789181  22.2569148
   2.7656220  63.0582059  15.2547051   2.9819834  63.9406697  14.9535879
   2.2850287  62.6668273  14.5252693   1.2177955  63.4407661  23.9251813
   0.9595733  64.3624731  23.9236143   0.6862995  63.0438095  24.6152277
   6.1624144  76.5458448  16.7041898   6.3361021  75.9804870  15.9515750
   6.6553035  77.3459343  16.5221388   1.6379911  59.5739611  20.2852975
   1.6601607  59.6378944  19.3304955   2.0547970  58.7344120  20.4793481
  12.0163535  69.3094871  18.3232198  12.4594681  68.5602196  17.9251321
  11.1390045  69.3005007  17.9405930   9.0490739  73.3124918  15.3326127
   9.5742063  73.6512190  14.6075447   8.9613092  72.3771933  15.1489262
   0.7110788  77.2258991  27.4616004   1.0197915  76.9808138  28.3338703
   1.5086270  77.4305630  26.9734874   8.7384645  73.9457821  30.6377325
   7.9480189  73.9281960  30.0981824   8.5018000  74.4846115  31.3926362
   8.8582520  70.7950288  27.9510054   8.9080525  70.6300295  28.8925576
   8.7496444  69.9277547  27.5607934   6.1486283  66.7781216  29.2669360
   7.0496146  66.6387680  28.9753358   6.2234257  66.9435670  30.2067538
  10.3600717  73.2147229  28.1952075  10.0685526  73.5777210  29.0315536
   9.7472849  72.5014237  28.0165407  11.5596400  70.7800109  20.7154645
  12.3943291  71.2189913  20.8792206  11.6955528  70.3038762  19.8962891
   8.6087906  68.3379844  26.6632133   9.0842027  68.5307490  25.8550984
   7.6853471  68.3939030  26.4175517   3.1868122  60.3727687  25.6287967
   3.7050066  61.1088714  25.3034456   2.8323255  60.6791681  26.4634726
   3.4380716  56.7927970  21.1488864   3.7182470  56.1251159  21.7749290
   4.2231323  56.9857065  20.6363527   7.3089575  65.2145604  24.8960439
   8.2606997  65.3143701  24.9172663   7.1393025  64.4223872  25.4058523
   5.3303954  62.3001187  25.0819840   4.7353886  62.5806200  24.3866328
   5.0453651  62.7895088  25.8536581   9.7877652  68.4351724  24.0102738
   9.7553972  67.4967724  24.1962422  10.3978276  68.5135760  23.2768563
   9.9372141  65.2262767  24.0561022   9.4211189  64.4421224  23.8690950
  10.8212089  64.8981484  24.2207541   7.5982868  58.9703783  20.0156834
   7.4007689  58.6618871  20.9000166   8.2082573  59.6965421  20.1454764
  15.6054202  69.4967730  23.1508775  16.3357591  69.2353018  23.7116478
  14.9961148  68.7596452  23.1910843  13.6869499  67.6375593  23.7483226
  12.9602663  67.5031558  23.1399718  13.2716786  67.9452422  24.5539944
   1.5099676  71.3565523  31.5130599   2.4302685  71.5344122  31.7070646
   1.4749259  70.4121568  31.3610299   1.4265966  59.7734643  16.1429069
   0.6166694  59.4281728  16.5184315   2.1150383  59.4642186  16.7316680
   3.3556514  58.8512689  17.7653366   3.9087553  59.2708143  18.4243389
   3.5926601  57.9248438  17.8076322   6.7335321  60.9613215  17.2732030
   6.1533991  61.6198019  16.8910082   6.4671254  60.1390559  16.8619447
   5.1838888  60.3618272  19.4753350   5.6838666  60.4734807  18.6667669
   5.8274496  60.0579325  20.1154159   5.5160199  63.1213305  16.3288378
   4.6286055  63.4062956  16.1108573   5.9314189  62.9607068  15.4815655
   8.8674736  63.1459826  20.0442717   9.6435126  63.6356278  20.3167334
   8.1422870  63.5717880  20.5014587  11.3047294  63.8587445  21.1016658
  11.8991785  63.6183181  20.3909966  11.3773878  63.1394576  21.7290194
   5.4901223  68.6367841  16.5438668   5.4336425  69.0936392  15.7046301
   6.0429566  67.8758525  16.3661511   9.3006029  64.4257573  17.3688788
   9.0442963  64.0254208  18.1996995   8.6758897  65.1401367  17.2438927
  13.6118367  67.1653646  19.8760079  13.0517925  67.2346835  20.6491641
  13.0061870  66.9894631  19.1559575   6.2236003  69.8272622  13.8391197
   6.1684806  69.6616894  12.8979641   5.5982058  70.5348655  13.9953387
   3.5381910  72.1321534  33.1644760   4.4073069  72.3062186  32.8031395
   3.0588661  72.9515951  33.0420490   3.3484247  55.9223508  17.6722453
   2.5816643  55.3681994  17.8179135   3.7594952  55.9945377  18.5336604
  15.1974385  83.8410160  22.5690035  15.8352795  83.7216907  21.8653375
  15.0795228  84.7891004  22.6277987  12.0064092  83.7937588  22.5051560
  11.6682603  83.6778653  21.6172094  12.8753860  83.3928753  22.4852566
  12.4883875  84.9472440  28.4637765  12.4772515  84.5525238  27.5918269
  12.6504514  84.2138512  29.0571537   9.2091136  87.7309552  27.4116949
   8.9181002  88.6355182  27.2963615   9.8448120  87.7726079  28.1261019
  10.1347343  85.1086400  24.0018309  10.7310915  84.8842422  23.2875272
  10.1922314  84.3671146  24.6043757  14.7515654  81.5661614  19.6443243
  15.5378743  81.1481037  19.2933660  15.0154358  82.4707706  19.8124891
  20.1524081  81.5036847  20.5476221  20.8849253  80.9336064  20.7814051
  19.3963437  81.1158447  20.9882727  11.7700201  83.9264088  17.7439564
  11.4058408  83.3994709  18.4552485  12.6267317  83.5362558  17.5706049
  17.6749501  75.2158421  25.0070830  17.3432826  76.0853832  24.7832045
  17.0795115  74.8994705  25.6864860  14.1681021  87.4170967  24.4066743
  13.8681744  88.3196006  24.2982550  13.8232080  87.1503150  25.2587896
   7.6193502  83.8684764  20.4403447   6.6943999  83.7360978  20.6481139
   7.8677916  84.6478983  20.9373390  17.5678165  79.9353507  22.0864180
  16.6595042  79.8668916  21.7922941  17.5165761  80.4125452  22.9146006
  11.6419031  81.3543153  30.0299077  10.8652365  81.9137073  30.0201942
  12.2809594  81.8399936  30.5513947  19.4339811  78.1369946  23.8642054
  18.7914191  78.4302479  23.2181849  18.9294740  78.0222866  24.6695251
  17.0879975  81.8833119  14.5527913  17.9997831  82.1160506  14.3775611
  16.5789622  82.4670163  13.9902992   9.8965403  84.1628606  29.5917044
  10.6380087  84.7013650  29.3151868   9.1902388  84.7894895  29.7488596
  15.3720742  86.3057747  28.1889206  15.7804098  85.8640157  27.4443838
  14.6498004  85.7310374  28.4423399  11.7251812  81.2430353  25.5622763
  12.5713008  81.6669767  25.7057412  11.6650450  80.5863978  26.2561326
  15.6949557  86.8658937  21.9441495  15.0658420  87.0304651  21.2417563
  15.3075219  87.2800547  22.7152459  19.5738789  87.8013375  19.2985858
  18.8889827  88.1812277  18.7482892  19.6582638  88.4108702  20.0317806
  14.8751258  78.9034722  27.2203936  14.6312190  79.6576782  26.6838212
  15.1511188  79.2820069  28.0551183  16.8289721  85.4473334  25.8981202
  17.0406616  86.0905094  25.2215583  16.7819469  84.6135651  25.4303132
  14.4315950  78.0591155  22.8017774  13.5700429  78.3572408  23.0934512
  14.4578384  78.2761554  21.8698807  11.2477519  86.6033345  19.2091580
  11.7115865  86.8821048  18.4196202  10.9834317  85.7016790  19.0264670
   8.1401600  86.1504827  22.1471343   8.7102957  86.5792095  21.5088828
   8.7309712  85.8687412  22.8455529   8.6326767  81.3168254  30.3932354
   8.0025427  81.9984535  30.6267751   8.5262854  81.2051336  29.4485493
  17.9435549  88.3245290  24.0703559  18.7652992  87.9225477  23.7886241
  17.9397951  88.2213524  25.0219675  11.7092152  87.8729333  26.2264270
  11.7736585  88.3349740  27.0622442  11.0003076  87.2426698  26.3546580
   2.2109442  81.2370541  23.7513269   2.4617480  82.1217551  24.0170845
   2.7468990  81.0575142  22.9788361  26.0341542  84.6684038  20.4188531
  25.2805250  84.0991436  20.2632535  26.1689083  84.6346703  21.3659165
   7.9107509  75.6189020  32.7557605   7.5174455  75.0655219  33.4305250
   8.7273650  75.9299599  33.1464123  10.8275470  77.0346899  30.3477862
  11.5685184  77.6354052  30.2682324  11.0593393  76.2924537  29.7895904
   5.9716808  82.2203267  28.6256092   5.8570323  81.3188524  28.9263191
   5.1161326  82.4666963  28.2740908  13.0508646  90.1621007  30.2243592
  12.6072500  89.3757385  29.9064497  13.7125860  90.3500157  29.5587483
   7.8095767  91.6916808  24.7504271   8.3603192  91.5633872  23.9781265
   6.9707243  91.9911698  24.3999164  15.1489884  90.4423807  28.2524993
  15.1308359  91.2632688  27.7605263  16.0709804  90.3177882  28.4775135
  11.6062938  87.9567936  29.0948502  12.1391275  87.1956224  28.8647810
  11.0777019  87.6641588  29.8372656  14.7732633  73.0628002  24.6242144
  14.4296903  73.9529644  24.5481254  15.1411596  72.8729660  23.7611729
  12.3230027  77.8986314  18.1899817  11.4671623  77.5093165  18.0105456
  12.7356979  77.9778275  17.3299603  13.8529174  75.4332657  22.5891377
  13.3493969  75.3962793  21.7759182  14.1459780  76.3425400  22.6488034
  10.0972059  75.5171387  21.5957559  10.9625056  75.3214196  21.2363448
  10.1649568  75.2881739  22.5226915  19.7117190  85.8068968  15.0667752
  18.9346633  85.4680128  14.6222914  20.3908671  85.8121591  14.3922717
  14.5269219  80.9263705  14.9574360  14.2219355  81.2409855  15.8084503
  15.4799661  81.0045125  15.0001693  17.9508497  85.2802949  21.7234360
  17.2932171  85.9702211  21.8114489  18.7548896  85.6699381  22.0668347
   7.7034379  77.7473595  18.9673925   8.2778130  77.5248777  18.2347118
   8.2905361  77.8162290  19.7202527  16.7613956  83.6347322  19.7738302
  17.2745838  84.2677314  20.2760012  17.4115180  83.0348517  19.4081662
  10.0057046  74.6214844  17.6948995   9.3521459  74.3063861  17.0705610
   9.9637520  73.9990584  18.4208818  13.2394787  81.1096778  22.0196642
  12.3217348  81.3311725  21.8618331  13.6554930  81.1843088  21.1608350
  14.0229834  82.5088193  17.1499323  14.7701653  83.0209590  16.8406445
  14.2921424  82.1872246  18.0103716  17.5275752  88.6153323  17.9017445
  17.0738079  87.7744233  17.9582635  16.8969719  89.2514722  18.2392225
  16.4708672  79.5445309  19.1318112  15.7331428  79.0322696  19.4628355
  16.7235445  79.1045691  18.3201389  15.9708691  90.4529820  18.8367263
  16.2631666  91.0134877  18.1179628  16.4807312  90.7458381  19.5920422
  16.5720299  72.3221561  19.7259881  16.8779176  71.4618925  19.4385796
  17.2972904  72.9139182  19.5258875  10.8441379  82.6175355  20.2336072
  10.8989988  81.6649191  20.1578549  10.0332581  82.7734794  20.7177371
   8.7833739  81.2352414  17.9926451   7.9701604  81.5346585  18.3991643
   9.2792733  80.8408103  18.7100933  14.3807950  81.6994239  26.8241345
  14.7357338  81.9265712  27.6835811  15.0280081  82.0312616  26.2018600
  20.1105687  84.8212675  17.5290674  19.9723586  85.0114271  16.6011863
  19.7541906  85.5832057  17.9858725   8.2747813  78.8070770  23.6087686
   8.9147193  78.6659529  22.9110649   7.4425344  78.5205283  23.2326288
  20.1375067  86.8889202  22.5401946  20.5711573  86.7964491  23.3885000
  20.8506647  86.8646702  21.9021962  13.8702962  90.4891296  24.0735046
  13.9239984  91.0582232  24.8412762  13.0017743  90.6593181  23.7089083
   5.2776430  78.7771095  18.3860673   5.5383247  79.6916428  18.2769833
   6.0993602  78.3095537  18.5357286   6.7501355  80.1908852  25.5559497
   7.4224408  79.9826214  24.9072146   5.9231142  79.9930938  25.1164730
  20.9990616  86.9312902  25.0734831  21.1926506  87.8358713  25.3194106
  20.8991234  86.4720321  25.9073416  12.6526927  76.8170793  27.5725158
  12.0054842  77.5160743  27.4789635  13.4227942  77.2506937  27.9401407
  16.0605725  87.0819645  30.6475712  15.9091231  86.8530197  29.7305795
  16.0510404  88.0390246  30.6607057  12.8291061  84.6551558  25.6321978
  13.7583121  84.8062717  25.4590945  12.4082091  84.7435579  24.7770625
  11.6279393  88.6802222  23.4020516  11.4890479  88.3121007  24.2746454
  10.8393989  89.1949862  23.2304474  13.1784608  88.0583825  20.7909354
  12.8434441  88.0184595  21.6867003  12.6788554  87.3928541  20.3179764
   7.1528852  83.4651455  26.3161935   7.0148650  82.7331694  26.9173474
   8.0633776  83.3760355  26.0346122   9.7811153  83.1771414  25.8045614
  10.4910771  82.5364606  25.7632233   9.7380461  83.4284309  26.7271795
  17.7697932  90.1138768  28.7252194  17.7110478  89.4297988  28.0582777
  18.1717450  90.8557758  28.2732820   8.4940087  80.1636632  27.6241254
   7.9577444  79.7127371  28.2762850   7.9056795  80.2982541  26.8811718
  17.7715339  88.0778352  26.9566173  16.8842118  87.7404273  27.0792572
  18.3413890  87.3461383  27.1934939   4.2279208  79.2992640  24.7094248
   4.1437397  78.6918309  23.9744658   3.4061915  79.7901658  24.7103745
  11.3016492  92.7379804  23.9227416  11.2286664  93.5434775  24.4346721
  10.8593885  92.9371770  23.0975438  14.4002922  77.7846203  20.0764443
  14.8971622  77.0316166  19.7565514  13.6289904  77.8210520  19.5107653
  22.2532679  83.4886569  21.7182735  22.2422556  84.3711284  21.3476668
  21.3850059  83.1358120  21.5237272  13.7615176  92.6366638  26.0785575
  14.4743148  93.2714103  26.0061477  13.2705204  92.7330504  25.2625577
  15.4832703  86.5417891  17.6502867  14.5488981  86.6619353  17.4807571
  15.6609371  85.6390357  17.3862877  10.9837891  79.9263586  19.8036128
  10.6135678  79.3734627  20.4917034  11.4796983  79.3221720  19.2511128
  18.8705254  82.3835210  18.1852901  19.3365706  83.2163201  18.1113204
  19.3212755  81.9180191  18.8898159   8.8127089  90.3861081  26.8991146
   9.5136549  91.0197564  27.0520540   8.3422204  90.7275813  26.1386785
  16.9381485  88.7279031  15.1839053  17.2141329  88.6135626  16.0932927
  16.0685984  88.3296516  15.1451226  16.8421917  74.7515797  22.2243802
  15.9284997  74.9820024  22.3926009  17.2715018  74.8354241  23.0757835
  16.6128375  82.9405689  24.7243696  15.9599826  83.1881596  24.0696149
  16.9908755  82.1269827  24.3906174  12.6615948  83.6825500  31.2109733
  11.9856585  83.5819629  31.8812109  13.4843582  83.5264714  31.6745731
  11.4038731  94.9892427  25.4467349  11.9557039  95.1524049  26.2116435
  11.7444925  95.5796865  24.7747374   6.3803224  77.3367577  26.0489234
   6.4444551  78.1982408  25.6366632   6.3170345  76.7241579  25.3161593
   5.8555497  79.4090710  29.6962268   6.4827536  79.0267787  30.3099793
   4.9983416  79.1904912  30.0617961  16.2549606  89.8153685  31.3016004
  16.7989510  90.4283643  30.8070959  15.6736450  90.3733263  31.8183017
  14.5407119  92.9374403  22.4331031  14.4158258  92.1364143  21.9241977
  15.1986210  93.4320596  21.9445001   6.1615287  79.2923135  21.6108172
   5.4401873  79.9059103  21.4715645   6.9508543  79.8280900  21.5324818
  16.6042027  90.7383423  24.0610582  15.6572362  90.6188774  23.9888908
  16.9524800  89.8505921  24.1436843   8.9641600  76.6277562  27.8848823
   9.4876002  76.8739858  28.6475133   8.7453934  77.4597597  27.4651961
  13.6088460  90.5336139  20.2614934  13.4613423  89.6052847  20.4422504
  14.4341954  90.5556230  19.7772009  17.2122582  91.3564698  21.3479807
  18.1369130  91.1507559  21.2104258  17.0437885  91.1081099  22.2569148
  10.1694145  77.5691257  25.5698494   9.8290966  76.7699070  25.9719174
   9.4633152  77.8692968  24.9975327  10.8210617  74.6540569  24.0225817
  11.6436686  74.1801048  23.9004707  11.0648681  75.4331053  24.5224503
  13.6049975  78.3873977  15.2547051  13.8213589  79.2698615  14.9535879
  13.1244042  77.9960190  14.5252693   8.3449196  81.3459690  21.8317796
   8.1993777  81.6599993  22.7242077   7.8674400  81.9644590  21.2788694
  10.2045579  78.3362238  21.8798685  10.1907148  77.4403331  21.5430983
  10.9218007  78.3432902  22.5136971  12.0571709  78.7699578  23.9251813
  11.7989487  79.6916649  23.9236143  11.5256750  78.3730013  24.6152277
  17.0017898  91.8750365  16.7041898  17.1754776  91.3096788  15.9515750
  17.4946789  92.6751260  16.5221388   2.8194858  83.8865034  24.7705457
   2.2748326  84.6624842  24.9025731   3.6974208  84.2335839  24.6124578
   9.6082475  77.2176618  17.1486255   9.7298386  76.2893264  17.3477143
   9.3184517  77.2315304  16.2364571  12.4773665  74.9031529  20.2852975
  12.4995362  74.9670862  19.3304955  12.8941724  74.0636037  20.4793481
  22.8557289  84.6386788  18.3232198  23.2988435  83.8894113  17.9251321
  21.9783800  84.6296925  17.9405930   3.6060880  83.0134931  27.6635614
   2.8642616  83.1617566  28.2500244   3.2853624  83.2743196  26.8002363
  19.8884494  88.6416835  15.3326127  20.4135818  88.9804108  14.6075447
  19.8006846  87.7063851  15.1489262  11.5504543  92.5550909  27.4616004
  11.8591669  92.3100056  28.3338703  12.3480025  92.7597547  26.9734874
   9.0923554  78.7308616  31.3576188   9.1411710  79.6070738  30.9753958
   9.6346068  78.1886009  30.7847831  19.5778400  89.2749739  30.6377325
  18.7873944  89.2573878  30.0981824  19.3411754  89.8138033  31.3926362
  19.6976275  86.1242205  27.9510054  19.7474280  85.9592213  28.8925576
  19.5890198  85.2569464  27.5607934  16.9880037  82.1073133  29.2669360
  17.8889900  81.9679598  28.9753358  17.0628012  82.2727588  30.2067538
  11.3222843  79.4839988  28.1122547  10.4526152  79.7773554  27.8405135
  11.5582323  80.0680433  28.8329810  21.1994472  88.5439147  28.1952075
  20.9079280  88.9069127  29.0315536  20.5866603  87.8306155  28.0165407
  22.3990154  86.1092027  20.7154645  23.2337046  86.5481831  20.8792206
  22.5349283  85.6330680  19.8962891  19.4481660  83.6671761  26.6632133
  19.9235782  83.8599408  25.8550984  18.5247225  83.7230947  26.4175517
  14.0261877  75.7019605  25.6287967  14.5443820  76.4380632  25.3034456
  13.6717009  76.0083598  26.4634726  14.2774471  72.1219888  21.1488864
  14.5576224  71.4543077  21.7749290  15.0625078  72.3148983  20.6363527
  18.1483329  80.5437522  24.8960439  19.1000752  80.6435619  24.9172663
  17.9786779  79.7515790  25.4058523  16.1697709  77.6293105  25.0819840
  15.5747641  77.9098117  24.3866328  15.8847405  78.1187006  25.8536581
  20.6271407  83.7643641  24.0102738  20.5947727  82.8259642  24.1962422
  21.2372030  83.8427678  23.2768563  20.7765895  80.5554685  24.0561022
  20.2604944  79.7713141  23.8690950  21.6605844  80.2273401  24.2207541
  18.4376622  74.2995700  20.0156834  18.2401443  73.9910788  20.9000166
  19.0476328  75.0257339  20.1454764  26.4447957  84.8259648  23.1508775
  27.1751345  84.5644936  23.7116478  25.8354902  84.0888370  23.1910843
  24.5263254  82.9667511  23.7483226  23.7996417  82.8323476  23.1399718
  24.1110541  83.2744339  24.5539944  12.3493430  86.6857440  31.5130599
  13.2696440  86.8636039  31.7070646  12.3143013  85.7413486  31.3610299
   5.3455503  84.5958475  24.1553381   5.5641513  85.5275583  24.1741414
   5.7581277  84.2366449  24.9408184  12.2659721  75.1026560  16.1429069
  11.4560449  74.7573645  16.5184315  12.9544138  74.7934104  16.7316680
  14.1950269  74.1804607  17.7653366  14.7481307  74.6000061  18.4243389
  14.4320355  73.2540355  17.8076322  10.2183368  80.1691681  33.5456129
  10.1180095  81.1186038  33.4768221  10.0004910  79.8409920  32.6732200
  17.5729076  76.2905132  17.2732030  16.9927745  76.9489936  16.8910082
  17.3065009  75.4682477  16.8619447  16.0232642  75.6910190  19.4753350
  16.5232421  75.8026724  18.6667669  16.6668250  75.3871243  20.1154159
  10.0814638  83.5988820  32.3621191   9.5981720  84.3989180  32.5685080
  10.1675577  83.6096764  31.4088635   6.0087976  87.4893354  24.3989625
   6.9631229  87.4577297  24.3319556   5.8100499  87.0283978  25.2139851
   6.5987358  86.0594470  26.9660423   7.4180247  86.5538549  26.9895260
   6.8724165  85.1426438  26.9377990  16.3553954  78.4505223  16.3288378
  15.4679809  78.7354873  16.1108573  16.7707943  78.2898986  15.4815655
  19.7068490  78.4751744  20.0442717  20.4828880  78.9648196  20.3167334
  18.9816624  78.9009798  20.5014587  22.1441049  79.1879363  21.1016658
  22.7385540  78.9475099  20.3909966  22.2167632  78.4686493  21.7290194
  16.3294978  83.9659759  16.5438668  16.2730179  84.4228310  15.7046301
  16.8823320  83.2050443  16.3661511  20.1399784  79.7549490  17.3688788
  19.8836718  79.3546126  18.1996995  19.5152652  80.4693284  17.2438927
  24.4512121  82.4945564  19.8760079  23.8911679  82.5638753  20.6491641
  23.8455625  82.3186548  19.1559575  17.0629757  85.1564540  13.8391197
  17.0078561  84.9908811  12.8979641  16.4375812  85.8640573  13.9953387
   1.8522272  80.3932604  27.6652620   2.4981136  79.8831558  28.1539845
   1.6439423  81.1301286  28.2396045  14.3775664  87.4613452  33.1644760
  15.2466824  87.6354104  32.8031395  13.8982416  88.2807868  33.0420490
  10.3725882  74.6572649  13.4176516  10.3604552  75.6014489  13.5744787
  11.2649304  74.4742794  13.1235977   8.5461844  94.5810553  24.8434194
   9.4489091  94.6134163  25.1600689   8.3199214  93.6511004  24.8580530
  14.1878002  71.2515425  17.6722453  13.4210398  70.6973912  17.8179135
  14.5988707  71.3237294  18.5336604   6.1919763  77.5400221  31.7627634
   7.0551225  77.1837026  31.9730958   5.6185174  77.2014116  32.4503038
  26.0368140  99.1702078  22.5690035  26.6746550  99.0508825  21.8653375
  25.9188983 100.1182922  22.6277987  22.8457846  99.1229506  22.5051560
  22.5076358  99.0070570  21.6172094  23.7147614  98.7220671  22.4852566
  23.3277629 100.2764357  28.4637765  23.3166270  99.8817156  27.5918269
  23.4898269  99.5430430  29.0571537  20.0484890 103.0601469  27.4116949
  19.7574756 103.9647100  27.2963615  20.6841875 103.1017997  28.1261019
  20.9741097 100.4378318  24.0018309  21.5704669 100.2134340  23.2875272
  21.0316069  99.6963063  24.6043757  25.5909408  96.8953531  19.6443243
  26.3772498  96.4772955  19.2933660  25.8548113  97.7999624  19.8124891
  30.9917836  96.8328765  20.5476221  31.7243007  96.2627981  20.7814051
  30.2357191  96.4450365  20.9882727  22.6093955  99.2556006  17.7439564
  22.2452162  98.7286627  18.4552485  23.4661071  98.8654475  17.5706049
  28.5143256  90.5450339  25.0070830  28.1826581  91.4145750  24.7832045
  27.9188869  90.2286623  25.6864860  25.0074775 102.7462885  24.4066743
  24.7075499 103.6487924  24.2982550  24.6625835 102.4795068  25.2587896
  18.4587257  99.1976682  20.4403447  17.5337753  99.0652896  20.6481139
  18.7071670  99.9770901  20.9373390  28.4071919  95.2645425  22.0864180
  27.4988797  95.1960833  21.7922941  28.3559515  95.7417370  22.9146006
  22.4812785  96.6835071  30.0299077  21.7046119  97.2428991  30.0201942
  23.1203348  97.1691854  30.5513947  30.2733566  93.4661863  23.8642054
  29.6307946  93.7594396  23.2181849  29.7688494  93.3514784  24.6695251
  27.9273729  97.2125037  14.5527913  28.8391585  97.4452423  14.3775611
  27.4183376  97.7962081  13.9902992  20.7359157  99.4920524  29.5917044
  21.4773842 100.0305568  29.3151868  20.0296143 100.1186813  29.7488596
  26.2114497 101.6349664  28.1889206  26.6197853 101.1932075  27.4443838
  25.4891758 101.0602292  28.4423399  22.5645567  96.5722271  25.5622763
  23.4106762  96.9961685  25.7057412  22.5044205  95.9155895  26.2561326
  26.5343312 102.1950855  21.9441495  25.9052174 102.3596569  21.2417563
  26.1468974 102.6092465  22.7152459  30.4132543 103.1305293  19.2985858
  29.7283582 103.5104194  18.7482892  30.4976393 103.7400619  20.0317806
  25.7145012  94.2326639  27.2203936  25.4705944  94.9868700  26.6838212
  25.9904943  94.6111987  28.0551183  27.6683475 100.7765252  25.8981202
  27.8800370 101.4197012  25.2215583  27.6213223  99.9427568  25.4303132
  25.2709704  93.3883072  22.8017774  24.4094183  93.6864326  23.0934512
  25.2972139  93.6053471  21.8698807  22.0871273 101.9325263  19.2091580
  22.5509619 102.2112966  18.4196202  21.8228072 101.0308708  19.0264670
  18.9795355 101.4796745  22.1471343  19.5496712 101.9084013  21.5088828
  19.5703466 101.1979329  22.8455529  19.4720521  96.6460172  30.3932354
  18.8419182  97.3276453  30.6267751  19.3656609  96.5343254  29.4485493
  28.7829303 103.6537207  24.0703559  29.6046747 103.2517395  23.7886241
  28.7791706 103.5505441  25.0219675  22.5485906 103.2021251  26.2264270
  22.6130339 103.6641658  27.0622442  21.8396830 102.5718615  26.3546580
  13.0503196  96.5662459  23.7513269  13.3011235  97.4509468  24.0170845
  13.5862745  96.3867060  22.9788361  36.8735296  99.9975956  20.4188531
  36.1199004  99.4283354  20.2632535  37.0082837  99.9638620  21.3659165
  18.7501264  90.9480938  32.7557605  18.3568209  90.3947136  33.4305250
  19.5667404  91.2591516  33.1464123  21.6669225  92.3638817  30.3477862
  22.4078938  92.9645970  30.2682324  21.8987148  91.6216455  29.7895904
  16.8110563  97.5495184  28.6256092  16.6964078  96.6480441  28.9263191
  15.9555081  97.7958881  28.2740908  23.8902401 105.4912925  30.2243592
  23.4466255 104.7049303  29.9064497  24.5519614 105.6792075  29.5587483
  18.6489522 107.0208726  24.7504271  19.1996947 106.8925790  23.9781265
  17.8100998 107.3203615  24.3999164  25.9883639 105.7715724  28.2524993
  25.9702114 106.5924606  27.7605263  26.9103559 105.6469800  28.4775135
  22.4456693 103.2859854  29.0948502  22.9785030 102.5248142  28.8647810
  21.9170774 102.9933506  29.8372656  25.6126388  88.3919920  24.6242144
  25.2690657  89.2821562  24.5481254  25.9805350  88.2021578  23.7611729
  23.1623781  93.2278232  18.1899817  22.3065378  92.8385082  18.0105456
  23.5750733  93.3070193  17.3299603  24.6922928  90.7624575  22.5891377
  24.1887724  90.7254710  21.7759182  24.9853535  91.6717318  22.6488034
  20.9365814  90.8463305  21.5957559  21.8018811  90.6506113  21.2363448
  21.0043323  90.6173657  22.5226915  30.5510945 101.1360886  15.0667752
  29.7740387 100.7972045  14.6222914  31.2302426 101.1413509  14.3922717
  25.3662974  96.2555623  14.9574360  25.0613109  96.5701772  15.8084503
  26.3193416  96.3337043  15.0001693  28.7902251 100.6094867  21.7234360
  28.1325926 101.2994128  21.8114489  29.5942651 100.9991299  22.0668347
  18.5428133  93.0765513  18.9673925  19.1171885  92.8540694  18.2347118
  19.1299115  93.1454207  19.7202527  27.6007710  98.9639240  19.7738302
  28.1139592  99.5969231  20.2760012  28.2508934  98.3640435  19.4081662
  20.8450801  89.9506762  17.6948995  20.1915213  89.6355779  17.0705610
  20.8031275  89.3282502  18.4208818  24.0788541  96.4388695  22.0196642
  23.1611103  96.6603642  21.8618331  24.4948685  96.5135006  21.1608350
  24.8623589  97.8380111  17.1499323  25.6095408  98.3501508  16.8406445
  25.1315178  97.5164164  18.0103716  28.3669506 103.9445241  17.9017445
  27.9131834 103.1036151  17.9582635  27.7363473 104.5806639  18.2392225
  27.3102426  94.8737227  19.1318112  26.5725183  94.3614613  19.4628355
  27.5629200  94.4337609  18.3201389  26.8102446 105.7821738  18.8367263
  27.1025420 106.3426795  18.1179628  27.3201066 106.0750299  19.5920422
  27.4114053  87.6513479  19.7259881  27.7172930  86.7910843  19.4385796
  28.1366658  88.2431099  19.5258875  21.6835133  97.9467272  20.2336072
  21.7383743  96.9941109  20.1578549  20.8726335  98.1026711  20.7177371
  19.6227493  96.5644332  17.9926451  18.8095359  96.8638502  18.3991643
  20.1186487  96.1700021  18.7100933  25.2201705  97.0286156  26.8241345
  25.5751092  97.2557630  27.6835811  25.8673836  97.3604533  26.2018600
  30.9499442 100.1504592  17.5290674  30.8117340 100.3406188  16.6011863
  30.5935660 100.9123975  17.9858725  19.1141568  94.1362687  23.6087686
  19.7540947  93.9951447  22.9110649  18.2819098  93.8497201  23.2326288
  30.9768821 102.2181119  22.5401946  31.4105328 102.1256408  23.3885000
  31.6900402 102.1938620  21.9021962  24.7096716 105.8183213  24.0735046
  24.7633738 106.3874150  24.8412762  23.8411498 105.9885098  23.7089083
  16.1170184  94.1063012  18.3860673  16.3777002  95.0208346  18.2769833
  16.9387357  93.6387455  18.5357286  17.5895110  95.5200770  25.5559497
  18.2618163  95.3118132  24.9072146  16.7624896  95.3222856  25.1164730
  31.8384371 102.2604820  25.0734831  32.0320261 103.1650630  25.3194106
  31.7384989 101.8012239  25.9073416  23.4920682  92.1462711  27.5725158
  22.8448597  92.8452660  27.4789635  24.2621697  92.5798854  27.9401407
  26.8999479 102.4111563  30.6475712  26.7484986 102.1822114  29.7305795
  26.8904159 103.3682164  30.6607057  23.6684816  99.9843475  25.6321978
  24.5976876 100.1354635  25.4590945  23.2475846 100.0727496  24.7770625
  22.4673148 104.0094140  23.4020516  22.3284233 103.6412924  24.2746454
  21.6787744 104.5241779  23.2304474  24.0178363 103.3875743  20.7909354
  23.6828195 103.3476513  21.6867003  23.5182309 102.7220458  20.3179764
  17.9922607  98.7943373  26.3161935  17.8542405  98.0623611  26.9173474
  18.9027530  98.7052273  26.0346122  20.6204907  98.5063332  25.8045614
  21.3304526  97.8656524  25.7632233  20.5774216  98.7576227  26.7271795
  28.6091686 105.4430685  28.7252194  28.5504232 104.7589905  28.0582777
  29.0111205 106.1849675  28.2732820  19.3333841  95.4928550  27.6241254
  18.7971198  95.0419288  28.2762850  18.7450550  95.6274459  26.8811718
  28.6109093 103.4070269  26.9566173  27.7235872 103.0696191  27.0792572
  29.1807644 102.6753300  27.1934939  15.0672963  94.6284558  24.7094248
  14.9831151  94.0210227  23.9744658  14.2455669  95.1193576  24.7103745
  22.1410247 108.0671722  23.9227416  22.0680418 108.8726693  24.4346721
  21.6987640 108.2663687  23.0975438  25.2396677  93.1138121  20.0764443
  25.7365376  92.3608083  19.7565514  24.4683658  93.1502438  19.5107653
  33.0926434  98.8178487  21.7182735  33.0816310  99.7003202  21.3476668
  32.2243813  98.4650037  21.5237272  24.6008930 107.9658556  26.0785575
  25.3136903 108.6006020  26.0061477  24.1098959 108.0622422  25.2625577
  26.3226457 101.8709808  17.6502867  25.3882736 101.9911271  17.4807571
  26.5003126 100.9682275  17.3862877  21.8231645  95.2555504  19.8036128
  21.4529433  94.7026544  20.4917034  22.3190738  94.6513637  19.2511128
  29.7099009  97.7127128  18.1852901  30.1759461  98.5455119  18.1113204
  30.1606509  97.2472109  18.8898159  19.6520844 105.7152999  26.8991146
  20.3530303 106.3489482  27.0520540  19.1815959 106.0567731  26.1386785
  27.7775240 104.0570949  15.1839053  28.0535084 103.9427543  16.0932927
  26.9079738 103.6588434  15.1451226  27.6815671  90.0807715  22.2243802
  26.7678751  90.3111941  22.3926009  28.1108773  90.1646159  23.0757835
  27.4522130  98.2697606  24.7243696  26.7993580  98.5173514  24.0696149
  27.8302510  97.4561745  24.3906174  23.5009703  99.0117418  31.2109733
  22.8250340  98.9111547  31.8812109  24.3237337  98.8556631  31.6745731
  22.2432486 110.3184345  25.4467349  22.7950794 110.4815966  26.2116435
  22.5838679 110.9088783  24.7747374  17.2196979  92.6659495  26.0489234
  17.2838305  93.5274326  25.6366632  17.1564099  92.0533496  25.3161593
  16.6949251  94.7382627  29.6962268  17.3221290  94.3559705  30.3099793
  15.8377170  94.5196829  30.0617961  27.0943360 105.1445603  31.3016004
  27.6383264 105.7575561  30.8070959  26.5130205 105.7025181  31.8183017
  25.3800873 108.2666321  22.4331031  25.2552012 107.4656060  21.9241977
  26.0379964 108.7612514  21.9445001  17.0009041  94.6215053  21.6108172
  16.2795627  95.2351021  21.4715645  17.7902297  95.1572818  21.5324818
  27.4435781 106.0675341  24.0610582  26.4966117 105.9480692  23.9888908
  27.7918555 105.1797839  24.1436843  19.8035355  91.9569480  27.8848823
  20.3269757  92.2031776  28.6475133  19.5847688  92.7889514  27.4651961
  24.4482215 105.8628057  20.2614934  24.3007177 104.9344764  20.4422504
  25.2735708 105.8848148  19.7772009  28.0516337 106.6856616  21.3479807
  28.9762884 106.4799477  21.2104258  27.8831640 106.4373017  22.2569148
  21.0087900  92.8983175  25.5698494  20.6684720  92.0990988  25.9719174
  20.3026906  93.1984885  24.9975327  21.6604372  89.9832487  24.0225817
  22.4830441  89.5092965  23.9004707  21.9042435  90.7622971  24.5224503
  24.4443729  93.7165894  15.2547051  24.6607343  94.5990532  14.9535879
  23.9637796  93.3252108  14.5252693  19.1842950  96.6751608  21.8317796
  19.0387531  96.9891911  22.7242077  18.7068154  97.2936508  21.2788694
  21.0439333  93.6654156  21.8798685  21.0300902  92.7695249  21.5430983
  21.7611761  93.6724819  22.5136971  22.8965464  94.0991496  23.9251813
  22.6383242  95.0208567  23.9236143  22.3650504  93.7021930  24.6152277
  27.8411653 107.2042283  16.7041898  28.0148530 106.6388705  15.9515750
  28.3340544 108.0043178  16.5221388  13.6588613  99.2156952  24.7705457
  13.1142081  99.9916760  24.9025731  14.5367962  99.5627757  24.6124578
  20.4476229  92.5468536  17.1486255  20.5692140  91.6185182  17.3477143
  20.1578272  92.5607222  16.2364571  23.3167420  90.2323446  20.2852975
  23.3389116  90.2962779  19.3304955  23.7335479  89.3927955  20.4793481
  33.6951044  99.9678706  18.3232198  34.1382190  99.2186031  17.9251321
  32.8177554  99.9588842  17.9405930  14.4454634  98.3426848  27.6635614
  13.7036370  98.4909484  28.2500244  14.1247379  98.6035114  26.8002363
  30.7278248 103.9708753  15.3326127  31.2529572 104.3096026  14.6075447
  30.6400601 103.0355768  15.1489262  22.3898297 107.8842827  27.4616004
  22.6985423 107.6391973  28.3338703  23.1873779 108.0889465  26.9734874
  19.9317309  94.0600533  31.3576188  19.9805464  94.9362656  30.9753958
  20.4739823  93.5177926  30.7847831  30.4172154 104.6041657  30.6377325
  29.6267698 104.5865795  30.0981824  30.1805509 105.1429950  31.3926362
  30.5370029 101.4534123  27.9510054  30.5868034 101.2884130  28.8925576
  30.4283953 100.5861382  27.5607934  27.8273792  97.4365051  29.2669360
  28.7283655  97.2971516  28.9753358  27.9021766  97.6019506  30.2067538
  22.1616597  94.8131906  28.1122547  21.2919907  95.1065472  27.8405135
  22.3976078  95.3972351  28.8329810  32.0388226 103.8731064  28.1952075
  31.7473035 104.2361045  29.0315536  31.4260358 103.1598073  28.0165407
  33.2383909 101.4383944  20.7154645  34.0730800 101.8773748  20.8792206
  33.3743037 100.9622597  19.8962891  30.2875415  98.9963679  26.6632133
  30.7629536  99.1891325  25.8550984  29.3640980  99.0522865  26.4175517
  24.8655631  91.0311523  25.6287967  25.3837575  91.7672550  25.3034456
  24.5110764  91.3375516  26.4634726  25.1168225  87.4511805  21.1488864
  25.3969979  86.7834994  21.7749290  25.9018832  87.6440901  20.6363527
  28.9877084  95.8729439  24.8960439  29.9394506  95.9727537  24.9172663
  28.8180534  95.0807708  25.4058523  27.0091463  92.9585022  25.0819840
  26.4141395  93.2390035  24.3866328  26.7241160  93.4478923  25.8536581
  31.4665161  99.0935559  24.0102738  31.4341481  98.1551560  24.1962422
  32.0765785  99.1719596  23.2768563  31.6159650  95.8846602  24.0561022
  31.0998698  95.1005059  23.8690950  32.4999598  95.5565319  24.2207541
  29.2770377  89.6287618  20.0156834  29.0795198  89.3202706  20.9000166
  29.8870082  90.3549257  20.1454764  37.2841711 100.1551566  23.1508775
  38.0145100  99.8936854  23.7116478  36.6748657  99.4180288  23.1910843
  35.3657008  98.2959428  23.7483226  34.6390172  98.1615393  23.1399718
  34.9504295  98.6036257  24.5539944  23.1887185 102.0149358  31.5130599
  24.1090194 102.1927957  31.7070646  23.1536768 101.0705403  31.3610299
  16.1849257  99.9250393  24.1553381  16.4035267 100.8567500  24.1741414
  16.5975031  99.5658367  24.9408184  23.1053475  90.4318478  16.1429069
  22.2954203  90.0865563  16.5184315  23.7937892  90.1226022  16.7316680
  25.0344023  89.5096525  17.7653366  25.5875062  89.9291978  18.4243389
  25.2714110  88.5832273  17.8076322  21.0577123  95.4983598  33.5456129
  20.9573849  96.4477955  33.4768221  20.8398665  95.1701837  32.6732200
  28.4122830  91.6197050  17.2732030  27.8321499  92.2781854  16.8910082
  28.1458763  90.7974395  16.8619447  26.8626397  91.0202108  19.4753350
  27.3626175  91.1318642  18.6667669  27.5062005  90.7163160  20.1154159
  20.9208393  98.9280737  32.3621191  20.4375474  99.7281097  32.5685080
  21.0069332  98.9388682  31.4088635  16.8481730 102.8185272  24.3989625
  17.8024984 102.7869214  24.3319556  16.6494254 102.3575896  25.2139851
  17.4381112 101.3886388  26.9660423  18.2574001 101.8830467  26.9895260
  17.7117920 100.4718356  26.9377990  27.1947708  93.7797140  16.3288378
  26.3073563  94.0646791  16.1108573  27.6101698  93.6190904  15.4815655
  30.5462245  93.8043661  20.0442717  31.3222635  94.2940114  20.3167334
  29.8210379  94.2301715  20.5014587  32.9834803  94.5171281  21.1016658
  33.5779294  94.2767016  20.3909966  33.0561387  93.7978411  21.7290194
  27.1688732  99.2951676  16.5438668  27.1123934  99.7520228  15.7046301
  27.7217075  98.5342361  16.3661511  30.9793538  95.0841408  17.3688788
  30.7230472  94.6838044  18.1996995  30.3546406  95.7985202  17.2438927
  35.2905876  97.8237481  19.8760079  34.7305434  97.8930671  20.6491641
  34.6849379  97.6478466  19.1559575  27.9023512 100.4856457  13.8391197
  27.8472315 100.3200729  12.8979641  27.2769567 101.1932490  13.9953387
  12.6916026  95.7224522  27.6652620  13.3374890  95.2123476  28.1539845
  12.4833178  96.4593203  28.2396045  25.2169419 102.7905369  33.1644760
  26.0860578 102.9646022  32.8031395  24.7376170 103.6099786  33.0420490
  21.2119637  89.9864566  13.4176516  21.1998307  90.9306406  13.5744787
  22.1043059  89.8034712  13.1235977  19.3855599 109.9102470  24.8434194
  20.2882846 109.9426081  25.1600689  19.1592969 108.9802921  24.8580530
  25.0271756  86.5807343  17.6722453  24.2604152  86.0265830  17.8179135
  25.4382461  86.6529212  18.5336604  17.0313517  92.8692139  31.7627634
  17.8944979  92.5128944  31.9730958  16.4578928  92.5306034  32.4503038
  36.8761894 114.4993995  22.5690035  37.5140304 114.3800743  21.8653375
  36.7582737 115.4474839  22.6277987  33.6851601 114.4521423  22.5051560
  33.3470112 114.3362488  21.6172094  34.5541369 114.0512588  22.4852566
  34.1671384 115.6056275  28.4637765  34.1560024 115.2109073  27.5918269
  34.3292023 114.8722348  29.0571537  36.4303163 112.2245449  19.6443243
  37.2166252 111.8064872  19.2933660  36.6941867 113.1291541  19.8124891
  41.8311590 112.1620682  20.5476221  42.5636762 111.5919899  20.7814051
  41.0750946 111.7742283  20.9882727  33.4487710 114.5847924  17.7439564
  33.0845917 114.0578545  18.4552485  34.3054826 114.1946393  17.5706049
  39.3537010 105.8742256  25.0070830  39.0220335 106.7437667  24.7832045
  38.7582624 105.5578540  25.6864860  39.2465674 110.5937343  22.0864180
  38.3382551 110.5252751  21.7922941  39.1953269 111.0709288  22.9146006
  33.3206539 112.0126988  30.0299077  32.5439874 112.5720908  30.0201942
  33.9597103 112.4983771  30.5513947  41.1127320 108.7953781  23.8642054
  40.4701700 109.0886314  23.2181849  40.6082249 108.6806701  24.6695251
  38.7667484 112.5416954  14.5527913  39.6785340 112.7744341  14.3775611
  38.2577131 113.1253998  13.9902992  33.4039321 111.9014189  25.5622763
  34.2500517 112.3253602  25.7057412  33.3437959 111.2447813  26.2561326
  36.5538767 109.5618557  27.2203936  36.3099699 110.3160618  26.6838212
  36.8298697 109.9403905  28.0551183  38.5077230 116.1057170  25.8981202
  38.7194125 116.7488929  25.2215583  38.4606978 115.2719486  25.4303132
  36.1103459 108.7174990  22.8017774  35.2487938 109.0156244  23.0934512
  36.1365893 108.9345389  21.8698807  30.3114276 111.9752090  30.3932354
  29.6812936 112.6568371  30.6267751  30.2050363 111.8635171  29.4485493
  47.7129051 115.3267873  20.4188531  46.9592759 114.7575272  20.2632535
  47.8476592 115.2930538  21.3659165  29.5895018 106.2772856  32.7557605
  29.1961964 105.7239054  33.4305250  30.4061159 106.5883434  33.1464123
  32.5062979 107.6930735  30.3477862  33.2472693 108.2937888  30.2682324
  32.7380902 106.9508372  29.7895904  36.4520142 103.7211838  24.6242144
  36.1084412 104.6113479  24.5481254  36.8199105 103.5313495  23.7611729
  34.0017536 108.5570150  18.1899817  33.1459132 108.1677000  18.0105456
  34.4144488 108.6362110  17.3299603  35.5316683 106.0916493  22.5891377
  35.0281478 106.0546628  21.7759182  35.8247289 107.0009235  22.6488034
  31.7759568 106.1755222  21.5957559  32.6412565 105.9798031  21.2363448
  31.8437077 105.9465574  22.5226915  41.3904699 116.4652803  15.0667752
  40.6134142 116.1263963  14.6222914  42.0696180 116.4705427  14.3922717
  36.2056728 111.5847541  14.9574360  35.9006864 111.8993690  15.8084503
  37.1587170 111.6628961  15.0001693  39.6296006 115.9386785  21.7234360
  38.9719680 116.6286046  21.8114489  40.4336405 116.3283217  22.0668347
  29.3821888 108.4057430  18.9673925  29.9565639 108.1832612  18.2347118
  29.9692870 108.4746125  19.7202527  38.4401465 114.2931157  19.7738302
  38.9533347 114.9261149  20.2760012  39.0902689 113.6932353  19.4081662
  31.6844555 105.2798679  17.6948995  31.0308968 104.9647696  17.0705610
  31.6425029 104.6574420  18.4208818  34.9182296 111.7680613  22.0196642
  34.0004857 111.9895560  21.8618331  35.3342439 111.8426923  21.1608350
  35.7017343 113.1672029  17.1499323  36.4489162 113.6793426  16.8406445
  35.9708933 112.8456081  18.0103716  38.1496181 110.2029145  19.1318112
  37.4118937 109.6906531  19.4628355  38.4022954 109.7629526  18.3201389
  38.2507808 102.9805397  19.7259881  38.5566685 102.1202760  19.4385796
  38.9760413 103.5723017  19.5258875  32.5228888 113.2759190  20.2336072
  32.5777497 112.3233026  20.1578549  31.7120090 113.4318629  20.7177371
  30.4621248 111.8936250  17.9926451  29.6489113 112.1930420  18.3991643
  30.9580242 111.4991938  18.7100933  36.0595459 112.3578074  26.8241345
  36.4144847 112.5849547  27.6835811  36.7067590 112.6896451  26.2018600
  41.7893196 115.4796510  17.5290674  41.6511095 115.6698106  16.6011863
  41.4329415 116.2415893  17.9858725  29.9535322 109.4654605  23.6087686
  30.5934702 109.3243364  22.9110649  29.1212853 109.1789119  23.2326288
  41.8162576 117.5473037  22.5401946  42.2499082 117.4548326  23.3885000
  42.5294156 117.5230537  21.9021962  26.9563939 109.4354930  18.3860673
  27.2170756 110.3500263  18.2769833  27.7781111 108.9679373  18.5357286
  28.4288864 110.8492687  25.5559497  29.1011917 110.6410049  24.9072146
  27.6018651 110.6514773  25.1164730  42.6778125 117.5896738  25.0734831
  42.8714015 118.4942548  25.3194106  42.5778743 117.1304157  25.9073416
  34.3314436 107.4754628  27.5725158  33.6842351 108.1744578  27.4789635
  35.1015451 107.9090772  27.9401407  34.5078570 115.3135393  25.6321978
  35.4370630 115.4646553  25.4590945  34.0869600 115.4019414  24.7770625
  31.4598662 113.8355250  25.8045614  32.1698280 113.1948442  25.7632233
  31.4167970 114.0868144  26.7271795  30.1727596 110.8220467  27.6241254
  29.6364953 110.3711206  28.2762850  29.5844304 110.9566376  26.8811718
  25.9066717 109.9576475  24.7094248  25.8224906 109.3502145  23.9744658
  25.0849424 110.4485493  24.7103745  36.0790431 108.4430039  20.0764443
  36.5759131 107.6900001  19.7565514  35.3077413 108.4794355  19.5107653
  43.9320188 114.1470404  21.7182735  43.9210065 115.0295120  21.3476668
  43.0637568 113.7941955  21.5237272  32.6625400 110.5847422  19.8036128
  32.2923187 110.0318462  20.4917034  33.1584492 109.9805555  19.2511128
  40.5492763 113.0419045  18.1852901  41.0153215 113.8747037  18.1113204
  41.0000264 112.5764027  18.8898159  38.5209426 105.4099632  22.2243802
  37.6072506 105.6403859  22.3926009  38.9502527 105.4938076  23.0757835
  38.2915884 113.5989524  24.7243696  37.6387335 113.8465432  24.0696149
  38.6696264 112.7853662  24.3906174  34.3403457 114.3409335  31.2109733
  33.6644094 114.2403465  31.8812109  35.1631091 114.1848549  31.6745731
  28.0590733 107.9951412  26.0489234  28.1232060 108.8566243  25.6366632
  27.9957854 107.3825414  25.3161593  27.5343006 110.0674545  29.6962268
  28.1615045 109.6851622  30.3099793  26.6770925 109.8488747  30.0617961
  27.8402796 109.9506971  21.6108172  27.1189381 110.5642938  21.4715645
  28.6296051 110.4864736  21.5324818  30.6429109 107.2861397  27.8848823
  31.1663511 107.5323694  28.6475133  30.4241443 108.1181432  27.4651961
  31.8481654 108.2275092  25.5698494  31.5078475 107.4282905  25.9719174
  31.1420661 108.5276803  24.9975327  32.4998126 105.3124405  24.0225817
  33.3224195 104.8384883  23.9004707  32.7436190 106.0914888  24.5224503
  35.2837483 109.0457812  15.2547051  35.5001098 109.9282450  14.9535879
  34.8031551 108.6544026  14.5252693  30.0236705 112.0043525  21.8317796
  29.8781286 112.3183828  22.7242077  29.5461909 112.6228426  21.2788694
  31.8833088 108.9946073  21.8798685  31.8694657 108.0987167  21.5430983
  32.6005516 109.0016737  22.5136971  33.7359218 109.4283414  23.9251813
  33.4776996 110.3500484  23.9236143  33.2044259 109.0313848  24.6152277
  31.2869984 107.8760454  17.1486255  31.4085895 106.9477100  17.3477143
  30.9972026 107.8899140  16.2364571  34.1561174 105.5615364  20.2852975
  34.1782871 105.6254697  19.3304955  34.5729233 104.7219873  20.4793481
  44.5344798 115.2970624  18.3232198  44.9775944 114.5477949  17.9251321
  43.6571309 115.2880760  17.9405930  30.7711063 109.3892451  31.3576188
  30.8199219 110.2654574  30.9753958  31.3133577 108.8469844  30.7847831
  41.3763784 116.7826041  27.9510054  41.4261789 116.6176048  28.8925576
  41.2677707 115.9153300  27.5607934  38.6667546 112.7656969  29.2669360
  39.5677409 112.6263434  28.9753358  38.7415521 112.9311423  30.2067538
  33.0010352 110.1423823  28.1122547  32.1313661 110.4357389  27.8405135
  33.2369832 110.7264268  28.8329810  44.0777663 116.7675862  20.7154645
  44.9124554 117.2065666  20.8792206  44.2136792 116.2914515  19.8962891
  41.1269169 114.3255597  26.6632133  41.6023291 114.5183243  25.8550984
  40.2034734 114.3814783  26.4175517  35.7049386 106.3603440  25.6287967
  36.2231329 107.0964467  25.3034456  35.3504518 106.6667434  26.4634726
  35.9561980 102.7803723  21.1488864  36.2363733 102.1126912  21.7749290
  36.7412587 102.9732818  20.6363527  39.8270838 111.2021357  24.8960439
  40.7788261 111.3019455  24.9172663  39.6574288 110.4099625  25.4058523
  37.8485217 108.2876940  25.0819840  37.2535150 108.5681953  24.3866328
  37.5634914 108.7770841  25.8536581  42.3058916 114.4227477  24.0102738
  42.2735236 113.4843477  24.1962422  42.9159539 114.5011513  23.2768563
  42.4553404 111.2138520  24.0561022  41.9392453 110.4296977  23.8690950
  43.3393353 110.8857237  24.2207541  40.1164131 104.9579536  20.0156834
  39.9188952 104.6494624  20.9000166  40.7263837 105.6841174  20.1454764
  48.1235466 115.4843483  23.1508775  48.8538854 115.2228772  23.7116478
  47.5142411 114.7472205  23.1910843  46.2050763 113.6251346  23.7483226
  45.4783926 113.4907311  23.1399718  45.7898050 113.9328175  24.5539944
  33.9447230 105.7610396  16.1429069  33.1347958 105.4157481  16.5184315
  34.6331646 105.4517939  16.7316680  35.8737778 104.8388442  17.7653366
  36.4268816 105.2583896  18.4243389  36.1107864 103.9124191  17.8076322
  31.8970877 110.8275516  33.5456129  31.7967604 111.7769873  33.4768221
  31.6792419 110.4993755  32.6732200  39.2516585 106.9488968  17.2732030
  38.6715254 107.6073772  16.8910082  38.9852518 106.1266312  16.8619447
  37.7020151 106.3494025  19.4753350  38.2019930 106.4610560  18.6667669
  38.3455759 106.0455078  20.1154159  38.0341463 109.1089058  16.3288378
  37.1467318 109.3938709  16.1108573  38.4495452 108.9482821  15.4815655
  41.3855999 109.1335579  20.0442717  42.1616389 109.6232031  20.3167334
  40.6604133 109.5593633  20.5014587  43.8228558 109.8463198  21.1016658
  44.4173049 109.6058934  20.3909966  43.8955141 109.1270329  21.7290194
  38.0082487 114.6243594  16.5438668  37.9517688 115.0812145  15.7046301
  38.5610829 113.8634279  16.3661511  41.8187293 110.4133326  17.3688788
  41.5624227 110.0129961  18.1996995  41.1940161 111.1277120  17.2438927
  46.1299630 113.1529399  19.8760079  45.5699188 113.2222588  20.6491641
  45.5243134 112.9770384  19.1559575  38.7417266 115.8148375  13.8391197
  38.6866070 115.6492647  12.8979641  38.1163321 116.5224408  13.9953387
  23.5309781 111.0516440  27.6652620  24.1768645 110.5415394  28.1539845
  23.3226932 111.7885121  28.2396045  32.0513391 105.3156484  13.4176516
  32.0392061 106.2598324  13.5744787  32.9436813 105.1326630  13.1235977
  35.8665511 101.9099261  17.6722453  35.0997907 101.3557748  17.8179135
  36.2776216 101.9821130  18.5336604  27.8707272 108.1984057  31.7627634
  28.7338734 107.8420861  31.9730958  27.2972683 107.8597951  32.4503038
  47.2913897 119.0503755  24.6242144  46.9478166 119.9405397  24.5481254
  47.6592859 118.8605413  23.7611729  49.0901562 118.3097314  19.7259881
  49.3960439 117.4494678  19.4385796  49.8154167 118.9014935  19.5258875
  46.7955734 118.1095641  21.1488864  47.0757488 117.4418830  21.7749290
  47.5806341 118.3024736  20.6363527  50.9557886 120.2871453  20.0156834
  50.7582707 119.9786541  20.9000166  51.5657591 121.0133092  20.1454764
  46.7059265 117.2391178  17.6722453  45.9391661 116.6849665  17.8179135
  47.1169970 117.3113047  18.5336604   6.9304178  51.7908972  15.4497500
   6.8716725  51.1068193  14.7828083   7.3323697  52.5327963  14.9978126
   5.4155852  51.4923890  18.0261310   5.9595756  52.1053848  17.5316265
   4.8342697  52.0503468  18.5428323   8.7384647  50.9519944  17.3622632
   7.9480190  50.9344083  16.8227131   8.5018001  51.4908238  18.1171668
  10.3600719  50.2209352  14.9197382  10.0685527  50.5839332  15.7560843
   9.7472850  49.5076360  14.7410714   3.5381911  49.1383657  19.8890067
   4.4073071  49.3124309  19.5276702   3.0588662  49.9578073  19.7665796
  15.1974387  60.8472283   9.2935341  15.8352797  60.7279030   8.5898682
  15.0795230  61.7953126   9.3523294  12.0064093  60.7999711   9.2296866
  11.6682605  60.6840775   8.3417401  12.8753861  60.3990876   9.2097872
  12.4883876  61.9534562  15.1883072  12.4772517  61.5587361  14.3163575
  12.6504515  61.2200635  15.7816843   9.2091137  64.7371674  14.1362256
   8.9181003  65.6417305  14.0208922   9.8448121  64.7788202  14.8506325
  10.1347344  62.1148523  10.7263615  10.7310916  61.8904545  10.0120578
  10.1922315  61.3733268  11.3289063  20.1524082  58.5098970   7.2721528
  20.8849254  57.9398186   7.5059357  19.3963438  58.1220570   7.7128034
  17.6749503  52.2220544  11.7316137  17.3432827  53.0915955  11.5077352
  17.0795116  51.9056828  12.4110167  14.1681022  64.4233090  11.1312049
  13.8681745  65.3258128  11.0227857  13.8232082  64.1565273  11.9833202
  17.5678166  56.9415630   8.8109487  16.6595043  56.8731038   8.5168248
  17.5165762  57.4187575   9.6391312  11.6419032  58.3605275  16.7544384
  10.8652366  58.9199196  16.7447249  12.2809595  58.8462058  17.2759254
  19.4339812  55.1432068  10.5887361  18.7914193  55.4364601   9.9427155
  18.9294741  55.0284989  11.3940557   9.8965404  61.1690729  16.3162351
  10.6380088  61.7075773  16.0397175   9.1902390  61.7957018  16.4733903
  15.3720744  63.3119869  14.9134512  15.7804100  62.8702280  14.1689145
  14.6498005  62.7372497  15.1668705  11.7251814  58.2492476  12.2868069
  12.5713009  58.6731890  12.4302718  11.6650451  57.5926100  12.9806632
  15.6949558  63.8721060   8.6686801  15.0658421  64.0366774   7.9662869
  15.3075220  64.2862669   9.4397765  19.5738790  64.8075498   6.0231165
  18.8889828  65.1874399   5.4728198  19.6582640  65.4170824   6.7563113
  14.8751259  55.9096844  13.9449243  14.6312191  56.6638905  13.4083519
  15.1511190  56.2882192  14.7796490  16.8289722  62.4535457  12.6226509
  17.0406617  63.0967217  11.9460890  16.7819470  61.6197773  12.1548439
   8.1401601  63.1566950   8.8716650   8.7102958  63.5854218   8.2334134
   8.7309713  62.8749534   9.5700835   8.6326768  58.3230377  17.1177661
   8.0025428  59.0046658  17.3513058   8.5262856  58.2113459  16.1730799
  17.9435550  65.3307412  10.7948866  18.7652994  64.9287599  10.5131548
  17.9397953  65.2275646  11.7464982  11.7092153  64.8791455  12.9509576
  11.7736586  65.3411863  13.7867748  11.0003077  64.2488820  13.0791886
  26.0341543  61.6746161   7.1433837  25.2805251  61.1053559   6.9877842
  26.1689084  61.6408825   8.0904472   7.9107511  52.6251143  19.4802912
   7.5174456  52.0717341  20.1550556   8.7273651  52.9361721  19.8709430
  10.8275472  54.0409022  17.0723169  11.5685185  54.6416175  16.9927631
  11.0593394  53.2986660  16.5141211   5.9716810  59.2265389  15.3501398
   5.8570325  58.3250646  15.6508497   5.1161327  59.4729086  14.9986215
  13.0508647  67.1683129  16.9488899  12.6072501  66.3819508  16.6309803
  13.7125861  67.3562280  16.2832790   7.8095768  68.6978931  11.4749577
   8.3603194  68.5695994  10.7026571   6.9707244  68.9973820  11.1244470
  15.1489885  67.4485929  14.9770300  15.1308361  68.2694810  14.4850569
  16.0709805  67.3240005  15.2020441  11.6062940  64.9630059  15.8193808
  12.1391276  64.2018347  15.5893116  11.0777021  64.6703711  16.5617963
  17.9508498  62.2865072   8.4479667  17.2932173  62.9764333   8.5359795
  18.7548897  62.6761504   8.7913653  16.7613957  60.6409445   6.4983609
  17.2745839  61.2739436   7.0005318  17.4115181  60.0410640   6.1326969
  13.2394788  58.1158900   8.7441949  12.3217349  58.3373847   8.5863637
  13.6554932  58.1905211   7.8853656  17.5275753  65.6215446   4.6262751
  17.0738080  64.7806356   4.6827942  16.8969720  66.2576844   4.9637531
  15.9708692  67.4591943   5.5612569  16.2631667  68.0197000   4.8424935
  16.4807313  67.7520504   6.3165728  14.3807951  58.7056361  13.5486652
  14.7357339  58.9327834  14.4081117  15.0280083  59.0374738  12.9263907
  20.1105688  61.8274797   4.2535981  19.9723587  62.0176393   3.3257170
  19.7541907  62.5894180   4.7104032  20.1375068  63.8951324   9.2647252
  20.5711575  63.8026613  10.1130306  20.8506649  63.8708825   8.6267268
  13.8702963  67.4953418  10.7980353  13.9239985  68.0644355  11.5658069
  13.0017744  67.6655303  10.4334390   6.7501356  57.1970975  12.2804804
   7.4224410  56.9888337  11.6317453   5.9231143  56.9993061  11.8410036
  20.9990618  63.9375025  11.7980138  21.1926508  64.8420835  12.0439413
  20.8991236  63.4782444  12.6318723  12.6526928  53.8232915  14.2970465
  12.0054843  54.5222865  14.2034941  13.4227944  54.2569059  14.6646713
  16.0605726  64.0881768  17.3721018  15.9091233  63.8592319  16.4551102
  16.0510406  65.0452369  17.3852363  12.8291063  61.6613680  12.3567285
  13.7583123  61.8124840  12.1836252  12.4082093  61.7497701  11.5015931
  11.6279394  65.6864345  10.1265822  11.4890480  65.3183129  10.9991760
  10.8393991  66.2011984   9.9549780  13.1784610  65.0645947   7.5154660
  12.8434442  65.0246717   8.4112310  12.6788555  64.3990663   7.0425070
   7.1528854  60.4713578  13.0407241   7.0148652  59.7393816  13.6418780
   8.0633777  60.3822478  12.7591429   9.7811154  60.1833537  12.5290921
  10.4910773  59.5426729  12.4877539   9.7380462  60.4346432  13.4517102
  17.7697933  67.1200890  15.4497500  17.7110479  66.4360110  14.7828083
  18.1717451  67.8619880  14.9978126   8.4940088  57.1698755  14.3486560
   7.9577445  56.7189493  15.0008157   7.9056797  57.3044664  13.6057025
  17.7715340  65.0840474  13.6811480  16.8842119  64.7466396  13.8037879
  18.3413891  64.3523505  13.9180245  11.3016494  69.7441926  10.6472723
  11.2286665  70.5496898  11.1592028  10.8593887  69.9433892   9.8220744
  22.2532681  60.4948691   8.4428041  22.2422557  61.3773407   8.0721975
  21.3850060  60.1420242   8.2482579  13.7615177  69.6428760  12.8030882
  14.4743149  70.2776225  12.7306783  13.2705206  69.7392626  11.9870884
   8.8127091  67.3923204  13.6236453   9.5136550  68.0259687  13.7765847
   8.3422206  67.7337936  12.8632092  16.6128377  59.9467811  11.4489003
  15.9599827  60.1943719  10.7941456  16.9908756  59.1331950  11.1151480
  12.6615950  60.6887622  17.9355040  11.9856587  60.5881752  18.6057415
  13.4843584  60.5326836  18.3991037  11.4038733  71.9954550  12.1712656
  11.9557041  72.1586171  12.9361741  11.7444926  72.5858988  11.4992681
   5.8555498  56.4152832  16.4207575   6.4827537  56.0329910  17.0345099
   4.9983417  56.1967034  16.7863267  16.2549607  66.8215807  18.0261310
  16.7989511  67.4345766  17.5316265  15.6736452  67.3795386  18.5428323
  14.5407120  69.9436525   9.1576338  14.4158259  69.1426265   8.6487284
  15.1986211  70.4382719   8.6690308  16.6042028  67.7445546  10.7855888
  15.6572364  67.6250897  10.7134215  16.9524801  66.8568044  10.8682150
   8.9641602  53.6339684  14.6094130   9.4876003  53.8801981  15.3720439
   8.7453935  54.4659719  14.1897267  13.6088461  67.5398262   6.9860240
  13.4613424  66.6114969   7.1667810  14.4341955  67.5618352   6.5017316
  17.2122583  68.3626820   8.0725113  18.1369131  68.1569682   7.9349564
  17.0437887  68.1143222   8.9814455  10.1694147  54.5753380  12.2943801
   9.8290967  53.7761193  12.6964481   9.4633153  54.8755090  11.7220634
  12.0571711  55.7761701  10.6497119  11.7989489  56.6978771  10.6481450
  11.5256751  55.3792135  11.3397583  17.0017900  68.8812488   3.4287205
  17.1754777  68.3158910   2.6761057  17.4946791  69.6813383   3.2466695
   2.8194859  60.8927157  11.4950763   2.2748327  61.6686965  11.6271038
   3.6974209  61.2397961  11.3369885  22.8557291  61.6448911   5.0477504
  23.2988437  60.8956236   4.6496628  21.9783801  61.6359047   4.6651236
   3.6060881  60.0197053  14.3880920   2.8642617  60.1679689  14.9745551
   3.2853625  60.2805319  13.5247670  19.8884495  65.6478958   2.0571434
  20.4135819  65.9866231   1.3320754  19.8006848  64.7125973   1.8734568
  11.5504544  69.5613032  14.1861310  11.8591670  69.3162178  15.0584010
  12.3480026  69.7659670  13.6980181   9.0923556  55.7370738  18.0821495
   9.1411711  56.6132861  17.6999264   9.6346070  55.1948131  17.5093138
  19.5778401  66.2811862  17.3622632  18.7873945  66.2636000  16.8227131
  19.3411756  66.8200155  18.1171668  19.6976276  63.1304328  14.6755360
  19.7474281  62.9654335  15.6170883  19.5890200  62.2631587  14.2853241
  16.9880039  59.1135256  15.9914667  17.8889901  58.9741721  15.6998665
  17.0628013  59.2789711  16.9312844  11.3222844  56.4902111  14.8367853
  10.4526153  56.7835677  14.5650442  11.5582324  57.0742556  15.5575117
  21.1994473  65.5501269  14.9197382  20.9079281  65.9131250  15.7560843
  20.5866604  64.8368278  14.7410714  22.3990155  63.1154149   7.4399952
  23.2337047  63.5543953   7.6037512  22.5349284  62.6392802   6.6208198
  19.4481661  60.6733884  13.3877440  19.9235783  60.8661530  12.5796291
  18.5247227  60.7293070  13.1420823  14.0261878  52.7081728  12.3533274
  14.5443822  53.4442755  12.0279762  13.6717011  53.0145721  13.1880033
  18.1483330  57.5499644  11.6205745  19.1000753  57.6497742  11.6417969
  17.9786781  56.7577913  12.1303830  16.1697710  54.6355227  11.8065146
  15.5747642  54.9160240  11.1111635  15.8847406  55.1249128  12.5781887
  20.6271408  60.7705764  10.7348045  20.5947728  59.8321765  10.9207729
  21.2372032  60.8489801  10.0013870  20.7765897  57.5616807  10.7806328
  20.2604945  56.7775264  10.5936257  21.6605845  57.2335524  10.9452848
  26.4447958  61.8321771   9.8754082  27.1751346  61.5707059  10.4361785
  25.8354903  61.0950493   9.9156150  24.5263255  59.9729633  10.4728533
  23.7996419  59.8385598   9.8645025  24.1110542  60.2806462  11.2785251
  12.3493431  63.6919563  18.2375906  13.2696441  63.8698162  18.4315952
  12.3143015  62.7475608  18.0855605   5.3455504  61.6020598  10.8798687
   5.5641514  62.5337705  10.8986721   5.7581278  61.2428572  11.6653491
  10.2183369  57.1753803  20.2701436  10.1180096  58.1248160  20.2013527
  10.0004911  56.8472042  19.3977506  10.0814639  60.6050942  19.0866498
   9.5981721  61.4051302  19.2930387  10.1675578  60.6158887  18.1333942
   6.0087977  64.4955477  11.1234932   6.9631230  64.4639419  11.0564863
   5.8100500  64.0346101  11.9385157   6.5987359  63.0656593  13.6905729
   7.4180248  63.5600672  13.7140566   6.8724167  62.1488561  13.6623297
  22.1441050  56.1941485   7.8261965  22.7385541  55.9537221   7.1155273
  22.2167634  55.4748616   8.4535501  24.4512123  59.5007686   6.6005386
  23.8911681  59.5700876   7.3736948  23.8455626  59.3248671   5.8804882
   1.8522273  57.3994727  14.3897926   2.4981137  56.8893681  14.8785151
   1.6439424  58.1363408  14.9641351  14.3775665  64.4675574  19.8890067
  15.2466825  64.6416227  19.5276702  13.8982417  65.2869991  19.7665796
   8.5461846  71.5872675  11.5679500   9.4489092  71.6196286  11.8845995
   8.3199216  70.6573126  11.5825836   6.1919764  54.5462344  18.4872940
   7.0551226  54.1899149  18.6976265   5.6185175  54.2076239  19.1748345
  26.0368141  76.1764200   9.2935341  26.6746551  76.0570948   8.5898682
  25.9188984  77.1245044   9.3523294  22.8457847  76.1291628   9.2296866
  22.5076359  76.0132693   8.3417401  23.7147616  75.7282793   9.2097872
  23.3277630  77.2826480  15.1883072  23.3166271  76.8879278  14.3163575
  23.4898270  76.5492553  15.7816843  20.0484892  80.0663592  14.1362256
  19.7574758  80.9709223  14.0208922  20.6841876  80.1080119  14.8506325
  20.9741098  77.4440440  10.7263615  21.5704671  77.2196463  10.0120578
  21.0316070  76.7025186  11.3289063  25.5909410  73.9015654   6.3688550
  26.3772499  73.4835077   6.0178967  25.8548114  74.8061746   6.5370198
  30.9917837  73.8390887   7.2721528  31.7243009  73.2690104   7.5059357
  30.2357193  73.4512488   7.7128034  22.6093957  76.2618129   4.4684870
  22.2452164  75.7348750   5.1797792  23.4661072  75.8716598   4.2951356
  28.5143257  67.5512461  11.7316137  28.1826582  68.4207872  11.5077352
  27.9188871  67.2348745  12.4110167  25.0074777  79.7525007  11.1312049
  24.7075500  80.6550046  11.0227857  24.6625836  79.4857191  11.9833202
  18.4587258  76.2038804   7.1648754  17.5337755  76.0715018   7.3726446
  18.7071671  76.9833023   7.6618696  28.4071920  72.2707548   8.8109487
  27.4988798  72.2022956   8.5168248  28.3559516  72.7479492   9.6391312
  22.4812786  73.6897193  16.7544384  21.7046120  74.2491113  16.7447249
  23.1203349  74.1753976  17.2759254  30.2733567  70.4723986  10.5887361
  29.6307947  70.7656519   9.9427155  29.7688495  70.3576906  11.3940557
  27.9273731  74.2187159   1.2773220  28.8391587  74.4514546   1.1020917
  27.4183378  74.8024203   0.7148298  20.7359159  76.4982646  16.3162351
  21.4773843  77.0367690  16.0397175  20.0296144  77.1248935  16.4733903
  26.2114498  78.6411787  14.9134512  26.6197854  78.1994197  14.1689145
  25.4891760  78.0664414  15.1668705  22.5645568  73.5784394  12.2868069
  23.4106763  74.0023807  12.4302718  22.5044206  72.9218018  12.9806632
  26.5343313  79.2012978   8.6686801  25.9052175  79.3658692   7.9662869
  26.1468975  79.6154587   9.4397765  30.4132545  80.1367415   6.0231165
  29.7283583  80.5166317   5.4728198  30.4976394  80.7462742   6.7563113
  25.7145014  71.2388762  13.9449243  25.4705945  71.9930823  13.4083519
  25.9904944  71.6174110  14.7796490  27.6683476  77.7827374  12.6226509
  27.8800372  78.4259134  11.9460890  27.6213225  76.9489691  12.1548439
  25.2709705  70.3945195   9.5263081  24.4094184  70.6926449   9.8179818
  25.2972140  70.6115594   8.5944113  22.0871275  78.9387386   5.9336886
  22.5509620  79.2175089   5.1441509  21.8228073  78.0370830   5.7509977
  18.9795356  78.4858867   8.8716650  19.5496713  78.9146136   8.2334134
  19.5703468  78.2041452   9.5700835  19.4720522  73.6522295  17.1177661
  18.8419183  74.3338576  17.3513058  19.3656610  73.5405376  16.1730799
  28.7829304  80.6599330  10.7948866  29.6046748  80.2579517  10.5131548
  28.7791707  80.5567564  11.7464982  22.5485908  80.2083373  12.9509576
  22.6130340  80.6703780  13.7867748  21.8396832  79.5780738  13.0791886
  13.0503198  73.5724581  10.4758576  13.3011236  74.4571591  10.7416152
  13.5862746  73.3929183   9.7033668  36.8735297  77.0038078   7.1433837
  36.1199006  76.4345476   6.9877842  37.0082839  76.9700743   8.0904472
  18.7501265  67.9543061  19.4802912  18.3568211  67.4009259  20.1550556
  19.5667405  68.2653639  19.8709430  21.6669226  69.3700940  17.0723169
  22.4078939  69.9708093  16.9927631  21.8987149  68.6278577  16.5141211
  16.8110564  74.5557307  15.3501398  16.6964079  73.6542564  15.6508497
  15.9555082  74.8021004  14.9986215  23.8902402  82.4975047  16.9488899
  23.4466256  81.7111426  16.6309803  24.5519615  82.6854198  16.2832790
  18.6489523  84.0270849  11.4749577  19.1996948  83.8987912  10.7026571
  17.8100999  84.3265738  11.1244470  25.9883640  82.7777847  14.9770300
  25.9702115  83.5986728  14.4850569  26.9103560  82.6531922  15.2020441
  22.4456694  80.2921977  15.8193808  22.9785031  79.5310265  15.5893116
  21.9170775  79.9995628  16.5617963  25.6126389  65.3982043  11.3487450
  25.2690658  66.2883684  11.2726561  25.9805352  65.2083700  10.4857035
  23.1623783  70.2340354   4.9145124  22.3065379  69.8447205   4.7350762
  23.5750734  70.3132315   4.0544909  24.6922929  67.7686698   9.3136683
  24.1887725  67.7316833   8.5004489  24.9853536  68.6779440   9.3733340
  20.9365815  67.8525427   8.3202865  21.8018812  67.6568236   7.9608755
  21.0043324  67.6235779   9.2472222  30.5510946  78.1423008   1.7913059
  29.7740389  77.8034168   1.3468221  31.2302427  78.1475631   1.1168024
  25.3662975  73.2617746   1.6819667  25.0613110  73.5763895   2.5329810
  26.3193417  73.3399166   1.7247000  28.7902253  77.6156990   8.4479667
  28.1325927  78.3056251   8.5359795  29.5942652  78.0053421   8.7913653
  18.5428134  70.0827635   5.6919232  19.1171886  69.8602817   4.9592425
  19.1299117  70.1516330   6.4447833  27.6007712  75.9701362   6.4983609
  28.1139593  76.6031354   7.0005318  28.2508935  75.3702558   6.1326969
  20.8450802  66.9568884   4.4194301  20.1915214  66.6417901   3.7950916
  20.8031276  66.3344625   5.1454124  24.0788542  73.4450818   8.7441949
  23.1611104  73.6665765   8.5863637  24.4948686  73.5197128   7.8853656
  24.8623590  74.8442233   3.8744629  25.6095409  75.3563631   3.5651751
  25.1315180  74.5226286   4.7349023  28.3669508  80.9507364   4.6262751
  27.9131835  80.1098274   4.6827942  27.7363474  81.5868762   4.9637531
  27.3102427  71.8799350   5.8563419  26.5725184  71.3676736   6.1873661
  27.5629201  71.4399731   5.0446696  26.8102447  82.7883860   5.5612569
  27.1025421  83.3488917   4.8424935  27.3201068  83.0812421   6.3165728
  27.4114055  64.6575602   6.4505188  27.7172931  63.7972965   6.1631103
  28.1366659  65.2493222   6.2504182  21.6835134  74.9529395   6.9581379
  21.7383744  74.0003231   6.8823856  20.8726336  75.1088834   7.4422677
  19.6227494  73.5706455   4.7171758  18.8095360  73.8700625   5.1236950
  20.1186488  73.1762143   5.4346240  25.2201706  74.0348279  13.5486652
  25.5751094  74.2619752  14.4081117  25.8673837  74.3666656  12.9263907
  30.9499443  77.1566715   4.2535981  30.8117342  77.3468311   3.3257170
  30.5935662  77.9186098   4.7104032  19.1141569  71.1424810  10.3332993
  19.7540948  71.0013569   9.6355956  18.2819100  70.8559323   9.9571595
  30.9768823  79.2243242   9.2647252  31.4105329  79.1318531  10.1130306
  31.6900403  79.2000742   8.6267268  24.7096717  82.8245336  10.7980353
  24.7633740  83.3936272  11.5658069  23.8411499  82.9947221  10.4334390
  16.1170185  71.1125135   5.1105980  16.3777003  72.0270468   5.0015140
  16.9387358  70.6449578   5.2602592  17.5895111  72.5262892  12.2804804
  18.2618164  72.3180254  11.6317453  16.7624897  72.3284978  11.8410036
  31.8384372  79.2666943  11.7980138  32.0320262  80.1712753  12.0439413
  31.7384990  78.8074362  12.6318723  23.4920683  69.1524833  14.2970465
  22.8448598  69.8514783  14.2034941  24.2621698  69.5860977  14.6646713
  26.8999481  79.4173685  17.3721018  26.7484987  79.1884237  16.4551102
  26.8904160  80.3744287  17.3852363  23.6684817  76.9905598  12.3567285
  24.5976877  77.1416758  12.1836252  23.2475847  77.0789619  11.5015931
  22.4673149  81.0156262  10.1265822  22.3284235  80.6475047  10.9991760
  21.6787745  81.5303902   9.9549780  24.0178364  80.3937865   7.5154660
  23.6828197  80.3538635   8.4112310  23.5182310  79.7282581   7.0425070
  17.9922608  75.8005495  13.0407241  17.8542406  75.0685734  13.6418780
  18.9027532  75.7114395  12.7591429  20.6204909  75.5125455  12.5290921
  21.3304527  74.8718647  12.4877539  20.5774217  75.7638349  13.4517102
  28.6091687  82.4492808  15.4497500  28.5504234  81.7652028  14.7828083
  29.0111206  83.1911798  14.9978126  19.3333843  72.4990672  14.3486560
  18.7971200  72.0481411  15.0008157  18.7450551  72.6336581  13.6057025
  28.6109095  80.4132392  13.6811480  27.7235873  80.0758314  13.8037879
  29.1807646  79.6815423  13.9180245  15.0672964  71.6346680  11.4339555
  14.9831153  71.0272350  10.6989965  14.2455670  72.1255698  11.4349051
  22.1410248  85.0733844  10.6472723  22.0680420  85.8788816  11.1592028
  21.6987641  85.2725810   9.8220744  25.2396678  70.1200244   6.8009750
  25.7365377  69.3670206   6.4810820  24.4683659  70.1564560   6.2352959
  33.0926435  75.8240609   8.4428041  33.0816311  76.7065325   8.0721975
  32.2243815  75.4712160   8.2482579  24.6008932  84.9720678  12.8030882
  25.3136904  85.6068143  12.7306783  24.1098960  85.0684544  11.9870884
  26.3226458  78.8771931   4.3748173  25.3882737  78.9973393   4.2052878
  26.5003127  77.9744398   4.1108183  21.8231647  72.2617627   6.5281435
  21.4529434  71.7088667   7.2162340  22.3190739  71.6575760   5.9756435
  29.7099010  74.7189250   4.9098208  30.1759462  75.5517242   4.8358510
  30.1606510  74.2534232   5.6143466  19.6520845  82.7215122  13.6236453
  20.3530305  83.3551605  13.7765847  19.1815960  83.0629853  12.8632092
  27.7775241  81.0633071   1.9084360  28.0535085  80.9489666   2.8178234
  26.9079740  80.6650556   1.8696533  27.6815673  67.0869837   8.9489109
  26.7678752  67.3174064   9.1171316  28.1108774  67.1708281   9.8003141
  27.4522131  75.2759729  11.4489003  26.7993581  75.5235637  10.7941456
  27.8302511  74.4623867  11.1151480  23.5009704  76.0179540  17.9355040
  22.8250341  75.9173669  18.6057415  24.3237338  75.8618754  18.3991037
  22.2432487  87.3246468  12.1712656  22.7950795  87.4878089  12.9361741
  22.5838680  87.9150905  11.4992681  17.2196980  69.6721617  12.7734541
  17.2838307  70.5336448  12.3611938  17.1564100  69.0595619  12.0406899
  16.6949253  71.7444750  16.4207575  17.3221292  71.3621827  17.0345099
  15.8377172  71.5258952  16.7863267  27.0943361  82.1507725  18.0261310
  27.6383265  82.7637683  17.5316265  26.5130206  82.7087304  18.5428323
  25.3800874  85.2728443   9.1576338  25.2552014  84.4718183   8.6487284
  26.0379965  85.7674636   8.6690308  17.0009042  71.6277176   8.3353478
  16.2795628  72.2413143   8.1960952  17.7902298  72.1634940   8.2570124
  27.4435783  83.0737463  10.7855888  26.4966118  82.9542814  10.7134215
  27.7918556  82.1859961  10.8682150  19.8035356  68.9631602  14.6094130
  20.3269758  69.2093899  15.3720439  19.5847689  69.7951637  14.1897267
  24.4482216  82.8690179   6.9860240  24.3007178  81.9406887   7.1667810
  25.2735709  82.8910270   6.5017316  28.0516338  83.6918738   8.0725113
  28.9762885  83.4861599   7.9349564  27.8831641  83.4435139   8.9814455
  21.0087901  69.9045297  12.2943801  20.6684721  69.1053110  12.6964481
  20.3026907  70.2047008  11.7220634  21.6604373  66.9894610  10.7471124
  22.4830442  66.5155088  10.6250014  21.9042436  67.7685093  11.2469810
  24.4443730  70.7228017   1.9792358  24.6607345  71.6052655   1.6781186
  23.9637797  70.3314230   1.2498000  19.1842952  73.6813730   8.5563102
  19.0387532  73.9954033   9.4487384  18.7068155  74.2998631   8.0034001
  21.0439335  70.6716278   8.6043992  21.0300903  69.7757372   8.2676290
  21.7611763  70.6786942   9.2382278  22.8965465  71.1053618  10.6497119
  22.6383243  72.0270689  10.6481450  22.3650506  70.7084053  11.3397583
  27.8411654  84.2104406   3.4287205  28.0148532  83.6450828   2.6761057
  28.3340545  85.0105300   3.2466695  13.6588614  76.2219075  11.4950763
  13.1142082  76.9978883  11.6271038  14.5367964  76.5689879  11.3369885
  20.4476230  69.5530659   3.8731562  20.5692142  68.6247305   4.0722449
  20.1578273  69.5669345   2.9609877  23.3167421  67.2385569   7.0098282
  23.3389118  67.3024902   6.0550261  23.7335480  66.3990078   7.2038788
  33.6951045  76.9740829   5.0477504  34.1382191  76.2248154   4.6496628
  32.8177555  76.9650965   4.6651236  14.4454636  75.3488971  14.3880920
  13.7036372  75.4971606  14.9745551  14.1247380  75.6097237  13.5247670
  30.7278250  80.9770876   2.0571434  31.2529574  81.3158148   1.3320754
  30.6400602  80.0417891   1.8734568  22.3898298  84.8904949  14.1861310
  22.6985425  84.6454096  15.0584010  23.1873780  85.0951588  13.6980181
  19.9317310  71.0662656  18.0821495  19.9805465  71.9424779  17.6999264
  20.4739824  70.5240049  17.5093138  30.4172156  81.6103779  17.3622632
  29.6267699  81.5927918  16.8227131  30.1805510  82.1492073  18.1171668
  30.5370031  78.4596246  14.6755360  30.5868036  78.2946253  15.6170883
  30.4283954  77.5923505  14.2853241  27.8273793  74.4427174  15.9914667
  28.7283656  74.3033638  15.6998665  27.9021768  74.6081628  16.9312844
  22.1616598  71.8194028  14.8367853  21.2919908  72.1127594  14.5650442
  22.3976079  72.4034473  15.5575117  32.0388228  80.8793187  14.9197382
  31.7473036  81.2423168  15.7560843  31.4260359  80.1660195  14.7410714
  33.2383910  78.4446067   7.4399952  34.0730801  78.8835871   7.6037512
  33.3743039  77.9684720   6.6208198  30.2875416  76.0025802  13.3877440
  30.7629537  76.1953448  12.5796291  29.3640981  76.0584988  13.1420823
  24.8655632  68.0373645  12.3533274  25.3837576  68.7734672  12.0279762
  24.5110765  68.3437639  13.1880033  25.1168226  64.4573928   7.8734170
  25.3969980  63.7897117   8.4994597  25.9018833  64.6503023   7.3608834
  28.9877085  72.8791562  11.6205745  29.9394508  72.9789659  11.6417969
  28.8180535  72.0869830  12.1303830  27.0091464  69.9647145  11.8065146
  26.4141396  70.2452158  11.1111635  26.7241161  70.4541046  12.5781887
  31.4665163  76.0997681  10.7348045  31.4341483  75.1613682  10.9207729
  32.0765786  76.1781718  10.0013870  31.6159651  72.8908725  10.7806328
  31.0998700  72.1067182  10.5936257  32.4999600  72.5627442  10.9452848
  29.2770378  66.6349740   6.7402141  29.0795199  66.3264829   7.6245473
  29.8870084  67.3611379   6.8700071  37.2841712  77.1613688   9.8754082
  38.0145101  76.8998976  10.4361785  36.6748658  76.4242410   9.9156150
  35.3657010  75.3021551  10.4728533  34.6390173  75.1677516   9.8645025
  34.9504296  75.6098380  11.2785251  23.1887186  79.0211481  18.2375906
  24.1090195  79.1990080  18.4315952  23.1536769  78.0767526  18.0855605
  16.1849259  76.9312515  10.8798687  16.4035268  77.8629623  10.8986721
  16.5975032  76.5720490  11.6653491  23.1053476  67.4380601   2.8674376
  22.2954205  67.0927686   3.2429622  23.7937893  67.1288144   3.4561987
  25.0344025  66.5158647   4.4898672  25.5875063  66.9354101   5.1488695
  25.2714111  65.5894395   4.5321628  21.0577124  72.5045721  20.2701436
  20.9573851  73.4540078  20.2013527  20.8398666  72.1763960  19.3977506
  28.4122832  68.6259173   3.9977336  27.8321501  69.2843977   3.6155389
  28.1458764  67.8036517   3.5864754  26.8626398  68.0264230   6.1998657
  27.3626176  68.1380765   5.3912976  27.5062006  67.7225283   6.8399465
  20.9208394  75.9342860  19.0866498  20.4375476  76.7343220  19.2930387
  21.0069333  75.9450805  18.1333942  16.8481731  79.8247395  11.1234932
  17.8024985  79.7931337  11.0564863  16.6494255  79.3638018  11.9385157
  17.4381114  78.3948511  13.6905729  18.2574003  78.8892589  13.7140566
  17.7117921  77.4780479  13.6623297  27.1947710  70.7859263   3.0533685
  26.3073565  71.0708914   2.8353879  27.6101699  70.6253026   2.2060962
  30.5462246  70.8105784   6.7688024  31.3222636  71.3002236   7.0412641
  29.8210380  71.2363838   7.2259893  32.9834804  71.5233403   7.8261965
  33.5779295  71.2829139   7.1155273  33.0561388  70.8040534   8.4535501
  27.1688733  76.3013799   3.2683975  27.1123935  76.7582350   2.4291607
  27.7217076  75.5404483   3.0906818  30.9793539  72.0903531   4.0934094
  30.7230474  71.6900166   4.9242302  30.3546407  72.8047325   3.9684233
  35.2905877  74.8299604   6.6005386  34.7305435  74.8992793   7.3736948
  34.6849381  74.6540589   5.8804882  27.9023513  77.4918580   0.5636504
  27.8472317  77.3262852  -0.3775052  27.2769568  78.1994613   0.7198694
  12.6916028  72.7286644  14.3897926  13.3374891  72.2185598  14.8785151
  12.4833179  73.4655326  14.9641351  25.2169420  79.7967492  19.8890067
  26.0860580  79.9708144  19.5276702  24.7376171  80.6161909  19.7665796
  21.2119638  66.9926689   0.1421822  21.1998308  67.9368529   0.2990093
  22.1043060  66.8096834  -0.1518716  19.3855600  86.9164593  11.5679500
  20.2882847  86.9488203  11.8845995  19.1592970  85.9865044  11.5825836
  25.0271758  63.5869466   4.3967759  24.2604153  63.0327952   4.5424442
  25.4382463  63.6591334   5.2581911  17.0313519  69.8754262  18.4872940
  17.8944980  69.5191066  18.6976265  16.4578929  69.5368156  19.1748345
  36.8761896  91.5056118   9.2935341  37.5140306  91.3862865   8.5898682
  36.7582739  92.4536962   9.3523294  33.6851602  91.4583546   9.2296866
  33.3470113  91.3424611   8.3417401  34.5541370  91.0574711   9.2097872
  34.1671385  92.6118398  15.1883072  34.1560026  92.2171196  14.3163575
  34.3292024  91.8784470  15.7816843  30.8878646  95.3955510  14.1362256
  30.5968512  96.3001140  14.0208922  31.5235630  95.4372037  14.8506325
  31.8134853  92.7732358  10.7263615  32.4098425  92.5488380  10.0120578
  31.8709824  92.0317104  11.3289063  36.4303164  89.2307572   6.3688550
  37.2166253  88.8126995   6.0178967  36.6941868  90.1353664   6.5370198
  41.8311591  89.1682805   7.2721528  42.5636763  88.5982022   7.5059357
  41.0750947  88.7804405   7.7128034  33.4487711  91.5910046   4.4684870
  33.0845918  91.0640667   5.1797792  34.3054827  91.2008515   4.2951356
  39.3537012  82.8804379  11.7316137  39.0220336  83.7499790  11.5077352
  38.7582625  82.5640663  12.4110167  35.8468531  95.0816925  11.1312049
  35.5469254  95.9841964  11.0227857  35.5019591  94.8149108  11.9833202
  29.2981013  91.5330722   7.1648754  28.3731509  91.4006936   7.3726446
  29.5465426  92.3124941   7.6618696  39.2465675  87.5999465   8.8109487
  38.3382552  87.5314874   8.5168248  39.1953271  88.0771410   9.6391312
  33.3206541  89.0189111  16.7544384  32.5439875  89.5783031  16.7447249
  33.9597104  89.5045894  17.2759254  41.1127321  85.8015904  10.5887361
  40.4701702  86.0948437   9.9427155  40.6082250  85.6868824  11.3940557
  38.7667485  89.5479077   1.2773220  39.6785341  89.7806464   1.1020917
  38.2577132  90.1316121   0.7148298  31.5752913  91.8274564  16.3162351
  32.3167597  92.3659608  16.0397175  30.8689899  92.4540853  16.4733903
  37.0508253  93.9703705  14.9134512  37.4591609  93.5286115  14.1689145
  36.3285514  93.3956332  15.1668705  33.4039323  88.9076311  12.2868069
  34.2500518  89.3315725  12.4302718  33.3437960  88.2509936  12.9806632
  37.3737067  94.5304895   8.6686801  36.7445930  94.6950609   7.9662869
  36.9862729  94.9446505   9.4397765  41.2526299  95.4659333   6.0231165
  40.5677337  95.8458234   5.4728198  41.3370149  96.0754660   6.7563113
  36.5538768  86.5680680  13.9449243  36.3099700  87.3222740  13.4083519
  36.8298699  86.9466027  14.7796490  38.5077231  93.1119292  12.6226509
  38.7194126  93.7551052  11.9460890  38.4606979  92.2781609  12.1548439
  36.1103460  85.7237113   9.5263081  35.2487939  86.0218366   9.8179818
  36.1365894  85.9407512   8.5944113  32.9265029  94.2679303   5.9336886
  33.3903375  94.5467006   5.1441509  32.6621827  93.3662748   5.7509977
  29.8189110  93.8150785   8.8716650  30.3890467  94.2438053   8.2334134
  30.4097222  93.5333370   9.5700835  30.3114277  88.9814212  17.1177661
  29.6812937  89.6630493  17.3513058  30.2050365  88.8697294  16.1730799
  39.6223059  95.9891248  10.7948866  40.4440503  95.5871435  10.5131548
  39.6185462  95.8859482  11.7464982  33.3879662  95.5375291  12.9509576
  33.4524095  95.9995698  13.7867748  32.6790586  94.9072656  13.0791886
  23.8896952  88.9016499  10.4758576  24.1404991  89.7863509  10.7416152
  24.4256501  88.7221100   9.7033668  47.7129052  92.3329996   7.1433837
  46.9592760  91.7637394   6.9877842  47.8476593  92.2992661   8.0904472
  29.5895020  83.2834978  19.4802912  29.1961965  82.7301177  20.1550556
  30.4061160  83.5945557  19.8709430  32.5062981  84.6992857  17.0723169
  33.2472694  85.3000010  16.9927631  32.7380903  83.9570495  16.5141211
  27.6504319  89.8849225  15.3501398  27.5357834  88.9834482  15.6508497
  26.7948836  90.1312921  14.9986215  34.7296156  97.8266965  16.9488899
  34.2860010  97.0403343  16.6309803  35.3913370  98.0146115  16.2832790
  29.4883277  99.3562766  11.4749577  30.0390703  99.2279830  10.7026571
  28.6494753  99.6557655  11.1244470  36.8277394  98.1069765  14.9770300
  36.8095870  98.9278646  14.4850569  37.7497314  97.9823840  15.2020441
  33.2850449  95.6213894  15.8193808  33.8178785  94.8602182  15.5893116
  32.7564530  95.3287546  16.5617963  36.4520143  80.7273960  11.3487450
  36.1084413  81.6175602  11.2726561  36.8199106  80.5375618  10.4857035
  34.0017537  85.5632272   4.9145124  33.1459134  85.1739122   4.7350762
  34.4144489  85.6424233   4.0544909  35.5316684  83.0978615   9.3136683
  35.0281479  83.0608751   8.5004489  35.8247291  84.0071358   9.3733340
  31.7759570  83.1817345   8.3202865  32.6412567  82.9860154   7.9608755
  31.8437079  82.9527697   9.2472222  41.3904700  93.4714926   1.7913059
  40.6134143  93.1326085   1.3468221  42.0696181  93.4767549   1.1168024
  36.2056729  88.5909663   1.6819667  35.9006865  88.9055813   2.5329810
  37.1587171  88.6691083   1.7247000  39.6296007  92.9448907   8.4479667
  38.9719682  93.6348169   8.5359795  40.4336406  93.3345339   8.7913653
  29.3821889  85.4119553   5.6919232  29.9565641  85.1894735   4.9592425
  29.9692871  85.4808248   6.4447833  38.4401466  91.2993280   6.4983609
  38.9533348  91.9323272   7.0005318  39.0902690  90.6994475   6.1326969
  31.6844557  82.2860802   4.4194301  31.0308969  81.9709819   3.7950916
  31.6425031  81.6636542   5.1454124  34.9182297  88.7742735   8.7441949
  34.0004858  88.9957682   8.5863637  35.3342441  88.8489046   7.8853656
  35.7017345  90.1734151   3.8744629  36.4489164  90.6855548   3.5651751
  35.9708934  89.8518204   4.7349023  39.2063262  96.2799281   4.6262751
  38.7525589  95.4390191   4.6827942  38.5757229  96.9160680   4.9637531
  38.1496182  87.2091267   5.8563419  37.4118939  86.6968654   6.1873661
  38.4022955  86.7691649   5.0446696  37.6496201  98.1175778   5.5612569
  37.9419176  98.6780835   4.8424935  38.1594822  98.4104339   6.3165728
  38.2507809  79.9867519   6.4505188  38.5566686  79.1264883   6.1631103
  38.9760414  80.5785140   6.2504182  32.5228889  90.2821312   6.9581379
  32.5777499  89.3295149   6.8823856  31.7120091  90.4380752   7.4422677
  30.4621249  88.8998372   4.7171758  29.6489114  89.1992543   5.1236950
  30.9580243  88.5054061   5.4346240  36.0595460  89.3640197  13.5486652
  36.4144848  89.5911670  14.4081117  36.7067592  89.6958573  12.9263907
  41.7893197  92.4858633   4.2535981  41.6511096  92.6760229   3.3257170
  41.4329416  93.2478015   4.7104032  29.9535324  86.4716728  10.3332993
  30.5934703  86.3305487   9.6355956  29.1212854  86.1851241   9.9571595
  41.8162577  94.5535160   9.2647252  42.2499084  94.4610449  10.1130306
  42.5294158  94.5292660   8.6267268  35.5490472  98.1537254  10.7980353
  35.6027494  98.7228190  11.5658069  34.6805253  98.3239139  10.4334390
  26.9563940  86.4417053   5.1105980  27.2170757  87.3562386   5.0015140
  27.7781112  85.9741495   5.2602592  28.4288865  87.8554810  12.2804804
  29.1011919  87.6472172  11.6317453  27.6018652  87.6576896  11.8410036
  42.6778127  94.5958860  11.7980138  42.8714017  95.5004671  12.0439413
  42.5778745  94.1366279  12.6318723  34.3314437  84.4816751  14.2970465
  33.6842352  85.1806700  14.2034941  35.1015453  84.9152895  14.6646713
  37.7393235  94.7465603  17.3721018  37.5878742  94.5176155  16.4551102
  37.7297915  95.7036204  17.3852363  34.5078572  92.3197516  12.3567285
  35.4370632  92.4708675  12.1836252  34.0869602  92.4081537  11.5015931
  33.3066903  96.3448180  10.1265822  33.1677989  95.9766965  10.9991760
  32.5181500  96.8595820   9.9549780  34.8572119  95.7229783   7.5154660
  34.5221951  95.6830553   8.4112310  34.3576064  95.0574499   7.0425070
  28.8316363  91.1297413  13.0407241  28.6936160  90.3977652  13.6418780
  29.7421286  91.0406313  12.7591429  31.4598663  90.8417372  12.5290921
  32.1698282  90.2010564  12.4877539  31.4167971  91.0930267  13.4517102
  39.4485442  97.7784726  15.4497500  39.3897988  97.0943946  14.7828083
  39.8504960  98.5203716  14.9978126  30.1727597  87.8282590  14.3486560
  29.6364954  87.3773329  15.0008157  29.5844306  87.9628499  13.6057025
  39.4502849  95.7424309  13.6811480  38.5629628  95.4050231  13.8037879
  40.0201400  95.0107341  13.9180245  25.9066718  86.9638598  11.4339555
  25.8224907  86.3564267  10.6989965  25.0849425  87.4547616  11.4349051
  32.9804003 100.4025762  10.6472723  32.9074174 101.2080733  11.1592028
  32.5381396 100.6017728   9.8220744  36.0790432  85.4492161   6.8009750
  36.5759132  84.6962124   6.4810820  35.3077414  85.4856478   6.2352959
  43.9320190  91.1532527   8.4428041  43.9210066  92.0357242   8.0721975
  43.0637569  90.8004078   8.2482579  35.4402686 100.3012596  12.8030882
  36.1530658 100.9360061  12.7306783  34.9492715 100.3976462  11.9870884
  37.1620213  94.2063849   4.3748173  36.2276492  94.3265311   4.2052878
  37.3396881  93.3036315   4.1108183  32.6625401  87.5909544   6.5281435
  32.2923189  87.0380585   7.2162340  33.1584493  86.9867678   5.9756435
  40.5492764  90.0481168   4.9098208  41.0153217  90.8809159   4.8358510
  41.0000265  89.5826149   5.6143466  30.4914600  98.0507039  13.6236453
  31.1924059  98.6843522  13.7765847  30.0209715  98.3921771  12.8632092
  38.6168995  96.3924989   1.9084360  38.8928839  96.2781584   2.8178234
  37.7473494  95.9942474   1.8696533  38.5209427  82.4161755   8.9489109
  37.6072507  82.6465982   9.1171316  38.9502529  82.5000199   9.8003141
  38.2915886  90.6051647  11.4489003  37.6387336  90.8527554  10.7941456
  38.6696265  89.7915785  11.1151480  34.3403459  91.3471458  17.9355040
  33.6644096  91.2465587  18.6057415  35.1631092  91.1910672  18.3991037
  33.0826241 102.6538385  12.1712656  33.6344550 102.8170007  12.9361741
  33.4232435 103.2442823  11.4992681  28.0590735  85.0013535  12.7734541
  28.1232061  85.8628366  12.3611938  27.9957855  84.3887537  12.0406899
  27.5343007  87.0736668  16.4207575  28.1615046  86.6913745  17.0345099
  26.6770926  86.8550870  16.7863267  37.9337116  97.4799643  18.0261310
  38.4777020  98.0929601  17.5316265  37.3523961  98.0379221  18.5428323
  36.2194629 100.6020361   9.1576338  36.0945768  99.8010101   8.6487284
  36.8773720 101.0966554   8.6690308  27.8402797  86.9569093   8.3353478
  27.1189383  87.5705061   8.1960952  28.6296053  87.4926858   8.2570124
  38.2829537  98.4029381  10.7855888  37.3359873  98.2834732  10.7134215
  38.6312310  97.5151879  10.8682150  30.6429111  84.2923520  14.6094130
  31.1663512  84.5385816  15.3720439  30.4241444  85.1243555  14.1897267
  35.2875970  98.1982097   6.9860240  35.1400933  97.2698805   7.1667810
  36.1129464  98.2202188   6.5017316  38.8910092  99.0210656   8.0725113
  39.8156640  98.8153517   7.9349564  38.7225396  98.7727057   8.9814455
  31.8481656  85.2337215  12.2943801  31.5078476  84.4345028  12.6964481
  31.1420662  85.5338926  11.7220634  32.4998127  82.3186527  10.7471124
  33.3224197  81.8447006  10.6250014  32.7436191  83.0977011  11.2469810
  35.2837485  86.0519935   1.9792358  35.5001099  86.9344573   1.6781186
  34.8031552  85.6606148   1.2498000  30.0236706  89.0105648   8.5563102
  29.8781287  89.3245951   9.4487384  29.5461910  89.6290548   8.0034001
  31.8833089  86.0008196   8.6043992  31.8694658  85.1049289   8.2676290
  32.6005517  86.0078860   9.2382278  33.7359220  86.4345536  10.6497119
  33.4776998  87.3562607  10.6481450  33.2044260  86.0375971  11.3397583
  38.6805408  99.5396323   3.4287205  38.8542286  98.9742746   2.6761057
  39.1734300 100.3397218   3.2466695  24.4982368  91.5510992  11.4950763
  23.9535836  92.3270800  11.6271038  25.3761718  91.8981797  11.3369885
  31.2869985  84.8822576   3.8731562  31.4085896  83.9539222   4.0722449
  30.9972027  84.8961262   2.9609877  34.1561175  82.5677487   7.0098282
  34.1782872  82.6316820   6.0550261  34.5729234  81.7281995   7.2038788
  44.5344800  92.3032746   5.0477504  44.9775946  91.5540071   4.6496628
  43.6571310  92.2942883   4.6651236  25.2848390  90.6780889  14.3880920
  24.5430126  90.8263524  14.9745551  24.9641134  90.9389154  13.5247670
  41.5672004  96.3062793   2.0571434  42.0923328  96.6450066   1.3320754
  41.4794357  95.3709809   1.8734568  33.2292053 100.2196867  14.1861310
  33.5379179  99.9746014  15.0584010  34.0267535 100.4243505  13.6980181
  30.7711064  86.3954574  18.0821495  30.8199220  87.2716696  17.6999264
  31.3133579  85.8531967  17.5093138  41.2565910  96.9395697  17.3622632
  40.4661454  96.9219836  16.8227131  41.0199265  97.4783991  18.1171668
  41.3763785  93.7888163  14.6755360  41.4261790  93.6238171  15.6170883
  41.2677709  92.9215422  14.2853241  38.6667548  89.7719091  15.9914667
  39.5677410  89.6325556  15.6998665  38.7415522  89.9373546  16.9312844
  33.0010353  87.1485946  14.8367853  32.1313662  87.4419512  14.5650442
  33.2369833  87.7326391  15.5575117  42.8781982  96.2085105  14.9197382
  42.5866790  96.5715085  15.7560843  42.2654113  95.4952113  14.7410714
  44.0777664  93.7737985   7.4399952  44.9124556  94.2127789   7.6037512
  44.2136793  93.2976638   6.6208198  41.1269170  91.3317719  13.3877440
  41.6023292  91.5245366  12.5796291  40.2034736  91.3876905  13.1420823
  35.7049387  83.3665563  12.3533274  36.2231331  84.1026590  12.0279762
  35.3504520  83.6729556  13.1880033  35.9561981  79.7865845   7.8734170
  36.2363735  79.1189035   8.4994597  36.7412588  79.9794941   7.3608834
  39.8270839  88.2083479  11.6205745  40.7788262  88.3081577  11.6417969
  39.6574290  87.4161748  12.1303830  37.8485219  85.2939063  11.8065146
  37.2535151  85.5744075  11.1111635  37.5634915  85.7832964  12.5781887
  42.3058917  91.4289599  10.7348045  42.2735237  90.4905600  10.9207729
  42.9159541  91.5073636  10.0013870  42.4553406  88.2200643  10.7806328
  41.9392454  87.4359099  10.5936257  43.3393354  87.8919359  10.9452848
  40.1164132  81.9641658   6.7402141  39.9188954  81.6556746   7.6245473
  40.7263838  82.6903297   6.8700071  48.1235467  92.4905606   9.8754082
  48.8538855  92.2290894  10.4361785  47.5142412  91.7534328   9.9156150
  46.2050764  90.6313469  10.4728533  45.4783928  90.4969434   9.8645025
  45.7898051  90.9390297  11.2785251  34.0280940  94.3503398  18.2375906
  34.9483950  94.5281997  18.4315952  33.9930524  93.4059444  18.0855605
  27.0243013  92.2604433  10.8798687  27.2429023  93.1921541  10.8986721
  27.4368787  91.9012407  11.6653491  33.9447231  82.7672518   2.8674376
  33.1347959  82.4219603   3.2429622  34.6331648  82.4580062   3.4561987
  35.8737779  81.8450565   4.4898672  36.4268818  82.2646018   5.1488695
  36.1107865  80.9186313   4.5321628  31.8970878  87.8337639  20.2701436
  31.7967605  88.7831996  20.2013527  31.6792420  87.5055878  19.3977506
  39.2516586  83.9551090   3.9977336  38.6715255  84.6135894   3.6155389
  38.9852519  83.1328435   3.5864754  37.7020153  83.3556148   6.1998657
  38.2019931  83.4672682   5.3912976  38.3455760  83.0517201   6.8399465
  31.7602148  91.2634778  19.0866498  31.2769230  92.0635138  19.2930387
  31.8463087  91.2742722  18.1333942  27.6875486  95.1539312  11.1234932
  28.6418739  95.1223255  11.0564863  27.4888009  94.6929936  11.9385157
  28.2774868  93.7240428  13.6905729  29.0967757  94.2184507  13.7140566
  28.5511676  92.8072396  13.6623297  38.0341464  86.1151181   3.0533685
  37.1467319  86.4000831   2.8353879  38.4495453  85.9544944   2.2060962
  41.3856000  86.1397702   6.7688024  42.1616390  86.6294154   7.0412641
  40.6604135  86.5655756   7.2259893  43.8228559  86.8525321   7.8261965
  44.4173050  86.6121057   7.1155273  43.8955143  86.1332451   8.4535501
  38.0082488  91.6305717   3.2683975  37.9517689  92.0874268   2.4291607
  38.5610830  90.8696401   3.0906818  41.8187294  87.4195448   4.0934094
  41.5624228  87.0192084   4.9242302  41.1940162  88.1339242   3.9684233
  46.1299632  90.1591522   6.6005386  45.5699190  90.2284711   7.3736948
  45.5243135  89.9832506   5.8804882  38.7417267  92.8210498   0.5636504
  38.6866071  92.6554769  -0.3775052  38.1163323  93.5286531   0.7198694
  23.5309782  88.0578562  14.3897926  24.1768646  87.5477516  14.8785151
  23.3226933  88.7947244  14.9641351  36.0563174  95.1259410  19.8890067
  36.9254334  95.3000062  19.5276702  35.5769926  95.9453826  19.7665796
  32.0513393  82.3218607   0.1421822  32.0392063  83.2660447   0.2990093
  32.9436815  82.1388752  -0.1518716  30.2249355 102.2456511  11.5679500
  31.1276601 102.2780121  11.8845995  29.9986725 101.3156962  11.5825836
  35.8665512  78.9161383   4.3967759  35.0997908  78.3619870   4.5424442
  36.2776217  78.9883252   5.2581911  27.8707273  85.2046179  18.4872940
  28.7338735  84.8482984  18.6976265  27.2972684  84.8660074  19.1748345
  47.7155650 106.8348036   9.2935341  48.3534060 106.7154783   8.5898682
  47.5976493 107.7828880   9.3523294  44.5245356 106.7875464   9.2296866
  44.1863868 106.6716528   8.3417401  45.3935125 106.3866629   9.2097872
  45.0065139 107.9410315  15.1883072  44.9953780 107.5463114  14.3163575
  45.1685779 107.2076388  15.7816843  41.7272401 110.7247427  14.1362256
  41.4362267 111.6293058  14.0208922  42.3629385 110.7663955  14.8506325
  42.6528607 108.1024276  10.7263615  43.2492180 107.8780298  10.0120578
  42.7103579 107.3609021  11.3289063  50.1930766  98.2096297  11.7316137
  49.8614091  99.0791708  11.5077352  49.5976380  97.8932581  12.4110167
  46.6862286 110.4108843  11.1312049  46.3863009 111.3133882  11.0227857
  46.3413345 110.1441026  11.9833202  40.1374767 106.8622640   7.1648754
  39.2125264 106.7298854   7.3726446  40.3859180 107.6416859   7.6618696
  50.0859429 102.9291383   8.8109487  49.1776307 102.8606791   8.5168248
  50.0347025 103.4063328   9.6391312  44.1600295 104.3481028  16.7544384
  43.3833629 104.9074949  16.7447249  44.7990858 104.8337811  17.2759254
  51.9521076 101.1307821  10.5887361  51.3095456 101.4240354   9.9427155
  51.4476004 101.0160742  11.3940557  42.4146668 107.1566482  16.3162351
  43.1561352 107.6951526  16.0397175  41.7083653 107.7832771  16.4733903
  47.8902007 109.2995622  14.9134512  48.2985363 108.8578033  14.1689145
  47.1679269 108.7248250  15.1668705  44.2433077 104.2368229  12.2868069
  45.0894272 104.6607643  12.4302718  44.1831715 103.5801853  12.9806632
  47.3932523 101.8972597  13.9449243  47.1493454 102.6514658  13.4083519
  47.6692453 102.2757945  14.7796490  49.3470985 108.4411210  12.6226509
  49.5587881 109.0842970  11.9460890  49.3000734 107.6073526  12.1548439
  46.9497214 101.0529030   9.5263081  46.0881693 101.3510284   9.8179818
  46.9759649 101.2699429   8.5944113  40.6582865 109.1442703   8.8716650
  41.2284222 109.5729971   8.2334134  41.2490977 108.8625287   9.5700835
  41.1508031 104.3106130  17.1177661  40.5206692 104.9922411  17.3513058
  41.0444119 104.1989212  16.1730799  44.2273417 110.8667209  12.9509576
  44.2917849 111.3287616  13.7867748  43.5184341 110.2364573  13.0791886
  34.7290707 104.2308416  10.4758576  34.9798745 105.1155426  10.7416152
  35.2650255 104.0513018   9.7033668  40.4288774  98.6126896  19.4802912
  40.0355720  98.0593094  20.1550556  41.2454914  98.9237474  19.8709430
  43.3456735 100.0284775  17.0723169  44.0866448 100.6291928  16.9927631
  43.5774658  99.2862413  16.5141211  38.4898073 105.2141142  15.3501398
  38.3751588 104.3126399  15.6508497  37.6342591 105.4604839  14.9986215
  45.5689911 113.1558883  16.9488899  45.1253765 112.3695261  16.6309803
  46.2307124 113.3438033  16.2832790  40.3277032 114.6854684  11.4749577
  40.8784457 114.5571747  10.7026571  39.4888508 114.9849573  11.1244470
  47.6671149 113.4361682  14.9770300  47.6489624 114.2570563  14.4850569
  48.5891069 113.3115758  15.2020441  44.1244203 110.9505812  15.8193808
  44.6572540 110.1894100  15.5893116  43.5958284 110.6579464  16.5617963
  47.2913898  96.0565878  11.3487450  46.9478167  96.9467520  11.2726561
  47.6592861  95.8667536  10.4857035  44.8411292 100.8924190   4.9145124
  43.9852888 100.5031040   4.7350762  45.2538243 100.9716151   4.0544909
  46.3710438  98.4270533   9.3136683  45.8675234  98.3900668   8.5004489
  46.6641045  99.3363276   9.3733340  42.6153324  98.5109263   8.3202865
  43.4806321  98.3152071   7.9608755  42.6830833  98.2819615   9.2472222
  40.2215643 100.7411471   5.6919232  40.7959395 100.5186652   4.9592425
  40.8086626 100.8100165   6.4447833  42.5238311  97.6152720   4.4194301
  41.8702723  97.3001737   3.7950916  42.4818785  96.9928460   5.1454124
  45.7576051 104.1034653   8.7441949  44.8398613 104.3249600   8.5863637
  46.1736195 104.1780964   7.8853656  49.0901564  95.3159437   6.4505188
  49.3960440  94.4556801   6.1631103  49.8154168  95.9077057   6.2504182
  43.3622643 105.6113230   6.9581379  43.4171253 104.6587067   6.8823856
  42.5513845 105.7672669   7.4422677  41.3015003 104.2290290   4.7171758
  40.4882869 104.5284460   5.1236950  41.7973997 103.8345979   5.4346240
  46.8989215 104.6932114  13.5486652  47.2538603 104.9203587  14.4081117
  47.5461346 105.0250491  12.9263907  40.7929078 101.8008645  10.3332993
  41.4328457 101.6597405   9.6355956  39.9606609 101.5143159   9.9571595
  37.7957694 101.7708970   5.1105980  38.0564512 102.6854304   5.0015140
  38.6174867 101.3033413   5.2602592  39.2682620 103.1846728  12.2804804
  39.9405673 102.9764090  11.6317453  38.4412406 102.9868814  11.8410036
  45.1708192  99.8108668  14.2970465  44.5236107 100.5098618  14.2034941
  45.9409207 100.2444812  14.6646713  48.5786990 110.0757521  17.3721018
  48.4272496 109.8468072  16.4551102  48.5691669 111.0328122  17.3852363
  45.3472326 107.6489433  12.3567285  46.2764386 107.8000593  12.1836252
  44.9263356 107.7373454  11.5015931  44.1460658 111.6740098  10.1265822
  44.0071744 111.3058882  10.9991760  43.3575254 112.1887737   9.9549780
  39.6710117 106.4589331  13.0407241  39.5329915 105.7269569  13.6418780
  40.5815041 106.3698231  12.7591429  42.2992418 106.1709290  12.5290921
  43.0092036 105.5302482  12.4877539  42.2561726 106.4222185  13.4517102
  50.2879196 113.1076643  15.4497500  50.2291743 112.4235863  14.7828083
  50.6898715 113.8495633  14.9978126  41.0121352 103.1574508  14.3486560
  40.4758709 102.7065246  15.0008157  40.4238060 103.2920417  13.6057025
  50.2896604 111.0716227  13.6811480  49.4023382 110.7342149  13.8037879
  50.8595155 110.3399258  13.9180245  36.7460473 102.2930515  11.4339555
  36.6618662 101.6856185  10.6989965  35.9243179 102.7839534  11.4349051
  46.9184187 100.7784079   6.8009750  47.4152886 100.0254041   6.4810820
  46.1471168 100.8148396   6.2352959  43.5019156 102.9201462   6.5281435
  43.1316943 102.3672502   7.2162340  43.9978248 102.3159595   5.9756435
  41.3308354 113.3798957  13.6236453  42.0317814 114.0135440  13.7765847
  40.8603469 113.7213689  12.8632092  49.3603182  97.7453672   8.9489109
  48.4466261  97.9757899   9.1171316  49.7896283  97.8292117   9.8003141
  49.1309640 105.9343564  11.4489003  48.4781090 106.1819472  10.7941456
  49.5090020 105.1207703  11.1151480  45.1797213 106.6763375  17.9355040
  44.5037850 106.5757505  18.6057415  46.0024847 106.5202589  18.3991037
  38.8984489 100.3305453  12.7734541  38.9625816 101.1920284  12.3611938
  38.8351609  99.7179454  12.0406899  38.3736762 102.4028585  16.4207575
  39.0008801 102.0205663  17.0345099  37.5164681 102.1842787  16.7863267
  48.7730870 112.8091560  18.0261310  49.3170774 113.4221519  17.5316265
  48.1917715 113.3671139  18.5428323  38.6796551 102.2861011   8.3353478
  37.9583137 102.8996979   8.1960952  39.4689807 102.8218776   8.2570124
  41.4822865  99.6215437  14.6094130  42.0057267  99.8677734  15.3720439
  41.2635198 100.4535472  14.1897267  42.6875410 100.5629133  12.2943801
  42.3472230  99.7636946  12.6964481  41.9814416 100.8630843  11.7220634
  43.3391882  97.6478445  10.7471124  44.1617951  97.1738923  10.6250014
  43.5829945  98.4268929  11.2469810  40.8630461 104.3397566   8.5563102
  40.7175041 104.6537869   9.4487384  40.3855664 104.9582466   8.0034001
  42.7226844 101.3300114   8.6043992  42.7088412 100.4341207   8.2676290
  43.4399272 101.3370777   9.2382278  44.5752974 101.7637454  10.6497119
  44.3170752 102.6854524  10.6481450  44.0438015 101.3667888  11.3397583
  35.3376123 106.8802910  11.4950763  34.7929591 107.6562718  11.6271038
  36.2155473 107.2273715  11.3369885  42.1263739 100.2114494   3.8731562
  42.2479651  99.2831140   4.0722449  41.8365782 100.2253180   2.9609877
  44.9954930  97.8969404   7.0098282  45.0176627  97.9608737   6.0550261
  45.4122989  97.0573913   7.2038788  36.1242145 106.0072806  14.3880920
  35.3823881 106.1555442  14.9745551  35.8034889 106.2681072  13.5247670
  44.0685807 115.5488785  14.1861310  44.3772934 115.3037931  15.0584010
  44.8661289 115.7535423  13.6980181  41.6104819 101.7246491  18.0821495
  41.6592974 102.6008614  17.6999264  42.1527333 101.1823884  17.5093138
  52.0959665 112.2687615  17.3622632  51.3055208 112.2511753  16.8227131
  51.8593019 112.8075908  18.1171668  52.2157540 109.1180081  14.6755360
  52.2655545 108.9530088  15.6170883  52.1071463 108.2507340  14.2853241
  49.5061302 105.1011009  15.9914667  50.4071165 104.9617474  15.6998665
  49.5809277 105.2665464  16.9312844  43.8404107 102.4777864  14.8367853
  42.9707417 102.7711430  14.5650442  44.0763588 103.0618309  15.5575117
  53.7175737 111.5377022  14.9197382  53.4260545 111.9007003  15.7560843
  53.1047868 110.8244031  14.7410714  51.9662925 106.6609637  13.3877440
  52.4417046 106.8537283  12.5796291  51.0428490 106.7168823  13.1420823
  46.5443141  98.6957481  12.3533274  47.0625085  99.4318508  12.0279762
  46.1898274  99.0021474  13.1880033  46.7955735  95.1157763   7.8734170
  47.0757489  94.4480952   8.4994597  47.5806342  95.3086859   7.3608834
  50.6664594 103.5375397  11.6205745  51.6182017 103.6373495  11.6417969
  50.4968044 102.7453666  12.1303830  48.6878973 100.6230980  11.8065146
  48.0928905 100.9035993  11.1111635  48.4028670 101.1124881  12.5781887
  53.2947160 103.5492560  10.7806328  52.7786209 102.7651017  10.5936257
  54.1787109 103.2211277  10.9452848  50.9557887  97.2933576   6.7402141
  50.7582708  96.9848664   7.6245473  51.5657593  98.0195215   6.8700071
  44.8674695 109.6795316  18.2375906  45.7877704 109.8573915  18.4315952
  44.8324278 108.7351361  18.0855605  37.8636768 107.5896351  10.8798687
  38.0822777 108.5213458  10.8986721  38.2762541 107.2304325  11.6653491
  44.7840985  98.0964436   2.8674376  43.9741714  97.7511521   3.2429622
  45.4725402  97.7871980   3.4561987  46.7131534  97.1742483   4.4898672
  47.2662572  97.5937936   5.1488695  46.9501620  96.2478231   4.5321628
  42.7364633 103.1629556  20.2701436  42.6361360 104.1123913  20.2013527
  42.5186175 102.8347795  19.3977506  48.5413907  98.6848066   6.1998657
  49.0413685  98.7964600   5.3912976  49.1849515  98.3809118   6.8399465
  42.5995903 106.5926695  19.0866498  42.1162985 107.3927055  19.2930387
  42.6856842 106.6034640  18.1333942  38.5269240 110.4831230  11.1234932
  39.4812494 110.4515172  11.0564863  38.3281764 110.0221854  11.9385157
  39.1168622 109.0532346  13.6905729  39.9361511 109.5476425  13.7140566
  39.3905430 108.1364314  13.6623297  34.3703537 103.3870480  14.3897926
  35.0162400 102.8769434  14.8785151  34.1620688 104.1239161  14.9641351
  46.8956929 110.4551327  19.8890067  47.7648089 110.6291980  19.5276702
  46.4163680 111.2745744  19.7665796  41.0643109 117.5748428  11.5679500
  41.9670356 117.6072039  11.8845995  40.8380479 116.6448879  11.5825836
  46.7059267  94.2453301   4.3967759  45.9391662  93.6911788   4.5424442
  47.1169972  94.3175170   5.2581911  38.7101028 100.5338097  18.4872940
  39.5732489 100.1774902  18.6976265  38.1366438 100.1951992  19.1748345
  51.2682529 113.9418814  19.4802912  50.8749474 113.3885012  20.1550556
  52.0848669 114.2529392  19.8709430  54.1850490 115.3576693  17.0723169
  54.9260203 115.9583846  16.9927631  54.4168412 114.6154330  16.5141211
  49.2130516 117.7320503  16.4207575  49.8402555 117.3497580  17.0345099
  48.3558435 117.5134705  16.7863267  52.4498573 117.0538409  18.0821495
  52.4986729 117.9300532  17.6999264  52.9921088 116.5115802  17.5093138
  53.5758387 118.4921474  20.2701436  53.4755114 119.4415831  20.2013527
  53.3579929 118.1639713  19.3977506  45.2097291 118.7162397  14.3897926
  45.8556155 118.2061351  14.8785151  45.0014442 119.4531079  14.9641351
  49.5494782 115.8630015  18.4872940  50.4126244 115.5066819  18.6976265
  48.9760193 115.5243909  19.1748345  28.6091689  59.4554930   2.1742807
  28.5504235  58.7714151   1.5073390  29.0111207  60.1973920   1.7223433
  27.0943363  59.1569848   4.7506617  27.6383267  59.7699806   4.2561572
  26.5130207  59.7149426   5.2673630  30.4172157  58.6165902   4.0867938
  29.6267701  58.5990041   3.5472438  30.1805512  59.1554195   4.8416975
  32.0388229  57.8855310   1.6442688  31.7473037  58.2485290   2.4806149
  31.4260360  57.1722318   1.4656020  25.2169421  56.8029615   6.6135373
  26.0860581  56.9770267   6.2522008  24.7376173  57.6224031   6.4911103
  36.8761897  68.5118240  -3.9819352  37.5140307  68.3924988  -4.6856012
  36.7582740  69.4599084  -3.9231400  33.6851603  68.4645669  -4.0457827
  33.3470115  68.3486733  -4.9337292  34.5541371  68.0636834  -4.0656821
  34.1671386  69.6180520   1.9128378  34.1560027  69.2233319   1.0408882
  34.3292026  68.8846593   2.5062150  30.8878647  72.4017632   0.8607562
  30.5968513  73.3063263   0.7454229  31.5235632  72.4434160   1.5751632
  31.8134854  69.7794481  -2.5491078  32.4098426  69.5550503  -3.2634115
  31.8709826  69.0379226  -1.9465630  41.8311593  66.1744928  -6.0033165
  42.5636764  65.6044144  -5.7695336  41.0750948  65.7866528  -5.5626660
  39.3537013  59.8866502  -1.5438557  39.0220338  60.7561913  -1.7677342
  38.7582626  59.5702786  -0.8644526  35.8468532  72.0879048  -2.1442644
  35.5469256  72.9904086  -2.2526837  35.5019592  71.8211231  -1.2921491
  39.2465676  64.6061588  -4.4645207  38.3382554  64.5376996  -4.7586446
  39.1953272  65.0833533  -3.6363381  33.3206542  66.0251233   3.4789691
  32.5439876  66.5845154   3.4692555  33.9597105  66.5108016   4.0004561
  41.1127323  62.8078026  -2.6867333  40.4701703  63.1010559  -3.3327538
  40.6082251  62.6930947  -1.8814136  31.5752914  68.8336687   3.0407658
  32.3167599  69.3721731   2.7642481  30.8689900  69.4602976   3.1979209
  37.0508254  70.9765827   1.6379819  37.4591610  70.5348238   0.8934451
  36.3285515  70.4018455   1.8914012  33.4039324  65.9138434  -0.9886624
  34.2500519  66.3377848  -0.8451975  33.3437962  65.2572058  -0.2948061
  37.3737069  71.5367018  -4.6067892  36.7445931  71.7012732  -5.3091824
  36.9862731  71.9508627  -3.8356928  41.2526300  72.4721456  -7.2523528
  40.5677339  72.8520357  -7.8026495  41.3370150  73.0816782  -6.5191581
  36.5538769  63.5742802   0.6694550  36.3099701  64.3284863   0.1328825
  36.8298700  63.9528150   1.5041797  38.5077232  70.1181415  -0.6528185
  38.7194127  70.7613175  -1.3293804  38.4606980  69.2843731  -1.1206255
  29.8189112  70.8212907  -4.4038044  30.3890469  71.2500176  -5.0420559
  30.4097223  70.5395492  -3.7053858  30.3114278  65.9876335   3.8422968
  29.6812939  66.6692616   4.0758364  30.2050366  65.8759417   2.8976106
  39.6223060  72.9953370  -2.4805827  40.4440504  72.5933557  -2.7623146
  39.6185463  72.8921604  -1.5289712  33.3879663  72.5437413  -0.3245117
  33.4524096  73.0057821   0.5113055  32.6790587  71.9134778  -0.1962807
  47.7129053  69.3392119  -6.1320856  46.9592761  68.7699517  -6.2876852
  47.8476594  69.3054783  -5.1850221  29.5895021  60.2897101   6.2048219
  29.1961966  59.7363299   6.8795863  30.4061161  60.6007679   6.5954736
  32.5062982  61.7054980   3.7968475  33.2472695  62.3062133   3.7172938
  32.7380905  60.9632618   3.2386518  27.6504320  66.8911347   2.0746705
  27.5357835  65.9896604   2.3753804  26.7948838  67.1375044   1.7231521
  34.7296158  74.8329087   3.6734205  34.2860012  74.0465466   3.3555110
  35.3913371  75.0208238   3.0078096  29.4883279  76.3624889  -1.8005116
  30.0390704  76.2341952  -2.5728122  28.6494755  76.6619778  -2.1510223
  36.8277396  75.1131887   1.7015607  36.8095871  75.9340768   1.2095876
  37.7497316  74.9885963   1.9265748  33.2850450  72.6276017   2.5439115
  33.8178787  71.8664305   2.3138423  32.7564531  72.3349669   3.2863270
  39.6296008  69.9511030  -4.8275027  38.9719683  70.6410291  -4.7394898
  40.4336408  70.3407462  -4.4841040  38.4401467  68.3055403  -6.7771085
  38.9533349  68.9385394  -6.2749375  39.0902691  67.7056598  -7.1427725
  34.9182298  65.7804858  -4.5312744  34.0004860  66.0019805  -4.6891056
  35.3342442  65.8551169  -5.3901037  39.2063263  73.2861404  -8.6491942
  38.7525591  72.4452314  -8.5926752  38.5757230  73.9222802  -8.3117162
  37.6496203  75.1237901  -7.7142124  37.9419177  75.6842958  -8.4329758
  38.1594823  75.4166462  -6.9588965  36.0595462  66.3702319   0.2731958
  36.4144849  66.5973792   1.1326424  36.7067593  66.7020696  -0.3490786
  41.7893199  69.4920755  -9.0218713  41.6511097  69.6822351  -9.9497523
  41.4329417  70.2540138  -8.5650661  41.8162578  71.5597282  -4.0107441
  42.2499085  71.4672571  -3.1624387  42.5294159  71.5354783  -4.6487425
  35.5490473  75.1599376  -2.4774340  35.6027495  75.7290313  -1.7096625
  34.6805255  75.3301261  -2.8420303  28.4288867  64.8616932  -0.9949889
  29.1011920  64.6534295  -1.6437240  27.6018653  64.6639018  -1.4344657
  42.6778128  71.6020983  -1.4774556  42.8714018  72.5066793  -1.2315281
  42.5778746  71.1428402  -0.6435971  34.3314439  61.4878873   1.0215772
  33.6842354  62.1868823   0.9280248  35.1015454  61.9215017   1.3892020
  37.7393237  71.7527726   4.0966325  37.5878743  71.5238277   3.1796409
  37.7297916  72.7098327   4.1097670  34.5078573  69.3259638  -0.9187409
  35.4370633  69.4770798  -1.0918441  34.0869603  69.4143659  -1.7738762
  33.3066905  73.3510303  -3.1488871  33.1677990  72.9829087  -2.2762933
  32.5181501  73.8657942  -3.3204913  34.8572120  72.7291905  -5.7600033
  34.5221952  72.6892675  -4.8642383  34.3576066  72.0636621  -6.2329623
  28.8316364  68.1359535  -0.2347452  28.6936162  67.4039774   0.3664087
  29.7421287  68.0468436  -0.5163264  31.4598664  67.8479495  -0.7463772
  32.1698283  67.2072687  -0.7877154  31.4167973  68.0992390   0.1762408
  39.4485443  74.7846848   2.1742807  39.3897989  74.1006068   1.5073390
  39.8504962  75.5265838   1.7223433  30.1727598  64.8344713   1.0731867
  29.6364955  64.3835451   1.7253463  29.5844307  64.9690622   0.3302331
  39.4502850  72.7486432   0.4056786  38.5629629  72.4112354   0.5283185
  40.0201401  72.0169463   0.6425552  32.9804004  77.4087884  -2.6281970
  32.9074175  78.2142856  -2.1162666  32.5381397  77.6079850  -3.4533949
  43.9320191  68.1594649  -4.8326652  43.9210067  69.0419365  -5.2032719
  43.0637570  67.8066200  -5.0272115  35.4402687  77.3074718  -0.4723812
  36.1530660  77.9422183  -0.5447910  34.9492716  77.4038584  -1.2883810
  30.4914601  75.0569162   0.3481759  31.1924060  75.6905645   0.5011153
  30.0209716  75.3983893  -0.4122602  38.2915887  67.6113769  -1.8265690
  37.6387337  67.8589677  -2.4813238  38.6696267  66.7977908  -2.1603213
  34.3403460  68.3533580   4.6600347  33.6644097  68.2527710   5.3302722
  35.1631094  68.1972794   5.1236344  33.0826243  79.6600508  -1.1042037
  33.6344551  79.8232129  -0.3392952  33.4232436  80.2504946  -1.7762013
  27.5343008  64.0798790   3.1452882  28.1615047  63.6975868   3.7590406
  26.6770927  63.8612992   3.5108574  37.9337117  74.4861765   4.7506617
  38.4777021  75.0991724   4.2561572  37.3523962  75.0441344   5.2673630
  36.2194630  77.6082483  -4.1178355  36.0945769  76.8072223  -4.6267410
  36.8773721  78.1028677  -4.6064385  38.2829538  75.4091503  -2.4898805
  37.3359874  75.2896855  -2.5620478  38.6312312  74.5214002  -2.4072544
  30.6429112  61.2985642   1.3339437  31.1663514  61.5447939   2.0965746
  30.4241445  62.1305677   0.9142574  35.2875972  75.2044220  -6.2894453
  35.1400934  74.2760927  -6.1086883  36.1129465  75.2264310  -6.7737378
  38.8910094  76.0272778  -5.2029580  39.8156641  75.8215640  -5.3405129
  38.7225397  75.7789180  -4.2940239  31.8481657  62.2399338  -0.9810893
  31.5078477  61.4407151  -0.5790213  31.1420663  62.5401048  -1.5534060
  33.7359221  63.4407659  -2.6257574  33.4776999  64.3624729  -2.6273244
  33.2044261  63.0438093  -1.9357110  38.6805410  76.5458446  -9.8467489
  38.8542287  75.9804868 -10.5993636  39.1734301  77.3459341 -10.0287999
  24.4982370  68.5573115  -1.7803930  23.9535838  69.3332923  -1.6483656
  25.3761719  68.9043919  -1.9384808  44.5344801  69.3094869  -8.2277189
  44.9775947  68.5602194  -8.6258066  43.6571311  69.3005005  -8.6103457
  25.2848391  67.6843011   1.1126227  24.5430127  67.8325647   1.6990857
  24.9641136  67.9451277   0.2492976  41.5672005  73.3124916 -11.2183260
  42.0923329  73.6512189 -11.9433940  41.4794358  72.3771931 -11.4020125
  33.2292054  77.2258989   0.9106617  33.5379181  76.9808136   1.7829317
  34.0267536  77.4305628   0.4225487  30.7711066  63.4016696   4.8066801
  30.8199221  64.2778819   4.4244571  31.3133580  62.8594089   4.2338444
  41.2565911  73.9457819   4.0867938  40.4661455  73.9281958   3.5472438
  41.0199266  74.4846113   4.8416975  41.3763786  70.7950286   1.4000667
  41.4261791  70.6300293   2.3416190  41.2677710  69.9277545   1.0098548
  38.6667549  66.7781214   2.7159974  39.5677412  66.6387679   2.4243971
  38.7415523  66.9435669   3.6558151  33.0010354  64.1548069   1.5613160
  32.1313664  64.4481635   1.2895748  33.2369835  64.7388514   2.2820423
  42.8781983  73.2147227   1.6442688  42.5866792  73.5777208   2.4806149
  42.2654115  72.5014236   1.4656020  44.0777666  70.7800107  -5.8354741
  44.9124557  71.2189911  -5.6717181  44.2136794  70.3038760  -6.6546496
  41.1269172  68.3379842   0.1122746  41.6023293  68.5307488  -0.6958402
  40.2034737  68.3939028  -0.1333870  35.7049388  60.3727686  -0.9221420
  36.2231332  61.1088712  -1.2474931  35.3504521  60.6791679  -0.0874661
  39.8270841  65.2145602  -1.6548948  40.7788263  65.3143700  -1.6336724
  39.6574291  64.4223871  -1.1450864  37.8485220  62.3001185  -1.4689547
  37.2535152  62.5806198  -2.1643059  37.5634917  62.7895086  -0.6972806
  42.3058918  68.4351722  -2.5406648  42.2735238  67.4967722  -2.3546965
  42.9159542  68.5135758  -3.2740824  42.4553407  65.2262765  -2.4948365
  41.9392455  64.4421222  -2.6818436  43.3393355  64.8981482  -2.3301846
  48.1235468  69.4967729  -3.4000612  48.8538857  69.2353017  -2.8392908
  47.5142414  68.7596451  -3.3598544  46.2050765  67.6375591  -2.8026160
  45.4783929  67.5031556  -3.4109669  45.7898052  67.9452420  -1.9969442
  34.0280942  71.3565521   4.9621213  34.9483951  71.5344120   5.1561259
  33.9930525  70.4121566   4.8100912  27.0243014  69.2666556  -2.3956006
  27.2429024  70.1983663  -2.3767972  27.4368788  68.9074530  -1.6101202
  31.8970880  64.8399761   6.9946743  31.7967606  65.7894118   6.9258834
  31.6792422  64.5118000   6.1222813  31.7602150  68.2696900   5.8111804
  31.2769231  69.0697260   6.0175693  31.8463089  68.2804845   4.8579248
  27.6875487  72.1601435  -2.1519762  28.6418741  72.1285377  -2.2189830
  27.4888011  71.6992059  -1.3369536  28.2774869  70.7302551   0.4151036
  29.0967758  71.2246630   0.4385873  28.5511677  69.8134519   0.3868603
  43.8228560  63.8587443  -5.4492729  44.4173051  63.6183179  -6.1599421
  43.8955144  63.1394574  -4.8219193  46.1299633  67.1653644  -6.6749308
  45.5699191  67.2346834  -5.9017746  45.5243136  66.9894629  -7.3949811
  23.5309784  65.0640685   1.1143233  24.1768647  64.5539639   1.6030458
  23.3226935  65.8009366   1.6886658  36.0563176  72.1321532   6.6135373
  36.9254335  72.3062184   6.2522008  35.5769927  72.9515949   6.4911103
  30.2249356  79.2518633  -1.7075193  31.1276603  79.2842243  -1.3908698
  29.9986726  78.3219084  -1.6928857  27.8707274  62.2108302   5.2118247
  28.7338736  61.8545107   5.4221572  27.2972685  61.8722197   5.8993651
  47.7155651  83.8410158  -3.9819352  48.3534061  83.7216906  -4.6856012
  47.5976494  84.7891002  -3.9231400  44.5245358  83.7937586  -4.0457827
  44.1863869  83.6778651  -4.9337292  45.3935126  83.3928751  -4.0656821
  45.0065141  84.9472438   1.9128378  44.9953781  84.5525236   1.0408882
  45.1685780  84.2138511   2.5062150  41.7272402  87.7309550   0.8607562
  41.4362268  88.6355181   0.7454229  42.3629386  87.7726077   1.5751632
  42.6528609  85.1086398  -2.5491078  43.2492181  84.8842421  -3.2634115
  42.7103580  84.3671144  -1.9465630  50.1930767  75.2158419  -1.5438557
  49.8614092  76.0853830  -1.7677342  49.5976381  74.8994703  -0.8644526
  46.6862287  87.4170965  -2.1442644  46.3863010  88.3196004  -2.2526837
  46.3413346  87.1503149  -1.2921491  40.1374768  83.8684762  -6.1105940
  39.2125265  83.7360976  -5.9028248  40.3859182  84.6478981  -5.6135997
  50.0859431  79.9353505  -4.4645207  49.1776308  79.8668914  -4.7586446
  50.0347027  80.4125450  -3.6363381  44.1600296  81.3543151   3.4789691
  43.3833631  81.9137071   3.4692555  44.7990860  81.8399934   4.0004561
  51.9521077  78.1369944  -2.6867333  51.3095457  78.4302477  -3.3327538
  51.4476006  78.0222864  -1.8814136  42.4146669  84.1628604   3.0407658
  43.1561353  84.7013648   2.7642481  41.7083654  84.7894893   3.1979209
  47.8902008  86.3057745   1.6379819  48.2985364  85.8640155   0.8934451
  47.1679270  85.7310372   1.8914012  44.2433078  81.2430352  -0.9886624
  45.0894274  81.6669765  -0.8451975  44.1831716  80.5863976  -0.2948061
  47.3932524  78.9034720   0.6694550  47.1493456  79.6576781   0.1328825
  47.6692454  79.2820068   1.5041797  49.3470987  85.4473332  -0.6528185
  49.5587882  86.0905092  -1.3293804  49.3000735  84.6135649  -1.1206255
  46.9497216  78.0591153  -3.7491613  46.0881695  78.3572407  -3.4574875
  46.9759650  78.2761552  -4.6810580  40.6582866  86.1504825  -4.4038044
  41.2284223  86.5792094  -5.0420559  41.2490978  85.8687410  -3.7053858
  41.1508033  81.3168253   3.8422968  40.5206693  81.9984533   4.0758364
  41.0444120  81.2051334   2.8976106  44.2273418  87.8729331  -0.3245117
  44.2917850  88.3349738   0.5113055  43.5184342  87.2426696  -0.1962807
  34.7290708  81.2370539  -2.7996117  34.9798746  82.1217549  -2.5338542
  35.2650256  81.0575141  -3.5721026  40.4288775  75.6189018   6.2048219
  40.0355721  75.0655217   6.8795863  41.2454916  75.9299597   6.5954736
  43.3456736  77.0346898   3.7968475  44.0866450  77.6354051   3.7172938
  43.5774659  76.2924535   3.2386518  38.4898074  82.2203265   2.0746705
  38.3751589  81.3188522   2.3753804  37.6342592  82.4666962   1.7231521
  45.5689912  90.1621005   3.6734205  45.1253766  89.3757384   3.3555110
  46.2307126  90.3500156   3.0078096  40.3277033  91.6916807  -1.8005116
  40.8784458  91.5633870  -2.5728122  39.4888509  91.9911696  -2.1510223
  47.6671150  90.4423805   1.7015607  47.6489625  91.2632686   1.2095876
  48.5891070  90.3177880   1.9265748  44.1244204  87.9567935   2.5439115
  44.6572541  87.1956223   2.3138423  43.5958285  87.6641586   3.2863270
  47.2913899  73.0628000  -1.9267243  46.9478169  73.9529642  -2.0028133
  47.6592862  72.8729658  -2.7897658  44.8411293  77.8986312  -8.3609570
  43.9852889  77.5093163  -8.5403931  45.2538245  77.9778273  -9.2209784
  46.3710440  75.4332656  -3.9618010  45.8675235  75.3962791  -4.7750205
  46.6641046  76.3425398  -3.9021353  42.6153325  75.5171385  -4.9551828
  43.4806322  75.3214194  -5.3145939  42.6830834  75.2881737  -4.0282471
  40.2215645  77.7473593  -7.5835461  40.7959396  77.5248775  -8.3162268
  40.8086627  77.8162288  -6.8306860  42.5238312  74.6214842  -8.8560392
  41.8702725  74.3063859  -9.4803777  42.4818786  73.9990583  -8.1300569
  45.7576053  81.1096776  -4.5312744  44.8398614  81.3311723  -4.6891056
  46.1736196  81.1843086  -5.3901037  49.0901565  72.3221560  -6.8249505
  49.3960442  71.4618923  -7.1123590  49.8154170  72.9139180  -7.0250512
  43.3622645  82.6175353  -6.3173314  43.4171254  81.6649189  -6.3930838
  42.5513847  82.7734792  -5.8332016  41.3015005  81.2352412  -8.5582936
  40.4882870  81.5346583  -8.1517743  41.7973999  80.8408101  -7.8408453
  46.8989216  81.6994237   0.2731958  47.2538604  81.9265710   1.1326424
  47.5461347  82.0312614  -0.3490786  40.7929079  78.8070768  -2.9421701
  41.4328459  78.6659527  -3.6398737  39.9606610  78.5205281  -3.3183099
  37.7957696  78.7771093  -8.1648714  38.0564513  79.6916426  -8.2739553
  38.6174868  78.3095536  -8.0152101  39.2682621  80.1908850  -0.9949889
  39.9405674  79.9826212  -1.6437240  38.4412408  79.9930936  -1.4344657
  45.1708193  76.8170791   1.0215772  44.5236108  77.5160741   0.9280248
  45.9409208  77.2506935   1.3892020  48.5786991  87.0819643   4.0966325
  48.4272497  86.8530195   3.1796409  48.5691670  88.0390245   4.1097670
  45.3472327  84.6551556  -0.9187409  46.2764387  84.8062716  -1.0918441
  44.9263357  84.7435577  -1.7738762  44.1460659  88.6802220  -3.1488871
  44.0071745  88.3121005  -2.2762933  43.3575255  89.1949860  -3.3204913
  39.6710118  83.4651453  -0.2347452  39.5329916  82.7331692   0.3664087
  40.5815042  83.3760353  -0.5163264  42.2992419  83.1771412  -0.7463772
  43.0092037  82.5364605  -0.7877154  42.2561727  83.4284307   0.1762408
  50.2879198  90.1138766   2.1742807  50.2291744  89.4297986   1.5073390
  50.6898716  90.8557756   1.7223433  41.0121353  80.1636630   1.0731867
  40.4758710  79.7127369   1.7253463  40.4238061  80.2982539   0.3302331
  50.2896605  88.0778350   0.4056786  49.4023384  87.7404272   0.5283185
  50.8595156  87.3461381   0.6425552  36.7460474  79.2992638  -1.8415138
  36.6618663  78.6918308  -2.5764729  35.9243181  79.7901656  -1.8405642
  46.9184188  77.7846202  -6.4744943  47.4152888  77.0316164  -6.7943873
  46.1471170  77.8210518  -7.0401734  43.5019157  79.9263585  -6.7473259
  43.1316944  79.3734625  -6.0592353  43.9978249  79.3221718  -7.2998259
  41.3308355  90.3861080   0.3481759  42.0317815  91.0197563   0.5011153
  40.8603470  90.7275811  -0.4122602  49.3603183  74.7515795  -4.3265585
  48.4466263  74.9820022  -4.1583378  49.7896284  74.8354239  -3.4751552
  49.1309641  82.9405687  -1.8265690  48.4781092  83.1881594  -2.4813238
  49.5090021  82.1269825  -2.1603213  45.1797214  83.6825498   4.6600347
  44.5037851  83.5819627   5.3302722  46.0024848  83.5264712   5.1236344
  38.8984490  77.3367575  -0.5020153  38.9625817  78.1982406  -0.9142755
  38.8351611  76.7241577  -1.2347794  38.3736763  79.4090708   3.1452882
  39.0008802  79.0267785   3.7590406  37.5164682  79.1904910   3.5108574
  48.7730872  89.8153683   4.7506617  49.3170776  90.4283641   4.2561572
  48.1917716  90.3733261   5.2673630  38.6796553  79.2923134  -4.9401215
  37.9583138  79.9059101  -5.0793742  39.4689808  79.8280898  -5.0184569
  41.4822866  76.6277560   1.3339437  42.0057268  76.8739857   2.0965746
  41.2635200  77.4597595   0.9142574  42.6875411  77.5691255  -0.9810893
  42.3472232  76.7699068  -0.5790213  41.9814418  77.8692966  -1.5534060
  43.3391883  74.6540568  -2.5283570  44.1617952  74.1801046  -2.6504679
  43.5829947  75.4331051  -2.0284883  40.8630462  81.3459688  -4.7191591
  40.7175043  81.6599991  -3.8267310  40.3855666  81.9644589  -5.2720692
  42.7226845  78.3362236  -4.6710702  42.7088414  77.4403330  -5.0078404
  43.4399273  78.3432900  -4.0372416  44.5752975  78.7699576  -2.6257574
  44.3170753  79.6916647  -2.6273244  44.0438016  78.3730011  -1.9357110
  35.3376124  83.8865033  -1.7803930  34.7929592  84.6624841  -1.6483656
  36.2155474  84.2335837  -1.9384808  42.1263741  77.2176617  -9.4023131
  42.2479652  76.2893263  -9.2032244  41.8365783  77.2315302 -10.3144816
  44.9954931  74.9031527  -6.2656412  45.0176628  74.9670860  -7.2204432
  45.4122990  74.0636036  -6.0715905  36.1242146  83.0134929   1.1126227
  35.3823882  83.1617564   1.6990857  35.8034890  83.2743195   0.2492976
  44.0685809  92.5550907   0.9106617  44.3772935  92.3100054   1.7829317
  44.8661291  92.7597546   0.4225487  41.6104820  78.7308614   4.8066801
  41.6592976  79.6070737   4.4244571  42.1527334  78.1886007   4.2338444
  52.0959666  89.2749737   4.0867938  51.3055210  89.2573876   3.5472438
  51.8593020  89.8138031   4.8416975  52.2157541  86.1242204   1.4000667
  52.2655546  85.9592211   2.3416190  52.1071464  85.2569463   1.0098548
  49.5061303  82.1073132   2.7159974  50.4071166  81.9679596   2.4243971
  49.5809278  82.2727586   3.6558151  43.8404109  79.4839986   1.5613160
  42.9707418  79.7773552   1.2895748  44.0763589  80.0680431   2.2820423
  53.7175738  88.5439145   1.6442688  53.4260546  88.9069126   2.4806149
  53.1047869  87.8306153   1.4656020  51.9662926  83.6671760   0.1122746
  52.4417048  83.8599406  -0.6958402  51.0428491  83.7230945  -0.1333870
  46.5443143  75.7019603  -0.9221420  47.0625086  76.4380630  -1.2474931
  46.1898275  76.0083596  -0.0874661  46.7955737  72.1219886  -5.4020523
  47.0757490  71.4543075  -4.7760097  47.5806344  72.3148981  -5.9145859
  50.6664595  80.5437520  -1.6548948  51.6182018  80.6435617  -1.6336724
  50.4968045  79.7515788  -1.1450864  48.6878974  77.6293103  -1.4689547
  48.0928907  77.9098116  -2.1643059  48.4028671  78.1187004  -0.6972806
  53.2947161  80.5554683  -2.4948365  52.7786210  79.7713139  -2.6818436
  54.1787110  80.2273399  -2.3301846  50.9557888  74.2995698  -6.5352553
  50.7582709  73.9910787  -5.6509221  51.5657594  75.0257337  -6.4054623
  44.8674696  86.6857439   4.9621213  45.7877706  86.8636038   5.1561259
  44.8324279  85.7413484   4.8100912  37.8636769  84.5958473  -2.3956006
  38.0822779  85.5275581  -2.3767972  38.2762543  84.2366448  -1.6101202
  44.7840987  75.1026558 -10.4080318  43.9741715  74.7573643 -10.0325072
  45.4725403  74.7934102  -9.8192706  46.7131535  74.1804605  -8.7856021
  47.2662573  74.6000059  -8.1265998  46.9501621  73.2540353  -8.7433065
  42.7364634  80.1691679   6.9946743  42.6361361  81.1186036   6.9258834
  42.5186176  79.8409918   6.1222813  48.5413908  75.6910188  -7.0756037
  49.0413687  75.8026723  -7.8841718  49.1849516  75.3871241  -6.4355228
  42.5995904  83.5988818   5.8111804  42.1162986  84.3989178   6.0175693
  42.6856843  83.6096763   4.8579248  38.5269242  87.4893352  -2.1519762
  39.4812495  87.4577295  -2.2189830  38.3281765  87.0283976  -1.3369536
  39.1168624  86.0594469   0.4151036  39.9361513  86.5538547   0.4385873
  39.3905431  85.1426437   0.3868603  34.3703538  80.3932602   1.1143233
  35.0162402  79.8831556   1.6030458  34.1620689  81.1301284   1.6886658
  46.8956930  87.4613450   6.6135373  47.7648090  87.6354102   6.2522008
  46.4163682  88.2807867   6.4911103  41.0643110  94.5810551  -1.7075193
  41.9670357  94.6134161  -1.3908698  40.8380480  93.6511002  -1.6928857
  46.7059268  71.2515424  -8.8786934  45.9391664  70.6973910  -8.7330252
  47.1169973  71.3237292  -8.0172783  38.7101029  77.5400219   5.2118247
  39.5732491  77.1837024   5.4221572  38.1366440  77.2014114   5.8993651
  51.2682530  90.9480936   6.2048219  50.8749475  90.3947135   6.8795863
  52.0848670  91.2591515   6.5954736  54.1850491  92.3638815   3.7968475
  54.9260204  92.9645968   3.7172938  54.4168414  91.6216453   3.2386518
  49.2130517  94.7382626   3.1452882  49.8402556  94.3559703   3.7590406
  48.3558436  94.5196827   3.5108574  52.4498575  94.0600532   4.8066801
  52.4986730  94.9362654   4.4244571  52.9921089  93.5177925   4.2338444
  53.5758389  95.4983597   6.9946743  53.4755115  96.4477954   6.9258834
  53.3579931  95.1701836   6.1222813  45.2097292  95.7224520   1.1143233
  45.8556156  95.2123474   1.6030458  45.0014444  96.4593202   1.6886658
  49.5494783  92.8692137   5.2118247  50.4126245  92.5128942   5.4221572
  48.9760194  92.5306032   5.8993651  50.2879199  67.1200888 -11.1011887
  50.2291745  66.4360109 -11.7681304  50.6898717  67.8619878 -11.5531261
  48.7730873  66.8215806  -8.5248076  49.3170777  67.4345764  -9.0193122
  48.1917718  67.3795384  -8.0081063  52.0959667  66.2811860  -9.1886755
  51.3055211  66.2635999  -9.7282256  51.8593022  66.8200153  -8.4337719
  53.7175739  65.5501268 -11.6312005  53.4260547  65.9131248 -10.7948544
  53.1047870  64.8368276 -11.8098673  46.8956931  64.4675572  -6.6619320
  47.7648091  64.6416225  -7.0232685  46.4163683  65.2869989  -6.7843591
  51.2682531  67.9543059  -7.0706475  50.8749477  67.4009257  -6.3958830
  52.0848671  68.2653637  -6.6799957  54.1850492  69.3700938  -9.4786218
  54.9260205  69.9708091  -9.5581756  54.4168415  68.6278576 -10.0368176
  49.2130519  71.7444748 -10.1301812  49.8402558  71.3621825  -9.5164288
  48.3558438  71.5258950  -9.7646119  52.4498576  71.0662654  -8.4687892
  52.4986731  71.9424777  -8.8510123  52.9921090  70.5240047  -9.0416249
  53.5758390  72.5045719  -6.2807951  53.4755117  73.4540076  -6.3495860
  53.3579932  72.1763958  -7.1531881  45.2097294  72.7286643 -12.1611461
  45.8556157  72.2185597 -11.6724235  45.0014445  73.4655324 -11.5868035
  49.5494785  69.8754260  -8.0636446  50.4126246  69.5191065  -7.8533122
  48.9760195  69.5368155  -7.3761042
 122.0102189 122.0102189 122.0102189 109.4712190 109.4712190 109.4712190
