; NPT equilibration 200 ps
integrator      = md
nsteps          = 100000
dt              = 0.002
nstxout         = 5000
nstvout         = 5000
nstenergy       = 5000
nstlog          = 5000
cutoff-scheme   = Verlet
ns_type         = grid
nstlist         = 10
coulombtype     = PME
rcoulomb        = 1.0
rvdw            = 1.0
pbc             = xyz
DispCorr        = EnerPres
tcoupl          = V-rescale
tc-grps         = Protein_LIG Water_and_ions
tau_t           = 0.1   0.1
ref_t           = 300   300
pcoupl          = Berendsen
pcoupltype      = isotropic
tau_p           = 2.0
ref_p           = 1.0
compressibility = 4.5e-5
constraints     = h-bonds
constraint_algorithm = LINCS
lincs_iter      = 1
lincs_order     = 4
gen_vel         = yes
gen_temp        = 300
gen_seed        = 42
