Cpptraj Generated Restart                                                       
 6188  4.0000001E-01
  90.3456421 180.3410339  24.5623932  91.2756348 180.2629089  24.1762524
  90.0716858 179.4441528  24.9374332  90.3181686 181.0000458  25.3272915
  89.4332733 180.6961517  23.3859978  88.4119797 180.5722656  23.7461700
  89.6176147 182.2233276  22.9097919  90.6436462 182.2788239  22.5460873
  88.9361572 182.4761963  22.0975246  89.2701111 183.2343750  24.0385952
  88.2150269 183.1405792  24.2956867  89.7446289 183.0111694  24.9941654
  89.5710754 185.0704498  23.9067917  88.4045639 185.3823547  22.5483246
  87.4340134 185.5105133  23.0276031  88.6578140 186.3251343  22.0634346
  88.3901596 184.5704956  21.8211422  89.5974121 179.7002869  22.2174091
  90.6825409 179.2070465  21.9392300  88.4791183 179.3356476  21.6171322
  87.6397858 179.8468781  21.8500690  88.4514542 178.2648315  20.5438786
  88.9992676 177.4481354  21.0139809  87.0268860 177.7970123  20.1894131
  86.4097214 178.6931000  20.1243458  87.0169525 177.0875549  18.8141994
  87.6892166 176.2358704  18.9181557  86.0182190 176.7052612  18.6032658
  87.3169250 177.8016663  18.0472794  86.4017258 176.8634186  21.2798691
  85.3625488 176.6768951  21.0089130  86.9631577 175.9374390  21.1555347
  86.4268494 177.3148804  22.7212563  86.1011353 178.3452759  22.8637009
  85.8932190 176.6866760  23.4344883  87.4487000 177.4026489  23.0903378
  89.3444977 178.7386322  19.3832150  89.4367218 179.9133759  19.1499481
  89.9290085 177.8892212  18.5496979  89.9159164 176.9077606  18.7877979
  90.5043411 178.2716522  17.2537308  90.0580978 179.2073517  16.9169273
  92.0652618 178.5626831  17.3409748  92.5323181 178.8815308  16.4091530
  92.2424850 179.4096985  18.0037289  92.9188232 177.3946686  17.8981380
  92.7351379 176.2791290  17.4375744  93.7409286 177.5884857  18.9059601
  94.4049454 176.8442230  19.0648670  94.0299072 178.4970245  19.2393703
  90.0800171 177.2988434  16.1516800  90.5160522 177.4095154  15.0222807
  89.2167053 176.2958984  16.4356899  88.9557648 176.1105499  17.3936348
  88.7744904 175.2868958  15.4857130  89.5670242 174.8164215  14.9037838
  87.9872513 174.1705933  16.1573410  88.7265854 173.5883942  16.7073612
  87.2219925 174.6369324  16.7778301  87.3943405 173.1044617  15.2480621
  88.2583618 172.2580414  14.5327473  89.3204346 172.4529419  14.5125780
  87.7231827 171.2185669  13.7532425  88.3659134 170.4963531  13.2719021
  86.3537674 171.0541992  13.6773634  85.8901138 170.2803955  13.0835075
  85.4951019 172.0459290  14.1597004  84.4202271 171.9705505  14.0865450
  86.0403671 173.0476379  14.9869366  85.3800201 173.7623596  15.4554729
  87.8463440 175.9669800  14.4743767  87.1179504 176.9636383  14.7456217
  87.9229279 175.5513763  13.2446928  88.5697021 174.8122253  13.0092354
  87.0062866 176.0554504  12.2038050  86.7428818 177.0969391  12.3882942
  87.7587662 176.0154572  10.9149752  88.5498352 176.7299194  11.1426878
  88.0339355 175.0024872  10.6212883  87.0328598 176.6942291   9.7553873
  85.9670181 177.2767944  10.0147591  87.5969086 176.6044769   8.6058626
  85.7204895 175.2003479  12.1591663  85.6750412 174.0983734  11.6314554
  84.6382828 175.7630463  12.6673183  84.7536469 176.7146606  12.9854736
  83.3249207 175.0868988  12.8771210  83.5584793 174.2069092  13.4764462
  82.2335510 175.9328308  13.5406885  81.2577515 175.4490662  13.4972754
  82.6203842 176.2104797  14.9740791  83.5475235 176.7511597  15.1642323
  81.8020401 176.7863159  15.4062977  82.7968597 175.2902985  15.5310678
  82.1973038 177.2211151  12.9085474  81.6533661 177.8246765  13.4198685
  82.7547913 174.6143951  11.5345955  81.7755737 173.8675537  11.5233517
  83.2506256 175.0402527  10.3434706  83.9550171 175.7563019  10.4493742
  82.8839569 174.5073547   9.0277472  81.8026123 174.3753052   8.9908524
  83.2032318 175.5454102   7.9331393  82.6801529 175.2181244   7.0346026
  82.8697128 176.5445862   8.2133493  84.5654297 175.6058655   7.7523370
  84.7296677 176.2506714   7.0603495  83.4809113 173.1242371   8.7114115
  82.7968674 172.3668213   8.0537701  84.6825409 172.7740784   9.2250061
  85.1065369 173.4010620   9.8937635  85.3273468 171.4917145   8.9274521
  85.6532822 171.5029907   7.8873854  86.6103897 171.4506073   9.6870012
  86.4425049 171.7160797  10.7307634  87.1049881 170.4813690   9.6233702
  87.6158981 172.4563599   9.0427141  87.2478027 173.4700317   9.2010889
  88.9493256 172.3238831   9.7477903  89.3294296 171.3324585   9.5013847
  89.6819305 173.0506744   9.3968420  88.8078995 172.3260345  10.8285742
  87.9680481 172.3986511   7.5585194  87.0888596 172.5961456   6.9452305
  88.6221924 173.1649170   7.1425261  88.3002319 171.3807526   7.3544502
  84.5409546 170.1428680   9.0952435  84.7747040 169.1926117   8.3675146
  83.5867462 170.0587921  10.0507030  83.5044403 170.8724365  11.2525549
  82.8697510 171.7491455  11.1236115  84.5463867 171.1207733  11.4545088
  82.7696152 170.0266113  12.3116922  82.2398529 170.7151489  12.9699888
  83.4863205 169.3336945  12.7525024  81.8288574 169.1861877  11.4701204
  80.9580841 169.8023834  11.2461557  81.5768051 168.2892761  12.0359278
  82.5284195 169.0217438  10.1017618  83.1159210 168.1054993  10.1604090
  81.5412216 168.9358215   8.9130363  81.3424683 167.8568878   8.4164562
  80.9456177 170.0805359   8.5468683  81.3379898 170.9423981   8.8980570
  79.7811050 170.2339783   7.5836191  79.1733780 169.3472137   7.7636638
  78.9387665 171.4930878   7.8000240  78.1435318 171.4562531   7.0554795
  78.2766113 171.3783569   9.1667547  79.0109406 171.6364288   9.9298105
  77.4482040 172.0783691   9.2754869  78.0094528 170.3456268   9.3908253
  79.6773834 172.7026520   7.7166038  79.6859589 172.9572144   6.7910099
  80.1654205 170.1853485   6.0320239  79.3280869 169.9499969   5.1747422
  81.4532242 170.2899017   5.7453914  82.0995560 170.5106049   6.4894681
  81.9521637 169.8983612   4.4031048  81.3138809 170.3343048   3.6345658
  83.4097061 170.4718323   4.2505641  83.8093109 170.3844299   3.2402315
  83.3803101 171.5531158   4.3850265  84.3333282 170.0062103   5.2314396
  85.1524277 170.4716034   5.0468607  81.9738388 168.3874664   4.2084055
  81.8679123 167.9277954   3.0236013  81.9868774 167.5943604   5.2825527
  82.0422058 168.0080261   6.2022953  81.9954453 166.1188202   5.3510418
  82.2439499 165.8331146   6.3731594  80.6635666 165.4364624   4.9964933
  80.3699493 165.6351624   3.9657588  80.7820892 164.3626099   5.1410069
  79.5081406 165.7945557   5.9352546  79.3664551 165.1734924   7.1933784
  78.2821426 165.8003540   7.7171936  77.8806763 165.5605164   8.6906939
  77.7585907 166.7705688   6.8788781  76.9532547 167.3524933   7.0602493
  78.5385742 166.7606354   5.7532420  78.3478546 167.4441376   4.9390817
  83.1739883 165.3893585   4.6019306  83.0437546 164.2857513   4.0839310
  84.3292236 166.0524597   4.5102315  84.3418503 167.0131683   4.8216572
  85.5905151 165.5088348   3.8922987  85.5235367 165.4671021   2.8051589
  86.8243866 166.3467865   4.3193398  86.9132767 166.4233093   5.4030123
  87.6853485 165.8070374   3.9249892  86.9107208 167.7846222   3.6898823
  87.4774704 167.6466370   2.7690945  85.9094849 168.0807953   3.3769674
  87.6965637 169.0265808   4.8305798  89.4681091 168.6536865   4.6048412
  89.7651749 168.8116608   3.5680680  90.0365448 169.2483673   5.3199081
  89.6937637 167.6032410   4.7885795  85.9476013 164.0381012   4.2327175
  86.5424500 163.4317780   3.3675852  85.6036835 163.3278351   5.3428268
  85.0514069 163.7666779   6.0656710  85.9643021 161.8817749   5.5355411
  87.0078506 161.7419128   5.2534947  85.6951981 161.3712311   6.9451323
  85.9684982 160.3279419   7.1031508  86.3038940 161.9114685   7.6702042
  84.2203827 161.5495911   7.2977605  83.8063202 162.8913422   7.6751957
  84.5023270 163.7144775   7.7419157  82.4463882 163.0675354   7.8619871
  82.1267624 164.0755310   8.0815239  81.4973450 162.0153046   7.6948929
  80.1941299 162.2011566   7.8079281  79.9850769 163.1273956   7.6665649
  81.9331894 160.7118073   7.4798236  81.1884918 159.9296570   7.4877582
  83.3229294 160.4774017   7.2120347  83.5801315 159.4373779   7.0757523
  85.1825180 161.0053101   4.5901861  85.8107605 159.9944305   4.1878734
  84.0576401 161.4631805   4.0326557  83.6386414 162.3230286   4.3570237
  83.3402176 160.8102570   2.8930192  83.4272766 159.7512207   3.1358135
  81.8614960 161.2246704   3.0819097  81.6126175 161.0942078   4.1350675
  81.8277435 162.2775726   2.8019621  80.8873520 160.4763184   2.1788683
  81.1171722 160.5339813   1.1149346  80.7445526 158.9872742   2.6350009
  80.2648849 158.9846191   3.6137829  80.1257477 158.4042664   1.9528760
  81.6906357 158.4576263   2.7468758  79.5093536 161.1271667   2.3254747
  79.5184860 162.1830444   2.0550125  78.8375244 160.6012726   1.6471194
  79.1991730 161.1028137   3.3701284  84.0518112 161.1119080   1.5902838
  83.5431442 160.7527618   0.5321056  85.1463165 161.8434906   1.5931767
  85.4587402 162.2205200   2.4765470  86.0326004 162.1205444   0.4470428
  87.0848618 162.0789337   0.7283019  85.8970642 161.4179077  -0.3751709
  85.8537903 163.5302124  -0.1605916  84.8701935 164.2099457  -0.0110581
  86.8392258 163.9763489  -0.8789640  87.6442719 163.3666687  -0.8619150
  86.7878647 165.1555481  -1.7279917  86.2283936 165.9503632  -1.2346770
  88.2443848 165.6977539  -1.9867198  88.1362152 166.6756439  -2.4558856
  88.7258987 165.7691040  -1.0114455  89.0086060 164.8496704  -2.7150376
  89.9243240 165.1378021  -2.7077994  86.1083527 164.8394775  -3.1286063
  85.7161560 163.7056427  -3.4169259  85.9354401 165.9179382  -3.8990676
  86.0187302 166.8622742  -3.5506430  85.7337799 165.7565002  -5.3398123
  85.5681000 166.7460632  -5.7657652  87.1308289 165.3748016  -5.9582009
  87.8774338 165.8164673  -5.2981906  87.3241348 164.3153992  -5.7897501
  87.4645233 165.7430267  -7.4302588  86.8321991 166.6482544  -7.9820094
  88.4067230 165.1253510  -7.9791393  84.4986267 164.9207001  -5.7575612
  84.5771484 163.9967041  -6.5771194  83.3744659 165.1984863  -5.1672049
  83.2859650 165.8093262  -4.3677411  82.0879059 164.6128693  -5.5225286
  82.2855606 163.6081390  -5.8960929  81.1567535 164.5360870  -4.3216338
  80.7443619 165.5325470  -4.1632242  80.3067245 163.8872528  -4.5327373
  81.8995514 163.9944611  -3.0762429  82.3785934 163.0533142  -3.3461735
  82.7039108 164.6367798  -2.7177448  80.8098755 163.7721558  -1.6584629
  79.8542938 162.2589264  -2.0886898  80.5737152 161.4602203  -2.2692821
  79.1642609 162.0606537  -1.2685360  79.2148132 162.4570923  -2.9488640
  81.4069138 165.4175720  -6.6868687  81.5593033 166.6292419  -6.8904057
  80.4785233 164.7938080  -7.4611583  80.2294083 163.8232422  -7.3345757
  79.5932846 165.5626831  -8.3554630  80.1272507 166.3175964  -8.9326000
  78.9614944 164.5103607  -9.2837095  79.6768723 163.9771423  -9.9098053
  78.6074142 163.6388702  -8.7330627  77.8572006 165.0523682 -10.2256002
  77.0584412 165.4264374  -9.5851679  78.2524567 165.8904114 -10.7996626
  77.3080902 164.0308533 -11.2992506  77.4824066 162.7729034 -11.1014385
  76.6167755 164.4387817 -12.2738981  78.5425415 166.3407898  -7.4766011
  77.8470764 165.6671600  -6.7256732  78.3773270 167.7090759  -7.5814834
  78.9468231 168.1709290  -8.2760859  77.2355194 168.4488220  -7.0060921
  76.9646225 168.0187836  -6.0418334  77.5630875 169.9101257  -6.7316217
  77.9561462 170.4637756  -7.5843058  76.6929626 170.4781342  -6.4024763
  78.5812454 170.0195312  -5.5495224  78.5217590 169.1475525  -4.8982215
  79.5809402 170.0392456  -5.9834843  78.5338440 171.2618561  -4.6738014
  77.8520508 172.2860413  -4.9158025  79.2829437 171.2530060  -3.6756942
  75.9805374 168.4521790  -7.9109197  76.1314468 168.4472351  -9.1122723
  74.6955566 168.5099030  -7.3609376  74.7027206 168.4805603  -6.3513894
  73.5073471 168.9757233  -8.0007715  73.6986618 169.1324615  -9.0623426
  72.3912354 167.8997498  -7.9168987  72.2748947 167.7160034  -6.8488131
  71.4448853 168.3511353  -8.2148504  72.7150345 166.5738220  -8.5882463
  72.4005280 166.3250275  -9.9439926  71.9526138 167.0998077 -10.5485563
  72.6050644 165.0183105 -10.4372091  72.4074478 164.8164062 -11.4796028
  73.2004623 164.0154114  -9.6367302  73.4479141 163.0173340  -9.9668770
  73.3782196 164.2930756  -8.3072414  73.8178711 163.5394135  -7.6707802
  73.2034149 165.5647278  -7.7747102  73.3965607 165.7328796  -6.7255096
  72.8920822 170.3086395  -7.3890781  73.1313858 170.5317993  -6.2392426
  72.2888947 171.1792145  -8.1550016  72.2462463 170.9881439  -9.1458511
  71.9134598 172.5692749  -7.8010054  72.1953506 172.7307434  -6.7605400
  72.7727737 173.5663605  -8.6084862  72.6689377 174.5796661  -8.2205086
  73.8215408 173.3310699  -8.4273195  72.5688324 173.5711670 -10.1448078
  73.0344391 172.5960083 -11.0479679  72.5973740 173.0081635 -12.2614336
  72.7809830 172.5152740 -13.2047005  71.8327789 174.1187439 -12.1236849
  71.3409271 174.5150146 -12.9118128  71.8851242 174.5561829 -10.8098812
  71.3873978 175.4325562 -10.4217482  70.3947754 172.9344482  -7.9774261
  69.9306564 173.9234161  -7.4580321  69.6775818 172.0922546  -8.7376747
  70.0759201 171.3004913  -9.2219725  68.2278595 172.3015900  -8.9155340
  67.9686966 173.3586426  -8.9752159  67.9376907 171.9704742  -9.9126635
  67.3796005 171.5295563  -7.8637733  67.7160416 170.4310760  -7.4007459
  66.3992462 172.2016754  -7.2737956  66.0464249 173.0594330  -7.6736212
  65.7135544 171.7708893  -6.0135374  66.2049332 170.9219971  -5.5380907
  65.6591873 173.0129700  -5.0313544  64.9993134 173.8123932  -5.3683944
  65.2861481 172.6503906  -4.0734968  67.0633774 173.5557251  -4.7191186
  67.6596069 173.6291809  -5.6286273  66.9618454 174.5600739  -4.3079228
  67.9014511 172.6326599  -3.8380215  67.5433731 172.5230255  -2.8143728
  67.8369598 171.6258698  -4.2506957  69.3843536 173.0493164  -3.7745180
  69.9847336 172.5357056  -4.4036908  69.8665543 174.1034851  -3.0704899
  69.1768112 174.9872589  -2.4568601  68.1808014 174.9571838  -2.6216300
  69.5629730 175.7403870  -1.9056970  71.1323700 174.2738037  -3.0444841
  71.7782822 173.5958557  -3.4230294  71.5990067 175.0614319  -2.6178794
  64.3556595 171.0441284  -6.2858768  63.6679268 171.2258759  -7.2725964
  63.9208336 170.2120972  -5.3650608  64.5582275 170.0187683  -4.6058173
  62.7096519 169.4005127  -5.4958029  62.3151512 169.7026825  -6.4659386
  63.0046082 167.8953857  -5.4187818  63.6763725 167.7753143  -4.5688300
  61.7482529 167.0377197  -5.2877765  60.9724922 167.2857513  -6.0121884
  62.0344048 165.9964752  -5.4362097  61.3953094 167.0995026  -4.2583547
  63.5840492 167.4549713  -6.6144519  63.6619377 166.5004425  -6.6806970
  61.7275543 169.7964020  -4.3458056  62.1188393 169.6803131  -3.2076964
  60.5386047 170.2028503  -4.5783186  60.3550987 170.5477295  -5.5097108
  59.4793739 170.2518005  -3.6245873  59.6573639 169.5084534  -2.8475029
  59.3143234 171.6575775  -2.9524205  59.1760521 172.3005524  -3.8216519
  58.4008598 171.6435547  -2.3578732  60.4066887 172.1505432  -2.0028820
  61.3695030 172.1682892  -2.5135472  60.0407906 173.5347900  -1.4730886
  59.0376015 173.4911041  -1.0490594  60.7526588 173.9629517  -0.7673867
  59.9987984 174.2140656  -2.3245153  60.5671387 171.2607880  -0.7398947
  60.8236694 170.2567444  -1.0778012  61.2172279 171.6779633   0.0291648
  59.5710983 171.2062073  -0.3005443  58.1778030 169.8503876  -4.3360691
  57.7369232 170.4758759  -5.3275151  57.5684242 168.8032074  -3.9570520
  58.0266609 168.2706299  -3.2314568  56.2029724 168.2662354  -4.2857628
  56.1679535 168.2081146  -5.3736491  56.0612984 166.7632599  -3.7707710
  55.9328499 166.6771698  -2.6917949  55.1554375 166.4806671  -4.3071079
  57.2258911 165.8371277  -4.1837926  58.4723930 165.7778320  -3.6064389
  59.1437912 164.8392944  -4.2836857  60.1838226 164.5901947  -4.1330853
  58.4391136 164.2829285  -5.2814012  58.6704216 163.4403076  -5.7879491
  57.2002907 164.9554596  -5.2395802  56.2950745 164.7552490  -5.7935600
  55.0960999 169.1940155  -3.7444732  55.2706985 169.9261627  -2.7849534
  53.9372330 169.3356323  -4.3976049  53.8470345 168.7371979  -5.2062097
  52.7801285 170.0803375  -3.9339485  53.0137177 171.1432495  -3.9952826
  51.6526184 169.9121857  -4.9536624  51.3800163 168.8617401  -5.0555410
  50.7242355 170.2959900  -4.5307035  51.8593636 170.6847839  -6.2799420
  51.2178841 171.7878113  -6.3979235  52.6259270 170.2425995  -7.1622925
  52.2786064 169.6946564  -2.6021883  52.3384705 168.5419159  -2.1353931
  51.6809196 170.6865387  -1.9152304  51.5450668 171.6016541  -2.3204579
  51.2469826 170.3415222  -0.5376927  52.1361275 169.9422150  -0.0497667
  50.8804131 171.6314850   0.2004364  49.9653587 171.9884033  -0.2721990
  50.6097870 171.3883362   1.2279280  52.0280113 172.6585083   0.2402391
  53.2003288 172.3197327   0.5161484  51.7073975 173.8316956   0.0622315
  50.1230927 169.2851257  -0.5061311  49.2545853 169.2285919  -1.4132921
  50.2351303 168.5006714   0.5481169  50.9935188 168.6352997   1.2014364
  49.3907166 167.3169250   0.7805302  49.9739799 166.6991577   1.4633689
  48.0233154 167.7401428   1.4216666  47.6394997 168.5646667   0.8208767
  47.3113823 166.9285736   1.2713226  48.2418365 168.1904144   2.8853047
  48.7551613 167.4021759   3.7387292  47.8039665 169.3146667   3.2967522
  49.2011337 166.3727570  -0.4230820  48.1602135 165.7008209  -0.6061042
  50.0972023 166.4502106  -1.3980764  50.8892937 167.0764313  -1.3747663
  50.0799713 165.5116425  -2.5244122  49.0942192 165.3597870  -2.9641056
  50.9173508 166.0486755  -3.7124836  50.7409821 165.3828735  -4.5573006
  50.4896202 167.0298920  -3.9182868  52.2623749 166.0651093  -3.3767018
  52.4686317 166.8617859  -2.8823755  50.5155220 164.0595093  -2.0894775
  51.4355659 163.9445343  -1.2379599  49.6700554 163.1518555  -2.4897034
  48.8792419 163.3453827  -3.0874155  49.9761925 161.7057800  -2.3177125
  50.2866173 161.5266724  -1.2883151  48.7379150 160.8082581  -2.6362634
  47.8571320 161.3350525  -2.2690992  48.4836006 160.6309052  -3.6812356
  48.8094177 159.1738892  -1.9122238  47.8080330 159.3509674  -1.0457575
  51.1261787 161.3524475  -3.2586164  50.9876633 161.5869141  -4.4434342
  52.1786499 160.7375793  -2.6806421  52.2118988 160.6547089  -1.6745973
  53.4201927 160.3536377  -3.3533072  53.2029648 160.3628693  -4.4214025
  54.4999313 161.3977356  -3.0550253  54.7285957 161.3877106  -1.9893275
  55.4673080 161.0760498  -3.4407775  54.2064934 162.8388062  -3.5061450
  53.3486481 163.2413483  -2.9674842  55.0707054 163.4617767  -3.2756224
  53.8455429 162.9883575  -4.9980330  54.0786629 162.0958557  -5.8206882
  53.3800964 164.1272888  -5.5457520  53.0802689 164.1104279  -6.5100751
  53.0626602 164.9161835  -5.0007973  53.8887558 158.8737030  -3.0255983
  53.7576256 158.4617004  -1.8648852  54.4775467 158.1850433  -4.0023942
  54.6049500 158.5533447  -4.9341836  55.3210030 156.9950714  -3.6747425
  55.1171951 156.7423096  -2.6342266  54.8620834 155.7416992  -4.4829893
  53.7933578 155.6255951  -4.3028555  54.9071770 155.7865448  -6.0380659
  55.9219551 156.0430908  -6.3422313  54.5824509 154.8784637  -6.5460391
  54.2965965 156.6239929  -6.3756747  55.5712509 154.4745636  -3.9163303
  55.3314934 154.2959290  -2.8681333  55.1706467 153.6169891  -4.4568839
  56.6260948 154.4374847  -4.1884041  56.8104668 157.2016754  -3.7440188
  57.2289581 157.7716217  -4.7698660  57.6699944 156.8703766  -2.7203190
  57.2595863 156.3831482  -1.9365671  59.1083107 157.1124115  -2.6956608
  59.3676453 157.1429749  -3.7539198  59.3752937 158.4436951  -1.9435517
  59.2096748 158.1590271  -0.9044967  60.8186569 158.9694214  -2.1385322
  60.9113426 159.5088043  -3.0811713  61.0937996 159.6621552  -1.3432270
  61.5467262 158.1590881  -2.1755602  58.3116455 159.5516815  -2.2874610
  58.3168678 159.8231964  -3.3430874  57.2831459 159.2556152  -2.0809820
  58.4809036 160.8002472  -1.4383137  59.3905602 161.2727814  -1.8089089
  57.6696129 161.5202026  -1.5459157  58.5923653 160.5782013  -0.3770036
  59.9132767 155.9467316  -2.1024923  59.5717049 155.3242493  -1.0836972
  61.0465508 155.5048676  -2.7161324  61.6571159 156.0062256  -3.9541779
  61.6804581 157.0950165  -3.9998112  61.1345901 155.5946503  -4.8177080
  63.0935135 155.3733673  -4.1192880  63.8536758 155.9833374  -3.6312468
  63.3646812 155.1410675  -5.1491470  62.9841042 154.0438080  -3.3812566
  63.9229546 153.6017609  -3.0477052  62.4688683 153.3195648  -4.0122247
  61.9458084 154.4172363  -2.2310743  61.2661362 153.6130524  -1.9492137
  62.6547356 154.8376617  -0.9073210  62.8901749 156.0104370  -0.6215115
  63.0718384 153.8131866  -0.1467996  62.7927666 152.8777161  -0.4058375
  63.6818886 153.9670410   1.1983210  63.9673004 155.0105591   1.3313681
  62.7550011 153.4107208   2.3603745  62.4403076 152.4046326   2.0830946
  63.3232880 153.2637634   3.7996116  63.7332077 154.2091675   4.1549792
  62.4643364 152.9998932   4.4166031  64.1764908 152.5944977   3.9101555
  61.5641861 154.3948975   2.6038818  61.0138130 154.4022369   1.6630666
  60.9391937 154.0687561   3.4352174  61.8949318 155.3853455   2.9165084
  64.9053421 153.0941925   1.2588851  64.7606125 151.8872375   1.0379676
  66.0873947 153.5806427   1.7701658  66.2853622 154.5429382   2.0044496
  67.2433395 152.6964722   2.0020547  67.3401947 152.0954132   1.0979234
  68.4348526 153.7306061   2.1238422  68.2489700 154.3871002   2.9738836
  69.3123474 153.1828613   2.4674788  68.8886108 154.5237579   0.8286517
  68.0985031 155.1307068   0.3865791  69.9021759 155.5520630   1.2232130
  70.8830643 155.1584167   1.4896835  70.0113602 156.1759491   0.3361162
  69.4743576 156.1875000   1.9986458  69.4494247 153.5019226  -0.1865053
  68.6065063 152.9559174  -0.6101283  69.9053268 154.0039825  -1.0398458
  70.1516113 152.8606873   0.3462722  67.0957794 151.8298187   3.2964237
  67.0240860 152.4202118   4.4122505  66.9597321 150.4858246   3.2149556
  67.1740723 149.7685242   1.9819143  68.1048813 150.1223297   1.5386088
  66.3606186 149.9803009   1.2879796  67.1807098 148.3147888   2.4237616
  68.2154312 148.0511780   2.6427433  66.8073807 147.6201324   1.6712993
  66.2827911 148.2556610   3.7285297  66.6591644 147.4560394   4.3665266
  65.2238235 148.0685883   3.5504673  66.5362778 149.6265411   4.3274531
  65.6545715 150.1684113   4.6696267  67.5372009 149.5141754   5.5389695
  67.1573563 149.0825653   6.6276436  68.7906418 149.8978424   5.3533306
  68.9918060 150.2204742   4.4176226  69.8000412 149.9703064   6.4300609
  69.5363159 149.1732178   7.1251793  71.1306458 149.4846497   5.8598018
  71.3559570 150.0234375   4.9394550  71.9456940 149.7437286   6.5355706
  71.1133957 147.9988403   5.5879488  70.2926559 147.3745117   4.7061667
  70.5627136 146.0841522   4.9509492  70.0839615 145.2452240   4.4678469
  71.4927750 145.8966064   5.8812799  71.8221283 145.0015106   6.2135577
  71.8323212 147.0912476   6.3815045  72.4853745 147.3013458   7.2156343
  69.8469620 151.3100891   7.2079844  70.6211624 151.4693604   8.1091223
  69.0684509 152.3302917   6.7908678  68.4962921 152.2044067   5.9681339
  69.0090179 153.6791687   7.4282556  69.9202957 153.8187714   8.0097818
  68.6997452 154.8346405   6.4160953  67.7393494 154.5523529   5.9847589
  68.6063766 156.1910553   7.0707836  69.5783997 156.3956451   7.5195785
  68.3613434 156.9182129   6.2966328  67.8505249 156.1666107   7.8557634
  69.7393951 154.7936707   5.3034987  69.7225800 153.9012756   4.6778460
  69.7273331 155.6683807   4.6532288  70.7342606 154.8954468   5.7370782
  67.8899460 153.6254120   8.5229559  66.7680435 153.5092010   8.1773376
  68.3062363 153.8352509   9.7483883  69.3051224 153.8700104   9.8936996
  67.4507828 153.5747070  10.9124527  66.4227676 153.4136505  10.5879021
  67.8186493 152.2341766  11.5639801  68.8184052 152.3127441  11.9910688
  67.0562057 151.9862976  12.3024521  67.8125763 151.0860748  10.5940714
  66.9513779 151.1611938   9.9301414  68.6803970 151.1966400   9.9438686
  67.8205109 149.4980469  11.3399372  68.2556610 148.4519653   9.9483013
  69.3242264 148.5164948   9.7430849  68.0157471 147.4263916  10.2288933
  67.6675949 148.6233063   9.0466833  67.2093048 154.6651459  11.8861370
  66.3442841 154.5637817  12.7705879  67.9725418 155.7617645  11.7385435
  68.5550766 155.7961731  10.9141827  67.8473892 157.0362701  12.5321093
  67.2776794 156.8528137  13.4430866  69.2000275 157.7048492  13.0000982
  68.9735718 158.5173187  13.6905499  70.0376740 156.6557465  13.7422647
  70.3906174 155.8737030  13.0700006  70.9763718 157.0078583  14.1700039
  69.3790512 156.2015991  14.4825888  70.0386658 158.3213806  11.8809137
  69.5079117 159.0501709  11.2683163  70.8560715 158.8595581  12.3608179
  70.4143295 157.5720825  11.1841145  66.9505463 158.1147156  11.8461952
  67.0651703 158.3560638  10.6387415  66.1217804 158.8330536  12.5748711
  66.1435471 158.6804657  13.5730419  65.1562805 159.7811432  12.0741014
  64.6174393 159.4097595  11.2024183  64.1070709 160.0615692  13.1301603
  63.6298599 159.0948639  13.2909889  64.7116852 160.4267426  13.9603376
  62.9456329 160.9762878  12.7551270  63.2641029 161.8440552  12.1774797
  62.2926025 160.3538513  12.1433973  62.0787430 161.6571655  14.1838217
  61.6630058 160.1548157  15.0438557  62.5249290 159.8630371  15.6439009
  60.8611679 160.4677734  15.7125959  61.3214302 159.3238373  14.4266882
  65.8829575 161.1222839  11.6459389  66.5322495 161.8020325  12.4782677
  65.7369003 161.4428558  10.3639259  65.1537628 160.9098358   9.7346830
  66.1544189 162.6694336   9.8005190  67.0621109 163.0039062  10.3028364
  66.4443207 162.4528503   8.2939653  67.1287918 161.6187744   8.1393538
  65.5053940 162.2733002   7.7702541  67.0842667 163.6106262   7.6062894
  66.5615616 164.5536194   7.7664571  68.5641403 163.7732086   7.9833894
  69.0204468 162.7834473   7.9670320  69.0355759 164.4608612   7.2812667
  68.5980530 164.1211090   9.0158215  67.0667801 163.3588562   6.0780954
  66.0615158 163.0789642   5.7631245  67.2304993 164.2924805   5.5399032
  67.7430573 162.5427856   5.8235927  65.0574951 163.6860809  10.0352411
  63.8593941 163.3382263   9.8891935  65.4242020 164.8876343  10.4461584
  66.4209900 165.0496979  10.4305973  64.5665283 166.1003418  10.5815868
  63.5175476 165.8359528  10.4479961  64.7262421 166.8786011  11.8952808
  65.7530594 167.2378998  11.8269882  63.7063141 168.0357361  12.0303440
  62.7320213 167.6541748  11.7249403  63.7377205 168.4015198  13.0566568
  63.9834709 168.8142090  11.3195219  64.5595627 165.9374542  13.0313330
  65.3455734 165.1931915  12.9034996  64.7730255 166.5473328  13.9091654
  63.3157501 165.0739746  13.2581682  63.1687660 164.4924469  12.3480492
  63.3859787 164.5492859  14.2109947  62.4230385 165.6987457  13.2292299
  64.9799042 166.9781647   9.2870054  66.1509247 167.0033417   9.0722389
  64.0677795 167.6261902   8.5276270  62.6316223 167.7190094   8.6944027
  62.4263992 168.3077698   9.5884638  62.2043228 166.7491302   8.9490814
  62.0665894 168.3035431   7.3786030  61.1389694 168.8636932   7.4963460
  61.9199257 167.4921570   6.6657043  63.1699066 169.2168579   6.9644575
  63.1939392 170.2009125   7.4325876  63.1538696 169.3662262   5.8848600
  64.4645157 168.5535126   7.4137154  64.7768631 167.9119873   6.5897050
  65.5350723 169.5379944   7.8433862  65.6746063 169.8627930   9.0217466
  66.2817993 170.0936584   6.8474493  65.9645844 169.9817352   5.8951101
  67.4832611 170.9774017   7.0347247  67.7042160 171.4350128   6.0704222
  67.2478256 171.8576813   7.6328688  68.7181778 170.2901001   7.5344973
  69.8166809 170.7912140   7.3138571  68.5730133 169.1339111   8.2131443
  67.5912247 168.9340057   8.3405514  69.6162109 168.2218781   8.6747446
  70.3197250 168.8223572   9.2514591  69.0491257 167.0404816   9.5960007
  68.4262238 167.4723206  10.3793268  68.4533539 166.3995514   8.9460993
  70.1606903 166.2400055  10.2706318  70.6698303 165.7145691   9.4626713
  70.8595505 166.9212341  10.7560301  69.5640182 165.2020264  11.2547598
  68.3716660 165.1963196  11.5598888  70.2855682 164.2434540  11.7580376
  69.9312057 163.5410156  12.3913660  71.2746201 164.1813507  11.5630646
  70.2791367 167.6775818   7.4416790  69.6670074 166.9799347   6.6659098
  71.6086502 167.8607788   7.4059644  72.0075302 168.4233246   8.1438904
  72.4646683 167.1202087   6.4298539  71.9407959 167.0661011   5.4755316
  73.7575989 167.9516754   6.1462693  74.2635574 168.0641632   7.1051526
  74.6662064 167.3205414   5.1189475  74.0932388 167.1880188   4.2012029
  75.5469437 167.9544373   5.0160594  75.0002899 166.3668976   5.5276799
  73.5029221 169.2360382   5.6923094  74.2665329 169.7887878   5.8738956
  72.7281036 165.6919556   6.8734918  72.8723755 165.3477173   8.0531988
  72.7462006 164.7487946   5.8920779  72.5563812 165.1204224   4.9723182
  72.8105621 163.2978973   6.0456553  73.0532608 163.0380859   7.0760427
  71.3811035 162.7792511   5.6926298  70.6807938 163.0689850   6.4760389
  71.0398026 163.2125244   4.7524762  71.3261871 161.2233734   5.5208259
  71.7944107 160.9209900   4.5841084  71.9463348 160.4317627   6.6418481
  71.6092453 160.8709259   7.5807781  71.7431793 159.3624420   6.5836124
  73.0338745 160.4634857   6.5758419  69.8426437 160.7389221   5.4829617
  69.3652954 161.2567444   4.6510439  69.7634430 159.6756897   5.2563143
  69.2922745 161.0189056   6.3811817  73.9137115 162.7448730   5.0188365
  73.6653442 162.6379547   3.8274245  75.0741806 162.4562683   5.5487752
  75.5714111 162.8580017   6.9033632  74.9405670 162.4590149   7.6976776
  75.6087036 163.9472198   6.9214292  76.9856186 162.3611298   7.0987711
  76.9629669 161.3788757   7.5707645  77.5931854 163.0544891   7.6803288
  77.4195633 162.1068573   5.6679988  78.1403885 161.2911682   5.6117549
  77.8307190 163.0557251   5.3234801  76.1299591 161.7227478   4.9488783
  76.2894211 161.9331512   3.8913331  75.8908615 160.2545319   4.9258356
  75.4561539 159.6993408   5.9574842  76.2426300 159.5564117   3.8262119
  76.6310272 160.0459137   3.0327101  75.9062881 158.0986023   3.5716894
  75.7020416 157.5594788   4.4967437  74.5298538 158.0317841   2.8326352
  74.6224289 158.8376160   2.1045222  74.4430771 157.1267242   2.2314267
  73.2755508 158.2730865   3.6897531  73.3545837 159.2052155   4.2492046
  72.0882492 158.4891357   2.7435479  71.9128952 157.6089630   2.1249666
  71.2229996 158.7655029   3.3460979  72.2743225 159.3339081   2.0803373
  72.9179459 157.1203461   4.6671953  73.6074448 157.1740265   5.5096974
  71.8990479 157.1510620   5.0531864  73.1550751 156.2197571   4.1007915
  77.0347214 157.4772339   2.7604997  77.5969238 158.0871887   1.8657482
  77.3926392 156.2094269   3.0356550  76.9377060 155.7982788   3.8382087
  78.2736664 155.3482819   2.2788527  78.4411926 155.7245178   1.2696590
  79.6208267 155.2692108   3.0771816  80.0552368 156.2687836   3.0622962
  79.4222107 154.9252319   4.0922341  80.7017975 154.2779236   2.5015855
  80.3572693 153.2438202   2.5072656  80.9486465 154.6453705   1.5055126
  82.0145798 154.3686371   3.2783685  82.0458298 154.6821136   4.4539452
  83.1080170 154.1342926   2.5966654  84.0299835 154.2148895   3.0011327
  82.9465485 153.7609558   1.6722006  77.6517334 153.9412537   2.1100931
  77.4282379 153.1941528   3.0802937  77.2436371 153.6511383   0.8697209
  77.5038071 154.2758484   0.1199589  76.3804550 152.5648193   0.4483149
  76.0892868 152.0293427   1.3519653  75.0756531 153.2026367  -0.1459777
  75.3193054 153.3787994  -1.1936895  74.3708267 152.3714142  -0.1658850
  74.3240051 154.3462677   0.5265418  75.0232773 155.1817169   0.5603381
  73.1105194 154.8291321  -0.3186472  72.5139084 153.9526520  -0.5715395
  72.5600739 155.5770721   0.2520315  73.4989777 155.2643738  -1.2393861
  73.8460999 153.9453278   1.9397410  74.6843109 153.8331757   2.6274405
  73.2536621 154.7189941   2.4281561  73.4161224 152.9468079   1.8610375
  77.0586700 151.6024323  -0.5858648  77.4636688 151.8979187  -1.7377058
  77.2126312 150.3390808  -0.0670584  76.9119263 150.2296448   0.8909093
  78.0741959 149.2806396  -0.5742005  78.3639679 149.5122375  -1.5991340
  79.2937698 149.1427155   0.3550413  79.9293747 148.3717346  -0.0804918
  79.8705978 150.0671844   0.3280198  78.9411392 148.7164459   1.7958076
  78.6143875 149.6790924   2.7837393  78.5094681 150.6905823   2.4200363
  78.3578796 149.2538300   4.0926461  77.9507675 150.0286713   4.7253232
  78.5115585 147.9168243   4.5043502  78.3144836 147.6003265   5.5179529
  78.8256454 146.9658661   3.4904311  78.8797150 145.9257355   3.7761497
  78.9624100 147.3536835   2.1581006  79.0625229 146.6267548   1.3656640
  77.3728714 147.9137268  -0.6790913  77.9944305 146.9548950  -1.1674668
  76.0989456 147.7582397  -0.2483233  75.7228851 148.4730988   0.3580387
  75.2485962 146.6156921  -0.6134955  75.8494415 145.7069397  -0.6490513
  74.2215500 146.3121948   0.4769827  73.5833664 147.1936951   0.5385676
  73.6583557 145.4120483   0.2307173  74.9543304 146.0189209   1.7621276
  75.9468460 145.0771332   1.8719810  76.3461914 145.1732941   3.1659966
  77.1957855 144.6718903   3.6055248  75.5890579 146.0248566   3.8487859
  75.6233368 146.2711639   4.8276930  74.6359634 146.4987030   2.9914105
  73.7775574 147.1044922   3.2415533  74.5892715 146.8469086  -1.9869634
  74.1833801 147.9831085  -2.2656252  74.4439545 145.7763214  -2.8712797
  74.8094330 144.3885956  -2.6655495  74.4560013 143.9725342  -1.7221105
  75.8886871 144.2985229  -2.7888520  74.2367477 143.6008911  -3.8393846
  73.1787186 143.4300842  -3.6406054  74.7275314 142.6501160  -4.0473418
  74.3103027 144.5809937  -4.9690390  73.5808716 144.4504395  -5.7684073
  75.2700348 144.5078125  -5.4805727  74.1496353 145.9750977  -4.3499622
  74.8912430 146.6461792  -4.7832994  72.8162994 146.6119385  -4.6106820
  72.7354965 147.5829010  -5.4095140  71.7865906 146.2881165  -3.8358219
  71.7800522 145.4868622  -3.2209673  70.4966888 146.9291534  -3.9240651
  70.2441025 146.9961243  -4.9822779  69.3663177 146.0344849  -3.1903191
  68.4183807 146.3795013  -3.6032043  69.5291443 145.0046692  -3.5082519
  69.2521896 146.1068115  -1.7046658  69.3869095 147.1351166  -1.3692049
  68.2027283 145.9262848  -1.4719843  70.1676788 145.2371521  -0.9108844
  71.2342987 144.8755646  -1.3089327  69.7980042 144.8538818   0.3160814
  70.5115128 144.3001099   0.7681112  68.8306656 144.9598694   0.5864981
  70.4941254 148.3611298  -3.3505628  69.6621017 149.1634064  -3.7696111
  71.4061356 148.7414093  -2.4711847  72.0883179 148.0551147  -2.1818140
  71.5422211 150.1400604  -2.0292106  70.5593567 150.6112061  -2.0193226
  72.1972656 150.2366180  -0.6343520  73.2092743 149.8400726  -0.5526479
  72.2075806 151.2884064  -0.3484469  71.3554916 149.4490051   0.3759534
  70.3143005 149.6274872   0.1073152  71.6613007 148.4067230   0.2852297
  71.7200546 149.9987793   1.7745111  72.8702393 149.7720947   2.2718508
  70.8783493 150.7061920   2.3866718  72.2115479 151.0209656  -3.1446085
  71.7378693 152.0995178  -3.4613235  73.2799606 150.4761353  -3.7516422
  73.6729507 149.6363068  -3.3512137  73.9069901 151.0023499  -4.9658728
  74.3000488 151.9875183  -4.7148037  75.1296158 150.1503754  -5.3403726
  74.8134918 149.1210785  -5.5098290  75.8739166 150.6899567  -6.5343075
  76.2986984 151.6565857  -6.2636104  76.6591492 149.9692993  -6.7627082
  75.2148132 150.7570801  -7.3998656  76.1973877 150.0371552  -4.2422571
  75.8701477 149.5937805  -3.3018136  77.0338440 149.3936768  -4.5149784
  76.5870438 151.0229034  -3.9881451  72.9109573 151.1744843  -6.1377044
  72.8123322 152.2346039  -6.7751727  72.1539993 150.1155548  -6.4593430
  72.3774109 149.2295227  -6.0290685  71.2583771 150.0520630  -7.6241183
  71.8125610 150.3011780  -8.5290565  70.6150360 148.6304016  -7.8311844
  71.4148636 147.8899841  -7.8190989  69.9413147 148.3780518  -7.0123281
  69.9386139 148.6465912  -9.0791874  70.1478577 147.7906799  -9.4602880
  70.2125702 151.1739960  -7.5740380  70.1673050 152.0442200  -8.4358292
  69.4437103 151.2303162  -6.4812140  69.4982300 150.5150757  -5.7701874
  68.4252167 152.2754059  -6.2381234  67.5999146 152.1383209  -6.9368296
  67.8362503 152.0059357  -4.8250380  67.5367584 150.9579163  -4.8183527
  68.5966644 152.2278900  -4.0763025  66.4303131 152.6622009  -4.4962888
  65.7183456 152.4536285  -5.2948527  66.0356598 152.2190552  -3.5819721
  66.4662704 154.4841919  -4.3210573  67.1179276 154.6021576  -2.6712222
  68.1489716 154.2487640  -2.6579180  67.2726440 155.6115112  -2.2899642
  66.4353561 154.0387115  -2.0350378  68.8754807 153.7040558  -6.4017835
  68.2310486 154.4752502  -7.1840959  69.9814529 154.1379395  -5.7738833
  70.4487915 153.5043793  -5.1412015  70.5130234 155.4554291  -6.0305643
  69.6548309 156.0966949  -5.8296242  71.4544983 155.9774780  -4.9343367
  71.6268997 157.0466156  -5.0581613  70.9912796 155.7789917  -3.4820790
  70.9166794 154.7034607  -3.3215921  71.6535110 156.3066101  -2.7956548
  69.9586487 156.1022491  -3.3505692  72.7759399 155.3142700  -4.9943714
  73.1800232 155.4341125  -5.9995837  73.4302292 155.6346588  -4.1835995
  72.6106339 154.2425232  -4.8842244  70.9573212 155.7545929  -7.4268193
  70.7005997 156.8857574  -7.9115696  71.5106277 154.7743835  -8.1394815
  71.5381622 153.8509827  -7.7312160  71.8715439 154.8899841  -9.5293331
  72.5751801 155.7184753  -9.6106749  72.6002045 153.6650238 -10.0456324
  73.4373016 153.5378113  -9.3592033  72.0315247 152.7352142 -10.0578232
  73.1000214 153.9851532 -11.4273033  72.3615417 154.2534027 -12.1828041
  73.8165588 154.8064575 -11.4155273  73.9280777 152.7410126 -12.0191469
  73.1397934 151.9894257 -12.0619574  74.1838226 152.9846649 -13.0503235
  75.1008987 152.4025879 -11.2053576  75.5112152 153.1722565 -10.6961031
  75.6818848 151.2264099 -11.0837488  75.4146042 150.1738281 -11.7763700
  74.7559891 150.2655792 -12.5365734  75.8476257 149.3007965 -11.5110073
  76.6955414 151.1084595 -10.3272495  77.1922607 151.9581604 -10.1005592
  77.2386169 150.2652283 -10.2084007  70.6452713 155.2608643 -10.4013157
  70.6261063 156.2332153 -11.0999632  69.5949173 154.4584351 -10.2930880
  69.6571884 153.6829376  -9.6490250  68.3417053 154.5049133 -10.9342813
  68.4962845 154.4377899 -12.0111752  67.4925232 153.2236176 -10.5768843
  67.2145233 153.2616425  -9.5236168  66.5347061 153.3548584 -11.0803385
  68.1493988 151.9420013 -11.0692158  69.1374283 151.9582672 -11.7942085
  67.6019058 150.7722015 -10.8085127  68.1851883 149.9758301 -11.0222654
  66.8724899 150.7248688 -10.1115036  67.5361710 155.8409882 -10.6241894
  67.0356064 156.3992310 -11.5782232  67.5416336 156.3187256  -9.3719692
  68.0510635 155.7291260  -8.7293568  67.0588837 157.6024170  -8.9391632
  66.0461273 157.7045746  -9.3290291  67.0772781 157.4452667  -7.3571100
  66.4030609 156.6235352  -7.1156659  68.0758667 157.1629944  -7.0235672
  66.7722015 158.6578522  -6.5205684  67.2856674 159.5041046  -6.9769721
  65.2991791 159.0116730  -6.6955261  64.6799774 158.1662903  -6.3954778
  65.0634689 159.8925171  -6.0983152  65.0368042 159.3410950  -7.7008867
  67.1403351 158.3943176  -5.0453324  68.1881714 158.5542603  -4.7912331
  66.6227188 159.0434265  -4.3390388  66.8380737 157.3873444  -4.7577119
  67.9379654 158.8082733  -9.4274912  67.3869019 159.8840027  -9.8112593
  69.3179932 158.6804352  -9.4326944  69.7104034 157.7520752  -9.3674345
  70.2266083 159.7835999  -9.8503332  69.9506683 160.5988922  -9.1815777
  71.7976837 159.4735107  -9.6493225  71.9275894 158.4963531  -9.1841631
  72.6100998 159.5715027 -10.9040499  72.5479584 160.5633087 -11.3518925
  73.6266632 159.3598938 -10.5724983  72.2041168 158.8441010 -11.6070242
  72.3276215 160.5607758  -8.6858644  73.3978424 160.3967896  -8.5599976
  72.0911179 161.5282135  -9.1288338  71.7902756 160.5841675  -7.2770915
  71.9634323 159.7122345  -6.6463332  72.3037262 161.4132690  -6.7902069
  70.7203217 160.7835388  -7.3366485  69.9278641 160.3566437 -11.2702112
  69.9443054 161.5845337 -11.4003420  69.3887405 159.5294189 -12.1514139
  69.2517776 158.5753021 -11.8497372  68.8516922 159.9572296 -13.4644756
  69.5403671 160.6971130 -13.8724041  68.8640671 158.7445679 -14.4250059
  68.4443283 157.8891602 -13.8956575  68.0663986 158.8851776 -15.1544323
  70.1808548 158.4443970 -15.2403746  69.9659271 157.5511780 -15.8269539
  70.2369843 159.2933044 -15.9217749  71.4688797 158.1920929 -14.4493809
  72.2737885 159.1003113 -14.1837425  71.5725784 157.0330811 -13.8845758
  72.3695450 156.8147736 -13.3038034  70.8790588 156.3029633 -13.8066826
  67.5078735 160.7725525 -13.4764900  67.1347427 161.4809570 -14.4378786
  66.7898331 160.7970276 -12.3527679  67.1545792 160.3726196 -11.5119724
  65.4948730 161.4253998 -12.2169828  65.5115738 162.2464905 -12.9336681
  64.3503723 160.4121857 -12.4594402  63.4006157 160.8621521 -12.1702967
  64.3576202 160.2331848 -13.5346174  64.5362473 159.0395050 -11.7635107
  65.4899979 158.6738739 -12.1439848  64.5713959 159.2105560 -10.6875906
  63.4513283 158.0305786 -12.1387720  63.6061630 157.0443268 -11.7012548
  62.5331879 158.4419556 -11.7193880  63.3302994 157.8135529 -13.6960926
  62.8898621 158.6705170 -14.2057323  64.3176346 157.6088715 -14.1100578
  62.4846458 156.6123962 -13.9975939  61.5006104 156.8165131 -13.8970518
  62.4977112 156.3313904 -14.9676294  62.7395363 155.7660675 -13.5088520
  65.4814224 162.2080994 -10.8505640  66.3281555 163.1461639 -10.6420841
  64.4474869 162.0404205 -10.0668058  63.8180466 161.2867126 -10.3030996
  64.0283508 163.0027771  -8.9538975  63.8110161 163.9706268  -9.4057035
  62.7139206 162.5432281  -8.2768497  62.1261597 161.8475494  -8.8757448
  63.0201035 161.9826355  -7.3936152  61.7509384 163.7194672  -8.0128870
  62.0474701 164.9247894  -8.1036530  60.6391602 163.4431763  -7.5788107
  65.0678864 163.2242279  -7.7739692  64.8754120 164.2264252  -7.0880451
  66.0650101 162.3470764  -7.5375786  66.0594482 161.6053314  -8.2230616
  67.0571518 162.3737488  -6.3939972  67.5785217 161.4179688  -6.4463978
  68.1520767 163.5154572  -6.6081176  67.5160294 164.3983307  -6.5441136
  68.8836441 163.6113281  -5.8057952  68.7750473 163.4517975  -8.0120287
  69.3401413 162.5286407  -8.1406937  67.9720993 163.5474701  -8.7429352
  69.7624130 164.5678253  -8.1183767  70.4412918 164.6723938  -7.2720361
  70.4260483 164.3163147  -8.9456787  69.0253601 165.8678284  -8.4294100
  68.7268524 166.0287323  -9.3807774  68.7192307 166.7746277  -7.5075922
  69.3307343 166.7735901  -6.3782940  70.0436478 166.1354980  -6.0547094
  69.0333633 167.5602570  -5.8189936  67.7368774 167.6160736  -7.6739511
  67.1704712 167.5355377  -8.5062943  67.4691086 168.2863159  -6.9674344
  66.5572815 162.4288940  -4.9716554  67.3721848 162.5781860  -4.0380507
  65.2422714 162.3865204  -4.7247243  64.6283646 162.2967377  -5.5216923
  64.6481781 162.3447418  -3.3658092  65.4367218 162.6501160  -2.6780307
  63.3628197 163.2148743  -3.1648417  62.9314117 162.6462555  -2.3410277
  63.6479378 164.6709290  -2.8373959  64.1272659 165.1377563  -3.6978695
  62.6517792 165.1076813  -2.7666061  64.1976242 164.6207123  -1.8974891
  62.5900383 163.0729675  -4.3551865  61.6832809 163.3406067  -4.1885805
  64.2709579 160.9088898  -3.0671008  63.3579941 160.3185272  -3.7015691
  64.9900208 160.3028870  -2.1181810  65.7854004 160.7988281  -1.7419885
  64.5331116 159.1396332  -1.4298656  63.9087563 158.6163940  -2.1540990
  65.7525024 158.1969147  -1.1674116  65.4155884 157.1997528  -0.8840863
  66.2550735 158.0469513  -2.1229370  66.7435837 158.6903534  -0.2228587
  67.7846909 159.5148468  -0.7251891  67.8384628 159.8143158  -1.7614443
  68.7946625 159.9381561   0.1670982  69.6486359 160.5276794  -0.1322569
  68.7606201 159.6105652   1.5290042  69.4725571 159.9983063   2.2425990
  67.7493210 158.7335663   2.0038393  67.8373413 158.3179321   2.9967680
  66.7529984 158.2838287   1.1452869  66.0049133 157.6399231   1.5836447
  63.7999039 159.5556030  -0.1464438  63.7139778 160.7554779   0.1899859
  63.2170639 158.5916595   0.5152175  63.2100716 157.6375427   0.1840049
  62.6634331 158.7461243   1.8580234  62.8408241 159.7541809   2.2328093
  61.1059608 158.4885712   1.7916726  61.0169525 157.4406891   1.5051240
  60.6101723 158.7357635   2.7303932  60.6791229 159.0793304   0.9811631
  63.4682884 157.9615326   2.9655683  63.9808807 156.8638763   2.7102535
  63.5120239 158.6250305   4.1410418  62.9941216 159.4869995   4.2353554
  63.9150810 158.0912323   5.4762473  64.2961731 157.0737610   5.3889313
  65.0642014 158.9725037   6.1322608  64.8399658 160.0375671   6.1910048
  65.4227142 158.5302734   7.5681467  65.7797241 157.5171509   7.7531948
  66.2369690 159.1282806   7.9773812  64.5834732 158.7441559   8.2299852
  66.2766800 158.8868103   5.2435541  66.2324371 159.5775452   4.4015145
  67.1841049 159.2331848   5.7382307  66.5513153 157.9048615   4.8582516
  62.7086983 157.9980316   6.3716302  61.9820328 158.9995270   6.5475144
  62.3780365 156.8652496   6.9731398  62.9134026 156.0449219   6.7270522
  61.1932755 156.8094330   7.8356066  60.3531532 157.4268036   7.5175900
  60.7014008 155.3801727   7.8421025  61.5463333 154.7117004   8.0074062
  60.1187820 155.1946564   8.7444572  59.9373322 154.8446350   6.6117544
  60.4553261 155.1411743   5.6996984  59.9797859 153.3296204   6.6286860
  59.4085846 152.7378693   7.3439999  59.6014900 152.9237366   5.6904664
  61.0332298 153.0501556   6.6448336  58.4841957 155.3849945   6.6009860
  58.5201302 156.4230347   6.2704492  57.9976692 154.7174072   5.8898373
  58.0630684 155.2124329   7.5914278  61.5282669 157.1982727   9.3341999
  62.6674080 157.1575317   9.7422380  60.5673599 157.7408600  10.0240049
  59.6742554 157.9060516   9.5822268  60.5464973 157.8851013  11.4995584
  61.5827789 158.0915833  11.7671261  59.7451668 159.1432800  11.9082890
  58.7358284 159.1619873  11.4972057  59.6245193 159.1846008  12.9908037
  60.3289757 159.9645081  11.4925270  60.0069695 156.5588684  12.1353216
  58.8513107 156.2565918  12.1649570  60.9731827 155.7378845  12.5218973
  61.9377403 155.9878387  12.3568039  60.7049408 154.4145355  13.1107063
  59.9576454 153.9545135  12.4641533  61.9127159 153.4887238  13.1001196
  62.7784653 154.0159912  13.5008183  61.7157631 152.5485687  13.6153021
  62.3300705 153.1585693  11.6506147  61.5941505 152.1772766  10.9675131
  60.7090683 151.6929626  11.3528242  61.9358253 151.7634277   9.6707964
  61.3326759 151.0580444   9.1184797  62.9489479 152.4689484   9.0594406
  63.2023087 152.2412262   7.7258048  62.6505966 151.5671844   7.3222275
  63.6493874 153.4708099   9.7166281  64.4767838 153.9152069   9.1834068
  63.4205017 153.8071442  11.0517731  63.9570084 154.6441345  11.4736814
  60.1125488 154.4327698  14.5300360  60.8475189 154.6600800  15.5248699
  58.7923851 154.1532135  14.6899862  58.3126450 154.0223389  13.8108835
  58.0052681 153.9201355  15.9379396  58.2996712 154.6896362  16.6515808
  56.5226860 154.1597290  15.6652927  56.0086098 154.0772247  16.6229038
  56.3589859 155.1633606  15.2728443  56.1025505 153.1567841  14.6817913
  55.1894341 152.9332428  14.8763409  58.3138695 152.5432129  16.5807438
  58.0940132 152.4349518  17.8298759  58.9616051 151.6155243  15.8832397
  59.0424042 151.7784271  14.8897448  59.6513557 150.4437561  16.4578056
  60.1340179 150.6393890  17.4153328  58.6391373 149.3167419  16.8699608
  57.9517899 149.7600250  17.5904846  58.0220261 149.0821533  16.0026417
  59.1327820 148.1275024  17.5675030  60.2060852 147.5494232  17.2723999
  58.2672920 147.5402374  18.3678646  58.5746841 146.6607819  18.7579632
  57.3291473 147.8854370  18.5121326  60.5797157 149.9020538  15.4057684
  60.2130623 149.3194580  14.3599424  61.8783875 149.9604187  15.6930246
  62.1915779 150.2821503  16.5977364  62.8639488 149.6473999  14.6882706
  62.5477028 150.0333557  13.7191839  64.0950851 150.4943542  14.9564104
  63.7694168 151.5256653  15.0923300  64.8741684 149.9881287  16.1849003
  65.2791672 149.0025482  15.9553251  65.7142410 150.6158142  16.4822216
  64.3024826 150.0256195  17.1121883  65.0274353 150.4605560  13.7689743
  64.4595184 150.9689941  12.9898310  65.9337082 150.9878998  14.0667620
  65.2538452 149.4122009  13.5745649  63.0655861 148.0915070  14.6353931
  63.3119240 147.6309662  13.5491362  62.8577118 147.2760925  15.7273912
  62.7211571 147.7095032  16.6293926  62.9039536 145.7613373  15.7130880
  63.8889503 145.4815216  15.3394804  62.7705536 145.2701416  17.1732330
  63.5661926 145.7400970  17.7513390  61.8647079 145.5746002  17.6974907
  62.9708862 143.7609863  17.2509136  62.3659401 143.2626495  16.4934158
  64.0436630 143.6965637  17.0689716  62.7257385 143.2426758  18.6847534
  63.0005760 143.9629364  19.4553394  61.6405830 143.1745758  18.7615757
  63.4743347 141.9788055  18.8948517  64.4601364 142.0573578  19.1001148
  63.0372734 140.7633820  18.9650307  61.8084297 140.4757690  18.6751976
  61.1350861 141.0547638  18.1940765  61.5143585 139.5097656  18.6538067
  63.8468513 139.7817841  19.3658352  64.8454132 139.9247131  19.4163017
  63.4174232 138.8691254  19.4182606  61.7602997 145.1799316  14.7950392
  62.0159683 144.2416229  14.0390501  60.5734634 145.7851105  14.8461609
  60.4842339 146.5126648  15.5410061  59.3851814 145.3607025  14.0862217
  59.5243149 144.3132935  13.8184538  58.1107063 145.4393005  14.9666052
  57.9368134 146.5043335  15.1201210  57.2576599 145.0800018  14.3910027
  58.1321373 144.7520294  16.3190060  58.9867744 145.1336823  16.8776035
  57.2895432 145.0000153  16.9644814  58.1090126 143.1728516  16.2324066
  57.5430603 142.5251770  15.3342209  58.7024727 142.5261078  17.1063881
  59.1844940 146.1112976  12.7659521  58.4125481 145.6492767  11.9568157
  59.9898720 147.1546173  12.5605688  60.6358299 147.3729095  13.3056803
  60.0518646 147.9881134  11.3588467  60.6514969 148.8675232  11.5937862
  60.6531563 147.2737122  10.1284189  59.9239731 146.6728210   9.5849962
  60.9398766 148.0040588   9.3717823  61.8488235 146.3623199  10.3902283
  62.3638725 146.5730743  11.3274584  61.4406776 145.3523712  10.4295902
  62.9676514 146.2991638   9.2571926  63.7363129 145.5512848   9.4520092
  62.3871498 146.0641632   8.3650627  63.5823250 147.6199493   9.1270943
  63.2375565 148.3170776   9.7714891  64.6075211 147.9181213   8.3611240
  65.3058853 146.9572296   7.8612390  65.0881500 146.0178833   8.1617575
  66.0351410 147.1240997   7.1826773  65.0028229 149.1495209   8.1140785
  64.5290833 149.9728699   8.4572697  65.8340912 149.2935486   7.5587845
  58.6880531 148.6820526  11.1080017  58.1670532 148.6972809   9.9871836
  58.1402435 149.2453308  12.1906815  58.7285347 149.2009888  13.0104647
  56.9984779 150.1354980  12.1670942  56.3652115 149.9822235  11.2932606
  56.0240784 149.8542938  13.3683929  56.6059494 150.0675507  14.2650785
  55.2194977 150.5774078  13.2346983  55.4755630 148.3985443  13.4400415
  54.9427681 148.2291870  12.5043354  56.2688866 147.6567841  13.5324202
  54.4887390 148.2638855  14.6142063  54.6637955 149.0308075  15.6105728
  53.6614952 147.3020782  14.6470881  57.4735947 151.5661621  12.0366392
  58.4515228 152.0287628  12.6455040  56.7187996 152.3282776  11.2238226
  56.0610771 151.9205475  10.5747681  56.9399796 153.8106079  11.0210495
  57.2524338 154.2865753  11.9505262  58.1039772 153.9169006  10.0067863
  57.9192963 153.2795868   9.1420145  58.2321815 154.9747314   9.7773561
  59.0765648 153.6681519  10.4313955  55.7011566 154.5186768  10.4607086
  55.1513901 154.0561523   9.4372549  55.2925072 155.5315399  11.2034883
  55.8240547 155.8644257  11.9951649  54.0531158 156.2244873  10.8978319
  53.4122124 155.5232391  10.3634329  53.2895279 156.5622864  12.1981659
  54.0724106 157.0248413  12.7992010  52.3624001 157.0700989  11.9323492
  52.7903442 155.3646851  12.9641733  51.8125305 154.5119629  12.4833536
  51.5665970 153.6521606  13.5067215  50.9263229 152.7843170  13.4491959
  52.1627693 154.0684052  14.6299000  52.2565079 153.5429230  15.4873333
  52.8896217 155.1573029  14.2873707  53.3728714 155.8163452  14.9934473
  54.2753181 157.5371399  10.0966330  53.3586922 158.0890198   9.4997129
  55.5103264 158.0230103   9.9082651  56.3066139 157.4699707  10.1914186
  55.9063873 159.3037262   9.2990294  55.2229462 159.4827423   8.4689903
  55.8229408 160.4688416  10.3444014  56.5622292 160.3005066  11.1274824
  55.9976425 161.4205475   9.8425674  54.4718666 160.6368256  11.0423203
  53.5948296 161.6285858  10.5752010  53.7773170 162.2088470   9.6828012
  52.3791771 161.8687744  11.2013636  51.7220650 162.6516266  10.8524351
  52.0827408 161.1638489  12.3551064  51.1428337 161.1968842  12.8860359
  53.0027504 160.2457733  12.8877115  52.8411064 159.7896118  13.8532171
  54.1607323 159.9703217  12.2366953  54.8664360 159.3107452  12.7197361
  57.3485489 159.2403107   8.7721024  57.9950485 158.2285004   8.8974676
  57.8959732 160.3580475   8.2756424  57.2906532 161.1544342   8.1361513
  59.3015556 160.4152679   7.9481034  59.8946304 160.3277740   8.8584366
  59.5114632 159.6507111   7.2001100  59.6501579 161.7532501   7.2882652
  58.8213654 162.6897125   7.3471942  60.8372307 161.8513489   6.6925545
  61.4201965 161.0277710   6.7369461  61.3698997 163.0362396   5.9888144
  60.5421638 163.7024384   5.7456112  62.3146095 163.7888641   6.9328995
  62.8260841 163.0242310   7.5175815  63.3319130 164.5790253   6.1174207
  62.8703613 165.1994171   5.3491940  63.7905617 165.3374939   6.7518234
  64.0911713 163.9184875   5.6987138  61.5973167 164.7714996   7.6373105
  61.0115547 164.3271027   8.2545595  61.9937935 162.5660248   4.6722755
  62.6615067 161.5784760   4.5592771  61.6846924 163.2686310   3.5723603
  61.0288696 164.0273438   3.6922176  62.3041306 163.0396881   2.2200754
  62.5200157 161.9857788   2.0446069  61.5035172 163.6699219   1.0081198
  62.0128860 163.4743500   0.0645139  60.0404701 163.1325531   0.9129658
  59.4181862 163.5849915   1.6850785  59.7383423 163.3553925  -0.1103452
  59.9106293 162.0667114   1.1006875  61.2055321 165.0049744   1.1904267
  62.0750160 165.4118195   1.1990032  63.6266747 163.6991425   2.2170253
  63.7803268 164.8838806   2.4342787  64.7045059 163.0638428   1.7649205
  64.5256882 162.1402893   1.3972533  66.0379868 163.5424652   1.5758014
  66.1932602 164.5125580   2.0479493  66.9871140 162.5886993   2.3522456
  66.8436966 161.5511627   2.0504491  68.0150681 162.9008942   2.1679704
  66.8106918 162.5997772   3.4278157  66.4628830 163.6430817   0.0884871
  66.4296341 162.6372833  -0.6213883  66.9240570 164.7973175  -0.3585387
  66.9840088 165.5821991   0.2742823  67.4877853 165.0053558  -1.6581731
  67.0992737 164.2383575  -2.3281701  67.0499420 166.3295593  -2.2212861
  65.9611740 166.3498383  -2.1737134  67.3597794 167.1780701  -1.6112524
  67.4479752 166.5802765  -3.6510041  68.4675064 166.2407532  -3.8337193
  66.8679047 166.0476685  -4.4046268  67.3668442 168.0896759  -4.0434661
  66.4058609 168.7869568  -3.5975101  68.2357635 168.5790253  -4.7710104
  68.9505539 164.8939362  -1.5924765  69.6484375 165.3662262  -0.7116720
  69.4871597 164.0937500  -2.5248511  68.8797913 163.5353241  -3.1074085
  70.8837051 163.9597321  -2.8312855  71.4434128 163.8548584  -1.9018632
  71.1764603 162.5979004  -3.5805507  70.6058426 162.6027374  -4.5092449
  72.7249146 162.5626373  -3.8967838  73.3150406 162.7510834  -2.9999347
  73.0682449 161.6991882  -4.4665933  72.9696426 163.3526306  -4.6068063
  70.7704926 161.3648071  -2.7367890  71.3432693 161.2821198  -1.8131093
  69.7223206 161.4722137  -2.4576705  70.9076767 160.0585022  -3.6067257
  71.8788681 159.9252777  -4.0833178  70.7871704 159.1447754  -3.0247612
  70.0633698 160.0303802  -4.2955327  71.4182205 165.2043610  -3.5062122
  71.0784225 165.4516449  -4.6585422  72.3618774 165.8890839  -2.8082714
  72.5366592 165.6372986  -1.8458995  73.0153732 167.0713654  -3.4342108
  72.5058975 167.2779999  -4.3754015  72.8520660 168.3156433  -2.5238383
  72.9250412 169.1812744  -3.1822088  71.8125992 168.3977051  -2.2062223
  73.7782288 168.5332336  -1.3309678  74.8879929 169.3804016  -1.3269540
  75.0909195 169.9302826  -2.2340665  75.6537628 169.5888672  -0.1567615
  76.5152130 170.2397461  -0.1824855  75.2376175 168.9812927   1.0535347
  75.9175720 169.1848755   2.2531946  76.3811569 170.0226746   2.1841226
  74.1297607 168.1043701   1.0736383  73.7904892 167.5978088   1.9650903
  73.4514999 167.8611908  -0.1550779  72.5671844 167.2427521  -0.1990083
  74.4745712 166.7979584  -3.8606105  75.0139160 167.5640106  -4.6735034
  75.1266403 165.7218781  -3.3023641  74.6605606 165.1939392  -2.5783808
  76.5262146 165.3185425  -3.6746087  76.6042328 165.8043976  -4.6472120
  77.5521317 166.0921478  -2.8926952  77.5724106 165.7760315  -1.8497351
  78.5456543 166.0031738  -3.3321323  77.3940735 167.1610260  -3.0362926
  76.7229462 163.8048553  -3.7336762  76.2911682 163.0968170  -2.8643439
  77.3116455 163.3368378  -4.8761311  77.4662628 164.0668945  -5.5567360
  77.3294678 161.9611053  -5.3589082  77.1291122 161.3535767  -4.4763627
  76.1317596 161.8070374  -6.2797990  75.2266006 162.1150970  -5.7564616
  76.3392715 162.4403687  -7.1423168  76.0460434 160.4708862  -6.9888129
  75.1070786 159.5126801  -6.4969931  74.5011749 159.7632294  -5.6387968
  74.8992233 158.3396759  -7.1697249  74.0684280 157.6651001  -7.0244164
  75.6684875 158.0291138  -8.3176975  75.3585510 156.9769897  -9.1455956
  74.7181702 156.3844147  -8.7451191  76.6990280 158.9297180  -8.7278452
  77.2688370 158.6828308  -9.6114550  76.8116226 160.1616821  -8.1193037
  77.4646149 160.8974762  -8.5649557  78.6968155 161.4674988  -5.9041653
  79.3790512 162.2375946  -6.6067982  79.1120377 160.2302399  -5.5651340
  78.4379272 159.6665039  -5.0672455  80.4014740 159.6367645  -6.0046954
  80.6825638 159.9857941  -6.9983115  81.4847641 160.1489716  -5.0616527
  81.2908936 161.1741486  -4.7461662  81.5141220 159.6205902  -4.1087360
  82.9267502 160.0307312  -5.5766549  83.2744141 158.9976807  -5.5703726
  82.9788437 160.3339386  -6.6223383  83.9536514 160.8970184  -4.8844557
  83.5637054 161.9008942  -4.7162485  84.2123795 160.4150696  -3.9416482
  85.0840378 161.1627350  -5.7551560  84.9862442 162.0243835  -6.2729321
  86.2951889 160.6039734  -5.7512078  86.6507339 159.6120148  -5.0284185
  85.9437027 159.0391083  -4.5902686  87.5466919 159.1480713  -5.0743856
  87.1853485 161.0110626  -6.5783176  87.0590439 161.8673248  -7.0988688
  88.0523453 160.4930115  -6.5842185  80.3948593 158.0794983  -6.1439047
  80.0776215 157.3643494  -5.1947384  80.5932617 157.5322113  -7.3865108
  80.9373627 158.2143402  -8.0471048  80.6457214 156.0759277  -7.6430097
  80.1471939 155.4739838  -6.8832526  79.9959564 155.7853699  -8.9622583
  80.2631836 156.5270538  -9.7149782  80.3619919 154.7834625  -9.1865492
  78.4479065 155.7145538  -8.8924923  78.1464233 155.2391357  -7.9591141
  78.0679855 156.7331085  -8.9719524  77.9069901 154.9102631 -10.1362267
  77.2169266 153.9106140  -9.8308496  78.2110977 155.2738190 -11.3265009
  82.1125031 155.5263519  -7.5426669  82.9720154 156.0680542  -8.2585545
  82.3393021 154.5182648  -6.7372003  81.5360413 154.0643005  -6.3263593
  83.6757812 153.8422394  -6.6177516  84.2482910 154.1166992  -7.5037603
  84.6283646 154.3802338  -5.5364084  84.0333405 154.2128143  -4.6386185
  85.5777130 153.8602905  -5.4079843  84.9582748 155.8923645  -5.6226993
  85.7081909 156.1135864  -6.3821697  84.0687332 156.4980469  -5.7957911
  85.5233078 156.4215546  -4.2765603  86.5730515 155.8834686  -3.8504353
  85.2362595 157.5440826  -3.7847025  83.6288834 152.2711182  -6.6936116
  82.6135941 151.6131287  -6.4930100  84.7506790 151.5884399  -7.0325460
  85.5664215 152.1130066  -7.3144908  84.8838120 150.1601105  -7.3623161
  84.2347336 149.5678253  -6.7173400  84.4379807 149.9881439  -8.8600454
  83.4126740 150.2755127  -9.0929918  85.0786285 150.6809387  -9.4056549
  84.7170029 148.5550690  -9.3783712  85.8044739 148.4925537  -9.4183311
  84.2978821 147.8061676  -8.7063675  84.3276062 148.2203217 -10.8506165
  84.7515717 147.1947937 -11.4269285  83.5784149 149.0122833 -11.5403900
  83.3248291 148.7761078 -12.4890852  83.3433228 149.9167480 -11.1572924
  86.3313675 149.7050781  -6.9554696  87.3806000 150.0336151  -7.5856333
  86.4268112 148.8528442  -5.8789945  85.5754013 148.4306641  -5.5369935
  87.7047501 148.3773499  -5.2459040  88.4002762 148.2314911  -6.0723820
  88.2845459 149.3155975  -4.1237798  87.4644318 149.5773926  -3.4552069
  89.0130463 148.8627472  -3.4512413  88.9926147 150.5098114  -4.7281342
  89.7569733 150.0170441  -5.3290091  88.3076096 151.0108643  -5.4121051
  89.7430344 151.4812469  -3.7874379  89.0916443 152.2543945  -3.0364118
  91.0185242 151.4830170  -3.7923305  87.4610977 146.9625854  -4.6089096
  86.3452835 146.6656342  -4.2534466  88.4630280 146.0724335  -4.5934987
  89.3502274 146.3367920  -4.9973545  88.3139191 144.7145233  -4.0054560
  89.3048782 144.2606506  -4.0150809  88.0093002 144.7515106  -2.4872279
  86.9396362 144.9350891  -2.3860998  88.0637283 143.7351685  -2.0971000
  88.7525177 145.6740417  -1.5268539  90.0005417 145.2933655  -0.9780236
  90.4538803 144.3898773  -1.3582749  90.7151642 146.1138306  -0.1214589
  91.6994858 145.8938141   0.2646779  90.1619644 147.4229889   0.2720090
  90.8645096 148.2075958   1.1604972  91.7387238 147.8480835   1.3281394
  88.9253082 147.7783966  -0.2844229  88.4649811 148.7334900  -0.0787445
  88.1903458 146.9229889  -1.1448269  87.2344894 147.2564087  -1.5210730
  87.4223251 143.7140198  -4.7311764  87.2135315 142.5656433  -4.3330498
  86.9219131 144.0318146  -5.9179711  87.1965561 144.9673920  -6.1813111
  85.8593674 143.3422546  -6.6301618  85.7997055 143.5563812  -7.6972561
  86.1123505 142.2820435  -6.6380019  84.4614105 143.5818024  -6.0831213
  83.6249390 142.7287140  -6.3534017  84.2268448 144.6645355  -5.2905245
  85.0188522 145.2379456  -5.0374656  82.8681488 145.1745758  -5.0234604
  82.1961670 144.4476013  -5.4795709  82.5337906 145.2906799  -3.5293145
  81.4758301 145.5277863  -3.4171007  82.7505569 143.9137268  -2.8625295
  83.7970123 143.6679993  -2.6818323  82.3866043 143.7807922  -1.8437228
  82.3536377 143.1549988  -3.5369809  83.3243408 146.3803711  -2.8352969
  84.3507080 146.0277100  -2.9367862  83.1809235 147.3217316  -3.3657448
  82.9470291 146.6658325  -1.3729419  83.0435410 145.6798553  -0.9183687
  83.7217560 147.3052216  -0.9497730  81.9549103 147.1132050  -1.3124658
  82.5598831 146.4702301  -5.7088289  83.4927597 147.2777710  -5.8810110
  81.2869720 146.7062378  -6.0916219  80.5695877 146.0655823  -5.7833462
  80.8043518 148.0663452  -6.4179940  81.6031952 148.5930481  -6.9400415
  79.6880417 148.0061798  -7.4592524  78.9261856 147.3656921  -7.0148940
  79.4385300 149.0493469  -7.6533127  80.1023941 147.3284760  -8.8015633
  81.1746674 147.4752197  -8.9311600  80.0679779 146.2423859  -8.7160473
  79.2622070 147.7785492  -9.9938908  78.3344803 148.6255646  -9.9255152
  79.5437241 147.2431793 -11.0983849  80.3914566 148.8307190  -5.1270380
  79.9028015 148.2366028  -4.2061715  80.5473633 150.1369171  -5.0696530
  81.0523453 150.6064148  -5.8076615  80.1473389 151.0614929  -3.9429386
  79.2318649 150.6628723  -3.5057719  81.2649307 151.0305023  -2.8290040
  81.4208679 149.9671478  -2.6471801  82.6193848 151.5657349  -3.3126805
  82.4913559 152.4579926  -3.9255433  83.1996231 151.8439789  -2.4329064
  83.2159424 150.8446655  -3.8714967  80.9194565 151.8005371  -1.7893068
  81.5156937 151.6275787  -1.0570569  79.8032303 152.5206146  -4.3490648
  80.2792130 152.9995422  -5.3734899  79.0391235 153.2395020  -3.6025820
  78.7408371 152.7465973  -2.7730212  78.7248688 154.6617279  -3.8541858
  79.5982208 155.0599670  -4.3706713  77.3551483 154.7486267  -4.6736593
  77.2274475 154.1690063  -5.5878954  76.1182785 154.3796539  -3.9454243
  75.8678589 155.1608734  -3.2277374  75.3301010 154.0690460  -4.6312757
  76.3051224 153.4583588  -3.3936872  77.1185684 156.1536560  -5.2028694
  77.8923264 156.3936768  -5.9320989  76.1322021 156.3608398  -5.6179056
  77.1862793 156.8555298  -4.3716817  78.6331024 155.4727173  -2.5804687
  78.1992493 155.0422516  -1.5276314  79.2082291 156.6944885  -2.6426339
  79.4474258 156.9370575  -3.5934470  79.2088928 157.6925049  -1.5313993
  78.8191910 157.2433014  -0.6179166  80.6877670 158.1728973  -1.3733590
  80.9887695 158.4972839  -2.3694899  80.7598648 159.1159515  -0.8315691
  81.6569901 157.0692291  -0.9203626  81.5747833 156.7506866   0.1188040
  81.4760971 156.1674500  -1.5053126  83.0784760 157.5825195  -1.1634690
  83.1998672 158.0954437  -2.1175461  83.2863235 158.2811279  -0.3530073
  84.0666580 156.3917847  -1.0148593  83.9911346 155.9952545  -0.0023543
  83.8730927 155.6751251  -1.8129977  85.4586334 156.8495483  -1.1274176
  85.6473846 157.5958710  -0.4735963  86.0315094 156.0697174  -0.8379988
  85.7750015 157.0982666  -2.0537813  78.2640305 158.8992004  -1.8176266
  78.3254166 159.4468842  -2.9047749  77.3423462 159.1876831  -0.8910912
  77.3062363 158.6887360  -0.0136859  76.4060593 160.3555298  -1.0676131
  76.8918457 160.9524384  -1.8395065  75.0079727 159.9323883  -1.5451212
  74.4878769 160.8890228  -1.5947052  74.9941940 159.2396545  -2.8979290
  75.5993195 158.3330688  -2.8983552  73.9730301 159.0046234  -3.1980820
  75.5047531 159.8984528  -3.6003785  74.2226791 158.9711914  -0.6541000
  73.9859543 159.5046844   0.2664680  73.3291702 158.5799866  -1.1406269
  74.8322372 158.0985870  -0.4193047  76.2977829 161.2498779   0.1708369
  76.3419037 160.8234253   1.2934099  75.9608612 162.5265350  -0.0816123
  75.8910217 162.7395020  -1.0664289  75.3594055 163.5286255   0.8878233
  75.2461166 163.1047974   1.8856410  76.2825623 164.7884064   1.0112292
  76.4956207 165.1473541   0.0043211  75.7234421 165.5461121   1.5602055
  77.5678024 164.4558563   1.7997118  77.3603668 164.7418060   2.8308785
  77.7539520 163.3821411   1.7754204  78.7669678 165.2254639   1.2484934
  79.6634598 164.8507385   1.7424440  78.8997650 164.9025116   0.2159420
  78.7843323 166.7232361   1.2423787  78.1232147 167.1986389   0.5177912
  78.4580536 167.0880737   2.2163110  80.1450424 167.1996918   0.8727954
  80.5543976 166.5072327   0.2620252  80.1330414 168.0957336   0.4069125
  80.7679977 167.2740021   1.6643193  73.9742737 163.9288025   0.3928990
  73.6879578 164.1506958  -0.7939223  73.0878067 163.9608154   1.3906645
  73.3624878 163.7257843   2.3337519  71.6292572 164.2274323   1.2099768
  71.4648209 164.6361237   0.2129656  70.7880402 162.9135437   1.2577997
  70.6696014 162.5517273   2.2791481  69.8195190 163.0975952   0.7928328
  71.3398743 162.1162872   0.7598516  71.2937546 165.2246704   2.2558320
  71.9490967 165.3549652   3.2623518  70.1536255 165.8283539   2.0445681
  69.7703247 165.8255157   1.1101292  69.6715775 166.8800964   2.9731290
  69.9784546 166.5906067   3.9781759  70.4090271 168.1731567   2.6613243
  71.4769897 167.9767151   2.5666590  70.0253830 168.7775116   1.2952772
  68.9990616 169.1433105   1.3263918  70.7556305 169.5003357   0.9314566
  70.1491318 168.0175934   0.5237095  70.1392746 169.2698364   3.7304857
  69.0676651 169.4394684   3.6257179  70.4870529 168.8235626   4.6621442
  70.8706818 170.6366882   3.5563755  70.4691467 171.2160492   2.7249777
  70.6464386 171.3072205   4.3859577  71.9523697 170.5465698   3.4567540
  68.1414642 166.9958191   2.9084728  67.5471039 166.8508453   1.8499632
  67.4705429 167.0610046   4.0618663  68.0813980 167.0622711   4.8662000
  65.9941711 166.8982086   4.1868625  65.6616287 166.0025940   3.6621108
  65.7619629 166.7533112   5.2419362  65.1142654 168.0334473   3.6536169
  65.2130508 169.2185516   4.0499139  64.1703262 167.7323151   2.7134213
  64.0931625 166.7698212   2.4172063  63.2399139 168.7728119   2.0676861
  63.7244339 169.7450867   2.1572032  63.0076752 168.3178864   0.6630939
  62.4956055 167.3569794   0.7135385  62.2759781 169.0160675   0.2565680
  64.1619873 168.3218536  -0.3876312  65.0806580 167.8608704  -0.0248045
  63.8272476 167.6599731  -1.1863582  64.4229965 169.7107849  -0.9474409
  64.7184296 169.5729370  -1.9875455  63.5046196 170.2646179  -1.1422743
  65.4611588 170.5420532  -0.2697952  65.0034714 171.0981445   0.4382853
  66.7589569 170.8246613  -0.5890542  67.3827744 170.1789551  -1.4700912
  66.8403091 169.5685883  -2.0644794  68.3602295 170.3484497  -1.6597095
  67.5061264 171.7142487   0.0551427  67.1030350 172.3567657   0.7220640
  68.4557495 171.9141846  -0.2247687  61.8968124 168.9290161   2.8954141
  61.5724487 170.0755157   3.2255871  61.1895981 167.8026886   3.1793604
  61.5244179 166.8656311   3.0063455  59.6936073 167.7759094   3.5316613
  59.3973312 168.6576691   4.0998292  58.8682823 167.4244080   2.2970936
  59.1639633 166.4108582   2.0262015  57.8359871 167.4776154   2.6429923
  58.9472618 168.4724426   1.1381205  58.2101059 169.2621307   1.2833273
  59.8897171 169.0180206   1.1853666  58.8180161 167.8520203  -0.2682571
  58.3130722 168.4823914  -1.1892047  59.4424553 166.7535248  -0.6750792
  59.2108765 166.4192963  -1.5996161  60.0549011 166.1725769  -0.1205408
  59.4134636 166.6681213   4.4991651  60.0234566 165.5919952   4.4900494
  58.4854202 166.8142395   5.4828000  57.9639282 167.6774902   5.5369520
  58.0726509 165.7569427   6.3332849  58.9556427 165.1484222   6.5285554
  57.6476707 166.3554077   7.6645613  56.7420921 166.9416962   7.5086684
  57.4353027 165.4948425   8.2989407  58.7209892 167.2415466   8.3690996
  59.5471535 166.5731049   8.6114607  58.9721680 168.0053558   7.6331687
  58.0712242 167.7104034   9.6748943  57.5910339 166.8911285  10.2099571
  58.8418541 168.1120758  10.3328409  57.1134834 168.8452301   9.5569239
  57.3060570 169.5108032   8.8220587  56.1594429 169.2637177  10.3780766
  55.8435669 168.4953918  11.3747578  56.2898865 167.6002197  11.5146351
  55.1519852 168.8041992  12.0429363  55.5122795 170.4127045  10.3200560
  55.8985138 171.1307220   9.7239237  54.7945671 170.6864777  10.9758348
  56.8580513 165.0665741   5.7099957  56.0068855 165.7857971   5.2090764
  56.5572662 163.8144073   5.9671855  57.2249985 163.1588593   6.3472962
  55.2505836 163.2404938   5.5992537  54.6251678 164.1193237   5.4423165
  55.3950195 162.4136505   4.2727923  54.4518814 161.9086151   4.0641484
  55.5774879 163.0642395   3.4174964  56.4681129 161.3421021   4.2754230
  56.2959595 160.1613159   5.0436058  55.4094849 159.9564667   5.6254992
  57.3400764 159.2263794   5.0960083  57.2186394 158.3646698   5.7356129
  58.5396080 159.4524841   4.4021444  59.3123360 158.7121277   4.5476327
  58.6528206 160.5469208   3.5423973  59.5885010 160.6411591   3.0113425
  57.6154099 161.5223389   3.5056424  57.6723213 162.4382935   2.9362712
  54.6094589 162.4211121   6.7129111  55.3222160 161.8072815   7.5167565
  53.2444458 162.2760620   6.6135702  52.8229599 162.8472290   5.8950777
  52.4965019 161.0503387   7.0963392  52.9109344 160.7554169   8.0603743
  50.9670181 161.4153137   7.3073888  50.9882317 162.3661194   7.8399396
  50.4514008 161.5742950   6.3603053  50.2684402 160.3488007   8.1560116
  50.5432434 159.3278961   7.8907943  50.4745483 160.5229645   9.2120819
  48.7652435 160.3848877   7.9979472  48.4062004 160.3339844   6.9700379
  48.3359604 159.4800873   8.4282303  48.0659332 161.5834961   8.6871376
  48.3992805 161.6187286   9.7243185  48.2702637 162.5312042   8.1889420
  46.5387154 161.4584656   8.6097469  46.1642685 160.5758972   8.9274883
  46.1501694 162.1679840   9.2144976  46.2271080 161.7398529   7.6911469
  52.6838646 159.8820496   6.0937672  52.5772095 160.0265503   4.8797054
  52.7196732 158.6215973   6.6255822  52.5552979 158.5129089   7.6161714
  52.6601944 157.3702240   5.8754950  53.1335487 157.4711914   4.8988457
  53.5257568 156.2697754   6.6258006  53.2475891 156.2088013   7.6779447
  53.5517693 154.8445892   6.1001635  53.6441879 154.8680267   5.0143399
  54.2897644 154.2232056   6.6074553  52.6272469 154.3209839   6.3434591
  55.0061646 156.7036896   6.5684948  55.1802864 157.7129211   6.9416409
  55.5495224 156.1108551   7.3042932  55.3794518 156.7015991   5.5444078
  51.2261620 156.8178406   5.6589737  50.3116035 157.0082550   6.5233173
  51.0827789 156.0126801   4.6187553  51.8689919 155.8988953   3.9950404
  49.8187561 155.3860168   4.1333222  49.0073853 155.4154205   4.8605852
  49.3541374 156.1184082   2.8743448  50.0144081 155.8511658   2.0492871
  48.4194908 155.6282043   2.6018903  49.1763916 157.6087646   3.0084021
  49.9643631 158.0393372   3.6263077  49.2831230 158.2567139   1.6451273
  48.4011765 158.0987396   1.0243844  49.3339996 159.3414612   1.7392130
  50.2161903 158.0636292   1.1157831  47.7614136 157.8771210   3.5719941
  47.7335014 157.5285034   4.6043658  47.5687180 158.9499207   3.5800362
  47.0015907 157.3799438   2.9690163  49.9242859 153.8948822   3.7739396
  49.0496407 153.1357727   4.1435122  51.0440178 153.4351807   3.1914682
  51.7384644 154.1117706   2.9084876  51.3858681 152.0168152   3.0169659
  51.0690460 151.4661102   3.9026527  50.6898117 151.3997192   1.7640483
  49.6487389 151.2393799   2.0443201  50.8902168 152.2177582   1.0721130
  51.2619209 150.0918274   1.1478806  52.2684555 150.3205872   0.7976493
  51.2044144 149.3291168   1.9244435  50.4452248 149.5562592  -0.0156962
  50.4081268 150.1707611  -1.1186501  49.8211594 148.5187225   0.1243673
  52.8968086 151.8528900   2.9035389  53.5813484 152.7951508   2.3938620
  53.4452515 150.6574402   3.2567720  52.9196091 149.8644714   3.5958531
  54.8678741 150.3398285   2.9514050  55.3232841 151.1658630   2.4051738
  55.7614098 150.2306671   4.2154598  55.4272079 149.4412079   4.8886290
  57.2040710 149.9111938   3.8549559  57.6661148 150.6504517   3.2006457
  57.7877693 149.9501648   4.7746735  57.3650780 148.9433289   3.3801782
  55.7794151 151.6079102   4.9402199  56.4707146 152.2593384   4.4055629
  54.7774239 152.0359955   4.9106975  56.2449951 151.5523834   6.4511857
  57.2160492 151.0599060   6.5023823  56.2032928 152.5340729   6.9230566
  55.5971680 150.9489288   7.0870085  54.9783096 149.0139160   2.1624048
  54.6066017 147.9834137   2.7592635  55.4573898 149.0164642   0.9064626
  55.6734428 149.9196930   0.5094762  55.4811668 147.8781128  -0.0655764
  55.0223389 146.9795685   0.3469698  54.6593475 148.2082977  -1.3454245
  53.6414299 148.3275452  -0.9743128  55.0555305 149.1423187  -1.7438284
  54.7479668 147.0491180  -2.4102836  54.8807640 146.0821991  -1.9249549
  53.7943001 146.9626007  -2.9309874  55.9299736 147.2402649  -3.3835793
  55.8420105 148.2490234  -3.7870076  56.8419380 147.0781860  -2.8089945
  55.8695145 146.2702332  -4.5348282  56.3871689 145.4209595  -4.3591356
  55.0745468 146.2497864  -5.5846686  54.2400284 147.2180939  -5.8872647
  54.2606926 147.9444885  -5.1858087  53.4948120 147.1325073  -6.5635967
  55.1846313 145.2329712  -6.4272318  55.9271774 144.5489807  -6.3974490
  54.7591248 145.3960266  -7.3285966  56.9261322 147.4522705  -0.2664629
  57.6854210 148.2587433  -0.7951661  57.2805634 146.2138519  -0.0372885
  56.6456566 145.4366760   0.0766869  58.6555901 145.7768555  -0.3073216
  59.4267120 146.5324249  -0.1570244  59.1345558 144.6501007   0.6778663
  58.4353333 143.8141479   0.6973382  60.5105286 144.0311890   0.4358994
  61.1480293 144.9151459   0.4533671  60.7975121 143.4110565   1.2851224
  60.4716721 143.5716553  -0.5517363  59.1300201 145.1974487   1.9857852
  58.5763321 144.6332703   2.5305150  58.7548447 145.2666626  -1.7618376
  57.9049339 144.4518433  -2.1781447  59.8169785 145.6127167  -2.5593302
  60.4167557 146.3452454  -2.2075088  60.1659088 144.9270172  -3.7861466
  59.2635689 144.4463806  -4.1641483  60.5461922 145.9502258  -4.8314404
  61.3727608 146.5217285  -4.4092212  61.0092239 145.4144287  -5.6600671
  59.4889832 146.8574219  -5.3670335  58.7114868 146.1784973  -5.7172642
  59.1581917 147.4659729  -4.5254035  59.8463478 147.7561035  -6.5590110
  59.6798859 148.9926910  -6.4594083  60.2868309 147.1855927  -7.6342473
  60.5359039 147.7625885  -8.4249048  60.4297028 146.1973877  -7.7863503
  61.2693367 143.8335724  -3.5800285  62.0741539 143.8243256  -2.6485085
  61.3121109 142.9117584  -4.5545268  60.7905197 143.0863800  -5.4016094
  61.9783974 141.5948029  -4.5134149  61.7257347 141.0301514  -3.6159647
  61.5272522 140.7666168  -5.7129598  61.9113388 141.2609711  -6.6052589
  62.0978394 139.8385773  -5.7488132  60.1032295 140.5899506  -5.6636996
  59.7787247 140.1277008  -6.4399858  63.4804916 141.7584534  -4.6213098
  64.1528244 140.8299103  -4.1607261  64.1024170 142.7943115  -5.1683998
  63.6178284 143.5696106  -5.5975842  65.5435562 142.9966431  -5.0021853
  66.1065292 142.0641479  -5.0424466  66.0322571 143.9697266  -6.0787640
  67.0762405 143.7566223  -6.3085155  65.6275101 143.8335266  -7.0816240
  65.8892593 145.4583740  -5.7746077  64.8812027 145.7330322  -5.0989575
  66.7797928 146.2507935  -6.1311750  65.9767380 143.4477234  -3.5901334
  67.1894836 143.5600891  -3.2348530  65.0039825 143.7624359  -2.7032313
  64.0480652 143.6737213  -3.0170016  65.2002716 144.0064697  -1.2470545
  64.5686951 143.2705841  -0.7493851  66.2385330 143.8872375  -0.9373950
  64.7948227 145.3306274  -0.6248603  64.8941650 145.5230560   0.5843049
  64.4367676 146.3570404  -1.4574953  64.4746094 146.1290588  -2.4406981
  64.1405945 147.7257690  -1.0881698  64.6420822 147.9573822  -0.1485033
  64.6391907 148.7776642  -2.0942373  64.3980560 149.6921082  -1.5522503
  66.1566772 148.7213440  -2.1835341  66.5406952 147.8385620  -2.6947401
  66.5836182 149.6129303  -2.6427534  66.5468674 148.6079102  -1.1721076
  63.9866905 148.6602173  -3.5823140  64.7619476 148.5232544  -4.3361821
  63.4935570 147.6886749  -3.6145575  63.0192566 149.7414093  -3.9867055
  63.5373116 150.6268311  -4.3551831  62.3621979 149.2812195  -4.7246757
  62.4382439 150.1009979  -3.1374598  62.6350327 147.9169312  -0.8544135
  61.8177757 147.1468658  -1.3154763  62.2712479 148.9465790  -0.1243038
  63.0035057 149.5876160   0.1458203  60.8829117 149.3519135   0.1869949
  60.2053833 148.5544586  -0.1181951  60.7081833 149.4165192   1.6912421
  61.2321587 150.2523041   2.1549342  59.6287346 149.5028381   1.8154795
  61.0850525 148.1744690   2.5175800  60.5561752 147.3246002   2.0861666
  62.1635971 148.0291595   2.4564497  60.7196960 148.2124481   3.9804440
  60.6771355 149.3010712   4.5989976  60.4010658 146.9895020   4.4632082
  60.0337563 146.8666840   5.3960013  60.3313789 146.1859589   3.8552940
  60.4507408 150.5841675  -0.6040083  61.2715073 151.4867554  -0.8951072
  59.1413422 150.5947113  -0.8627686  58.6426125 149.7285919  -0.7171209
  58.4497719 151.7443848  -1.4179367  59.1896782 152.5322876  -1.5587984
  57.8108139 151.3843384  -2.7533441  57.1592026 150.5163879  -2.6525054
  57.1518211 152.2328339  -2.9373689  58.8685913 151.0157471  -3.8704021
  59.7086830 150.4226227  -3.5091007  58.2988243 150.4492340  -4.6069713
  59.4255600 152.2198639  -4.6261172  59.3494339 153.3820038  -4.3183551
  59.8443451 152.0120850  -5.8535275  60.2207489 152.8055420  -6.3523784
  59.7644806 151.0669861  -6.2006798  57.4579239 152.2048340  -0.3125394
  56.7744331 151.3659515   0.2889889  57.4925766 153.5061340  -0.0134137
  58.1807632 154.1095276  -0.4405214  56.4810486 154.0787048   0.9080644
  55.9663544 153.2341614   1.3662704  57.2100258 154.8206482   2.0677915
  57.5736809 155.8000488   1.7569461  56.5349121 155.0068817   2.9030361
  58.0885620 154.2726440   2.4083321  55.5000687 154.9803925   0.1167341
  55.9140739 155.9656219  -0.4785846  54.1834793 154.7058411   0.1545234
  53.8999634 153.8502197   0.6101924  53.1867180 155.6923828  -0.2360973
  53.6785126 156.1558990  -1.0913191  51.8598862 155.0967865  -0.6215681
  51.7103615 154.2167969   0.0040271  51.1043434 155.8715515  -0.4912772
  51.9739990 154.7261353  -2.0848098  52.5471840 155.4382782  -2.6784675
  52.3914642 153.7192993  -2.0747361  50.5615349 154.7307892  -2.6635182
  49.8971329 154.1720276  -2.0043852  50.2159500 155.7622833  -2.5951800
  50.5758286 154.3614960  -4.1386671  49.6127625 154.6396332  -4.5667362
  51.3323250 155.0300446  -4.5495849  50.7450371 152.8991547  -4.3629169
  49.9206772 152.3919830  -4.0742598  50.8119507 152.7270966  -5.3559022
  51.5347366 152.5167694  -3.8626602  52.9679985 156.7180634   0.9400036
  52.7528000 156.2373047   2.0814366  53.0222244 158.0330658   0.6859601
  53.2518539 158.2516327  -0.2729979  53.1040268 159.0466614   1.7722573
  52.8347855 158.5059204   2.6795621  54.6140556 159.5146484   1.8382567
  54.6859322 160.1422119   2.7265618  55.5524979 158.3080292   2.1500256
  55.6729889 157.6571960   1.2840014  56.5197830 158.6656647   2.5029504
  55.1723251 157.7173462   2.9834914  55.2568054 160.2726135   0.6920793
  54.6555901 161.1242065   0.3735670  56.2658424 160.5643616   0.9833272
  55.3863449 159.7078552  -0.2311532  52.2216492 160.2496490   1.3619083
  51.8771133 160.4636230   0.1965047  52.0242920 161.1835785   2.3565967
  52.2083435 160.8836975   3.3033295  51.4239082 162.5376587   2.2346299
  51.3042145 162.6564331   1.1577526  49.9210701 162.5061340   2.7621329
  49.3640366 161.7796478   2.1705031  49.8906021 162.2772980   3.8274062
  49.3031883 163.8782959   2.6770327  49.8260536 164.6899261   3.1829648
  49.2851372 164.1629181   1.6250021  47.9181023 163.9726257   3.2401752
  47.0308876 163.1270752   3.1323597  47.5779915 164.9992065   3.9151058
  46.6722603 165.0035400   4.3620229  48.2399406 165.7618713   3.9312027
  52.3032570 163.6741638   2.8749750  52.5707130 163.6803436   4.1022062
  52.8598480 164.5853424   2.1044009  52.4720268 164.6367188   1.1732392
  53.7060509 165.6868286   2.3809900  54.5827675 165.2571411   2.8655910
  54.3514748 166.3428955   1.1419699  53.4624443 166.5093384   0.5336716
  55.0004196 167.7041626   1.3119707  55.9198685 167.6585236   1.8956021
  55.2187805 168.1064453   0.3227354  54.3136826 168.3884125   1.8102820
  55.4326820 165.4471130   0.3986593  55.9449272 165.9012909  -0.4495330
  56.2209358 165.3440247   1.1443971  55.0667877 164.0704041  -0.0728106
  54.4321060 164.0989227  -0.9585112  55.9521904 163.5948181  -0.4946725
  54.7761459 163.4424286   0.7693691  52.9851341 166.6982727   3.3165691
  51.9387016 167.3886261   2.9796481  53.5543480 166.8821869   4.5047393
  54.3712120 166.3231354   4.7054811  52.9547386 167.7861328   5.4931569
  51.8671684 167.7904510   5.4205885  53.3802338 167.3720398   6.8910952
  54.4664230 167.2823639   6.8751435  53.1890335 168.0384674   7.7321820
  52.8359718 165.9444733   7.2514911  52.9733315 165.2581482   6.4159174
  53.4928741 165.3474426   8.5676756  53.6330299 166.1592712   9.2813931
  52.8055115 164.6069336   8.9766684  54.4422493 164.8404999   8.3950253
  51.3178444 165.9782562   7.5259161  50.8498459 166.3589630   6.6180944
  50.9565735 164.9780731   7.7651310  50.9880791 166.5836792   8.3702049
  53.3953285 169.2747803   5.3367348  54.5258331 169.6174469   5.1190305
  52.3877640 170.1707916   5.3003092  50.9679031 169.9334717   5.2914567
  50.6698036 169.4784698   6.2360268  50.7555504 169.3447723   4.3990226
  50.3126221 171.3251648   5.2771945  50.1602325 171.6350098   6.3110571
  49.4605293 171.3791504   4.5996065  51.3928223 172.2294006   4.7341499
  51.2239685 173.2472839   5.0855937  51.4041405 172.2194519   3.6442542
  52.6963577 171.5600586   5.1570187  53.3509865 171.7008362   4.2969346
  53.2838135 172.1246490   6.4530029  52.9089127 171.7544250   7.5440044
  54.1681671 173.0440979   6.3450561  54.5679436 173.3735809   5.4780335
  54.3417282 174.0221558   7.4593105  54.4904823 173.4481964   8.3739395
  55.4805527 175.0873413   7.0954299  55.3835411 175.3331757   6.0379500
  55.4333458 175.9449310   7.7665482  56.8046150 174.3159637   7.3880429
  56.8438263 173.5019379   6.6642151  57.5655136 175.0899963   7.2880435
  56.9607849 173.8227539   8.8178902  57.5475998 174.5459442   9.6588287
  56.6277847 172.6279755   9.0574942  53.0538483 174.8167572   7.5433626
  52.5799789 175.4346619   6.5565219  52.5172501 174.8954468   8.7467232
  52.8706093 174.4130554   9.5606842  51.2548218 175.6776123   9.0417662
  50.7013931 175.6969147   8.1029129  50.3782272 174.9497833  10.0362835
  50.9571648 174.7904816  10.9459858  49.5331268 175.6072235  10.2404423
  49.8975601 173.5634155   9.5358009  49.4943581 173.6166382   8.5245180
  50.7356453 172.8668976   9.5114250  48.7589798 173.1131744  10.4400606
  48.3703842 172.1612244  10.0783072  49.0413361 173.0004120  11.4867983
  47.6491241 174.0392914  10.4097910  47.4646912 174.3271179   9.4594011
  46.8015862 174.4783478  11.3214388  46.8782539 174.2637482  12.5835981
  47.7550621 173.8556824  12.8747692  46.1723518 174.5093689  13.2629261
  45.7857666 175.2454376  10.9565887  45.7356377 175.6049347  10.0140648
  45.0246468 175.4184570  11.5975685  51.6285286 177.0951233   9.4155817
  51.4177017 177.5559692  10.5651674  52.0706978 177.8782043   8.4247932
  52.1380196 177.5452271   7.4736366  52.8356476 179.1606598   8.7117920
  53.6179428 178.9590149   9.4435396  53.6383858 179.6646423   7.5006804
  52.9371758 179.7811890   6.6743503  54.2413864 181.1017303   7.6063814
  55.1290207 181.0897217   8.2388868  54.4671555 181.3646698   6.5729413
  53.5542641 181.8265381   8.0429831  54.7510300 178.6948242   6.9745212
  54.2291641 177.7887726   6.6665816  55.1972504 179.2311554   6.1370630
  55.5342140 178.5326080   7.7150650  51.8207169 180.2231293   9.2231941
  51.0570679 180.7356110   8.3690901  51.6805153 180.4709778  10.5008430
  52.2535591 180.0180664  11.1984034  50.7380104 181.4355164  10.9987535
  49.8305435 181.2364044  10.4286985  50.3572121 181.1450195  12.4372959
  51.2335091 181.0632782  13.0803537  49.7237282 181.9836884  12.7261581
  49.6264114 179.8266907  12.6036530  50.3211250 179.1252289  12.1416731
  49.2140160 179.5934906  14.0954676  48.3636856 180.1616974  14.4725323
  48.9027596 178.5582581  14.2350636  50.0745087 179.8610077  14.7087383
  48.2843971 179.7375641  11.8489141  48.4933777 179.7675781  10.7795553
  47.9327507 178.7311707  12.0760870  47.6243896 180.5440216  12.1685066
  51.1874046 182.8580475  10.7369146  52.3122826 183.2607880  11.0508595
  50.2969933 183.7878876  10.2341118  48.9312630 183.5553894   9.7203302
  48.4857330 182.8191071  10.3892899  48.9902916 183.1424866   8.7132921
  48.1221275 184.8424835   9.6618614  47.6200485 185.0320435  10.6105890
  47.4546242 184.9266052   8.8042669  49.3538055 185.7539215   9.4744701
  49.0796890 186.7873230   9.6867418  49.7438469 185.7170868   8.4573126
  50.4893570 185.2230377  10.3625679  51.4168854 185.5415802   9.8868313
  50.4075356 185.6634827  11.8480015  50.2686958 184.8652649  12.8061228
  50.5821114 186.9674072  12.1158371  50.6361809 187.6222382  11.3487759
  50.6516304 187.5756378  13.4223442  51.4309921 187.0579071  13.9814997
  51.0583687 189.0608368  13.2953272  52.0498619 189.1211548  12.8465424
  50.3815765 189.6013489  12.6335812  51.1961975 189.6996613  14.5662975
  51.5226288 190.6013031  14.6119976  49.2975235 187.3262939  14.2787609
  48.1794090 187.3189545  13.8048162  49.4631805 187.1870575  15.5942068
  50.3145981 187.4504852  16.0693893  48.3688545 186.9707642  16.5446205
  47.7469597 186.1338043  16.2270546  49.0892982 186.7263336  17.8930302
  48.3906021 186.7792206  18.7279797  49.8375816 185.3600769  17.8466740
  50.5575027 185.3456879  17.0283699  50.3426285 185.1751862  18.7947502
  49.1228104 184.5860901  17.5671425  50.0625114 187.7844543  18.1840839
  50.7769051 187.4057770  18.7016163  47.5440331 188.2021790  16.8719864
  46.3997498 188.0668793  17.2815151  47.9892731 189.3886261  16.5008221
  48.9300270 189.3545685  16.1348667  47.2384224 190.6376953  16.5785503
  46.3775978 190.5523376  17.2417202  48.1807480 191.7704620  17.1997871
  49.0135002 191.8604126  16.5022659  47.6991043 192.7482147  17.2115364
  48.7980652 191.5906525  18.6399384  48.9761963 190.5219727  18.7594643
  49.7133522 192.1543274  18.8205490  47.6903610 192.0910797  19.9737530
  46.6115913 190.5593719  20.1807251  47.1693993 189.6233826  20.1509037
  46.1325340 190.5982819  21.1590347  45.7611694 190.4982147  19.5016460
  46.7015190 191.1276703  15.2415257  45.7637634 191.8772888  15.2987518
  47.3169823 190.7337189  14.1118546  48.1332245 190.1392975  14.0890017
  46.9483261 191.3099365  12.7751245  47.2143135 192.3666229  12.7472658
  47.9557228 190.7400818  11.7470407  47.8973923 191.4195862  10.8967590
  48.9449539 190.8652802  12.1873274  47.6280098 189.3914490  11.2575083
  47.7184105 189.2727203  10.3091764  45.4357910 191.0877533  12.4846725
  44.8319283 191.8699951  11.7834969  44.8297157 190.0742798  13.0411167
  45.4065742 189.4407806  13.5759163  43.3927689 189.6413727  13.0685406
  42.9890709 189.6594696  12.0562172  43.4444962 188.2005310  13.5080566
  44.0036316 188.2069855  14.4436979  42.4377708 187.7990265  13.6238356
  44.0310059 187.5896759  12.8217812  42.4192429 190.5320435  13.9321404
  41.1964760 190.3410034  13.8785744  42.9057961 191.5201263  14.7135401
  43.9105339 191.5528107  14.8112259  42.1600990 192.4735260  15.5602398
  41.1285133 192.5400543  15.2145433  41.9795265 191.9175262  17.0406590
  41.5852928 190.9085999  16.9192677  43.3395538 191.8410645  17.7321701
  43.7346611 192.8216858  17.9974861  43.2218132 191.3771667  18.7114716
  44.0886765 191.1879883  17.2844982  41.0702744 192.8241425  17.8425941
  40.0583382 192.7669220  17.4415741  41.0339813 192.3950043  18.8439026
  41.5324631 193.8113098  17.8424721  42.6599083 193.9544678  15.4130278
  41.8532028 194.8865662  15.5755243  43.9378586 194.1682129  15.1826277
  44.5725784 193.3903046  15.2926283  44.4858322 195.4856110  15.0394068
  44.0526848 196.2006378  15.7388449  46.0435982 195.4990082  15.3213587
  46.3150940 196.5546570  15.3247280  46.3006172 195.0932465  16.2998257
  47.0392075 194.8665009  14.3127766  46.9988594 193.8282776  14.6422691
  46.6787376 194.9756317  13.2899122  48.5023041 195.3012390  14.3382463
  49.0443153 195.7573090  15.3229408  49.2385712 195.1548462  13.2437820
  50.2108650 195.4226379  13.2988539  48.7819214 194.8771820  12.3867683
  44.1641769 196.2162628  13.7275267  44.9853935 196.9270020  13.1258163
  42.9709816 195.9911957  13.1939859  42.2901955 195.4439545  13.7011003
  42.5467567 196.7434845  12.0114355  43.4138031 196.8729706  11.3636961
  41.4867134 195.9261322  11.2430906  40.6483650 195.8250427  11.9323282
  41.1275444 196.5082550  10.3944302  42.1092186 194.6008301  10.6785002
  43.1954727 194.6474609  10.7558222  41.5610580 193.4005737  11.4553490
  40.5237999 193.1491547  11.2340069  42.1409569 192.4939117  11.2827826
  41.6895905 193.5092621  12.5322733  41.6908569 194.3605042   9.2338438
  41.9318924 195.2165375   8.6035929  42.1579552 193.5033569   8.7488546
  40.6113472 194.2305756   9.1571484  42.0932159 198.1848145  12.3459864
  40.9067078 198.5762939  12.3397541  43.0513382 198.9978790  12.7552929
  43.9779701 198.5960999  12.7598019  42.8725243 200.3742523  13.2110786
  41.9908676 200.7815094  12.7161884  42.6057816 200.4397430  14.7379313
  42.3927841 201.4855957  14.9591484  41.7665596 199.7667999  14.9138908
  43.7726479 199.8282013  15.6356344  44.1658592 198.9106750  15.1978960
  44.6261139 200.5049591  15.6770391  43.3467674 199.4410248  17.0342712
  43.6831360 198.3963165  17.5464058  42.6841354 200.2017822  17.8558826
  42.2436142 199.6709595  18.5936337  42.4853401 201.1509247  17.5735302
  44.1077499 201.1488495  12.7517004  45.1366653 200.5102386  12.4625540
  44.0966034 202.4568634  12.9104137  43.2695465 202.8950500  13.2899694
  45.2074242 203.3612976  12.4447365  45.4321785 203.3720245  11.3782139
  44.8010902 204.8267517  12.8029375  45.6124611 205.4709167  12.4640617
  43.8611832 205.1399841  12.3484592  44.5948563 204.8981171  14.2006216
  43.7435112 205.3269043  14.3144598  46.6035080 203.1348877  13.0228004
  47.6164818 203.6666870  12.4445143  46.7279167 202.4246979  14.1746893
  45.8968773 202.0092163  14.5707273  48.0046501 202.0467072  14.8452301
  48.7114830 202.8697968  14.7403431  47.6974144 201.7244263  16.2910404
  46.6860352 201.3189850  16.2621803  48.4140930 201.0001831  16.6782742
  47.8114510 202.9174652  17.2381172  48.8084145 203.3453979  17.1330795
  46.8003578 203.9994965  16.9704857  45.8259277 203.5511780  16.7765636
  46.6850166 204.6865387  17.8088017  47.1870422 204.5412598  16.1073112
  47.6662674 202.4126892  18.6404533  48.2566528 201.5070343  18.7795181
  47.9919853 203.1287231  19.3949718  46.6155205 202.1705475  18.7998219
  48.8066216 200.8472900  14.2051373  49.9973259 200.7525177  14.5545321
  48.1743851 199.9790649  13.3707256  47.2223396 200.1385345  13.0736094
  48.8587608 198.7661133  12.8556700  48.9157982 198.0921173  13.7104082
  47.8633156 198.2515564  11.7637920  47.9006538 197.1768494  11.5857306
  46.8704834 198.4416962  12.1715117  47.9635963 198.9353485  10.5419531
  47.6042557 198.5106354   9.7595921  50.3112831 198.9261780  12.2802839
  51.2586632 198.1668091  12.5015831  50.4556541 200.0861816  11.5746861
  49.6389122 200.6292114  11.3335476  51.7271309 200.6478729  11.0312157
  52.2227402 199.8440704  10.4867926  51.4007530 201.8091278   9.9782534
  52.2479324 201.9272614   9.3026590  50.5856476 201.4396820   9.3559847
  51.0521698 203.0543365  10.8272104  50.2283783 202.7466125  11.4712458
  51.8878326 203.3899384  11.4413328  50.4378510 204.3441010  10.2186069
  51.0862923 204.8161774   9.4805269  49.5650787 203.9400940   9.7056255
  49.9471512 205.2176361  11.2683544  49.4626007 204.9209290  12.1033821
  49.8647881 206.5101624  11.1391306  50.1479568 207.1811371  10.0985298
  50.4811211 206.7788696   9.2340775  50.0997772 208.1897125  10.1221151
  49.4613228 207.1786499  12.1508875  49.4577713 206.7448578  13.0629749
  49.4592857 208.1862030  12.0805368  52.8736000 201.0675964  12.0580206
  53.8494911 201.7078247  11.6408243  52.7433434 200.8265991  13.3623428
  51.8912849 200.4837341  13.7825098  53.7688065 201.1001740  14.3003445
  54.2443924 202.0632782  14.1150341  53.2304955 201.0493164  15.6794920
  52.5147362 200.2363129  15.8011990  53.9848404 200.8534241  16.4415207
  52.4553604 202.4514313  15.8054686  53.1100769 203.2661743  15.4962206
  51.5981216 202.5307922  15.1369295  51.9786530 202.7072449  17.1904774
  51.0684738 203.3069458  17.1977482  51.7049332 201.7525177  17.6395550
  52.8264236 203.3711548  18.1841526  53.5898323 203.8545685  17.7329044
  52.5156441 203.5937805  19.4135628  51.4996719 203.0040894  19.9757843
  50.9182396 202.3950500  19.4180069  51.4572220 202.9685822  20.9842663
  53.3047676 204.2901001  20.1907711  54.0799789 204.7396851  19.7249241
  53.0394135 204.4792786  21.1467495  54.8307724 199.9825897  14.2037277
  54.6837921 198.8771973  14.6752701  55.8661995 200.3608551  13.4841509
  56.0103531 201.3428192  13.2968969  56.6872139 199.5389862  12.6325712
  56.4380455 198.5194702  12.9268627  56.2366104 199.6425781  11.1272221
  55.1530762 199.7174988  11.0353765  56.7614746 200.5620880  10.8681450
  56.5908051 198.5260773  10.1979141  57.2655830 198.7059479   8.9528389
  57.2082634 197.5669250   8.2720776  57.6261292 197.3527985   7.2994823
  56.4789925 196.6976318   8.9681091  56.4088669 195.7443848   8.6417704
  56.1286812 197.2317047  10.1500998  55.5224915 196.7731171  10.9173336
  58.1805191 199.7188110  12.9422655  58.5550613 200.6389160  13.6569290
  59.0399017 198.8193054  12.4596558  58.6542053 198.2297211  11.7359619
  60.1312714 198.1438446  13.2210627  59.9846115 198.2462769  14.2962828
  59.9957504 196.6399078  12.8789082  60.7924805 196.1076050  13.3985109
  58.7196693 196.1207733  13.4785004  57.9002113 196.5513763  12.9030247
  58.7309303 195.0308685  13.4689837  58.5716972 196.4339447  14.5120039
  60.1333313 196.4781799  11.3338957  59.1775131 196.7161255  10.8671036
  60.8856392 197.0986176  10.8468571  60.3983498 194.9933167  11.0119581
  60.0396767 194.2135773  11.6838617  60.0344620 194.8156586   9.9999676
  61.4542503 194.7411346  10.9140797  61.6131630 198.6899872  13.1449013
  61.9574890 199.3773651  12.1816359  62.5608253 198.3760071  14.0322762
  63.4351349 198.8454742  13.8444347  62.8262291 197.1902008  14.9301805
  63.7694817 197.4029999  15.4332666  61.8255615 197.0159760  16.0224113
  60.8961372 196.8708954  15.4717560  62.1703300 196.1735840  16.6220875
  61.5773392 198.1692810  16.9650383  62.4837227 199.2765961  17.1949234
  63.4610939 199.2865906  16.7355270  62.1545410 200.3091736  18.1029148
  62.8416367 201.1291962  18.2507973  60.9419594 200.2788544  18.8542576
  60.8082619 201.0700073  19.5771599  60.1192780 199.1753540  18.7072945
  59.2302742 199.1160889  19.3176785  60.3344498 198.2184753  17.6639919
  59.5893135 197.4465942  17.5400295  63.1947594 195.8603821  14.0840998
  63.6135063 195.9391785  12.9439240  63.3299637 194.6517639  14.6818981
  62.1797714 193.8643188  15.0534029  61.4120026 193.8961334  14.2803383
  61.7829208 194.1844788  16.0167866  62.7961845 192.4358063  15.1470375
  62.8117371 191.9082947  14.1933203  62.2265663 191.8778687  15.8902321
  64.2469788 192.6515961  15.4834566  64.7656250 191.7528076  15.1498556
  64.3557434 192.7096558  16.5664616  64.5713882 193.8774567  14.6708975
  65.2938004 194.5207520  15.1732807  65.1731949 193.6235199  13.2781906
  64.4431839 193.2093048  12.3591833  66.5173035 193.4998322  13.1272345
  66.8718185 193.3110657  12.2005253  67.5942612 193.8563538  14.1112432
  68.5279770 193.7451630  13.5599651  67.6639175 192.8515320  15.2885895
  68.6947327 192.8652802  15.6426191  67.0058975 193.1627045  16.0999298
  67.3600769 191.4968109  14.9447527  68.1603622 190.9861298  14.8021421
  67.4976120 195.3622131  14.4479971  66.7375107 196.0518951  13.7663784
  68.3358688 195.9763031  15.3357162  69.1152954 195.4924774  15.7582169
  67.9969864 197.2730408  15.8902960  66.9925003 197.5433960  15.5646992
  67.8286057 197.1579285  17.3837013  67.9205704 196.1493683  17.7867584
  68.6510849 197.6829529  17.8694725  66.5911560 197.6580658  17.8656712
  66.4900208 197.5982513  18.8184528  68.8001556 198.5477753  15.5709209
  68.2888565 199.6783600  15.8500404  70.0592499 198.6076050  14.9995193
  70.4087982 199.5551300  15.0107698  70.7041397 197.7525024  14.0998468
  71.6156616 198.2606049  13.7850952  69.9591446 197.6758575  12.7493267
  69.0076141 197.1705322  12.9146585  69.5904922 198.6744843  12.5149612
  70.6968231 196.9672852  11.5341883  70.5863571 195.8959961  11.7022343
  70.1512909 197.2654572  10.6388702  72.1568451 197.3028870  11.2288036
  72.8096313 196.8976746  12.0019636  72.4241180 196.8564606  10.2710066
  72.4706421 198.7785339  10.9251003  71.5983887 199.4192963  11.0542898
  73.2644043 199.0914764  11.6034079  72.9604492 198.9096985   9.4954796
  72.2644119 198.4922180   8.8943481  72.9096756 199.8833923   9.2319508
  73.9046097 198.6186676   9.2858095  71.3974686 196.5161743  14.6933365
  71.1941528 195.4134064  14.1454687  72.2307892 196.6689911  15.7324820
  71.9063873 197.2922058  17.0354900  70.9145813 197.7395477  16.9698906
  72.6193314 198.0450592  17.3716831  71.8840790 196.1808167  18.0850983
  70.8480148 195.8501892  18.1583157  72.3061142 196.5627441  19.0146770
  72.8238907 195.1293640  17.4146481  73.7581406 194.9645538  17.9514084
  72.2998199 194.1770020  17.3343449  73.2105942 195.7046509  16.0702820
  73.1676025 194.8647003  15.3769474  74.6856461 196.2204742  16.0319366
  75.5781250 195.3989716  15.8973103  74.8293762 197.5342865  16.3085594
  74.0234146 198.1415253  16.2662868  76.0363541 198.2984009  16.5011234
  76.7274933 198.1584167  15.6699591  75.6130066 199.7666931  16.6259537
  74.7362595 200.0782166  16.0581760  75.3936234 199.9076843  17.6842976
  76.8135300 200.6631622  16.2164440  77.6762009 200.3492737  16.8041267
  77.0100784 200.4272156  15.1705961  76.7048492 202.2156372  16.2995949
  76.6363220 202.3714905  17.3762169  77.6133041 202.6354370  15.8676586
  75.5022202 202.7573700  15.5671320  75.3171082 202.0455170  14.7627077
  74.6907959 202.6594086  16.2883053  75.6354980 204.1786194  15.0575037
  76.4905472 204.2394104  14.5233698  74.8152390 204.3717499  14.5007524
  75.6827850 204.8009186  15.8516169  76.8979263 197.7382050  17.6592484
  78.0663681 197.7296295  17.5047684  76.2935638 197.2248230  18.7553558
  75.2934570 197.1233368  18.6574707  77.0295105 197.0062103  20.0129223
  77.9868469 197.4842529  19.8053570  76.2923355 197.6339264  21.2215405
  76.9415359 197.4625092  22.0801830  76.3711548 199.0904846  20.9653931
  75.6409149 199.5350647  20.2892342  76.1655426 199.6002655  21.9066372
  77.3700256 199.4021149  20.6600380  74.8881454 197.1507416  21.5897827
  74.9291840 196.7743073  22.6118984  74.1930847 197.9750061  21.4298801
  74.4981155 196.3467102  20.9656715  77.3808289 195.5397949  20.3339081
  77.8146973 195.2150116  21.4060154  77.3879623 194.6749268  19.3257637
  77.3108444 194.9910431  18.3696156  77.9227219 193.3307037  19.3094673
  77.7680588 192.9376221  18.3046474  79.4554367 193.2942505  19.4471893
  79.7294998 193.3091125  20.5020676  79.8961029 192.3463898  19.1382065
  80.3213959 194.2607727  18.6795177  81.1357193 195.1809540  19.2574158
  81.1746979 195.5011902  20.2881107  81.8827133 195.8037109  18.2289848
  82.5965958 196.4932556  18.4160595  81.6708450 195.2088776  17.0119247
  82.2426910 195.3816986  15.7227554  83.1046448 196.0282745  15.6493959
  81.8134460 194.6842041  14.5934191  82.3661652 194.7142487  13.6660576
  80.6976013 193.8698730  14.7595034  80.3629227 193.2854767  13.9151888
  80.1935043 193.6502380  16.0444908  79.4410324 192.9109955  16.2762527
  80.6152344 194.2726898  17.2450275  77.2457123 192.2038727  20.1751518
  77.4403839 191.0174103  19.9494400  76.4978409 192.5506744  21.1794357
  76.3083649 193.5120392  21.4243240  75.9759521 191.5834198  22.1319237
  76.7859039 190.8813782  22.3299866  74.7054138 190.8108673  21.5944729
  74.0031662 190.8701172  22.4260006  74.3425751 191.3189850  20.7010117
  74.9420319 189.3321991  21.3624954  73.9918442 188.9021912  21.0457153
  75.6331253 189.2480469  20.5238075  75.4020157 188.4962769  22.5925579
  74.6858063 188.0617676  23.4905834  76.6998062 188.3098755  22.6476669
  77.0600433 187.6796265  23.3498840  77.3347626 188.6547852  21.9419918
  75.6758118 192.2999115  23.4408703  75.3720398 193.4942322  23.3941441
  75.8404999 191.5377655  24.5452137  76.0782242 190.5688629  24.3877316
  75.7405548 192.0112762  25.9693241  75.0147476 191.2905426  26.3459473
  77.0513382 191.8193054  26.7343788  77.0676117 192.2293854  27.7441711
  77.2153168 190.7531891  26.8912430  78.2476273 192.4008331  25.9817772
  78.5335693 193.6686859  26.0703869  78.9252014 191.5690918  25.2861233
  75.1894150 193.3643494  26.3694172  75.5429306 194.4675293  25.9511852
  74.3408127 193.2700043  27.3507481  74.2493591 192.3145447  27.6651268
  73.4792786 194.3460693  27.9129162  72.5684357 193.8783112  28.2866364
  74.2051773 195.0800323  29.0936127  73.5496521 195.8435059  29.5125198
  74.2368011 194.3332367  29.8869572  75.6507492 195.6256866  29.0772724
  76.0298233 195.5844727  30.0984020  76.2407608 194.9449768  28.4635677
  75.8286972 197.1351776  28.5807838  74.9285202 197.7215881  28.7648983
  76.6680222 197.5768585  29.1179485  76.1950607 197.1002655  27.1415138
  75.6374283 196.5721588  26.4855862  77.2956696 197.5836945  26.5994987
  78.2200546 198.1257324  27.2826424  78.1418686 198.1468658  28.2893887
  79.1089096 198.4032135  26.8914280  77.4681015 197.5096893  25.2825565
  78.2016983 198.1262817  24.9636002  76.7583923 197.1287537  24.6732006
  72.8155212 195.2496796  26.8539047  72.2586288 194.7195892  25.9238739
  72.7708130 196.5626984  27.1263142  73.1453094 196.8378296  28.0230598
  72.0389328 197.5681000  26.3472977  72.0510864 198.4877777  26.9322357
  72.8116074 197.9521179  25.1648712  73.2863235 197.1077728  24.6650391
  72.3090057 198.5284576  24.3881340  73.6047363 198.6586761  25.4094944
  70.5563507 197.3442841  26.1117268  69.7199936 197.8135834  26.8750553
  70.1827621 196.6650391  25.0468063  70.9209213 196.3896027  24.4148540
  68.8094254 196.4954071  24.5168610  68.4134827 197.5024872  24.3859787
  68.8138885 196.0444794  23.0081768  67.8045425 195.7984009  22.6783714
  69.2056503 196.8449860  22.3806286  69.6586609 194.7466125  22.8125134
  69.3168716 193.4736786  23.3399563  68.4925766 193.4085541  24.0347214
  70.0671158 192.2999115  23.0346775  69.8269272 191.3429413  23.4739170
  71.1051025 192.4442902  22.0442467  71.6671829 191.5644836  21.7678127
  71.4738770 193.7222595  21.5670643  72.2626724 193.7817383  20.8317604
  70.7500992 194.8504333  21.8952618  71.0656509 195.7896423  21.4654827
  67.7387924 195.7412109  25.3859921  66.6810379 195.3395996  24.9127712
  67.9524460 195.4678802  26.7342644  68.8608322 195.6822205  27.1202583
  67.0731888 194.7608490  27.7050514  66.7126389 193.8460846  27.2346172
  67.6497269 194.4990082  29.1393394  67.4578705 195.3338013  29.8134346
  67.0543671 193.6407471  29.4508381  69.1580734 194.1537018  29.3906918
  69.1979218 193.2756195  30.0352707  69.5906448 193.7679901  28.4675331
  69.9689331 195.3432007  29.8595467  71.0116653 195.0455475  29.9700489
  69.8909225 196.1344299  29.1139183  69.4736633 195.8989258  31.1257191
  69.3577347 195.2475891  31.8888817  69.2606049 197.1690369  31.4079704
  69.1579742 198.1625214  30.5136547  69.5453339 197.9254608  29.6115189
  68.7695236 199.0584564  30.7715397  68.9540329 197.4688263  32.6101265
  69.0196228 196.7939911  33.3587265  68.7734604 198.4188995  32.9014473
  65.7318420 195.5009003  27.8498287  64.6818161 194.9140320  27.8080006
  65.7438812 196.8161621  28.0324478  66.6553040 197.2429657  28.1176357
  64.5200348 197.6496887  28.1884670  63.9164810 197.2074432  28.9810829
  64.9225006 199.0819550  28.6695805  65.7461319 199.4466858  28.0558243
  64.0498428 199.7344360  28.6406460  65.3922272 198.9226685  30.1412811
  64.7241974 198.2854614  30.7207699  66.3459396 198.3976135  30.0878811
  65.5191727 200.2561798  30.8646011  66.2546005 201.1533508  30.4171085
  64.8434143 200.4143982  31.9748650  64.9698410 201.3154297  32.4133606
  64.2387848 199.7159882  32.3831825  63.7194977 197.5863800  26.8770733
  62.4945602 197.5316162  26.8955441  64.3835526 197.5271301  25.7040005
  65.3414536 197.8382874  25.6284904  63.6251678 197.3924103  24.4350967
  62.8178215 198.1176758  24.5365162  64.5579758 197.8035278  23.2562008
  64.6484756 198.8874359  23.3274078  65.5302048 197.3348999  23.4087162
  63.9337616 197.4121857  21.9827118  63.1340027 198.1572571  21.1755352
  62.7367287 199.1254425  21.4423466  62.7293091 197.4497833  20.0363503
  62.0872192 197.8715210  19.3806400  63.2115097 196.1264496  20.1248188
  63.0874519 194.9735718  19.3262081  62.3151054 194.9402924  18.5720348
  63.7659836 193.8117371  19.6109257  63.6783257 192.9534607  18.9612427
  64.5668640 193.7793732  20.7657223  65.0907135 192.8664551  21.0077229
  64.7320328 194.9219513  21.5827618  65.3487930 194.8949585  22.4689178
  64.0630569 196.1471710  21.2796364  62.8495331 196.0416412  24.3294220
  61.7471237 196.0549622  23.8191738  63.2818985 194.9313354  24.9379025
  64.2312164 194.8470612  25.2722588  62.4348259 193.7261810  24.8631954
  62.1948242 193.5936127  23.8082447  63.1943550 192.4367981  25.3007812
  63.8075218 192.6476440  26.1769485  62.4653816 191.6973724  25.6323509
  63.9290733 191.7251892  24.2124329  65.2641907 191.7586670  24.0855637
  65.9130020 192.2679138  24.7827797  65.6356735 191.0012817  22.9811001
  66.5623093 190.9413147  22.5837936  64.5478287 190.5395813  22.3042660
  64.3533707 189.7440491  21.1666412  65.1208038 189.4227600  20.4780102
  63.0188942 189.3058472  20.8953114  62.8713379 188.6343079  20.0624466
  61.9595299 189.7271881  21.6200142  60.9423904 189.4258423  21.4174652
  62.1357002 190.6099701  22.6734047  61.2931480 190.9410095  23.2624035
  63.4319611 190.9743652  23.0910873  61.0995712 193.9191742  25.5628986
  60.0633698 193.4102173  24.9996052  60.9486656 194.6762085  26.6626339
  61.8179016 194.8653259  27.1409283  59.6479683 195.2160492  27.1728210
  58.9915543 194.3515472  27.2721710  59.7945824 195.8047943  28.5745449
  60.5186348 196.6168976  28.5087547  58.8529968 196.2454376  28.9021816
  60.2417030 194.7759094  29.6510754  59.4584808 194.0265808  29.7657909
  61.1684608 194.2531738  29.4144917  60.4424782 195.3963623  31.0295086
  60.6341133 196.5767670  31.2818203  60.6211739 194.6278381  32.0665894
  60.8537560 195.1736145  32.8839760  60.5223312 193.6246643  32.1295776
  59.0770454 196.2940826  26.2692833  57.8789215 196.2187042  26.0597038
  59.8315887 197.1770477  25.6209946  60.7956085 197.1237335  25.9175091
  59.3322182 198.3294678  24.7777634  58.5261765 198.7838287  25.3539181
  60.3619690 199.4067993  24.5963287  60.8916283 199.6284332  25.5228481
  60.9993477 199.0145874  23.8038445  59.6894226 200.7366180  24.1874828
  59.2695045 200.5754089  23.1946163  58.8991318 201.1405029  24.8202648
  60.9070168 201.6891479  24.0373173  61.5307693 201.8341675  24.9193611
  61.4928360 201.2841339  23.2121601  60.5642776 203.1827698  23.6019688
  61.4993401 203.6624908  23.3127823  59.8441582 203.0903473  22.7889576
  59.8158760 203.8121490  24.7087402  60.4551163 204.0104370  25.4651546
  59.5340157 204.7466278  24.4491444  59.0606728 203.2684631  25.1014023
  58.7281990 197.8766022  23.4295025  57.6786728 198.4117584  23.0518074
  59.3640633 196.9475708  22.7149696  60.2044563 196.5734100  23.1319199
  58.7838211 196.0923920  21.5988045  58.5021057 196.7294312  20.7604084
  59.9035873 195.0541840  21.3011169  60.8841095 195.4806976  21.0895309
  60.0997124 194.4613037  22.1945038  59.5603600 194.0628510  20.2151279
  59.0698280 194.5062103  18.9573288  59.0903549 195.5413666  18.6499882
  58.7767982 193.5264435  17.9587784  58.5526276 193.8293457  16.9466534
  58.8131027 192.1163483  18.3039074  58.3843803 191.1326447  17.4703922
  58.0820427 191.4073792  16.6016521  59.1664162 191.7256470  19.5780296
  59.2568970 190.6757812  19.8146420  59.6055450 192.6932678  20.4886360
  59.9483376 192.3572693  21.4561138  57.5136642 195.3448334  22.0714741
  56.4570580 195.6814270  21.5533752  57.6395302 194.5465546  23.1457214
  58.5455551 194.3274536  23.5345783  56.4284515 193.9215546  23.7048073
  56.0918121 193.1450348  23.0179386  56.8029976 193.1196442  24.9287510
  57.4352341 192.2788239  24.6434364  57.4385567 193.6769409  25.6169357
  55.5611496 192.6194458  25.7927723  54.9506378 193.4779510  26.0726910
  54.9711304 191.9417419  25.1757736  56.0595856 191.9397583  27.0567646
  56.5774879 190.8468323  26.9955463  55.7126312 192.4158783  28.2209320
  56.0996170 191.9181366  29.0099831  55.0994682 193.2154236  28.2906494
  55.2895393 194.9158630  23.9860325  54.1933632 194.6952057  23.4281101
  55.4566612 196.0577087  24.7128258  56.2828026 196.1229706  25.2901802
  54.3481712 196.9902344  25.0390015  53.5600471 196.4192352  25.5298443
  54.7856865 198.0487823  26.0519943  55.2377815 197.4618225  26.8514919
  55.4742355 198.7960663  25.6575699  53.5073662 198.7585602  26.5772419
  52.9770241 199.3002777  25.7940464  52.8853264 198.0135651  27.0733566
  53.8823929 199.8621216  27.6014652  54.4738617 199.3433228  28.3558598
  54.4337006 200.6923828  27.1600914  52.6248703 200.4055023  28.2391300
  52.1476517 200.9207001  27.4055023  51.8776627 199.6935730  28.5897770
  52.8813629 201.4680481  29.2714348  53.6128273 202.1077576  28.9960938
  52.0332108 201.9525452  29.5283451  53.2075081 201.0255432  30.1187401
  53.7373734 197.6325226  23.7302189  52.5285263 197.7867126  23.6129055
  54.5392113 197.8541412  22.6594715  55.5346260 197.7791290  22.8131790
  54.1949692 198.4724731  21.2933769  53.4396629 199.2474823  21.4236450
  55.4849091 199.0487823  20.7255192  55.8684158 199.7169342  21.4966240
  56.2093887 198.2739716  20.4747238  55.2303543 199.8619995  19.4680309
  54.9020424 199.2471008  18.6300526  54.4770775 200.6457977  19.5475979
  56.4929199 200.6493073  19.0310001  57.3737221 200.0454712  19.2493515
  56.4650307 200.8809052  17.9662552  56.6450195 201.9517670  19.8000145
  56.0989342 202.0592194  20.6428337  57.6053963 202.7737122  19.4742165
  58.1765671 202.7400208  18.3073597  57.8876648 202.1598053  17.5327644
  58.8005486 203.4672241  17.9881096  58.0144501 203.6516418  20.3395920
  57.6734810 203.6798706  21.2898788  58.9160919 204.0882263  20.2109756
  53.5428162 197.4795837  20.2879562  52.4967880 197.8793030  19.6817303
  54.0882874 196.2357941  20.1851234  54.9761391 196.0004578  20.6051655
  53.5638847 195.0835114  19.4303913  53.3674736 195.5051727  18.4446316
  54.6304436 193.9735107  19.2698441  55.5243759 194.4349060  18.8502064
  54.8872261 193.6071777  20.2638111  54.0835037 192.7689209  18.5196934
  53.3670692 192.2163391  19.1275463  53.5617828 193.1022491  17.6225891
  55.1935730 191.7777252  18.1086712  55.8540535 192.2421112  17.3764057
  55.7796249 191.4941711  18.9828796  54.7313919 190.4479218  17.5047474
  55.4651604 189.6679840  17.3013039  54.0448990 189.9488983  18.1886997
  54.0954781 190.6964264  16.1637802  54.7296829 190.9731903  15.4280548
  53.6139717 189.8752899  15.8261461  53.2563248 191.2503967  16.2588768
  52.2826309 194.5318756  19.9529362  51.4076614 194.1061554  19.2045612
  52.0207062 194.5720978  21.2369175  52.7525482 194.9133453  21.8436012
  50.8785057 193.8592682  21.8670731  50.2884636 193.3956604  21.0764904
  51.4387703 192.8065643  22.8459263  52.0918388 193.3395844  23.5369339
  50.6138115 192.3244934  23.3704853  52.2130814 191.7785339  22.1113892
  51.5959816 190.9167633  21.1910782  50.5217934 190.9965668  21.1126633
  52.3741570 189.9139709  20.5249176  51.8208923 189.2082977  19.9229717
  53.7238541 189.6935272  20.9615746  54.3069954 188.8970032  20.5235100
  54.3329697 190.5474396  21.8755112  55.3607674 190.4009247  22.1731110
  53.5801811 191.5681152  22.4248657  54.1033401 192.2234039  23.1055260
  49.8605766 194.7929993  22.5314236  48.8779640 194.3321838  23.0917301
  50.0100212 196.1165009  22.4826679  50.8078194 196.5262756  22.0182400
  49.0552063 197.1049194  23.0772552  49.1280289 197.0450592  24.1631699
  49.5078468 198.4973450  22.5382195  50.4328957 198.7275085  23.0668068
  49.7189522 198.4019470  21.4731216  48.4956474 199.5685120  22.7594891
  48.3756523 200.2469788  23.9763832  47.4361458 201.1356964  23.7696400
  47.1552544 201.9130707  24.4647522  46.8625107 201.0295105  22.5518055
  46.1393776 201.6434479  22.2050152  47.5797310 200.0771790  21.8747520
  47.4017372 199.7781525  20.8523502  47.5535088 196.8154449  22.7282295
  46.7013016 196.8840179  23.6679821  47.2645607 196.4350281  21.4739189
  48.1170807 196.3761444  20.9355412  45.9311523 196.1269684  20.9568958
  45.3092117 197.0201416  21.0163498  46.0347595 195.8972321  19.4428196
  46.8740845 195.2470551  19.1960659  45.0964470 195.5347137  19.0229931
  46.3770370 197.4418335  18.5397263  45.0996475 197.7392273  18.2852802
  45.2316551 194.8887482  21.5793400  44.0567665 194.6202087  21.3174706
  45.9505310 194.1477509  22.4126987  46.9380112 194.3042603  22.5558300
  45.3940392 193.0148621  23.2206726  45.0267525 192.2272797  22.5626984
  46.6282425 192.3438110  23.8933868  47.0585632 193.0486450  24.6048317
  46.2538033 191.4839935  24.4489040  47.3193207 191.9264679  23.1610394
  44.2654610 193.3927460  24.2191410  43.4090004 192.5424652  24.5646839
  44.2469749 194.6153107  24.6292191  44.9432449 195.2918243  24.3505955
  43.1294632 195.1418915  25.4495811  43.1030388 194.5010681  26.3309231
  43.4740028 196.6867371  25.7301617  42.6637955 197.1367188  26.3039131
  44.4229393 196.7534790  26.2622967  43.5758057 197.3750305  24.4717712
  44.3766060 197.8999634  24.5408955  41.7534142 194.9957581  24.8396740
  40.7526627 194.9763794  25.6011658  41.6288185 194.8621063  23.5243397
  42.5162048 194.7955780  23.0466099  40.4014816 194.6198425  22.7773056
  39.5980339 195.0872192  23.3466263  40.4567947 195.1472015  21.3205605
  41.0232849 194.4221954  20.7361336  39.4314308 195.1777344  20.9520531
  41.0985756 196.5771179  21.1015759  42.1432724 196.5799408  21.4125385
  41.0440979 196.7777710  19.6246738  40.0547562 196.7507019  19.1679745
  41.4116135 197.7925262  19.4720268  41.7852364 196.0561066  19.2811260
  40.3479500 197.6940613  21.8326759  40.4283333 197.4444580  22.8906689
  40.8698959 198.6307831  21.6371708  39.2910843 197.6809540  21.5662918
  40.0117340 193.0840912  22.7766171  38.9112320 192.6561127  22.4349060
  40.8777542 192.1805420  23.2626095  41.7598495 192.5498505  23.5876083
  40.5970497 190.7321167  23.4924126  39.5810432 190.5027008  23.1711540
  41.5779114 189.8371277  22.6906967  41.0611534 188.8837433  22.5805912
  41.8691330 190.3242035  21.3195114  42.5765457 191.1534119  21.3292427
  42.3543205 189.4788513  20.8316059  40.9351387 190.5129395  20.7902355
  42.7884407 189.5741577  23.4278316  43.4021339 189.0360260  22.9224663
  40.7221794 190.3755493  25.0227604  40.9572487 191.2388611  25.8396339
  40.5939598 189.1009216  25.3379059  40.6222954 188.3894196  24.6216335
  40.5092812 188.6764679  26.7241688  39.9826355 189.4278870  27.3124905
  39.6232376 187.4176483  26.7534485  39.4763184 187.1457062  27.7987080
  38.6511116 187.5903015  26.2916508  40.2943802 186.4539185  25.9967422
  39.6696739 185.7574463  25.7816181  41.8781242 188.3414612  27.4788704
  41.8719978 188.0563812  28.6957378  43.0531387 188.4813232  26.7832508
  43.0426712 188.9218903  25.8744640  44.4480400 188.1502686  27.3110123
  44.3623161 187.6951447  28.2977295  45.0974312 187.1753082  26.2903442
  45.4227524 187.6961670  25.3898048  46.0032654 186.8722382  26.8154240
  44.2470818 186.0234680  25.9102077  43.5971909 185.8338318  24.7108784
  43.6625175 186.3980255  23.7922783  42.7572365 184.7289734  24.8391018
  42.2922974 184.3527069  24.0252514  42.8031654 184.1401672  26.1159267
  42.2170868 182.9997711  26.6906071  41.4915428 182.4069519  26.1534386
  42.5008545 182.6751862  28.0185146  42.1958313 181.6999207  28.3681355
  43.2999077 183.5134735  28.8205280  43.3984375 183.3621826  29.8853302
  43.9604721 184.6418304  28.2476749  44.6653252 185.1841736  28.8604221
  43.7741165 184.9788513  26.8710022  45.3662796 189.3739319  27.5934505
  45.1189346 190.4705811  27.0981140  46.4799423 189.1658630  28.3451710
  46.8222275 188.0028992  29.1663742  47.0684662 187.2116241  28.4583263
  46.0068855 187.6500854  29.7979088  48.0040283 188.3732147  30.0903301
  48.9641113 187.9270477  29.8309364  47.7811050 188.0696259  31.1131973
  48.0067940 189.9235382  29.9959984  49.0538940 190.1820679  30.1536255
  47.3224373 190.3713989  30.7165394  47.4951553 190.1836243  28.5485172
  47.0212364 191.1641388  28.5945854  48.5594597 190.2051392  27.4165249
  48.8120041 189.1473083  26.8805332  49.3096504 191.3412476  27.2632599
  49.0708199 192.6420441  27.8810978  49.4559326 192.7186279  28.8979187
  48.0347900 192.9729309  27.8085899  49.8521309 193.6536560  27.1168003
  50.1775322 194.4471588  27.7895489  49.2705421 194.2458344  26.4102669
  50.9606934 192.8966370  26.3772125  51.7995453 192.8572693  27.0721073
  51.3508759 193.3905029  25.4872932  50.3523064 191.4888153  26.2193832
  49.9570465 191.4190979  25.2059689  51.4821129 190.3751831  26.2585621
  51.7709236 189.7740784  25.2107468  51.9422913 189.9147644  27.4226761
  51.6080666 190.3475952  28.2718258  52.9383621 188.8640137  27.5680313
  53.7144279 189.2062378  26.8834057  53.4873199 188.8758087  29.0321178
  54.1446686 188.0075531  29.0782204  54.1187172 189.7642670  29.0223579
  52.4972992 188.7532806  30.2258091  52.0544586 189.7602844  31.0160961
  52.3203392 190.7982788  30.8809490  51.1831970 189.2567444  31.9577026
  50.6687431 189.8230743  32.6170273  51.0578804 187.8964996  31.8552589
  50.2136955 186.9748688  32.4754524  49.5691910 187.3518372  33.2557831
  50.1589928 185.6504059  32.0047646  49.3968964 185.0037537  32.4139709
  51.0272217 185.2229919  30.9584408  51.0521011 184.2222595  30.5530796
  51.8478928 186.2008514  30.3549061  52.3976059 185.9350891  29.4640694
  51.8103752 187.5376587  30.7562084  52.4976616 187.4566956  27.1202660
  53.3536186 186.7027740  26.6911545  51.2240219 187.0375061  27.0958366
  50.4874573 187.6511688  27.4136238  50.8945694 185.6620026  26.7399178
  51.5308266 185.0011902  27.3286572  49.3955879 185.4843903  27.0145550
  49.1382408 185.7171783  28.0478401  48.9149170 186.2063599  26.3543911
  48.9524765 184.0258331  26.7415199  49.2526512 183.7435150  25.7324123
  49.4393845 182.9781036  27.6884079  49.3148499 183.2589722  28.7342091
  48.9195786 182.0215912  27.6335983  50.4935684 182.7676697  27.5080891
  47.4160233 183.9306335  26.6130657  46.9319153 184.7981415  26.1645470
  47.1380615 183.0869904  25.9813213  46.8230171 183.7406464  27.5076904
  51.2371902 185.3758698  25.2519112  51.5680466 184.2998199  24.8445911
  51.0901566 186.4148560  24.4350967  50.7569199 187.2064667  24.9665070
  51.3669357 186.4454956  22.9877415  50.7409134 185.6133575  22.6656609
  50.6812057 187.6501770  22.3240795  51.0339928 188.5664062  22.7975445
  51.0258560 187.6152954  21.2905884  49.1516571 187.6814270  22.2423401
  48.3831978 186.7521515  21.4290924  48.9428368 185.9908142  20.9060650
  46.9956665 186.7577667  21.2709122  46.4896278 186.0952759  20.5843029
  46.3047295 187.7232361  21.9788246  44.9546928 187.9046173  21.6980152
  44.5558205 187.3598480  21.0155735  47.0095291 188.6815948  22.7885208
  46.5487900 189.4848785  23.3442822  48.4018860 188.6490021  22.9083786
  48.8898621 189.4560699  23.4346333  52.8355980 186.4396210  22.6794815
  53.2146111 185.7558289  21.7520962  53.6839714 187.0343475  23.5250282
  53.2559090 187.6969147  24.1557999  55.1519470 186.7385559  23.5267410
  55.5000801 187.1824951  22.5940971  55.7958603 187.4367981  24.6926384
  55.3506088 186.9938049  25.5834885  56.8686676 187.2455597  24.7173157
  55.5317688 188.8642731  24.7041779  56.2246246 189.3498383  25.1578045
  55.5356255 185.2678833  23.5318394  56.4687576 184.9088898  22.9071217
  54.6880341 184.4496155  24.1792068  53.9119453 184.9100647  24.6328278
  54.7219238 182.9168854  24.3105316  55.7716980 182.6239014  24.3256989
  54.0709267 182.4055023  25.6689320  52.9986725 182.3741608  25.4755726
  54.3678436 181.3686066  25.8263741  54.3235092 183.2993927  26.9267635
  53.9750099 184.3167572  26.7489185  53.5711174 182.7077789  28.1535511
  54.1516800 181.8892365  28.5790157  53.5662918 183.4673004  28.9353447
  52.6105194 182.3083801  27.8282490  55.7826462 183.3877563  27.4185619
  56.2902794 183.9675446  26.6476822  55.8784637 183.9127350  28.3689861
  56.1515770 182.3624573  27.4460773  54.1722107 182.1687469  23.1045494
  54.3491364 180.9794922  23.0050964  53.6116409 182.8319244  22.0937080
  53.3823090 183.8067780  22.2247925  53.3421402 182.2886810  20.7660351
  53.8113480 181.3113251  20.6532593  51.7902985 181.9848022  20.6368561
  51.1984787 182.8849640  20.8028946  51.5457420 181.6663208  19.6235104
  51.2403564 180.9065094  21.5646496  50.8836136 181.2645569  22.8820343
  50.9749031 182.2989197  23.1789761  50.3001862 180.3079834  23.6977558
  50.0103035 180.5821075  24.7013683  49.9244232 179.0166626  23.1723938
  49.3505859 178.0246429  23.9139175  49.2315292 178.1932068  24.8514767
  50.2862701 178.6638794  21.8555222  50.1119156 177.6966705  21.4077377
  50.9361153 179.6497345  21.0303078  51.0542030 179.4215851  19.9813061
  53.8584175 183.1709442  19.6011429  53.7900505 182.7432404  18.4369545
  54.5244560 184.2913971  19.8095798  54.4923286 184.7364197  20.7156849
  55.2259865 185.0512695  18.7474308  54.6019745 185.1080933  17.8555298
  55.4256821 186.4470367  19.2451344  54.4488182 186.9053650  19.0909557
  55.6011505 186.5108032  20.3190269  56.5868225 187.1548462  18.5000381
  56.7102394 187.1386261  17.2510033  57.4689827 187.6647186  19.2358990
  56.5562706 184.3753662  18.3008747  57.4101906 184.1014252  19.1424503
  56.7416801 184.0932312  16.9774933  56.0504265 184.3051605  16.2722569
  57.9668007 183.3671265  16.5190659  58.0791512 182.4822693  17.1455917
  57.7737083 182.8995514  15.0477934  57.5048752 183.7007294  14.3593512
  58.7516632 182.5778198  14.6897440  57.0549240 182.0811615  15.0889854
  59.2349892 184.2461548  16.6979198  60.3001175 183.7022247  16.8679447
  59.2313499 185.5969696  16.7364712  58.3087196 186.0071106  16.7618179
  60.4972610 186.3684692  16.9740791  61.3232994 185.9805450  16.3780384
  60.2206917 187.8406525  16.5046959  59.3827667 188.2746735  17.0502300
  61.1348038 188.3701935  16.7731953  59.9383774 188.0200500  15.0244083
  59.0614433 187.3878784  14.8850126  59.7216034 189.0877991  14.9921207
  61.0900421 187.6385345  14.0983305  62.2830887 187.6177673  14.4498425
  60.8093758 187.2440338  12.9424200  61.0138588 186.2930450  18.4668865
  62.1931572 186.0976715  18.8276310  60.0937462 186.4707184  19.4553299
  59.1446686 186.7374573  19.2357788  60.4446678 186.2614136  20.8682632
  61.3180046 186.8810425  21.0718269  59.2271690 186.5910797  21.7027950
  58.3722572 185.9578552  21.4656200  59.5374947 186.6168213  23.2088509
  60.4322853 187.2266693  23.3335285  58.7637825 187.0565643  23.8382187
  59.6038818 185.5752258  23.5231304  58.6702194 187.9176636  21.4386425
  58.4036636 187.8737030  20.5174389  60.8167343 184.8193970  21.1399155
  61.7808685 184.5796356  21.8460331  60.1042175 183.9083557  20.4933529
  59.2995796 184.2349701  19.9776230  60.4943733 182.4815063  20.6526642
  60.4743233 182.2664490  21.7210522  59.3773575 181.6777802  19.9894962
  59.2610588 182.1783905  19.0282669  59.7934227 180.6771698  19.8721390
  57.9792290 181.5303345  20.7220402  57.4485168 182.4694519  20.8786125
  56.9990158 180.7132721  19.9000854  57.5542717 179.8067780  19.6591072
  56.1334114 180.4649353  20.5142212  56.6962585 181.1977539  18.9717999
  58.2589912 180.8428345  22.0806828  58.7327232 181.5007782  22.8092480
  57.3468666 180.4844666  22.5578575  58.9659729 180.0132751  22.0910320
  61.7903404 182.1000366  19.9132462  62.4537773 181.1642303  20.3407803
  62.1938515 182.7854156  18.8749294  61.5350533 183.3632965  18.3727875
  63.5086288 182.5968018  18.2111702  63.5978966 181.5246429  18.0362110
  63.6497841 183.3287811  16.8753166  63.1726837 184.3074951  16.9263325
  64.6880798 183.5073547  16.5957642  63.0789223 182.4757385  15.6962557
  63.6897087 181.5752258  15.6319313  62.0340385 182.2543640  15.9137688
  63.1523323 183.2732697  14.0830851  64.8260193 182.8847198  13.6298504
  64.9892654 181.8167572  13.7743931  65.0173874 183.0106659  12.5641975
  65.5767670 183.4344482  14.1975489  64.5995636 183.0205383  19.1390591
  65.5194016 182.2706757  19.5343399  64.5433121 184.2783661  19.5694218
  63.8375626 184.9171906  19.2319183  65.5073853 184.7651672  20.5334492
  66.4997864 184.7220917  20.0846958  65.1855621 186.2267303  20.8905258
  64.9987564 186.8495636  20.0157242  64.2801285 186.2586975  21.4965477
  66.3593521 187.0018005  21.6196861  65.9285049 187.9059753  22.0497150
  66.7145844 186.3532257  22.4204788  67.5911255 187.2948456  20.7040882
  67.4871750 187.2377319  19.4653416  68.7444077 187.5162048  21.2377968
  65.6917038 183.9957733  21.8631210  66.8435135 183.7713623  22.2294731
  64.6076202 183.4946136  22.5188427  63.6841125 183.7570496  22.2051945
  64.8298721 182.7223816  23.7789974  65.4129333 183.2610474  24.5259762
  63.4666252 182.4400787  24.2903194  62.7792587 182.2911987  23.4575710
  63.4202843 181.6478119  25.0375023  62.8709488 183.7286530  24.9757271
  63.3979950 183.8856964  25.9168224  63.1740952 184.5865631  24.3755665
  61.4071579 183.4956665  25.3338928  60.9664078 184.4216919  25.7031136
  60.8561630 183.2735291  24.4200249  61.3043823 182.4557648  26.3943653
  62.1291695 182.0718384  26.8330460  60.1822090 181.7577667  26.6931419
  59.0249176 182.0874634  26.2272873  58.8788757 182.9510040  25.7242222
  58.2045975 181.5288696  26.4147644  60.2631645 180.7781372  27.4830055
  61.1412201 180.3922577  27.7995720  59.4061852 180.3707123  27.8289642
  65.7069778 181.4719086  23.4881496  66.6714249 181.2522888  24.2418709
  65.5616302 180.7669220  22.3516102  64.8349380 180.9949951  21.6882877
  66.3977509 179.6687469  21.9515896  66.4457321 178.9085541  22.7312698
  65.8832397 178.9478302  20.6199760  65.7729721 179.6798248  19.8198814
  66.8604279 177.7837982  20.2056313  67.1145859 177.1597443  21.0624046
  66.2930374 177.1681061  19.5077190  67.8014069 178.1719971  19.8158073
  64.4743500 178.2731171  20.8470058  63.7745895 179.0857697  21.0420628
  64.0908356 177.8200836  19.9328003  64.4928436 177.4829407  21.5975895
  67.8488922 180.1457214  21.6543865  68.7967300 179.4983978  22.1051846
  68.0392380 181.3102264  21.0659046  67.2433319 181.9282532  20.9975262
  69.3888855 181.8401947  20.7069550  69.9219513 181.0832062  20.1317005
  69.3173981 183.0837555  19.8724327  68.6911163 183.8769379  20.2807941
  70.3464050 183.4399414  19.9211731  68.9085693 182.9921875  18.3649788
  69.4547501 182.1764069  17.8913898  67.8367996 182.7937012  18.3684597
  69.2487411 184.3582001  17.8028431  68.9798203 185.1397247  18.5134850
  70.3087540 184.4823151  17.5813046  68.3188019 184.6343842  16.5651455
  68.5968552 184.0058746  15.7191143  67.2955856 184.4379120  16.8853340
  68.4919739 186.0575562  16.1259632  69.3897400 186.3578644  15.7739182
  67.8593292 186.2674255  15.3671389  68.4064560 186.6954498  16.9043503
  70.2215271 182.0996704  21.9487667  71.3795319 181.7729797  22.0320568
  69.5709610 182.5214081  23.0283031  68.6118317 182.8170624  22.9154034
  70.1464233 182.7613831  24.3397598  71.0397034 183.3566742  24.1505852
  69.1525345 183.6824341  25.1927280  68.8917923 184.4088593  24.4230289
  68.2835922 183.1055756  25.5093842  69.7874527 184.3648071  26.3727112
  69.8311539 183.5997162  27.1478367  70.7775040 184.7179718  26.0843105
  68.9588928 185.6395416  26.7774677  69.4150772 186.0527802  27.6770420
  69.0049057 186.3918304  25.9900379  67.5968704 185.2221527  27.1636486
  67.4953156 184.2786407  27.5094604  66.5667725 186.0484314  27.2703018
  66.5799103 187.3030090  26.8507500  67.4406967 187.6592712  26.4606133
  65.8741608 187.9482422  27.1758671  65.3562698 185.5950623  27.6547432
  65.2604523 184.6838074  28.0796337  64.5401688 186.1746521  27.5199833
  70.5994568 181.4899750  25.0645924  71.5490799 181.5493774  25.8209972
  70.0751266 180.2605438  24.6726742  69.3583145 180.3131866  23.9630928
  70.7342453 179.0266113  24.9215221  71.1586609 179.0831146  25.9239063
  69.6349258 177.9288177  24.9061069  68.8905182 178.1421509  25.6732101
  69.1956329 177.8564911  23.9111748  70.1436920 176.5609283  25.3114128
  69.3554688 175.8563995  25.0460148  70.9717255 176.2208710  24.6894608
  70.5494995 176.4048157  26.7802773  69.7457581 176.4306488  27.6771049
  71.8253860 176.2710419  27.0196934  72.1265259 176.3853149  27.9769592
  72.5003662 176.2231750  26.2698822  71.8259964 178.6834869  23.9063358
  72.9550171 178.3538361  24.3250599  71.6433411 178.8375854  22.5797787
  70.7473907 179.1816864  22.2651730  72.6611862 178.5268250  21.5685215
  72.9983368 177.5067902  21.7527924  72.0859070 178.7144470  20.1159706
  71.7060928 179.7358398  20.0913601  72.8201599 178.5041962  19.3382988
  70.8727188 177.8425293  19.7788544  70.1084366 177.9930420  20.5412979
  70.3245392 178.1829071  18.3256893  71.1185684 178.0785522  17.5862865
  69.5226288 177.5330658  17.9753609  69.8906174 179.1797791  18.2476826
  71.3746643 176.3742218  19.7005577  71.3038177 175.8808594  20.6699257
  70.9161911 175.7584991  18.9267387  72.4490738 176.4024353  19.5190277
  73.9362335 179.4771271  21.7168694  75.0252533 178.9262543  21.4440937
  73.8389969 180.6714935  22.2845135  72.9301910 180.8482971  22.6881485
  74.9862518 181.5343475  22.3960400  75.5084229 181.4596252  21.4421768
  74.5718765 183.0205536  22.4802017  73.7268219 183.1779327  23.1504364
  75.4202957 183.4113770  23.0419464  74.4326553 183.7656250  21.2227230
  75.5732040 184.1518555  20.4579735  75.0972824 184.5763855  19.2877502
  75.7403183 184.9788818  18.5190449  73.7736359 184.6738129  19.3424606
  73.1878510 184.9766235  18.5774364  73.3219757 184.1022491  20.5120850
  72.2748108 184.0667267  20.7739525  76.0436859 181.0839539  23.5009270
  77.2641983 181.3967590  23.2943821  75.5830078 180.4567108  24.5648746
  74.6044769 180.4993744  24.8113670  76.4679260 179.8211060  25.4806080
  77.2839279 180.5314484  25.6134434  75.9006500 179.5275726  26.8259010
  74.8577576 179.2320251  26.7113209  76.3990250 178.6819153  27.2998276
  76.0076599 180.7276917  27.7845287  77.0642471 180.9846802  27.8598804
  75.5883942 181.6303101  27.3399963  75.4898224 180.3518677  29.2044449
  75.8202515 181.0301514  30.2328243  74.5760498 179.5158234  29.2996712
  77.0706024 178.5489044  24.9191780  78.2534485 178.3142242  25.1158962
  76.2995605 177.7152252  24.2283859  75.3140259 177.8932495  24.0974598
  76.7600403 176.5417633  23.5107193  77.3641434 175.9133453  24.1651268
  75.5769424 175.6458130  22.9613323  74.9256210 176.3571472  22.4535007
  75.9239349 174.9784698  22.1724453  74.6512680 175.0279541  23.9621391
  74.9406433 174.7198486  25.2219677  75.8752899 174.9525604  25.7105198
  73.9026947 174.0060730  25.8055782  73.9859314 173.5983734  26.7258797
  73.0102615 173.5600739  24.8269291  71.8799667 172.7763519  24.8207493
  71.5646210 172.2098389  25.6844730  71.1026154 172.6144257  23.6681099
  70.1946564 172.0322723  23.7240334  71.4887314 173.3047791  22.4957581
  70.9265594 173.2972565  21.5736351  72.6724930 174.0732269  22.5212536
  72.9862137 174.5226288  21.5906487  73.4093323 174.2917938  23.7048454
  77.6498260 176.9062347  22.3173676  78.4916611 176.0707855  21.9987640
  77.5780258 178.0728455  21.6333542  76.8535461 178.7164154  21.9180508
  78.4927826 178.5084229  20.5717354  79.3782043 177.8742828  20.6164932
  77.8514175 178.3659973  19.1729450  77.1544724 177.5279388  19.1673717
  77.1997757 179.2378387  19.1149826  78.8719864 178.5034027  18.0759964
  80.0825043 178.7388458  18.2907104  78.4640579 178.3679199  16.8773556
  79.0979080 179.8891449  20.8941975  78.6254807 180.9235382  20.4124393
  80.1101608 179.8884583  21.7849026  80.2404938 179.0273132  22.2962990
  80.7124405 181.0725708  22.4414730  79.9020081 181.6039276  22.9404430
  81.6703568 180.7019043  23.5304184  82.4974442 180.0950012  23.1620522
  82.1414490 181.6169891  23.8892879  81.0038300 180.0156860  24.7308731
  81.4391403 180.3781281  25.6621304  79.9711227 180.3569641  24.8025246
  81.1389847 178.4673309  24.6995506  80.9802094 177.8831024  23.6412907
  81.5902252 177.9458923  25.7044697  81.4493637 182.0622253  21.4434910
  81.9395981 183.1415863  21.8565865  81.5144501 181.7707367  20.1620789
  81.0834122 180.9053192  19.8698730  82.1076355 182.6496277  19.1401196
  82.3148651 183.6006775  19.6307201  83.4577560 182.0382080  18.6307087
  83.2702408 180.9839478  18.4269791  83.7517471 182.4975281  17.6869450
  84.5902405 182.1569672  19.5941639  84.6903687 181.3008118  20.5000439
  85.4924469 183.0988464  19.4312916  86.2464981 183.1611786  20.1003342
  85.3597488 183.8029327  18.7194328  81.0641785 183.0852356  18.0273361
  81.5324097 183.5173492  16.9302864  79.7749710 182.7599335  18.2262955
  79.5128021 182.2526550  19.0593910  78.7852097 182.9250183  17.1886787
  79.1196671 182.4744873  16.2541904  77.5959473 182.0137939  17.6091881
  78.0258636 181.0689545  17.9416943  77.1333694 182.4609222  18.4890709
  76.5115662 181.7366791  16.5292950  76.9602127 181.6733398  15.5379257
  75.7223511 180.4661102  16.8066196  75.3295212 180.5258789  17.8216152
  74.9625778 180.3412323  16.0350933  76.4391556 179.6452179  16.7855492
  75.4744949 182.7838440  16.4653130  75.8328400 183.7976532  16.2867470
  74.8461914 182.5843658  15.5972452  74.8342285 182.7930298  17.3474045
  78.4300842 184.4454803  16.8545513  77.9388885 185.1740417  17.7505569
  78.6770325 184.7787170  15.5946884  79.2992630 184.1651611  15.0882444
  78.0056000 185.8964233  14.9252310  77.6404419 186.6469727  15.6262531
  79.0314407 186.5677948  14.0028391  79.4299164 185.7523956  13.3991413
  78.5836182 187.2871399  13.3172083  80.1951981 187.2067261  14.8389292
  79.7451019 187.9691925  15.4746628  80.7181091 186.4715881  15.4506693
  81.2569122 187.8828125  13.9087410  82.0392838 188.3489838  14.5076523
  81.7477722 187.0983124  13.3328018  80.7042618 188.8953400  12.8977613
  81.5008011 189.2836761  12.2630844  80.0319672 188.4953613  12.1387205
  79.9766693 190.0589294  13.5027819  80.5474777 190.5531921  14.1735916
  79.5558014 190.6858673  12.8320284  79.2149963 189.6701202  14.0401602
  76.8254395 185.4188538  14.1070795  76.9106140 184.3294678  13.5404892
  75.6538773 186.1238403  14.3113852  75.6514435 186.9046173  14.9520855
  74.3268814 185.5395660  13.9893885  74.1791000 184.7109070  14.6819038
  73.3169708 186.5319519  14.4499626  73.8142471 187.4947357  14.5677385
  72.7292175 186.7163696  13.5507221  72.3857803 186.2254333  15.6503706
  72.8973236 185.5813446  16.6018887  71.1822052 186.6422577  15.6392975
  74.0987549 185.1806030  12.4996843  73.1896210 184.3777618  12.2950125
  74.9882278 185.5284729  11.5603113  75.6780243 186.1568909  11.9468174
  74.8644104 185.3309937  10.1415462  74.0024719 185.8474426   9.7191257
  76.1330566 185.8331299   9.3895817  76.7922668 184.9650879   9.3969870
  75.9289627 186.0291595   8.3369579  76.8964233 187.0236816  10.0996628
  77.1959915 186.6305847  11.0711727  77.7707138 187.2830353   9.5026321
  76.0761185 188.2581024  10.5571060  75.5689011 188.9529724   9.6684656
  75.9160309 188.5847168  11.7778921  74.7095795 183.8376312   9.6815319
  74.2221451 183.6072845   8.5863571  75.0944138 182.8478851  10.5244761
  75.4902115 183.0483246  11.4318209  75.1296616 181.4086761  10.1066341
  75.2722702 181.3058929   9.0309019  76.2901001 180.7299042  10.9300318
  76.3842621 179.6580353  10.7558556  77.2084656 181.1991730  10.5771904
  76.0888824 181.0970459  12.2779722  76.8695374 180.9111786  12.8048830
  73.7602539 180.7621460  10.4641256  73.4827576 179.6691589   9.9705000
  72.9530640 181.3876190  11.2737741  73.3113022 182.2972107  11.5275660
  71.5688782 181.0999298  11.5948639  71.4880371 180.0129547  11.5886736
  71.1503220 181.4535522  13.0957365  71.2181091 182.5383606  13.1775208
  70.1408691 181.0845795  13.2773190  72.1453247 180.8567963  14.2027807
  73.1614761 181.0999756  13.8923016  72.0371017 181.4320984  15.6022387
  70.9891739 181.2687225  15.8537655  72.7195053 180.9204254  16.2809334
  72.3173370 182.4848633  15.6377430  71.9147873 179.3487549  14.2699537
  71.9147339 178.8210449  13.3162050  72.7224808 178.9882202  14.9069452
  70.9767151 179.1648254  14.7936916  70.5489883 181.6991577  10.6145477
  70.6556931 182.8617859  10.2897997  69.5431213 180.9186859  10.2028198
  69.4915314 179.4908295  10.1922607  69.0512772 179.0632782  11.0930843
  70.4976807 179.1151886  10.0060673  68.6481781 179.1666412   8.9818983
  68.1536942 178.1966705   9.0342665  69.2285538 179.3783722   8.0838804
  67.6291809 180.3085785   9.0146265  66.9138489 180.1141205   9.8137417
  67.1822891 180.4185791   8.0265570  68.4901657 181.4653778   9.3571806
  68.9671021 181.8358612   8.4497805  67.6335526 182.5100250  10.0729198
  67.3019257 182.3119507  11.2534256  67.3703079 183.5542755   9.3416605
  67.7704926 183.6276245   8.4172287  66.3673782 184.5975952   9.7359877
  66.4874496 184.6971436  10.8147697  66.6251678 185.9580688   9.1448374
  65.9200821 186.7113037   9.4963961  68.0144501 186.5355835   9.5757751
  68.7794342 186.1543884   8.8993244  68.0503540 187.6171570   9.4453650
  68.2199402 186.3574829  10.6313095  66.7368088 185.8884735   7.7038817
  66.9312515 186.7750549   7.3912172  64.8873062 184.2503815   9.5142651
  63.9583626 184.9980164   9.7586193  64.5774536 183.0487823   9.0966225
  65.3572922 182.4988251   8.7656813  63.2006378 182.5893860   8.8287096
  62.4960861 183.3852692   9.0701256  63.1275215 182.1783752   7.3322053
  63.5623016 182.8996277   6.6402044  63.6812096 181.2459259   7.2223511
  61.7355843 181.9942932   6.8530674  60.9395218 182.8840942   6.9769769
  61.4951477 180.8112946   6.2494760  60.5862389 180.6266785   5.8495936
  62.2609901 180.1589355   6.1599560  62.8997917 181.5089874   9.8760538
  63.7001190 180.5788116   9.9605055  61.8131447 181.6741486  10.6457920
  60.8147011 182.7703247  10.6573925  60.5459671 183.0877380   9.6498585
  61.1988297 183.6744080  11.1297951  59.6500473 182.2843781  11.5254307
  58.9310303 181.6286926  11.0343113  59.1177177 183.0701904  12.0613680
  60.3640175 181.3315887  12.5385342  59.6448746 180.5755768  12.8537855
  60.6734123 181.8806152  13.4278860  61.5698013 180.7779999  11.7938948
  62.3890419 180.7729034  12.5128632  61.3468933 179.2650146  11.4891987
  61.6603127 178.4412231  12.3202982  60.9241295 178.8527069  10.2872972
  60.7595863 179.5800934   9.6061697  60.7160683 177.5120544   9.8673935
  60.0883598 177.0757904  10.6444149  59.9097672 177.4689636   8.4977036
  60.4845657 178.0561676   7.7815356  59.8585815 176.1450500   7.7712421
  59.4958267 175.3670349   8.4429502  59.1888771 176.1030121   6.9122720
  60.8375511 175.8091583   7.4293461  58.5070572 178.0642700   8.5517406
  57.8440781 177.5390320   7.8642130  58.0451126 177.8795166   9.5215778
  58.3971291 179.5898743   8.2514715  58.8603973 179.9029388   7.3158016
  57.3539581 179.8991699   8.1865005  58.7732849 180.2242584   9.0540676
  62.0498428 176.7259979   9.7179508  62.2761345 175.7393341  10.4008341
  62.9644775 177.2859955   8.8731470  62.5680275 177.9813538   8.2571812
  64.3101883 176.7109833   8.7605305  64.2516861 175.7174835   8.3159628
  65.1128998 177.5017853   7.6952024  65.4674606 178.3952942   8.2090368
  65.9508057 176.8904877   7.3600383  64.3674011 178.0328827   6.3859539
  63.2857323 178.7063751   6.5304770  64.9296036 177.7774353   5.2793045
  65.1380692 176.6651764  10.0395832  65.7833481 175.6238556  10.3468447
  65.1006393 177.7324371  10.8703899  64.6818771 178.5691833  10.4901295
  65.5813293 177.8731079  12.2143288  66.6643066 177.7554169  12.1767187
  65.3002548 179.2447052  12.8105192  65.6288300 179.9119873  12.0137396
  64.2294159 179.4394531  12.8694420  65.8832321 179.6056213  14.1726961
  65.2171555 179.2069092  15.3373756  64.1899948 178.8934021  15.2231359
  65.8220139 179.2677155  16.6068611  65.3166885 178.9674377  17.5128822
  67.1008759 179.8161316  16.7485180  67.5706406 179.8774414  17.7190685
  67.7801361 180.1604767  15.5634022  68.8194580 180.4472198  15.6265450
  67.2183990 180.0340424  14.3219690  67.8736877 180.1407776  13.4701481
  65.0571365 176.8105469  13.2087383  65.8025970 176.0683289  13.8280945
  63.7101631 176.6764069  13.3387089  63.0231323 177.1322937  12.7553864
  63.2673454 175.6448517  14.2501345  63.6856804 175.8421936  15.2371264
  61.7833710 175.7557983  14.5030327  61.4704590 175.0237274  15.2475147
  61.5392189 176.7493134  14.8790665  61.0366287 175.5780334  13.3100691
  60.8204613 176.4724274  13.0363455  63.6864014 174.2463531  13.7410173
  64.1589355 173.4384460  14.5573511  63.5478706 173.9579163  12.4054155
  63.1240997 174.6890411  11.8522692  63.9118538 172.6535950  11.7926788
  63.3317108 171.9018555  12.3278656  63.5387268 172.6894226  10.3127174
  63.8988266 173.5700531   9.7808275  64.2033768 171.9144592   9.9309263
  62.2325554 172.2911377   9.7730837  61.5819321 171.1035461  10.2602634
  62.0642166 170.6792450  11.1284676  60.4221115 170.6363373   9.6639013
  59.9080696 169.7552032  10.0185099  59.9403687 171.3566895   8.5477095
  58.8612289 170.8044739   7.8878903  58.4667091 171.4426575   7.2889938
  60.3985023 172.6017914   8.1312733  59.8565292 173.1423187   7.3693609
  61.6288452 173.0156555   8.7102146  62.0261574 173.9877930   8.4582052
  65.3725433 172.3291931  12.0694408  65.6380997 171.1647644  12.4790640
  66.3221970 173.2589722  11.9415665  65.9779587 174.1661835  11.6612463
  67.7042465 173.1178284  12.3432388  68.1676636 172.3314056  11.7475252
  68.4617310 174.4957733  12.1100855  68.3105087 174.8092651  11.0771475
  68.0004501 175.1724091  12.8294477  69.9533463 174.2092133  12.4574509
  70.4329300 175.1487885  12.7318792  70.1899948 173.5674744  13.3061409
  70.6647797 173.6655579  11.1844978  71.6940994 173.3875122  11.4109612
  70.2180405 172.7153931  10.8916826  70.7465515 174.6380157  10.0559063
  70.0569992 174.5219421   9.3271093  71.6919250 175.6272583   9.8708735
  72.5858688 175.9603729  10.7506008  72.6447983 175.4175262  11.6002760
  73.2882690 176.6472015  10.5160809  71.6561508 176.3636169   8.8047371
  70.9991684 176.1246185   8.0757990  72.2889175 177.1423340   8.6893187
  67.9028168 172.6791992  13.7986879  68.5476685 171.6718140  14.0747538
  67.2528305 173.4110870  14.7024088  66.6814346 174.1531677  14.3243599
  67.3421097 173.2110291  16.1583366  68.3700485 173.3009644  16.5095730
  66.6831207 174.3434601  16.8830929  65.7437134 174.6071472  16.3972073
  66.3728638 174.0950470  18.3859177  67.3047028 173.8847046  18.9108162
  65.8304291 174.9289398  18.8314514  65.8179932 173.2027130  18.6756344
  67.5604553 175.6836243  16.8190670  67.7167969 175.9595184  15.7762108
  67.1388168 176.5348053  17.3536892  68.5546112 175.4660492  17.2094707
  66.7152786 171.8704224  16.5449352  67.2445831 171.1445312  17.3759785
  65.5411301 171.5429535  15.9979744  65.1375961 172.2550964  15.4062729
  64.9363251 170.2644806  16.1334076  64.6512070 170.0751343  17.1682777
  63.5575027 170.2778625  15.4542198  63.7415619 170.3959198  14.3863783
  63.0045319 169.3672943  15.6848164  63.0123558 171.1874847  15.7062588
  65.8626404 169.0482483  15.7363958  65.9380646 168.0744781  16.4926586
  66.5312347 169.1309967  14.5813370  66.4298630 170.0153046  14.1040411
  67.5408630 168.1619263  14.1490030  67.0347519 167.2090759  13.9939833
  68.0565796 168.6964569  12.7887135  68.5885391 169.6472473  12.8223448
  68.6754074 167.8701324  12.4389353  67.2350388 168.8804779  12.0963936
  68.6372986 168.0478516  15.2172995  68.9119186 166.9364166  15.6255035
  69.1824799 169.1660004  15.6475134  68.7609024 170.0296478  15.3369036
  70.4346848 169.0868683  16.4309902  70.9419098 168.1567383  16.1747227
  71.2854004 170.2719574  15.9732056  72.2735367 170.2624359  16.4331913
  71.4591064 170.1904144  14.9002295  70.5582504 171.8394928  16.5063000
  70.5176163 172.1329956  15.2035723  70.2770844 168.9547577  17.9650841
  71.2275620 168.9748535  18.7383900  69.0151291 168.7988739  18.4406948
  68.2491989 168.6539612  17.7984676  68.7188568 168.5218506  19.8681202
  69.3319931 169.1478577  20.5163937  67.2421494 168.8575592  20.0995159
  66.6800919 168.7389984  19.1731644  66.7909927 168.1123810  20.7547169
  66.8779449 170.2775269  20.6537285  67.2974777 171.0662994  20.0292778
  65.3566818 170.2637634  20.6124153  64.9356003 169.5244141  21.2937012
  65.0259323 171.2358551  20.9780903  65.0755615 170.1409302  19.5664768
  67.3339615 170.4557495  22.1412506  68.3986893 170.2459717  22.2434673
  67.1224594 171.4989929  22.3758202  66.8474045 169.7288818  22.7916584
  68.9327316 167.0273743  20.2517471  68.4223480 166.1129913  19.5580845
  69.5253830 166.7281036  21.4135780  70.3738098 167.6676178  22.0963459
  69.8312073 168.3796539  22.7181816  70.9173508 168.2010803  21.3165588
  71.2914276 166.8764954  22.9796600  70.8221817 166.9445343  23.9611301
  72.2360306 167.4183350  23.0269051  71.1752243 165.4307709  22.5417557
  71.2032623 164.8099060  23.4372063  71.9653778 165.1660919  21.8391113
  69.8250885 165.3548126  21.8345699  69.9308548 164.7481842  20.9351730
  68.7281494 164.7395325  22.6929493  68.7687378 164.8711548  23.9188290
  67.6877441 164.0936127  22.1056519  67.7921066 163.9042511  21.1190662
  66.5025482 163.4784546  22.8179512  66.8903732 163.3488007  23.8283386
  65.2972946 164.3932343  22.9082508  64.3767700 163.8124695  22.9670181
  65.3595734 165.2178345  24.1878185  66.2016907 165.9064789  24.1190338
  64.4005966 165.7359314  24.1941242  65.5644836 164.6124573  25.0707779
  65.1642685 165.3153839  21.6530018  65.8457260 166.1628723  21.7269783
  65.4353180 164.6951752  20.7986202  63.6857414 165.7057648  21.3502216
  63.3163567 166.2526550  22.2177296  63.5244064 166.3348694  20.4748421
  63.1297340 164.7937317  21.1330719  66.2243118 162.1017303  22.3540401
  66.5492325 161.7952118  21.2048836  65.5862885 161.2664490  23.2305756
  65.3082428 161.6566772  24.1196842  65.0588913 159.9712372  22.7279034
  65.8785019 159.4079285  22.2817726  64.4605637 159.2402954  23.9277458
  64.4155121 158.1703644  23.7244568  65.1575165 159.1565094  24.7616177
  63.1637955 159.7669678  24.3807316  63.2386627 160.8529053  24.9990387
  62.1300354 159.1208038  24.1136799  64.0543518 160.0031281  21.5762310
  63.3400612 161.0024261  21.4030399  63.9621849 158.9291840  20.8062782
  64.3427811 158.0227966  21.0380230  63.1936531 158.9395294  19.4934006
  63.5147324 159.7904816  18.8926659  63.2909470 157.7091980  18.6824417
  62.7405319 157.0140076  19.3163528  62.8610039 157.8425446  17.6897316
  64.7371597 157.2252655  18.5607529  65.5149231 158.0685577  18.1045647
  65.1941376 156.1794128  18.9629498  61.6522408 159.1807709  19.6895580
  60.9370995 159.8448639  18.9540024  61.0418663 158.6367340  20.7486897
  61.5731430 158.0067444  21.3326073  59.6209068 158.7298737  20.9125633
  59.1206512 158.3982239  20.0027046  59.2840652 157.6897583  22.0533104
  59.6509590 157.9707184  23.0405045  58.2186928 157.7202148  22.2816734
  59.5447731 156.6645508  21.7904415  59.2459641 160.2022095  21.2412720
  58.1586990 160.6374969  20.8182869  60.1617279 161.0285187  21.7481136
  61.0565376 160.6201172  21.9775181  60.0628052 162.4713287  21.8929329
  59.0557899 162.7284241  22.2214432  60.8992996 162.9337921  23.0898342
  60.5811844 162.4251251  23.9998684  61.9481888 162.6514893  22.9990368
  60.8436279 164.4335938  23.4745293  61.3071899 165.0667877  22.7180405
  59.5124817 164.9905701  23.7051086  58.9377441 164.2837524  24.3035927
  59.5502701 165.9830627  24.1541557  59.0666656 164.9972839  22.7104664
  61.5955162 164.6197510  24.8199711  62.5847054 164.1671600  24.7509518
  61.6170578 165.6745911  25.0937424  61.0607452 164.0711670  25.5953274
  60.4466858 163.2495117  20.5904751  59.7999611 164.2856903  20.2774200
  61.3902855 162.7787628  19.7101898  61.8555832 161.9553375  20.0645599
  61.6589355 163.3222809  18.3429279  61.6241798 164.4108276  18.2986050
  63.0493584 162.8046875  17.8127861  63.1369896 161.7403412  18.0309429
  63.1734886 163.0019989  16.7480030  64.1985703 163.6499176  18.4114780
  64.1711578 164.6792603  18.0540085  64.0607605 163.6478882  19.4927292
  65.5308990 162.9512634  18.2091351  66.2855453 163.5037689  18.7689056
  65.3786011 161.9319916  18.5640831  65.9899139 162.9587860  16.7324772
  65.6554565 162.1795654  16.1837940  66.8726654 163.7682800  16.2183208
  67.3596573 164.7856293  16.8319378  67.2469940 164.9494934  17.8221703
  67.8419266 165.4883881  16.2900333  67.1734314 163.6513672  14.9742680
  66.7510223 163.0026093  14.3255911  67.8972321 164.2351227  14.5799780
  60.5213318 162.9478760  17.3450203  60.4448242 163.6018066  16.3031960
  59.6361656 161.9228821  17.6301289  59.8559685 161.4405823  18.4898853
  58.3600006 161.6813965  17.0161819  58.4089355 161.8416748  15.9391403
  57.8741188 160.1862488  17.2349510  57.6664963 159.9709930  18.2831211
  56.4846344 160.1206512  16.6852951  56.4340057 160.5338287  15.6779079
  56.1177101 159.0957794  16.6297092  55.8660660 160.6000214  17.4440346
  58.6988068 159.0278931  16.5182381  58.7812233 159.3479919  15.4795637
  59.7117882 158.9795837  16.9177837  58.1605492 157.5729523  16.4916058
  57.3803368 157.4767303  15.7365408  58.9894867 156.9380341  16.1787949
  57.7961617 157.2577667  17.4693508  57.3357925 162.7990570  17.3432217
  56.8062134 163.3685455  16.3917427  57.1259689 163.1914978  18.5866413
  57.6798782 162.7510986  19.3072987  56.2618752 164.2693634  19.0614204
  55.2434845 164.0940094  18.7146721  56.2573814 164.3897858  20.6264725
  57.1911430 164.7060852  21.0913868  55.6213989 165.1961975  20.9916115
  55.9193192 163.1329956  21.4040375  56.6720543 162.3537750  21.2843800
  55.8100357 163.3941956  22.4566212  54.6323051 162.3310852  21.1159286
  53.5954895 162.8486481  20.6559200  54.6539688 161.0642395  21.4117947
  53.8257523 160.5341034  21.1813126  55.4944305 160.6258850  21.7604656
  56.8596687 165.5516968  18.3805637  56.1331940 166.2309265  17.6667023
  58.1762581 165.8639679  18.5080109  58.6872559 165.2487946  19.1248951
  58.7894249 167.0764771  17.9007854  58.2298698 167.9501648  18.2349548
  60.1715317 167.2899780  18.4520626  60.1254921 167.3072510  19.5409546
  60.7262383 166.4492645  18.0354156  60.9635963 168.5551910  18.0984936
  60.8457985 168.5756073  17.0150642  60.2585983 169.7938690  18.7040062
  60.3524895 169.8734741  19.7870331  60.7601891 170.6956329  18.3528271
  59.1948853 169.7953644  18.4660721  62.3513145 168.4416351  18.5375462
  63.0122528 167.7325745  18.0390472  62.8660545 169.3927612  18.4015522
  62.4360771 168.2402954  19.6054287  58.6925964 167.1092224  16.3343868
  58.2931099 168.1301727  15.7421637  58.9213905 166.0310669  15.5647621
  59.3930511 165.2403564  15.9799814  58.6409416 165.8349304  14.1273632
  59.2139816 166.5791779  13.5743589  59.0843353 164.4448242  13.6767445
  60.1401253 164.2447205  13.8594170  58.4496841 163.7556610  14.2338610
  58.8372383 164.0029755  12.2124977  57.7777138 164.0875244  11.9708977
  59.7112846 164.8679657  11.3035069  60.7652283 164.6421661  11.4657516
  59.6515045 164.6305847  10.2413502  59.5261383 165.9296265  11.4668522
  59.0603104 162.5165710  11.8944855  58.3300972 161.9094086  12.4294977
  58.8773270 162.4298859  10.8234549  60.1059265 162.3178558  12.1296368
  57.1883469 166.0603790  13.7501659  57.0319252 166.5304108  12.6337690
  56.1869392 165.6257019  14.5345745  56.5000153 165.1423035  15.3642750
  54.6819000 165.6618195  14.2280617  54.3198662 165.3191986  13.2587099
  53.9622536 164.8623657  15.3425159  54.6073761 164.9636230  16.2152481
  53.0461578 165.3634796  15.6551752  53.6829147 163.3310394  15.1276426
  53.0032959 163.2042999  14.2849350  54.5762825 162.7833710  14.8275528
  52.8774338 162.7795258  16.3816605  53.5809708 162.6752014  17.2076454
  52.2324409 163.5896912  16.7218437  52.0454788 161.4580688  16.2217197
  51.4783669 161.6011200  15.3019228  52.7335930 160.6261749  16.0715389
  51.2821045 161.1697998  17.4837151  50.7580452 162.0042419  17.7054806
  50.6030388 160.4303894  17.3730106  51.8864975 161.0445251  18.2831631
  54.1347046 167.0408783  14.2471409  53.2050972 167.3963623  13.4661322
  54.6330147 167.8385162  15.1752033  55.2349129 167.3922882  15.8524761
  54.0528030 169.1859131  15.4665127  53.1218147 169.0587921  16.0189610
  55.1178360 170.0069427  16.2768307  56.0891991 169.8870087  15.7970724
  54.8395729 171.5408478  16.2359886  53.8608589 171.7537384  16.6660023
  55.5769882 171.9986877  16.8953075  55.0200882 172.0303192  15.2789392
  55.3076668 169.5754089  17.7581348  55.7070618 168.5618286  17.7933044
  56.0640373 170.2604523  18.1411667  54.0616455 169.6718750  18.6681728
  53.2262688 169.1343536  18.2194805  54.3128319 169.3193054  19.6685219
  53.7972145 170.7207336  18.8026276  53.6709023 170.0362854  14.1936493
  54.3669968 170.0617981  13.1718674  52.5920525 170.7577972  14.2669115
  52.2702103 170.8392181  15.2207928  52.0242920 171.5082092  13.1018763
  51.8148613 170.8438721  12.2634859  51.0545273 171.9132996  13.3909388
  52.9080582 172.6555786  12.6293020  53.3958969 172.7164612  11.5199547
  53.1984482 173.5939941  13.5607939  52.8456955 173.4710541  14.4991713
  53.6705055 174.9205475  13.2733383  53.7171021 175.0067139  12.1877480
  52.5731087 175.8798065  13.8059292  51.5699921 175.6013489  13.4829283
  52.5135956 175.9126129  14.8938084  52.6938248 177.2657471  13.3245907
  52.1297951 177.3107605  12.5490618  55.0773087 175.1842804  13.8627729
  55.3903694 174.7380066  15.0159464  55.8907242 176.0550690  13.2284613
  55.5804367 176.4511871  12.3527279  57.1905708 176.4418335  13.7357740
  57.8223267 175.5561066  13.8025818  57.8882904 177.3442688  12.7060785
  57.1978302 178.1478577  12.4499664  58.7919006 177.7913818  13.1204023
  58.0310440 176.7979279  11.7737417  57.1395683 177.1252441  15.0857096
  58.0250549 176.9083252  15.8916283  56.0596695 177.8424988  15.2979774
  55.4139404 177.9027557  14.5237007  55.5764656 178.4381866  16.5889378
  56.2964020 179.1765289  16.9420071  54.2316628 179.1958466  16.4306450
  53.5237160 178.5044556  15.9736023  53.5603981 179.6725769  17.7526379
  54.2095490 180.3838043  18.2633991  52.5727997 180.1240692  17.6582603
  53.4876862 178.8208313  18.4289074  54.4622726 180.4821930  15.5663548
  54.9369469 181.2437744  16.1850491  55.1459999 180.1004486  14.8081398
  53.1242828 180.9453278  14.9859705  52.4748573 181.2529602  15.8055506
  53.3225021 181.8083649  14.3503857  52.6542320 180.2039642  14.3398046
  55.4589119 177.3706818  17.7011948  56.0127258 177.5026855  18.7542439
  54.7291183 176.2576447  17.4307060  54.3807068 176.1458282  16.4893208
  54.5604362 175.1670837  18.4288826  54.3233032 175.5385895  19.4258003
  53.4456940 174.3318329  17.8002262  53.7618866 174.0020752  16.8105888
  53.2903061 173.4091187  18.3592930  52.0342865 174.9338379  17.7694607
  51.6422234 175.0009918  18.7842903  52.1661720 175.9730225  17.4681320
  51.0882568 174.1848450  16.8877926  51.3987694 173.5628815  15.9191198
  49.7787628 174.2049103  17.1890869  49.1920547 173.6154327  16.6160374
  49.3787231 174.7569885  17.9342594  55.8263741 174.3476868  18.5152969
  56.1411476 173.8120270  19.5433674  56.6666489 174.2984467  17.4721355
  56.4989357 174.8262024  16.6274815  57.9053268 173.5285187  17.4663448
  57.7055779 172.5525818  17.9087772  58.3829498 173.3424225  15.9933958
  57.4786606 173.3390961  15.3848314  58.9518623 174.2010956  15.6368341
  59.2844391 172.0583344  15.6899853  60.3499718 172.2662354  15.7875147
  58.9636612 171.2723999  16.3737392  58.9631386 171.5819550  14.2164526
  59.3159943 170.5598297  14.0792341  57.8936501 171.4695740  14.0384912
  59.5556259 172.5754852  13.3029690  60.3585739 173.1068573  13.6079531
  59.0066261 172.9681549  12.1459503  57.9531364 172.4068604  11.6600466
  57.4776077 171.6182404  12.0748596  57.5969658 172.8001099  10.8006344
  59.5439682 173.8866425  11.4271879  60.3739738 174.3654022  11.7465429
  59.0026207 174.2374878  10.6500416  58.8676071 174.2150421  18.4694138
  59.4240875 173.6041107  19.3349609  59.0699043 175.4950714  18.2460995
  58.7109108 175.7866821  17.3482208  59.7252731 176.4309845  19.1400318
  60.7959099 176.2272949  19.1585274  59.5606537 177.8926544  18.6271858
  58.5069237 178.0251617  18.3818455  59.7212372 178.6493225  19.3951569
  60.4845047 178.1709442  17.4006901  60.4118996 177.3789825  16.6552963
  59.9326515 179.4997864  16.7327824  60.2893906 180.3689423  17.2854214
  60.3351898 179.4645844  15.7204466  58.8511162 179.4782257  16.5989170
  61.9558105 178.3512268  17.7636395  62.3849792 177.3713531  17.9728184
  62.4248543 178.8294373  16.9037495  62.0484352 178.9769287  18.6513557
  59.3695107 176.2873077  20.6460571  60.1946793 176.2934113  21.5310211
  58.1053009 176.1697388  20.8969917  57.4839668 176.3168488  20.1144276
  57.6004601 176.2093353  22.3065834  58.1183662 176.9641113  22.8983459
  56.0608978 176.3793030  22.3173046  55.6850929 175.6800537  21.5703678
  55.7077942 175.9847260  23.2700500  55.6037292 177.8300171  22.0254440
  55.7426338 178.5010071  22.8731251  56.1284676 178.2879028  21.1869392
  54.0754395 177.9318848  21.6715431  53.7011681 178.9550476  21.7058220
  54.0934792 177.4282684  20.7050323  53.2853279 177.1126709  22.6877041
  53.0921097 176.1865540  22.3340740  52.9093704 177.4190369  23.9359875
  53.2011414 178.5734100  24.4944611  53.6939049 179.2515717  23.9311028
  52.6292534 178.8609314  25.2757301  52.2767105 176.5815582  24.7281075
  52.1634178 175.6135864  24.4630013  52.3553047 176.8356171  25.7024727
  58.0250626 174.8901520  22.9997177  58.3641739 174.8762665  24.1637211
  58.0320778 173.7988892  22.1896343  57.6198006 173.8786774  21.2710705
  58.4480896 172.4659882  22.6709919  58.0548248 172.4237366  23.6866970
  57.7723007 171.4255219  21.7300415  56.6929207 171.3691711  21.8709793
  58.0653648 171.5908508  20.6932774  58.4429703 169.8473053  22.2238503
  57.5415268 169.2140961  21.4679794  60.0109367 172.3560333  22.7480011
  60.5153656 171.8498688  23.7891178  60.7274971 172.9260406  21.7889614
  60.1980934 173.3262024  21.0275822  62.1642227 173.1441345  21.8767967
  62.6734352 172.1808472  21.8474522  62.7106094 173.9321442  20.6725998
  61.9962578 174.7300720  20.4698658  63.6510239 174.3753815  21.0000992
  62.8464050 173.1523590  19.3796005  63.7746391 172.5819702  19.3457451
  62.1142502 172.3475800  19.3133392  62.7652893 174.1027069  18.2007523
  63.5228653 175.0967712  18.1329918  61.8915329 173.7856445  17.3157196
  62.5902824 173.8232574  23.1695423  63.5234032 173.3055267  23.8225212
  61.9039383 174.8262177  23.6903419  61.0325699 175.0203857  23.2179832
  62.1871490 175.4972076  24.9349842  63.2650719 175.6378632  25.0150223
  61.5281258 176.9488983  24.9140263  60.4805946 176.8081970  24.6476021
  61.5343170 177.4005127  25.9060459  62.2419243 177.9586945  23.9619751
  62.3113594 177.4848938  22.9827881  61.4778633 179.2657166  23.8041515
  61.4427185 179.8648682  24.7140388  61.9217186 179.8763275  23.0178604
  60.4491234 179.0107117  23.5496540  63.6057739 178.3560791  24.4045525
  64.2347107 177.4726562  24.5145512  64.1067123 178.9617462  23.6493435
  63.5879288 178.8800812  25.3601665  61.7168999 174.7693329  26.1852436
  62.3351097 174.9093323  27.2211666  60.6866493 173.9167023  26.1019001
  60.1927299 173.9084015  25.2209511  60.1915436 172.9998474  27.1080647
  60.0206261 173.5350189  28.0421333  58.8207855 172.4513855  26.7056046
  58.1135902 173.2757568  26.6140556  58.8988953 171.8692932  25.7873611
  58.2441025 171.5238953  27.7424717  58.4261894 171.7108459  28.9466400
  57.4611816 170.6449890  27.3801212  61.1916122 171.8401794  27.4296169
  61.6623001 171.7089691  28.5374069  61.6800385 171.2213440  26.3614349
  61.3091431 171.4833374  25.4592762  62.8430290 170.3165436  26.3867092
  62.6337318 169.4499664  27.0138741  63.1606903 169.7671051  24.9664135
  63.3623238 170.5940552  24.2855377  64.3911133 168.8855896  25.0456696
  64.1988449 168.1057739  25.7825718  64.5843964 168.4866486  24.0498810
  65.2817307 169.4309082  25.3579750  61.9977036 168.8379059  24.4716816
  62.1290092 167.8529816  24.9197922  61.0246773 169.2687683  24.7076435
  61.8937721 168.6584320  22.9282379  62.8615685 168.2929077  22.5849152
  61.0999947 167.9716492  22.6343708  61.6545410 169.6443024  22.5296001
  64.0668411 171.0652771  26.9850368  64.6505051 170.5997314  27.9997501
  64.4988556 172.2310181  26.5501366  64.0619049 172.5940552  25.7150421
  65.6572571 172.9811707  27.1309433  66.5863266 172.4142456  27.0715637
  65.9030838 174.3013000  26.3188705  65.0592346 174.9876556  26.2485924
  66.6561966 174.8976135  26.8339806  66.4953384 173.9687653  24.9498577
  67.3934937 173.3541412  25.0103092  65.7626953 173.3065186  24.4885902
  66.7495270 175.3291779  23.7013988  67.2969971 174.4221802  22.2456436
  66.5380783 173.7433929  21.8565483  67.5597687 175.1377258  21.4665127
  68.2153549 173.8788757  22.4682465  65.4328384 173.4382172  28.5434017
  66.3176575 173.8578186  29.2696209  64.1966934 173.3870087  29.0814705
  63.3935127 173.1666870  28.5101089  63.9476509 173.7577209  30.4565754
  64.7116013 174.4740448  30.7588654  62.5801277 174.4847412  30.6261635
  61.7564926 174.0846100  30.0348759  62.3039131 174.3883820  31.6761723
  62.6370087 175.9917297  30.4136581  63.4011917 176.5929871  29.7474594
  61.7355080 176.6786957  31.0606117  61.8490295 177.6738129  30.9303856
  61.0054970 176.2036896  31.5720272  64.0219193 172.5485840  31.4261017
  64.5641403 172.5718536  32.5556793  63.5761070 171.4166870  30.9099274
  63.1532249 171.4915771  29.9957790  63.4574318 170.2079773  31.7776470
  63.2505455 170.5594177  32.7884827  62.1409225 169.4499207  31.3888950
  62.1950912 169.3016357  30.3103886  62.0995865 168.4305878  31.7727642
  60.8832321 170.2336273  31.7742157  60.9080811 170.3248596  32.8601074
  60.8977928 171.1994476  31.2691536  59.6362572 169.5180969  31.2677784
  59.6247292 169.3635712  30.1888485  59.5552025 168.5238953  31.7072182
  58.3924599 170.3563538  31.6571999  58.3039703 170.3466797  32.7435608
  58.6275444 171.3728180  31.3415508  57.1835861 169.8082886  31.0238552
  57.0013580 168.8518066  31.2922478  56.4025002 170.4404602  31.1257401
  57.3100357 169.8559875  30.0229378  64.7126160 169.2428741  31.7337646
  64.7811508 168.2058105  32.4127388  65.6529541 169.5401001  30.8627739
  65.4242401 170.3259125  30.2709160  66.8870926 168.8403168  30.5616951
  66.8116760 167.8085022  30.9048405  67.1739273 168.9945984  29.1048985
  66.3400192 168.6480103  28.4945107  67.4094543 170.0345154  28.8786354
  68.6360474 167.9962769  28.7660465  68.2331009 167.5719757  27.5650024
  68.0079727 169.4419403  31.4960003  68.1276321 170.6213837  31.6146851
  68.7743454 168.5846100  32.1549377  68.7095108 167.6053619  31.9162254
  69.9943085 168.8982239  32.8878632  70.4657898 169.8022461  32.5024147
  69.7786636 169.0932007  34.4162750  70.6971359 169.3183746  34.9583130
  68.7354965 170.1529999  34.6583061  67.7704163 169.6652679  34.5210800
  68.7774124 170.5269775  35.6812820  68.8560638 171.0121155  33.9983864
  69.1918030 167.9141235  34.9557495  69.0535202 168.0007477  35.9017792
  71.1056595 167.9171295  32.7936401  72.2685471 168.3396454  32.8088722
  70.7571640 166.6401825  32.6222801  69.8000565 166.4833984  32.9041748
  71.6980743 165.4876556  32.6947937  72.7322845 165.8276062  32.6406059
  71.6273346 164.9151764  34.1471443  71.8915863 165.6186523  34.9366951
  70.6268997 164.5035248  34.2804527  72.5944214 163.7926331  34.2698097
  73.0686111 163.8896027  35.0988693  71.5131760 164.4751892  31.4773521
  70.3976364 164.3075867  30.9836063  72.5886078 163.7637024  31.0621758
  73.4743195 163.9117126  31.5244617  72.4891663 162.7453766  30.0367088
  71.4426041 162.5173645  29.8346786  73.0734711 163.3252869  28.7083397
  74.0171890 163.7604523  29.0371590  73.3999023 162.5793915  27.9836483
  72.3319626 164.5132446  28.0565453  72.1114349 165.2676544  28.8117428
  73.0736465 165.2355194  26.9229145  73.3396606 164.6533203  26.0406590
  72.4565811 166.0673981  26.5833244  73.9734955 165.6114502  27.4097996
  70.9477386 164.0107880  27.5720406  70.3645706 163.5252686  28.3545246
  70.3680954 164.7421570  27.0088177  71.2427292 163.2368774  26.8634243
  73.2416077 161.4633942  30.4136524  74.4803467 161.3834229  30.4164715
  72.4455109 160.4877319  30.9142494  71.4786835 160.7512512  31.0403786
  72.9392929 159.2309418  31.4631577  73.8862000 159.3007507  31.9985046
  71.7921448 158.6958008  32.4121170  70.9494705 158.3721619  31.8011703
  72.1274185 157.7598877  32.8590584  71.5065384 159.8759155  33.7480545
  71.6370010 158.9532623  34.7054443  73.1699219 158.1499939  30.2738495
  73.0057907 158.4385071  29.0797195  73.4752121 156.9045105  30.5975170
  73.6504593 156.7230835  31.5755119  73.4632874 155.7340698  29.7241306
  73.5716400 156.1151428  28.7086754  74.6387711 154.8293762  30.0694733
  75.5437164 155.4042053  29.8726044  74.7700958 154.5550995  31.1161957
  74.5850372 153.4115143  28.8472328  75.9154968 153.3161469  28.7719383
  72.0389633 155.1456299  29.8055725  71.4930038 154.9643402  30.8970451
  71.4417572 154.7653046  28.6696301  72.0706100 154.8940277  27.8898392
  70.1098862 154.1954956  28.5166283  69.4030533 154.8685913  29.0018177
  69.7777328 154.1163025  27.0216599  70.0592194 155.0983734  26.6416664
  70.4406509 153.3921204  26.5481548  68.2671051 153.9476166  26.6730003
  67.8877487 153.2214203  27.3919067  67.8029022 154.9322968  26.7279587
  68.1136475 153.3948059  25.2320099  68.9601822 152.7446442  25.0111427
  67.2151184 152.7849121  25.1382980  67.9732590 154.4951172  24.1288586
  67.1435623 155.1107941  24.4762192  68.8792191 155.1010437  24.1431808
  67.7798996 153.9535370  22.7700901  66.9774628 153.3456421  22.6884365
  67.5419464 154.6828308  22.1131096  68.5678329 153.4687958  22.3647785
  69.9709015 152.7837067  29.1116695  68.9720764 152.4292603  29.7800713
  71.0262375 151.9466705  28.9454937  71.9040070 152.2492523  28.5479145
  70.9631958 150.5530853  29.4750614  69.9928665 150.1470490  29.1892529
  71.9599915 149.6878662  28.7400074  71.6755600 149.8253021  27.6967869
  72.9433365 150.1138916  28.9390793  71.8720322 148.1729126  29.0392456
  71.8877335 148.0038452  30.1159382  70.9264526 147.8084717  28.6378021
  73.0431671 147.3825684  28.3496113  74.1116943 147.9249115  27.9684505
  72.8643875 146.1054535  28.0662193  73.6292648 145.5839081  27.6624279
  72.0927734 145.5410767  28.3920898  71.0046539 150.5078888  30.9975281
  70.3613815 149.6684113  31.6726665  71.7297745 151.4160614  31.6195602
  72.4233475 151.8750305  31.0465012  71.7393799 151.6819763  33.1340332
  71.8595505 150.7675934  33.7150345  72.9641647 152.5838928  33.3819008
  72.7189789 153.6326447  33.2143250  73.1769485 152.4465637  34.4420738
  74.4225693 152.0828400  32.4446945  75.3668823 152.6196289  33.2225342
  70.4729385 152.4162140  33.6368294  70.1373596 152.2984467  34.8638802
  69.8259735 153.1784821  32.7178802  70.2982788 153.2156982  31.8258877
  68.9661407 154.3835907  32.9821281  68.8741226 154.8565979  32.0044250
  67.5489502 153.9426422  33.3691521  67.6082382 153.4433441  34.3362503
  66.8962021 154.8085632  33.4796791  66.9898987 153.0284729  32.3117981
  67.0568161 153.5146484  31.3385220  67.4719620 152.0509033  32.3203583
  65.5408783 152.5373993  32.6455612  65.0096512 152.5102997  33.7036057
  64.6888428 152.5024109  31.6256409  63.7792397 152.1361694  31.8676987
  65.0685349 152.5794220  30.6929016  69.5120468 155.4577179  33.9976196
  69.1835022 156.6333466  33.8026924  70.2933884 155.1215057  34.9846725
  70.3745880 154.1158447  35.0310822  70.5401154 155.9015045  36.2111168
  69.6846771 156.5695343  36.3114853  70.6487656 155.0037079  37.4839935
  70.7674866 155.6778412  38.3322525  69.7211075 154.4376984  37.5686646
  71.8227615 153.9738159  37.6120491  72.5323563 153.6550293  36.6421013
  71.9592056 153.4154205  38.7125435  71.8189468 156.7371216  36.1170120
  71.8628311 157.8881073  36.5808678  72.8293839 156.1607513  35.4728699
  72.7266388 155.1653595  35.3360176  74.1606903 156.6491241  35.5834274
  74.2791061 156.8808899  36.6418991  75.1242371 155.5330963  35.3787498
  74.8241272 155.0479126  34.4499664  76.5399857 156.1100464  35.2878342
  76.7083588 156.9165039  36.0015373  77.2492371 155.3200073  35.5346222
  76.7678528 156.4745941  34.2861977  75.1804428 154.4775238  36.3288956
  74.2620544 154.2395935  36.4756889  74.4922562 157.8116760  34.6674461
  74.5657959 157.6825562  33.4602242  74.9211121 158.9393463  35.2566185
  74.9481506 158.9035034  36.2656212  75.2104034 160.1947021  34.5988541
  74.4242477 160.5062561  33.9111061  75.3492813 161.2781830  35.6606598
  74.4047470 161.5639191  36.1235962  76.0657883 160.8756104  36.3766594
  75.9365616 162.6196747  35.1287003  76.9298325 162.4044037  34.7347717
  75.3636856 162.8479156  34.2299118  76.1089172 163.7503967  36.1375618
  76.6759338 163.4645233  37.2471581  75.7671051 164.9728546  35.8493614
  76.4905014 160.0513916  33.7503395  77.5644608 159.7967834  34.2268562
  76.3865433 160.4001007  32.4203186  75.5069427 160.6765442  32.0080261
  77.5348053 160.4149780  31.5260258  78.3522186 159.9253387  32.0553513
  77.2379227 159.5829468  30.2522354  76.1609116 159.4155579  30.2402992
  77.5361023 160.2011566  28.8747253  78.6024857 160.4051971  28.7783680
  77.1853333 159.5388794  28.0832481  77.0422897 161.1584625  28.7079258
  77.8446350 158.1646271  30.2790565  77.6023331 157.6063843  29.3747559
  78.9326706 158.1840820  30.2166004  77.3999939 157.2933350  31.5027905
  76.3552704 157.4534912  31.7692413  77.6615295 156.2648926  31.2537956
  78.0070038 157.5516968  32.3704872  78.0108795 161.8636169  31.3207207
  79.1962967 162.0566711  31.4388294  77.1082153 162.7942810  30.9664803
  76.1131134 162.6393127  30.8899345  77.4195480 164.2518921  30.8822994
  78.2026138 164.4820862  31.6047459  77.9762039 164.5551147  29.4385872
  78.8773727 163.9920044  29.1959057  76.8518982 164.4632721  28.3548222
  76.0884399 165.1906738  28.6306896  77.1946487 164.6936188  27.3460808
  76.3083572 163.5244904  28.4613876  78.3611832 165.9495697  29.4241924
  79.2835236 166.0045929  29.6847134  76.1883163 165.1666718  31.2422352
  75.0795288 164.6846771  31.4189854  76.4818954 166.4464569  31.4506683
  77.4248428 166.7203979  31.2142315  75.5256729 167.4992676  31.7628288
  74.5541534 167.0538788  31.9770489  75.9406128 168.2280579  33.0259705
  75.6676025 167.6056519  33.8781281  77.4456100 168.6428986  33.0709152
  77.4887772 169.2821045  32.1890717  77.6555176 169.1325684  34.0218468
  78.0949554 167.7709045  32.9928665  75.2662430 169.4429779  33.2210464
  74.4288254 169.2341614  33.6414490  75.2611465 168.4521332  30.6038094
  76.1182480 168.7076111  29.7557793  74.1045151 169.1179352  30.6449795
  73.3633041 168.8916779  31.2926826  73.7857666 170.2118835  29.7796879
  73.7888260 169.7596588  28.7879257  72.3635101 170.6668243  30.1730270
  71.6858902 169.8165588  30.0956802  72.3670731 170.7849426  31.2566051
  71.8483200 171.9130554  29.4717007  72.5506439 172.7124176  29.7080460
  71.8230972 171.7691803  28.3915310  70.4779510 172.3562927  29.9129581
  69.7904129 171.6793060  29.4059258  70.4001236 172.2396240  30.9938984
  70.2074509 173.7740479  29.4366798  71.1091919 174.3761292  29.5483227
  69.9233704 173.8001251  28.3846722  69.1188736 174.5176849  30.1653137
  69.2106018 174.6154938  31.1663742  69.0410767 175.4202423  29.7187080
  68.2006836 174.1005249  30.1105385  74.8359222 171.4000092  29.8891315
  75.0660858 172.1592560  28.9418449  75.5091629 171.5341949  31.0255642
  75.3215790 170.8268585  31.7216835  76.5569763 172.5791626  31.2534256
  76.2827301 173.5525970  30.8468323  76.6894684 172.7579956  32.7476044
  77.2081528 171.8948517  33.1647987  77.4200821 173.5255127  33.0030251
  75.4109573 173.0414581  33.5346222  74.7570038 174.0590668  33.2900734
  74.8535156 172.1999664  34.3571129  73.9583588 172.4925995  34.7220306
  75.2404938 171.2921753  34.5722466  77.8370514 172.3278503  30.3970184
  78.6621857 173.2349854  30.2472000  77.9691238 171.1627808  29.7646332
  77.2188721 170.4914093  29.8452263  79.1946640 170.7989349  28.9614201
  79.9241791 171.5995483  29.0836296  79.8943710 169.5402527  29.5769691
  79.1196671 168.7828369  29.6963825  80.7074280 169.1965942  28.9374790
  80.3795547 169.7714539  31.0115852  79.5520859 169.9584961  31.6959858
  80.8672104 168.8462524  31.3186436  81.4634705 170.8682098  31.2173061
  81.9755478 171.4308929  30.2159691  81.8081970 171.1189423  32.4059334
  78.8990173 170.6768036  27.4776592  79.7657242 170.3110657  26.6728153
  77.6538391 170.9023743  27.0589905  76.9648666 171.2527466  27.7091160
  77.2737656 170.8977814  25.6493568  77.7373199 170.0471039  25.1497746
  75.7139282 170.7577667  25.4732838  75.2607422 171.6288910  25.9464226
  75.3593292 170.8683624  24.0072994  75.9551697 170.1555481  23.4372425
  74.3041992 170.7230988  23.7755775  75.6407623 171.8373566  23.5950432
  75.1863327 169.4169464  26.0861664  75.6534958 168.5788879  25.5689449
  75.3768387 169.3962402  27.1591892  73.6311951 169.3892975  25.9007549
  73.3197403 169.1815186  24.8770714  73.1624527 168.5857544  26.4688377
  73.2010727 170.3258820  26.2555676  77.8213348 172.1794891  24.9835987
  77.7479858 173.3112793  25.5458031  78.4965515 171.9978333  23.8146954
  78.3256760 171.0991821  23.3865471  79.0430908 173.0825653  22.9843655
  78.3110962 173.8878174  23.0463943  80.4270401 173.5045166  23.4186134
  80.6023788 174.5585327  23.2031593  80.4398651 173.2780609  24.4847488
  81.5759659 172.6994476  22.8479137  81.7004700 171.3302765  23.1597328
  81.0199738 171.0348511  23.9446259  82.6134567 170.5040741  22.4582481
  82.7767334 169.4591980  22.6772614  83.3319626 171.0564728  21.4012260
  83.9433746 170.4643707  20.7364006  83.1369247 172.4059448  20.9969139
  83.7747192 172.8217163  20.2309132  82.3658829 173.2262878  21.8448715
  82.3048019 174.2736664  21.5885849  78.8583069 172.6744995  21.4909916
  78.6382370 171.5427856  21.1116276  78.9143982 173.7112885  20.6454945
  78.9825058 174.6006012  21.1194134  78.6222000 173.6219482  19.1798573
  78.0476837 172.7234802  18.9545021  77.6969604 174.7009735  18.8212376
  78.0310516 175.6655121  19.2035389  77.5888443 174.8127289  17.7423820
  76.4428482 174.3604431  19.3593826  75.8508682 175.1139526  19.3012276
  79.9498978 173.5618439  18.3793316  80.3763733 174.5888214  17.8392849
  80.5004349 172.3281250  18.2493534  80.1578293 171.5176086  18.7451286
  81.6444016 172.2060699  17.3570137  82.3557434 173.0232239  17.4768105
  82.3240356 170.8891144  17.7435474  82.3214417 170.7897186  18.8290043
  81.6434784 170.1031036  17.4162369  83.7360992 170.6142883  17.1685619
  83.7549896 170.6338043  16.0789013  84.8712082 171.5749512  17.6683273
  84.8126526 171.6873016  18.7509346  85.8449631 171.1867828  17.3696270
  84.8072815 172.6125641  17.3406429  84.2204132 169.1792908  17.4377918
  83.6068497 168.5288086  16.8144817  85.2744217 169.0700989  17.1823521
  84.1298752 168.8461304  18.4716797  81.2412338 172.1515045  15.8648462
  82.0514908 172.5637512  14.9951229  79.9606018 171.7797089  15.5925865
  79.3061676 171.6520691  16.3512230  79.4531784 171.9287567  14.2510767
  80.2205353 171.9833984  13.4788809  78.6016235 170.7373962  13.9320889
  79.2720795 169.8795929  13.8795786  77.8909683 170.6088562  14.7485218
  77.9934311 170.8423615  12.6543274  77.5651245 170.0436401  12.3377810
  78.7141571 173.2476959  14.0348606  78.1815109 173.8508911  14.9917097
  78.6305237 173.7101135  12.7604561  79.1319275 173.2251434  12.0300503
  77.7888184 174.8470612  12.3150244  77.8864594 175.7720795  12.8832741
  78.1256866 175.1812439  10.8557224  78.0882645 174.2625275  10.2703352
  77.2599640 175.6882935  10.4296789  79.2968903 176.1669159  10.6542950
  80.1985550 175.8003235  11.1449080  79.4934998 176.2340698   9.1154041
  78.5016327 176.3807373   8.6878700  80.1750336 177.0445251   8.8569746
  79.8528061 175.2762146   8.7392254  78.9709778 177.6045837  11.0974627
  78.9439926 177.6582489  12.1858063  79.8356781 178.1529999  10.7238092
  78.0177231 177.8884583  10.6515560  76.2534256 174.5210876  12.3931456
  75.4040756 175.4173889  12.3327379  75.9110489 173.2386017  12.6651716
  76.5887756 172.4922943  12.7268744  74.5057602 172.9580078  12.9206171
  73.9184494 173.4568176  12.1496706  74.2493134 171.5056763  12.6266088
  74.8482132 170.9278870  13.3305902  73.1850586 171.2764282  12.6804943
  74.7093201 171.0997009  10.9238863  74.7269974 169.7677002  11.0255890
  74.0759659 173.2919159  14.3121128  73.0107956 173.8532104  14.4992380
  74.9726181 173.1105804  15.3046980  75.8856888 172.7588043  15.0544014
  74.7440643 173.2823029  16.7563019  74.9674377 174.2532959  17.1982918
  73.6657867 173.2045288  16.8954830  75.5241547 172.2071533  17.5892563
  76.5404053 171.6789246  17.0984325  75.0741425 171.7750244  18.7745018
  73.8133392 172.1611328  19.3816814  73.0096588 172.4368591  18.6989059
  74.0040970 173.0997772  19.9019318  73.5459061 171.0124817  20.3194313
  73.2585754 170.0928345  19.8097210  72.8689194 171.3632202  21.0983906
  74.9222336 170.8270874  20.9258862  75.0549316 169.9368134  21.5406132
  75.2063141 171.7147827  21.4910412  75.8114090 170.8361816  19.6318722
  76.7907333 171.2847900  19.7985306  75.9290390 169.4154205  19.0202942
  76.7806854 168.5820465  19.3998337  75.1122894 168.9803619  18.0471592
  74.5003967 169.6847076  17.6604042  74.7823792 167.6100311  17.6154499
  75.5804672 166.9092865  17.8606091  73.5528564 167.1343231  18.2977581
  73.5260391 167.5475464  19.3060398  72.7059174 167.6479034  17.8427563
  73.2923279 165.6191711  18.4698410  73.6186981 165.1073303  17.5645218
  73.8655396 165.2061005  19.2998447  71.6601639 165.0760498  18.8977184
  70.8855286 164.9360046  17.3178310  71.4419479 164.1618652  16.7894211
  69.8021088 164.8164673  17.3216000  70.9998932 165.8947906  16.8121243
  74.6146164 167.4582825  16.1070938  74.0078506 168.3128204  15.4766417
  75.1099091 166.3721313  15.5230312  75.6717529 165.7513428  16.0878830
  75.0478439 166.1804047  14.0721292  74.0902863 166.5382996  13.6938257
  76.1452103 167.0911255  13.5129452  77.0671310 166.5485077  13.7220516
  76.1521759 167.1562347  12.4249134  76.1389389 168.0755005  13.9809780
  75.1390381 164.6639252  13.7721767  74.9693069 163.8119659  14.6514435
  75.3838501 164.3139801  12.5472975  75.7360153 165.0638580  11.9695663
  75.3482742 162.9557343  12.0514784  75.2694855 162.2668152  12.8924828
  73.9658813 162.7734528  11.2898226  73.9195633 163.4175262  10.4116726
  73.8762589 161.7739105  10.8644123  73.1051636 162.9483032  11.9353409
  76.4977417 162.6017456  11.0829754  76.7550507 163.3428650  10.1503057
  77.0147552 161.4034729  11.2366209  76.6408844 160.9010010  12.0289764
  78.2346725 160.8598480  10.6313858  78.5246582 161.3997345   9.7299852
  79.4588165 161.1947327  11.5669975  79.3267899 160.6522369  12.5031471
  80.3856201 160.8948364  11.0779028  79.5493469 162.6481018  11.9404058
  80.0596313 163.5816803  11.0463638  80.3629684 163.3186798  10.0437584
  80.2040405 164.8958893  11.4361439  80.5289154 165.6256256  10.7092848
  79.7718887 165.3470306  12.6918087  79.8188171 166.6429291  13.0442848
  79.9292908 167.2547760  12.3128138  79.1799622 164.4072266  13.5670691
  78.8034439 164.6323700  14.5539598  79.0677490 163.0585632  13.1655045
  78.6819077 162.3190002  13.8514977  78.2029190 159.3317261  10.3409805
  77.3267212 158.6557007  10.8286638  79.1789246 158.7154541   9.6285229
  79.9376678 159.2951660   9.2993574  79.1535339 157.2608643   9.2226915
  78.4733429 156.6502228   9.8164511  78.6094437 157.1099548   7.7924552
  78.8026123 156.0794525   7.4943533  77.1025772 157.3563538   7.6903882
  76.8268890 158.3724365   7.9726310  76.6186447 157.1302032   6.7402434
  76.6433105 156.5867920   8.3108330  79.2073669 158.0532227   6.7316170
  80.2330856 157.7976532   6.4657798  78.6614227 157.9101715   5.7991023
  79.0135040 159.0696869   7.0741754  80.5138397 156.5290985   9.3532391
  81.5303268 157.0111084   8.8405972  80.5435257 155.3238373   9.8849421
  79.7024918 154.9927368  10.3356304  81.6599655 154.4080811   9.8487606
  82.5517273 154.9779053  10.1098499  81.4874039 153.3099060  10.9717321
  82.4593277 152.8464966  11.1411762  81.1673889 153.7960052  11.8933601
  80.4615479 152.2424469  10.7875500  79.6853714 152.2189484   9.8367300
  80.5130920 151.3423004  11.7029181  79.9591293 150.4988403  11.6604519
  81.1353073 151.4293213  12.4937286  81.8656311 153.7790375   8.4225721
  80.9931183 153.9172363   7.5819383  82.9632416 152.9311981   8.2214060
  84.1777344 152.8393707   9.0910330  84.1034088 151.9800720   9.7574978
  84.4745026 153.7238464   9.6547174  85.3066330 152.3964996   8.1726685
  86.1436386 151.8988647   8.6624365  85.6639633 153.2427063   7.5858479
  84.5575104 151.4237061   7.2320056  84.4269028 150.4992218   7.7944899
  84.9366455 151.1827087   6.2388902  83.2250519 152.0812836   7.0535498
  83.3958664 152.8019714   6.2538428  82.0906296 151.1528015   6.5688143
  81.9731598 150.7334290   5.4135537  81.0953445 150.9111176   7.4566965
  81.3496094 151.1280212   8.4097977  79.9941254 149.9134827   7.2900305
  80.0794601 149.4938049   6.2876868  80.1601105 148.8488312   8.4241734
  79.6424026 149.2757568   9.2831316  79.6512604 147.9205170   8.1645279
  81.5684052 148.5504608   8.8670177  82.3878555 149.4190369   9.6216707
  83.4926529 148.7293854   9.9890852  84.3209534 149.0490570  10.6040058
  83.3979797 147.4831238   9.5253973  83.9675598 146.7373810   9.8989573
  82.1691666 147.3177338   8.8903131  81.7824783 146.4033661   8.4651051
  78.6715775 150.6379547   7.2256069  77.6732025 149.9756775   7.4585228
  78.6854324 151.9413300   6.9111714  79.5643539 152.4122162   6.7503486
  77.5194855 152.7227631   6.5642352  77.8859406 153.6804199   6.1944957
  76.9905396 152.2108612   5.7603240  76.5149078 153.0338745   7.7070508
  75.5976257 153.7848206   7.4920106  76.7428360 152.5683441   8.9405603
  77.5626755 152.0052948   9.1164284  75.8702164 152.8743286  10.1193428
  74.8479843 152.5488739   9.9263811  76.3713684 152.0374451  11.3086300
  76.6346588 151.0250854  11.0021944  77.2818756 152.5587921  11.6040564
  75.4954453 151.9353027  12.5749121  74.6151962 150.8404999  12.7288361
  74.8001404 149.9911194  12.0879374  73.6511993 150.7729034  13.7213669
  73.0271988 149.8949738  13.8004141  73.5545197 151.8871002  14.6361551
  72.7119675 151.8037567  15.7135868  72.1620102 151.0193329  15.6516676
  74.3997421 152.9691315  14.4381151  74.2825089 153.7735901  15.1490974
  75.4008484 153.0344696  13.4474840  76.1031647 153.8466339  13.3311529
  75.9087677 154.3791809  10.3793268  77.0082550 154.9317627  10.4923925
  74.7353897 155.0215454  10.4662228  73.9243927 154.4286041  10.3622904
  74.6584396 156.4418030  10.8675146  75.4579926 156.9412384  10.3203516
  73.4355240 157.1740265  10.4309101  72.5947723 156.6254578  10.8555479
  73.4027557 158.6270752  10.9854193  74.3139191 159.1597443  10.7130995
  72.6043549 159.2162170  10.5342379  73.2213516 158.5995026  12.0598650
  73.4290695 157.1072083   8.8289251  74.0333633 157.9358063   8.4596691
  73.8119431 156.2023621   8.3569555  72.0415192 157.2817383   8.3263540
  71.5957260 158.2210846   8.6534863  72.0475922 157.2556610   7.2366834
  71.3876190 156.4980774   8.7089624  74.9033432 156.4721680  12.3815517
  74.1381378 155.8938751  13.1309757  75.9640427 157.1516113  12.7662878
  76.6356964 157.5057678  12.1002789  76.0630569 157.6420746  14.1489506
  75.4614029 157.0236816  14.8150616  77.5313187 157.4523010  14.6358652
  78.1629486 157.8175354  13.8260736  77.7559967 157.9106903  15.5989332
  77.8330841 155.9928894  14.7328672  77.3766251 155.0961761  15.7166367
  77.9673538 153.9181519  15.4299917  77.7075272 152.9423828  15.8131104
  78.8015823 154.0540161  14.3853340  79.3639221 153.2962952  14.0251389
  78.7175217 155.3450317  13.9077988  79.3364182 155.8040924  13.1510687
  75.5550766 159.0997162  14.2780437  75.8271255 159.9069214  13.4182749
  74.7772446 159.3858185  15.2969675  74.5520172 158.6421967  15.9422445
  74.2487717 160.6849518  15.6603098  74.5822067 161.4315948  14.9395742
  72.7085114 160.9200134  15.8256426  72.3516922 160.2015228  16.5635853
  72.6164551 161.9118958  16.2681179  71.9754333 160.7902527  14.5251913
  72.5350647 161.2651215  13.7193308  71.8451004 159.7352600  14.2841082
  70.5354462 161.2635498  14.6649351  69.8578033 160.7584534  15.5522966
  70.0981064 162.1704254  13.9059534  75.0152206 161.0469818  16.9483929
  74.9272537 160.3199921  17.8870564  75.8709030 162.0723724  16.8864403
  75.8703232 162.7948914  16.1807098  76.9301834 162.2662811  17.8602600
  76.9043427 161.5604248  18.6904316  78.3144302 162.0300903  17.1947403
  79.0361481 161.8439331  17.9900913  78.3125763 160.8587952  16.2337551
  77.6827621 161.0643463  15.3681946  79.3096237 160.8132477  15.7956724
  77.9885941 159.9164886  16.6755505  78.7175598 163.0900574  16.4415359
  79.6100082 162.8024597  16.2355785  76.8225250 163.6536255  18.4400902
  76.4323349 164.6495209  17.8081417  77.0309677 163.7671051  19.7468758
  77.1853867 162.9467773  20.3154793  76.8567657 164.9651489  20.5624313
  76.3921356 165.7319794  19.9425945  75.8473587 164.6732330  21.7678146
  74.8317261 164.4862213  21.4190693  76.1441650 163.7897949  22.3331127
  75.6719131 165.9029083  22.7141552  76.6669998 166.2959442  22.9225388
  74.9290237 167.0982666  22.0738010  74.0195618 166.7794800  21.5645370
  74.6747894 167.9118958  22.7531166  75.5345917 167.5266113  21.2751122
  75.0229874 165.6098480  24.1126213  75.5205002 164.7718658  24.6008396
  74.9919357 166.4914703  24.7528439  74.0105896 165.2148438  24.0282173
  78.2333527 165.4208984  21.0444603  78.9072113 164.6363373  21.6770439
  78.6166534 166.6627197  20.7409420  78.0169144 167.2383118  20.1672630
  79.8557892 167.2646484  21.1235485  80.5268326 166.4346161  21.3445854
  80.3979034 168.1014862  19.9369011  81.3286591 168.5412292  20.2952595
  80.9475861 167.2399750  18.8202438  80.1246338 166.8456879  18.2240925
  81.5327682 167.9657440  18.2555237  81.5822296 166.4582214  19.2376022
  79.7102737 169.1517944  19.3039322  78.8634720 168.9159393  18.9180565
  79.7892532 168.0853882  22.5106144  78.9776154 169.0001373  22.7172813
  80.5980453 167.5732574  23.4282475  81.2494049 166.8336945  23.2071857
  80.6723557 168.0757446  24.8122864  80.3528671 169.1164246  24.7573128
  79.7863846 167.2423401  25.8238106  79.6746368 167.7460480  26.7839699
  78.3196716 167.0649719  25.4459877  78.1769714 166.5454712  24.4984379
  77.7363205 166.6487274  26.2672901  77.9588852 168.0468445  25.1396332
  80.3615417 165.8577423  26.0654640  81.4130325 165.8158875  26.3495693
  79.8067093 165.4783783  26.9235668  80.1529770 165.3237457  25.1384029
  82.1078415 168.1701355  25.3280773  82.9162216 167.3367004  24.9428806
  82.4359512 169.1044922  26.2444401  81.7665482 169.7116852  26.6953335
  83.8662033 169.2928314  26.6485748  84.5061646 169.1809998  25.7733364
  84.1418915 170.6424255  27.2560940  83.5291901 170.8204041  28.1398468
  85.1678467 170.6605225  27.6237831  84.0030518 171.8270874  26.3196125
  84.9951401 172.0963898  25.3246994  85.8196487 171.4030151  25.2483540
  84.8871384 173.2390137  24.4787388  85.6053162 173.4897919  23.7120972
  83.8561249 174.1457825  24.7640877  83.7489014 175.2743988  24.0447235
  84.2088852 175.1592255  23.2100086  82.8473206 173.8981323  25.7409592
  82.1204071 174.6765289  25.9200687  82.9382172 172.7368774  26.5561028
  82.1753998 172.4982147  27.2824268  84.2658615 168.2821655  27.6863651
  85.4664001 168.0526123  27.8294163  83.3337631 167.7137146  28.4624367
  82.3530884 167.9318695  28.3585625  83.6626587 166.7767334  29.5200539
  84.6408310 166.3520050  29.2944660  83.8421707 167.5663452  30.8537159
  84.5409546 168.3822479  30.6690273  82.9108658 168.0495911  31.1491070
  84.3720322 166.8202972  32.0313644  83.7477417 165.9647369  32.2889938
  85.3905029 166.5320892  31.7710686  84.5318604 167.8286133  33.2358475
  85.1571045 168.6769714  32.9575157  83.5735855 168.3480377  33.2397232
  84.8597870 167.0885773  34.5879974  84.6156464 167.7651978  35.4069481
  84.2211761 166.2056427  34.6145248  86.2959671 166.8328400  34.8327942
  86.8970413 167.5960083  34.5564117  86.4612961 166.6931000  35.8193245
  86.5966797 166.0524902  34.2664604  82.6503372 165.6346893  29.7286682
  81.4551849 165.8397675  29.5207138  83.0946503 164.4869080  30.1829491
  84.0969238 164.3811188  30.2489872  82.2868576 163.3145142  30.6381855
  81.2842712 163.6971588  30.8292427  82.2694473 162.2901154  29.4866333
  83.2636261 161.8910675  29.2854252  81.6546631 161.4135895  29.6911602
  81.7895279 162.7752533  28.6366825  82.7216263 162.7222290  31.9914551
  83.8812103 162.7160645  32.3828964  81.7444916 162.2336884  32.7438393
  80.8040161 162.3072510  32.3830185  81.8368301 161.7618713  34.1188431
  82.6478577 162.3677979  34.5228043  80.5824432 162.1896820  34.9162254
  79.6748886 161.7790680  34.4736786  80.6651077 161.7976074  35.9299088
  80.5120773 163.9954071  34.9765701  79.3073654 163.9866028  34.3990784
  82.2048798 160.3000031  34.2856598  83.2131882 160.1314392  34.9809341
  81.4388199 159.3731842  33.7472153  80.6739197 159.7099762  33.1801109
  81.5693741 157.9652710  33.9862633  82.4813690 157.8492889  34.5718575
  80.3327103 157.5315552  34.8340492  79.4111938 157.9297943  34.4094276
  80.2729263 156.4501648  34.9570274  80.4228668 158.1644592  36.2178955
  81.3674469 157.9211426  36.9598694  79.4732208 158.9634857  36.6212959
  79.5560226 159.4420776  37.5068474  78.7348633 159.2293549  35.9854927
  81.7067947 157.1606750  32.7224159  80.8883362 156.2180634  32.4347458
  82.8431549 157.3911591  31.9793568  83.4616470 158.1277924  32.2874870
  83.2174606 156.6199799  30.8660870  82.4883652 155.8395844  30.6481247
  83.3794174 157.5499115  29.6454659  83.9619827 158.4208527  29.9457569
  83.8747253 157.0557709  28.8096428  82.1088409 158.1582642  29.1142178
  81.5448990 158.6034851  29.9338837  82.3970490 159.1614990  28.0318813
  82.9327545 158.7142029  27.1945953  81.4522934 159.6129150  27.7289848
  83.1044159 159.9446259  28.3047180  81.1755295 157.1663971  28.3671303
  80.7283096 156.4159546  29.0190048  80.3264008 157.6974030  27.9368572
  81.6844254 156.5902557  27.5943604  84.5782089 155.9032440  31.1350117
  85.5438766 156.4943848  31.6545753  84.6766586 154.6173096  30.7035637
  83.8437500 154.3369751  30.2057915  85.9337692 153.9041901  30.4739304
  86.6662598 154.3650970  31.1365986  85.8710251 152.4162750  30.9573307
  84.9578323 151.9794617  30.5531254  86.6826172 151.8628540  30.4849377
  85.9436035 152.2426300  32.4797745  85.4887695 153.0422363  33.3072853
  86.6483231 151.2029877  32.9193954  86.7277298 151.1044617  33.9214363
  87.1049957 150.5242615  32.3270302  86.3966751 154.1664124  29.0113430
  85.6309052 154.6642914  28.1766853  87.6894150 153.8457642  28.7687550
  88.1281662 153.4345398  29.5802364  88.3230286 153.8437500  27.5012207
  87.6189651 154.1530457  26.7287350  89.5659332 154.7368164  27.4552040
  90.2840729 154.2181396  28.0902996  89.9333649 154.7434540  26.4290218
  89.4545746 156.1723480  28.0218639  89.1570282 156.0966492  29.0677299
  90.8234253 156.7782745  27.8992157  91.2824326 156.5763550  26.9314156
  90.8787766 157.8408661  28.1357327  91.4202271 156.2872772  28.6678810
  88.5240402 157.0624847  27.1864643  87.5069275 156.7010498  27.3379898
  88.6555405 158.1131287  27.4451733  88.8277817 157.0190430  26.1405411
  88.7873306 152.4300385  27.1780491  89.3417282 151.6997986  28.0257492
  88.5900879 152.0124207  25.9403248  88.0189514 152.5564423  25.3094997
  89.2686768 150.8476257  25.3284855  90.0850525 150.5176239  25.9709206
  88.3596497 149.6527100  25.2687378  88.8864594 148.7086792  25.1295319
  87.8836899 149.5667572  26.2455597  87.3593445 149.7831268  24.2573471
  86.5185471 149.4427948  24.5717106  89.9706650 151.1125793  24.0009174
  89.8901749 152.1676331  23.3985329  90.6593246 150.1323090  23.4136543
  90.5704727 149.2102509  23.8161526  91.4970169 150.2463989  22.2979984
  92.0129471 149.3310547  22.0080757  90.9747314 150.5176849  21.3805466
  92.5862427 151.3389282  22.4481354  93.1237564 151.5044556  23.5278530
  92.9132690 151.9988708  21.3467846  92.5295563 151.6837158  20.4672699
  93.9408340 153.0481567  21.3420963  93.9825211 153.5440369  22.3118763
  95.3376770 152.5162964  20.8084354  95.0925293 151.9448242  19.9132118
  95.9766312 153.3232574  20.4497585  96.1216507 151.5361633  21.7298126
  95.4225616 150.7178955  21.9024982  96.9794159 151.1025848  21.2156658
  96.5976639 152.2633820  22.9423332  97.2541275 153.0748901  22.6283169
  95.8151016 152.7994537  23.4792938  97.3558426 151.3196564  23.8162003
  98.3425674 151.5348511  23.8035603  96.8586502 150.2929382  24.4853268
  95.5694885 150.1049194  24.6600666  94.9665527 150.8401794  24.3195457
  95.2538376 149.1993408  24.9769306  97.6762772 149.4612122  24.9848251
  98.6479568 149.6150208  24.7561855  97.3511734 148.6195831  25.4387836
  93.4516754 154.1658783  20.3670502  92.6572495 153.8173981  19.4596653
  93.9365540 155.4343719  20.5267067  94.6775360 155.9937134  21.7168159
  95.7237930 155.7781219  21.5000935  94.4197617 155.5730591  22.6887703
  94.5718155 157.5361633  21.6080379  95.4437561 158.1090393  21.9236584
  93.6950912 157.8181305  22.1910954  94.2553864 157.7112122  20.0836296
  95.1735535 157.8113708  19.5048084  93.5768661 158.5605774  20.0044117
  93.5900192 156.4663391  19.6109352  92.5019836 156.5312500  19.6189766
  94.0422440 156.0950317  18.1632690  95.0489731 155.4497986  17.8924179
  93.1983109 156.4735260  17.2283096  92.2654266 156.7617188  17.4867039
  93.3206329 156.4379730  15.7689648  94.3642044 156.5474548  15.4738626
  92.7768631 155.0984955  15.2935925  93.2644272 154.3700714  15.9414997
  91.6891174 155.1131744  15.3621302  93.1379929 154.8718109  13.9437428
  92.8515015 153.9706421  13.7781372  92.5601120 157.6237183  15.1640062
  91.5207901 158.0917664  15.6766434  93.2169266 158.2080994  14.1185961
  94.1762848 157.9618073  13.9209270  92.6155472 159.2545319  13.2734556
  91.8336411 159.6780243  13.9038382  93.7045975 160.2934113  12.8128090
  93.2957458 160.9785004  12.0701208  94.3886032 161.1060791  13.8892107
  94.8976288 160.5305023  14.6623268  95.1276245 161.7767181  13.4508133
  93.6779938 161.7556458  14.4003019  94.6922073 159.5023956  12.1557436
  95.3134766 160.0828400  11.7099943  92.0009232 158.6400146  12.0289478
  91.2509308 159.3910828  11.3919973  92.1578369 157.3583221  11.7026644
  92.6804428 156.7984619  12.3611031  91.6221848 156.7021484  10.4990826
  92.0031052 157.2121887   9.6142788  92.0931854 155.1931152  10.4720087
  91.9212112 154.7502136  11.4530096  91.5113297 154.6041107   9.7630539
  93.6000137 155.1065979  10.1735439  94.1923599 155.7011261  10.8690672
  93.9968796 154.1553497  10.5281105  93.9135056 155.3758545   8.6468039
  93.9968185 156.5745544   8.2298965  94.1901093 154.4436646   7.8838024
  90.0923843 156.9026642  10.4013100  89.3905563 156.5834656  11.3977795
  89.6513519 157.4601593   9.2932281  90.2567062 157.4126434   8.4861450
  88.2628555 157.8676300   8.9707470  88.2929611 158.2960205   7.9689131
  87.3676910 156.6100464   8.8776903  88.0074997 155.7498322   8.6807909
  86.8787384 156.3495636   9.8163986  86.2378082 156.6382141   7.8882809
  84.9652023 156.1550446   8.1896715  84.1778183 156.2983398   7.1067252
  83.1232071 156.0768127   7.0351253  84.9709320 156.6157532   6.0548210
  84.5974808 156.8198853   5.1388707  86.2184830 156.8632660   6.5259581
  87.0634079 157.1359863   5.9110389  87.6248627 158.9277496   9.9866667
  86.4321823 159.1531830   9.8278837  88.3731918 159.5716858  10.8883734
  89.3604965 159.3710480  10.9596529  87.8145828 160.4770966  11.8706026
  87.1302490 159.9527130  12.5375433  88.9474792 161.0533905  12.7255697
  89.5091019 160.2207794  13.1491671  89.6193466 161.6604919  12.1188297
  88.3060913 161.8427734  13.7520723  88.9787216 162.2403259  14.3098526
  87.0306320 161.6619110  11.2221088  87.4997864 162.3894196  10.3271551
  85.8747177 161.8813171  11.8125057  85.7293701 161.3717651  12.6723557
  84.8563156 162.7587433  11.2665396  84.9203186 162.6057587  10.1892281
  83.4836655 162.2723236  11.8059511  83.5371857 162.4508972  12.8798914
  82.7305908 162.8993073  11.3285866  83.1058807 160.7892303  11.6394329
  83.4524307 159.9893341  10.6149616  83.9776917 160.4010925   9.7658720
  82.9331512 158.7459717  10.7820721  82.9875336 158.0369873  10.0647945
  82.3411713 158.6164551  11.9858646  81.7839432 157.5579529  12.6735344
  81.5534897 156.6386108  12.1557732  81.4005890 157.7159882  14.0187883
  81.0031738 156.8861542  14.5843248  81.6231232 158.9223785  14.7024508
  81.5119247 159.0052643  15.7735071  82.1460114 159.9902954  13.9582663
  82.3326263 160.9237213  14.4684620  82.4870377 159.8626404  12.6143208
  85.1505890 164.2321320  11.5294027  84.4654160 165.1217651  11.0570536
  86.1091003 164.5134583  12.3918419  86.6456985 163.7030945  12.6665478
  86.6675034 165.7812195  12.7660017  86.1543198 166.6296997  12.3134441
  86.4875641 165.9588623  14.2750959  87.0976105 165.3140869  14.9077110
  86.8524246 166.9353790  14.5935040  85.0413361 165.8423615  14.7071762
  84.1210175 166.8858032  14.4343081  84.4991150 167.8175201  14.0401602
  82.8255386 166.8040771  14.8959951  82.2004166 167.6701508  14.7362337
  82.3048172 165.6772156  15.5087223  81.2660522 165.5794830  15.7876968
  83.1989288 164.6168060  15.7331982  82.9244308 163.7237549  16.2749519
  84.5637817 164.7442780  15.3836079  85.2654800 163.9506683  15.5938540
  88.2033844 165.8446045  12.5308857  88.9903793 165.2122955  13.2426586
  88.6763992 166.6106110  11.5003567  87.8846207 167.2256317  10.5459747
  87.5782776 168.1995087  10.9278326  86.9944534 166.6288300  10.3471651
  88.6682281 167.3242493   9.2303581  88.2037735 168.1222534   8.6510639
  88.6764069 166.3483429   8.7449532  90.0597992 167.5740051   9.8283129
  90.2150269 168.6414795   9.9848976  90.7657013 167.1901093   9.0918226
  90.0594711 166.6608887  11.1016188  90.3322372 165.6617889  10.7617750
  90.9535141 167.2151489  12.1762962  90.6944809 168.2711487  12.8029480
  92.1423798 166.5932007  12.3616095  92.3711929 165.8412933  11.7272720
  93.0968933 166.9758911  13.3586483  94.0835342 166.5662689  13.1421623
  93.0866928 168.0622406  13.4471283  92.8393631 166.4401398  14.7655220
  93.5220566 166.8778076  15.6561880  91.8673477 165.5320587  14.9469500
  91.1994095 165.2746124  14.2344341  91.5393295 164.8112946  16.1582642
  92.3458481 164.9591827  16.8764286  90.2268753 165.3602905  16.8308563
  89.4566879 165.2450409  16.0682106  89.8372040 164.7184753  17.6209946
  90.2436905 166.8283844  17.2689896  90.6769180 167.1677094  18.5853596
  90.7837143 166.3701172  19.3056564  90.5659866 168.4761200  19.0176773
  90.8875961 168.6893768  20.0263882  90.1296158 169.5156555  18.1868591
  90.1812439 170.8033600  18.5586586  90.5680771 170.9287415  19.4282780
  89.6864395 169.1873627  16.9099407  89.4758987 170.0354919  16.2753124
  89.7229767 167.8552246  16.4538918  89.3587799 167.6158447  15.4657307
  91.4620972 163.3388672  15.8821087  90.7919922 162.8606873  14.9649858
  92.0399323 162.5344543  16.7821541  92.4998474 162.9059143  17.6010571
  91.9106293 161.0614166  16.9109669  91.6789169 160.6056366  15.9483204
  93.2199860 160.4720764  17.4449310  93.3891220 160.8630981  18.4482212
  93.0526581 159.4025116  17.5719643  94.0176010 160.7494812  16.7557545
  90.7258530 160.7381744  17.8172874  90.5437164 161.2878876  18.9102612
  89.8877716 159.8006744  17.3358288  90.0131760 159.4825134  16.3854885
  88.8915329 159.0533447  18.1140499  88.3811798 159.7624969  18.7657833
  87.7990952 158.5254822  17.2121773  87.0839539 157.9805908  17.8284264
  87.2579193 159.3507385  16.7493916  88.1768188 157.6136475  16.1044083
  88.3025513 157.8542480  14.7968369  88.2811050 158.8696289  14.4295006
  88.8067856 156.7726135  14.1318359  89.0672302 156.7433014  13.1564331
  88.9499512 155.6956024  14.9355497  89.4261780 154.3858337  14.6515198
  89.8355560 154.0692596  13.7035837  89.2205429 153.4657593  15.6861534
  89.5106735 152.4455109  15.4829054  88.6440811 153.8590851  16.9181290
  88.5622330 153.1426086  17.7220993  88.3215332 155.1898956  17.1709995
  87.9831009 155.4257660  18.1691093  88.4586182 156.1506653  16.1792240
  89.5176773 157.8928375  18.8778687  90.5472870 157.3437042  18.5384197
  88.9145279 157.6437988  20.0318317  88.3128281 158.3778839  20.3770313
  89.3384933 156.4819489  20.8671169  89.8432388 155.7638550  20.2208443
  90.3909225 156.8224487  21.8694572  91.1652298 157.4332581  21.4052944
  89.8749008 157.5349121  23.0987206  88.9908676 156.9845276  23.4206734
  90.6545639 157.4335632  23.8536758  89.5573044 158.5612640  22.9148254
  90.9195709 155.6446686  22.3349667  91.6247253 155.7703857  22.9741440
  88.0681000 155.7830505  21.3978844  87.1576080 156.4530945  21.8523064
  88.0305710 154.4479828  21.4857101  88.8979645 153.9450836  21.3639603
  86.7948990 153.6950226  21.8499889  86.0869293 154.2423553  21.2276535
  86.8212357 152.1717987  21.5790310  87.5794907 151.6567841  22.1688824
  85.4182739 151.6066589  21.9632874  84.6098251 152.2607117  21.6366100
  85.2120438 150.6192017  21.5503674  85.3849869 151.5689697  23.0521317
  87.3047333 151.8164368  20.1289310  86.8666687 152.3744659  19.3014069
  88.3530045 152.1087494  20.1905270  87.0987473 150.3139801  19.8205795
  86.0525742 150.1717834  19.5496311  87.6864090 150.0655060  18.9368286
  87.4466476 149.6572876  20.6179600  86.4545746 154.0108948  23.3424778
  87.3163452 153.8387299  24.2411995  85.2061234 154.4058075  23.6534672
  84.5764618 154.5350342  22.8744106  84.7035980 154.8426819  24.9399776
  85.4148636 154.4479370  25.6655025  84.6805267 156.3285217  24.9218216
  83.8298340 156.6261749  24.3087692  84.5916138 156.7259674  25.9328823
  85.5931244 156.7867737  24.5406780  83.3528137 154.0613708  25.2327385
  82.4625397 153.8880157  24.3975677  83.2544327 153.5984497  26.4961815
  83.8748016 153.9092865  27.2300911  82.2167816 152.7404327  27.0109634
  81.3664856 152.9314575  26.3562775  82.7027969 151.2813873  26.9832630
  83.7143784 151.1794586  27.3762131  82.1033401 150.6330719  27.6223469
  82.8352051 150.6141663  25.5668507  81.8393555 150.3913422  25.1837921
  83.2500000 151.2693329  24.8008175  83.6838684 149.3871307  25.6037140
  84.8573456 149.4070892  25.2133102  83.1944580 148.3212433  26.1762447
  83.7229385 147.4609070  26.2019157  82.2932205 148.3171692  26.6321545
  81.7702255 153.2432404  28.3319874  82.3858871 154.0678864  28.9916801
  80.6241455 152.6887054  28.8361740  80.1061172 152.0678253  28.2310009
  79.9078064 153.0851746  30.0486507  79.9642181 154.1465302  30.2904072
  78.3927841 152.7666779  29.8308239  77.9933701 153.3983307  29.0373688
  78.2677383 151.7111359  29.5893326  77.6263428 153.0441742  31.4420280
  76.6715775 152.1115265  31.5008965  80.5714798 152.3787079  31.2730503
  80.6602402 151.1707001  31.3139629  80.8692856 153.0703735  32.3824692
  80.8050079 154.0661316  32.2261658  81.6521225 152.6000366  33.5563583
  82.6148376 152.2367401  33.1967773  82.0316849 153.7980194  34.3653259
  82.6062927 154.4875946  33.7469254  81.1207275 154.3336029  34.6325607
  82.7863159 153.4941864  35.6364365  82.1687393 152.9431152  36.3456688
  83.6262283 152.8117371  35.5063286  83.3646698 154.7909698  36.1944237
  82.5902176 155.5536957  36.2755089  83.7750320 154.5799866  37.1819382
  84.4109344 155.3607178  35.3178558  84.9203796 154.7010498  34.7474098
  85.0123367 156.5659485  35.4401360  84.8741837 157.4480743  36.4200935
  84.2788239 157.1791992  37.1903877  85.3641663 158.3309021  36.3949814
  85.8246689 157.0226593  34.4918518  85.9936676 156.5383911  33.6217880
  86.3052139 157.9085693  34.5577660  80.9644241 151.4713440  34.3232956
  81.6086349 150.5609894  34.7975121  79.5752716 151.4309082  34.3479004
  79.0802155 152.1619568  33.8573990  78.7656937 150.3680115  35.0129051
  79.3988647 150.0138550  35.8263931  77.5020676 150.9716644  35.5908318
  76.8077316 151.2906799  34.8134995  76.7096710 149.9254150  36.3161736
  77.2227325 149.3101807  37.0553322  75.8658752 150.4698792  36.7400284
  76.1663971 149.2286224  35.6778717  77.8880310 152.1787872  36.4888000
  78.2971573 153.0098572  35.9143066  76.9316711 152.5416718  36.8653564
  78.8242493 151.8804016  37.6196671  79.8337784 152.0529633  37.2466049
  78.7620468 152.5613403  38.4685173  78.7362747 150.8295898  37.8956337
  78.4780502 149.1664581  34.0777550  78.6149597 148.0095367  34.4536285
  77.9687958 149.4086914  32.8867416  77.9224396 150.3837891  32.6276245
  77.3606186 148.4028473  31.9902096  77.2183914 147.4945984  32.5758324
  75.9587784 148.8862152  31.6174011  75.3917236 148.0277863  31.2573414
  75.4985352 149.3108978  32.5095482  76.0915985 150.1116943  30.2970581
  74.7746201 150.2665253  30.1342506  78.1891861 147.9078979  30.7804508
  77.8037415 146.9050903  30.1680717  79.3327866 148.4798889  30.4981861
  79.6840057 149.2090149  31.1024246  80.2044373 148.0832672  29.3604565
  81.1878433 148.4725494  29.6240368  80.3408813 147.0149536  29.1926441
  79.6953812 148.5820312  27.9685383  80.3845215 148.3055420  27.0139446
  78.5614471 149.2691345  27.8263626  77.9422760 149.2813721  28.6242237
  77.9161682 149.6828308  26.4701328  77.9225311 148.7794342  25.8602505
  76.5118179 150.2466431  26.6853962  75.9746399 149.5469971  27.3257294
  76.5629730 151.1648712  27.2705002  75.8126144 150.4003906  25.3397369
  75.8461990 149.5694427  24.4612179  75.2221298 151.5159302  25.2131634
  74.8236847 151.6967926  24.3028736  75.3716965 152.2485809  25.8921013
  78.7920609 150.7330780  25.8579731  79.2964859 151.6002350  26.5579433
  79.0120010 150.6691895  24.5468140  78.6055908 149.8931427  24.0441151
  79.6231842 151.6845856  23.7397346  80.6539841 151.9222565  24.0025368
  79.7702332 151.2604523  22.2952595  80.4490128 150.4078522  22.2743988
  78.8222504 150.8977356  21.8979530  80.3376694 152.2426605  21.2904625
  79.6121063 152.7971039  20.2090149  80.3800812 153.7579803  19.7303886
  80.1120758 154.3949738  18.9004383  81.6267700 153.8032074  20.3319149
  82.3686600 154.4757996  20.2003994  81.5910721 152.8503571  21.3295231
  82.3969574 152.7939453  22.0463009  78.8012390 152.9900055  23.8954277
  77.5890274 152.9724121  23.7989445  79.4825974 154.1450195  24.0965748
  80.4883499 154.0621033  24.0554543  78.8849869 155.4826965  24.3293171
  77.8059235 155.3746643  24.2195740  79.1930161 155.9608765  25.6919079
  80.2516632 156.1707153  25.8446846  78.7115250 156.9213562  25.8756371
  78.7383194 155.0069580  26.7647896  79.2554626 154.0562439  26.8944225
  78.9275360 155.5370026  27.6982498  76.9848480 154.5088196  26.6992836
  76.0320740 156.0581970  26.8074131  76.1399307 156.7081757  25.9390907
  74.9741745 155.8198547  26.9176369  76.4170227 156.5388947  27.7067719
  79.3880768 156.5528412  23.2982121  79.0992813 157.7477112  23.4480076
  80.0680771 156.1318207  22.2880096  80.2574463 155.1407471  22.2433548
  80.8302536 156.9383087  21.3055058  80.6578903 156.6748962  20.2619514
  80.4333725 157.9517975  21.3638859  82.3297424 156.9527130  21.6278820
  82.9342422 155.9065094  21.9108505  82.9442825 158.1489868  21.5279045
  82.3712769 158.9609833  21.3478584  84.3634338 158.3027344  21.4259529
  84.9024353 157.4453888  21.8291073  84.7959366 158.3264771  19.9327621
  84.5405807 159.2982330  19.5101471  85.8704681 158.1714478  19.8355808
  84.1089859 157.4324341  18.9859047  84.6543884 156.2817230  18.5474224
  85.6287689 155.8404846  18.6967201  83.7859650 155.6180878  17.7161255
  84.0002670 154.7407074  17.2640266  82.5748978 156.2455902  17.7662983
  81.3486938 155.9062347  17.1749268  81.2960739 154.9140625  16.7515774
  80.2636719 156.8054962  17.2537975  79.2596512 156.5697174  16.9332485
  80.4953232 158.0537415  17.8598881  79.6729050 158.7533264  17.8845978
  81.7373505 158.4446259  18.4071960  81.8452530 159.3990479  18.9009743
  82.8113785 157.5487823  18.3355160  84.8186417 159.4998474  22.2381248
  84.1806030 160.5995483  22.1634007  86.0024872 159.3473969  22.8229256
  86.4924622 158.4643707  22.8059959  86.8267288 160.4880066  23.3604832
  86.1825027 161.3015594  23.6939335  87.5583191 159.9665070  24.5885906
  86.8946304 159.8381958  25.4436665  87.9656448 158.9813690  24.3612232
  88.6658020 160.9831085  25.1017685  89.4563980 161.1402283  24.3680286
  88.0819855 161.8472748  25.4187279  89.3704605 160.5068207  26.4205360
  88.6224442 160.3735352  27.2020798  90.0079880 159.6364746  26.2651024
  90.2463531 161.6675110  26.8920326  91.0738373 161.7872620  26.1927261
  89.6718140 162.5911255  26.8217354  90.8017883 161.4934998  28.2218056
  91.4022675 160.6842041  28.2894783  91.5253830 162.1534271  28.4688110
  90.1414185 161.5806580  28.9810257  87.7341461 160.9023285  22.2082043
  88.3669968 160.0370178  21.5667362  87.8011551 162.1754913  21.9610004
  87.2022781 162.7966919  22.4859276  88.6277313 162.9133606  21.0199490
  89.0730896 162.1253052  20.4127235  87.6816101 163.8218536  20.1289196
  87.0993347 164.4599915  20.7936344  88.3699188 164.3839264  19.4977360
  86.8268814 163.0257111  19.2038250  87.4326248 162.7354584  17.9552269
  88.4559555 162.9668121  17.6989727  86.6061325 162.1401978  16.9520073
  86.9929733 161.9583130  15.9602051  85.3010406 161.6666718  17.2698803
  84.6374664 161.2791443  16.5110035  84.7692566 161.8099823  18.5664845
  83.7976913 161.3841400  18.7692490  85.5205765 162.6019287  19.4617157
  85.0868225 162.8751526  20.4122982  89.8011322 163.6956940  21.6234264
  89.5865707 164.6432037  22.3759880  90.9811935 163.4964447  21.0813694
  91.0686646 162.6723175  20.5040932  92.1940918 164.2726898  21.4395027
  91.8171310 165.2033691  21.8635979  93.0550537 163.5825195  22.5012894
  93.9408569 164.1715546  22.7389393  92.2795486 163.3999023  23.7591572
  91.3622818 162.9055328  23.4392948  92.8712082 162.7291565  24.3821716
  91.9962006 164.3510742  24.2097912  93.5058289 162.3349915  22.0415630
  94.2040024 162.4658203  21.3957691  93.0258865 164.7284393  20.2674828
  93.1694031 164.0219727  19.3048687  93.4895401 165.9822693  20.2964573
  93.3574066 166.5847321  21.0962582  94.0783691 166.6752167  19.1520596
  93.4193726 166.5243835  18.2970333  94.2619019 168.2002869  19.4977760
  94.9073410 168.3264618  20.3670177  94.6685181 168.7347717  18.6392326
  93.3106766 168.7078705  19.6578407  95.5012741 166.1351318  18.8522587
  96.2862091 165.8980713  19.7692127  95.9283600 165.9746094  17.6072960
  95.3480835 166.2597656  16.8313675  97.2798843 165.6031952  17.1447811
  97.7137527 164.8917236  17.8473949  97.1703491 164.9753723  15.7309999
  98.1416321 164.6842804  15.3310385  96.3832703 163.6338959  15.7612514
  95.5367508 163.6317444  16.4479046  96.0463257 163.3882446  14.7541666
  97.1288757 162.9026184  16.0733566  96.6541672 165.8855591  14.8348551
  97.3268127 166.3072357  14.2951155  98.2680817 166.7561035  17.1171360
  99.4870911 166.5404358  17.1309814  97.7755127 168.0186768  17.0221996
  96.7794037 168.1667023  16.9450359  98.5821228 169.3014984  17.0141125
  99.6511459 169.0889282  17.0037994  98.2799072 170.1087952  15.7593498
  97.2090988 170.0909271  15.5565157  98.6156006 171.1401062  15.8679466
  99.0393219 169.5232086  14.5719032 100.0848236 169.3737793  14.8415451
  98.6610565 168.5158691  14.3978453  98.9291306 170.2458954  13.2299938
  99.2132416 171.2855988  13.3924580  99.4854126 169.7228394  12.4521341
  97.4591293 170.2491913  12.8361731  97.1231766 169.2131042  12.7942266
  96.9609909 170.7877350  13.6423588  97.1791840 170.9321747  11.5216188
  97.6354218 170.4779968  10.7433662  96.1855774 170.8665924  11.3526640
  97.4394379 171.9079895  11.5339870  98.3187027 170.1106720  18.2540665
  97.1275253 170.4185486  18.4703465  99.3634109 170.5033264  18.9962940
 100.2390823 170.2171783  18.5822678  99.4161758 171.1736298  20.2777653
  98.9739685 170.4812775  20.9941406 100.8993530 171.3218689  20.6634235
 101.0994110 171.5151978  21.7173252 101.4958267 170.4387360  20.4345570
 101.6468124 172.5263062  19.9997864 101.6948547 172.3753357  18.9213581
 101.2356796 173.4740295  20.3474884 103.1953659 172.5417023  20.3880062
 103.2081833 172.5034485  21.4772606 103.5953064 171.6483612  19.9083176
 103.8425293 173.8423157  19.8373737 103.2663956 174.7142487  20.1470528
 104.8201523 173.8815460  20.3178101 103.9449081 173.9353943  18.3701038
 103.0229645 173.9204559  17.9579163 104.3535385 174.8164520  18.0928555
 104.4843445 173.1835022  17.9654255  98.7388840 172.5657654  20.3361149
  98.4627609 173.0455017  21.4359417  98.5633926 173.2783508  19.2387257
  98.9811020 172.8849335  18.4075527  97.9715347 174.6402588  19.1648827
  98.0981064 175.1346436  20.1280384  98.8243179 175.4732666  18.1695175
  98.3480606 176.3942871  17.8333588  99.7742615 175.7234039  18.6418915
  99.2367783 174.6939392  16.9196644  98.3525772 174.3658142  16.1095753
 100.4718399 174.5389099  16.7379608  96.5020752 174.6384125  18.8792439
  95.8422699 175.7078094  18.9737358  95.9502792 173.4861755  18.4783020
  96.4658279 172.6205444  18.4076939  94.5011139 173.4024353  18.3845444
  94.2768860 174.2087250  17.6861897  93.9940033 172.0923157  17.8428116
  94.3706818 171.2277222  18.3893452  92.9065475 172.0842133  17.9168015
  94.4269180 172.0338287  16.3290462  94.0079117 172.8692474  15.7681532
  95.5129013 172.1271362  16.3233299  94.0782242 170.5848999  15.3002167
  92.2783966 170.5863647  15.2613106  92.0674362 171.2139130  14.3954182
  91.8282013 169.6189880  15.0385284  91.9625320 170.9979553  16.2199154
  93.7350006 173.6260529  19.7059479  94.2800522 173.2215881  20.7424030
  92.5420609 174.2046661  19.5866928  92.1876831 174.4650269  18.6774445
  91.6367569 174.4255524  20.7248955  91.9517746 173.6764679  21.4513435
  91.8940582 175.8354187  21.3872166  92.9575424 175.9911652  21.5684414
  91.7077103 176.6833801  20.7281723  91.1373291 175.9727631  22.5735626
  91.3045731 176.8173218  22.9982376  90.1494141 174.1525726  20.3913212
  89.6763077 174.6058807  19.3280411  89.4191589 173.3911743  21.1947479
  88.0156326 172.9426575  20.8952866  87.9720154 172.4834290  19.9077053
  87.3322525 173.7887268  20.9678574  87.5314331 171.9296570  21.9771976
  87.7926407 170.9433594  21.5936890  86.4552460 171.9939423  22.1377907
  88.5046539 172.3210754  23.1292400  88.7529373 171.5675964  23.8767262
  88.0354919 173.1504974  23.6584511  89.8101196 172.8006287  22.4931831
  90.2603683 173.5835876  23.1033878  90.8699112 171.6823730  22.3914070
  90.9993362 171.1365814  21.2634602  91.6048355 171.3230133  23.4397755
  91.5025330 171.8147888  24.3160076  92.6311493 170.1441040  23.4123573
  93.2484818 170.3847351  22.5468483  93.4077148 170.2399750  24.7248764
  93.8588943 171.2321930  24.7194176  92.6753159 170.1684875  25.5289803
  94.6099777 169.3708496  24.9714813  95.0368347 169.8350525  25.8605309
  94.2517090 168.3430786  25.0299072  95.7172089 169.3926544  23.9454231
  95.5797501 169.8135529  22.7545872  96.8801422 168.9807281  24.3367634
  97.6105652 169.0557556  23.6432552  96.9713135 168.5088806  25.2251091
  91.9786148 168.7384338  23.3183613  92.5252991 167.8309784  22.6839447
  90.8424301 168.5974731  24.0029182  90.4769363 169.4377594  24.4276848
  90.0488129 167.3804779  24.1596832  90.1729202 166.7322845  23.2921944
  90.4767761 166.5609741  25.4027328  89.9907990 165.5853271  25.4086990
  91.5568237 166.4396515  25.3197536  90.1772995 167.3236847  26.6500378
  90.2997360 168.4064941  26.6249561  89.1281204 167.1212006  26.8652706
  91.0039597 166.6800537  27.8573494  90.4062881 166.8050079  28.7602787
  91.2635117 165.6291351  27.7296753  92.2968445 167.4660034  28.0460682
  93.0230484 167.2405853  27.2650909  92.0520935 168.5262451  27.9822426
  93.1171951 167.1552582  29.3101406  93.4491653 166.2036591  29.3761139
  93.8475342 167.8497925  29.3760300  92.5965881 167.4497223  30.1239948
  88.5847702 167.7256622  24.0325279  88.1960831 168.8547058  24.3891869
  87.7590256 166.8426361  23.5017357  88.1282196 165.9842987  23.1182537
  86.2834320 166.8051605  23.6394272  85.9557495 167.1499176  24.6201782
  85.5947266 167.7501221  22.5595360  84.5823746 167.9951172  22.8808098
  86.0291138 168.7498169  22.5552368  85.5959396 167.2459259  21.1197815
  86.7417908 167.4012909  20.3079376  87.4882812 168.0667877  20.7157154
  86.8660355 166.8297729  19.0350857  87.7352524 166.7994385  18.3948097
  85.7887573 166.0878143  18.6053543  85.8337021 165.6404572  17.6233826
  84.5717239 166.0192719  19.2963181  83.7573318 165.4301910  18.9011593
  84.4802551 166.5555878  20.5969601  83.5834122 166.5048981  21.1965446
  85.7402649 165.3515015  23.6137753  86.5269470 164.4229279  23.3778515
  84.4431305 165.1349182  23.6839771  83.8500443 165.9477844  23.7712555
  83.7852325 163.8095551  23.6729908  84.4646378 163.0595703  23.2679653
  83.3228149 163.2908630  25.0515594  82.4459915 163.8885651  25.3006554
  83.0302048 162.2458038  24.9498997  84.3124695 163.3132324  26.1619892
  84.7570190 164.4827271  26.6714001  84.4833908 165.4918976  26.4009953
  85.6603394 164.3077087  27.7272186  86.1458359 165.0336609  28.2345543
  85.8781052 162.9278870  27.8847275  86.6117554 162.1744843  28.7694149
  87.1924515 162.6274261  29.5593796  86.5552292 160.7604218  28.7797756
  87.0501404 160.2050629  29.5627422  85.7666092 160.1107788  27.8236465
  85.7084351 159.0332794  27.7788429  85.0877914 160.8994598  26.8576946
  84.5352325 160.3442383  26.1141872  85.1022263 162.3208771  26.8574734
  82.5812988 163.8945618  22.6616402  81.8521500 164.8997040  22.6725426
  82.5899734 162.9327698  21.7669697  83.2079010 162.1424408  21.8838024
  81.6700974 162.7721863  20.7555923  81.0501404 163.6481934  20.5649242
  82.2363815 162.6421204  19.8333626  80.7913895 161.5478516  20.9534454
  81.2096329 160.3966980  20.8701744  79.6395416 161.8471069  21.6148357
  79.5243988 162.8268280  21.8316231  78.7341690 160.9047241  22.2795048
  79.3572769 160.0209656  22.4166622  78.3542938 161.4253693  23.7003288
  77.6854248 162.2847900  23.6543541  77.8436966 160.5968170  24.1911316
  79.5468674 161.7558594  24.6792316  80.2175598 162.4323273  24.1494541
  79.0406647 162.3443604  26.0496807  78.3881073 161.6178284  26.5338593
  79.8968124 162.5851746  26.6798553  78.4344559 163.1958008  25.7403774
  80.4023132 160.5313110  25.0346260  80.6400452 159.9360046  24.1530380
  81.3579941 160.7973175  25.4863205  79.8236084 159.9188690  25.7260933
  77.4953842 160.4434204  21.4840603  76.7680817 161.3433685  21.0142441
  77.1438370 159.1774139  21.3590260  77.6353683 158.5241699  21.9521313
  76.0207214 158.6497955  20.5425873  76.0215530 159.1012421  19.5504780
  76.2286606 157.1462250  20.1188374  75.2737045 156.9099884  19.6494083
  77.4357452 156.9772034  19.1594582  78.3475723 157.3332520  19.6389370
  77.5546494 155.9055176  18.9998875  77.3012924 157.5799255  18.2612648
  76.4968719 156.3573914  21.1979618  75.6859894 156.2910767  21.7075367
  74.6786880 158.8533783  21.2047405  74.3427505 158.2433319  22.2384148
  73.8582916 159.6827698  20.5240173  74.2439194 159.9913940  19.6430225
  72.5672989 160.1125183  21.0814838  72.8191986 160.4334717  22.0922508
  72.1780319 161.4250641  20.3652439  71.4963837 161.9336395  21.0470142
  73.0733032 162.0400543  20.2736816  71.5526428 161.1720123  18.9859753
  72.2796631 161.6426086  18.3241005  71.4450302 160.1077881  18.7762775
  70.1826553 161.8368530  18.7749252  70.2358475 162.8714752  19.1138039
  70.0507507 161.9434814  17.6982021  69.1359024 161.0428314  19.4594688
  69.0985641 161.1000519  20.4671535  68.3708878 160.1201630  18.8376312
  68.4777451 159.6364899  17.6260643  69.1942291 160.0468903  17.0444012
  67.6312332 159.2230072  17.2619991  67.3544846 159.6711273  19.4983025
  67.1371613 160.1360931  20.3681831  66.6939774 159.1097870  18.9799194
  71.4596939 159.0374908  21.2076950  70.4828491 159.1897278  21.8658600
  71.6897659 157.9179230  20.4841042  72.4358521 157.9635315  19.8048496
  70.9969177 156.6582947  20.5183468  69.9470444 156.9287567  20.4055786
  71.3037567 155.8404999  19.2232113  70.9249420 154.8189697  19.2557507
  70.8607025 156.3032837  18.3413734  72.7237091 155.8468781  19.0988884
  72.9819260 155.1572571  18.4829826  71.2589569 155.7944183  21.7439346
  70.3701324 154.9759674  22.0206165  72.3197021 156.0312042  22.5172100
  73.0694885 156.6100769  22.1667233  72.6417770 155.3346405  23.7666645
  71.9443893 154.4992371  23.8288498  74.1330185 154.8027802  23.6396313
  74.7932510 155.6662598  23.5583801  74.4075165 154.2783966  24.5549374
  74.2857513 154.2025299  22.7426987  72.4269257 156.2237244  25.0372353
  72.5542679 155.7416077  26.1728420  72.1426086 157.5167999  24.9024162
  72.1057053 157.8399353  23.9462128  71.8350906 158.4974213  25.9176884
  72.3786774 158.1253204  26.7861099  72.2893372 159.9753876  25.4996281
  71.7807846 160.2374420  24.5718365  72.0544281 160.6522675  26.3210678
  73.7882004 160.1894989  25.2714443  74.1347122 159.3869476  24.6203270
  74.0304184 161.5419464  24.5399685  73.8281784 162.3990631  25.1822796
  75.0219803 161.6806183  24.1090698  73.3206863 161.5436401  23.7126999
  74.6562271 160.1633606  26.5084457  74.4672699 159.2146759  27.0108356
  75.7007904 160.1751556  26.1972351  74.4055710 160.9057312  27.2661686
  70.4019470 158.4744568  26.4933300  69.4770584 158.1357880  25.7625637
  70.2240829 158.8294067  27.8119164  70.9973755 159.0603790  28.4191780
  68.8765182 159.0012665  28.4729595  68.0932846 158.9902191  27.7149906
  68.5405121 157.8057861  29.3674240  68.7415848 156.8492889  28.8849468
  69.2133789 157.7350922  30.2220325  67.1404724 157.9831390  29.8515930
  67.0658951 158.8904877  30.4509506  66.0215759 157.7652893  28.7742901
  66.3974609 156.9032440  28.2232189  65.0615692 157.4944763  29.2137756
  65.8792419 158.6351624  28.1330738  66.9228745 156.8613129  30.8882465
  67.5728989 157.0454254  31.7436275  65.8637848 156.8829956  31.1450787
  67.1138000 155.8479614  30.5350380  68.8001175 160.2675781  29.2903557
  69.3916245 160.3475189  30.3967896  67.9545441 161.3222809  28.9417477
  67.3739014 161.5272522  27.6069908  66.2954330 161.3734589  27.5700970
  67.8834152 160.9165192  26.8616734  67.5763779 163.0270691  27.3412209
  66.8913269 163.3766022  26.5687962  68.6145554 163.2335358  27.0811157
  67.2876511 163.6780701  28.6727905  66.2014694 163.7552948  28.7213249
  67.7319183 164.6612701  28.8278542  67.7642822 162.6180267  29.6470833
  68.7142410 162.9710388  30.0484085  66.8440933 162.3608856  30.8402786
  65.7533112 162.9229584  30.9568729  67.3060684 161.5811310  31.7743702
  68.2061768 161.1292419  31.6988525  66.7216644 161.4652405  33.0739899
  65.6458588 161.3606110  32.9332924  67.2842331 160.2164459  33.8299828
  67.0466003 159.3379822  33.2300415  68.3548508 160.3688354  33.9665756
  66.6391830 160.0197296  35.2876167  67.0694427 160.7176819  36.0058441
  65.5708923 160.2295532  35.2343445  66.9593887 158.6221619  35.7136307
  67.9745560 158.3586731  35.4168053  66.9555817 158.6614532  36.8029137
  66.0207977 157.5784149  35.1518669  65.8015976 157.6268158  34.1671295
  65.5899353 156.5366058  35.7631950  65.9049301 156.2607727  37.0017891
  66.5750656 156.8157654  37.5146217  65.4903641 155.4720001  37.4772606
  64.7644806 155.7263336  35.1458015  64.4032516 156.0266724  34.2517090
  64.2524948 155.0858917  35.7355576  66.9704208 162.7284088  33.8570824
  65.9858170 163.1015472  34.5059090  68.0685654 163.2711639  33.9379654
