Cpptraj Generated Restart                                                       
   37  4.0000001E-01
  84.1326294 151.1734009  14.4947624  85.3250885 151.9046478  14.5555439
  83.3580246 152.3122864  14.2823982  85.7808685 153.1510315  14.4230356
  83.3625565 153.6009064  14.0786533  84.6845093 153.9910736  14.1529131
  87.2384338 146.7153320  15.5129633  86.6630020 147.4606628  14.4253597
  86.0963135 147.4000397  16.1481781  85.6803207 148.0511627  13.8105192
  84.9983139 147.9953613  16.0983086  84.4509659 148.4842377  14.6520348
  83.1585083 147.8089294  14.3265934  83.7741165 149.8822021  14.5014076
  82.8197403 149.0564117  14.3012218  87.6708145 147.9654999  15.7988758
  91.9793854 151.1038818  16.7188244  90.7130661 149.9384155  16.9361725
  89.7579575 149.4719543  15.9863043  90.4698563 149.4439087  18.1155586
  89.6399460 149.8714447  14.7293615  88.7975159 148.5898590  16.5129089
  89.7543106 148.7067261  18.7221851  88.8817673 148.2877655  17.9629021
  85.0158310 155.3444824  13.9905195  84.7569733 156.1641235  12.7212591
  85.2144394 156.2371368  14.9716873  84.3809357 155.6413574  11.6451674
  84.8829880 157.6461334  12.8352070  85.3913193 157.3993835  15.0735874
  85.2715225 158.3877106  14.0217733  85.4157639 159.5996246  14.0900450
  84.5820160 158.1647034  12.0184593  87.1694489 153.4342194  14.4254723
  87.6955948 153.6327972  13.2442970  82.3637466 154.5125885  13.8420792
  81.0940247 154.1944733  14.1068983
