Cpptraj Generated Restart                                                       
 6216  4.0000001E-01
  90.0767365 180.3787994  24.6299839  91.0408936 180.3845825  24.3292027
  90.0225677 179.4128418  24.9199753  89.9070511 180.9644928  25.4351387
  89.1723175 180.7239380  23.4376278  88.1350861 180.5734100  23.7369690
  89.3895187 182.2711487  22.9788666  90.4485703 182.5081787  23.0804977
  89.0539474 182.3895721  21.9485912  88.5019150 183.1695557  23.8666840
  87.4609299 182.9744873  23.6090183  88.7472610 182.9478302  24.9053097
  88.8604202 184.9700928  23.5950966  87.9431915 185.1679077  22.0103512
  86.8849945 185.1250000  22.2681847  88.0404510 186.1804504  21.6187038
  88.1428528 184.3480530  21.3203602  89.3997879 179.7341919  22.2939034
  90.4849701 179.1892395  22.1589069  88.3270645 179.3889771  21.6141911
  87.4559860 179.8591461  21.8148956  88.4036560 178.3408508  20.5575218
  88.8871384 177.4900818  21.0376873  86.9787369 177.8374329  20.2977238
  86.2488480 178.6149750  20.5230980  86.6548309 177.2198792  18.9186592
  87.0519638 176.2048035  18.9155636  85.5787964 177.1473999  18.7605553
  87.0483170 177.7934265  18.0794296  86.6693115 176.7987213  21.3434372
  85.9506607 176.1027985  20.9106121  87.5428619 176.1744995  21.5314903
  86.1193237 177.2570038  22.7022820  85.2850418 177.9313965  22.5092278
  85.8131866 176.3728027  23.2613659  86.8870697 177.8767700  23.1654911
  89.2070923 178.7513733  19.3010921  89.3659744 179.9249115  19.0944843
  89.7767563 177.8653870  18.5215454  89.7846680 176.8967438  18.8074589
  90.3932495 178.2365112  17.1995201  90.0517654 179.2100067  16.8476639
  91.9111252 178.4823303  17.3601036  92.3015289 178.7125854  16.3688049
  91.9852829 179.3031921  18.0733948  92.6882782 177.2585754  17.8959255
  92.2745895 176.1343079  17.8386059  93.8300781 177.4769745  18.4904690
  94.3899384 176.6934814  18.7951202  94.2556229 178.3910980  18.5486164
  90.0355682 177.3245087  16.0243111  90.4679947 177.5381165  14.9017134
  89.2273178 176.2986603  16.2583523  89.1681747 176.0066528  17.2234077
  88.6992416 175.3226166  15.3218803  89.5230255 174.9118500  14.7381401
  87.9105606 174.1713562  15.9989090  88.5050507 173.8310394  16.8467655
  86.9894562 174.5446472  16.4464779  87.5328674 173.0064240  15.1595373
  88.5302277 172.0111847  14.8233385  89.5733566 172.1967621  15.0327530
  88.1595917 170.8485107  14.1476059  88.8474503 170.0170898  14.1028147
  86.8204193 170.6279144  13.8669462  86.4543533 169.7015686  13.4494677
  85.8525620 171.6521301  14.0936289  84.8108444 171.4669800  13.8769379
  86.2206955 172.8916931  14.6559448  85.5219269 173.7016144  14.8047609
  87.6594162 175.9706573  14.3521957  86.7883682 176.7608948  14.7664156
  87.7512665 175.6895142  13.0628977  88.5068054 175.0816345  12.7805243
  86.8644562 176.2079773  12.0103340  86.5410385 177.2168579  12.2665777
  87.5988388 176.3075409  10.7131596  88.4863281 176.9243622  10.8544884
  87.9484711 175.3527374  10.3204670  86.7670212 176.9354248   9.5968628
  85.5285110 176.9041901   9.7281837  87.3718338 177.3464813   8.6065130
  85.6465759 175.2664185  11.9731112  85.7212143 174.0892487  11.5548935
  84.5514679 175.6670380  12.6274900  84.6129761 176.6249237  12.9417801
  83.2945557 174.9075470  12.8064289  83.5263138 174.0730743  13.4682713
  82.2783661 175.7356720  13.5798264  81.2722931 175.3319092  13.4662409
  82.6522522 175.8464966  15.0576239  83.5559158 176.4469299  15.1623888
  81.8245468 176.3547211  15.5523014  82.7875214 174.8390045  15.4510355
  82.3056030 177.0917664  13.0814753  82.2454453 177.7280426  13.7978134
  82.6334610 174.4738922  11.5082016  81.6529922 173.7495575  11.5844584
  83.1877747 174.7876740  10.3173914  83.9111252 175.4925079  10.3261986
  82.8451538 174.2199402   8.9784641  81.7802582 173.9875336   8.9877062
  83.0832367 175.2426605   7.8396516  82.4851151 174.9312134   6.9832916
  82.6732025 176.2119598   8.1232367  84.4443359 175.3615570   7.6113882
  84.7266998 176.1152039   8.1347322  83.5418472 172.8869629   8.6499186
  83.0092087 172.0295410   7.9380627  84.6526260 172.5234222   9.3110285
  85.1229248 173.2949371   9.7623510  85.4179535 171.2155762   9.1676779
  85.8470993 171.0958252   8.1728964  86.5740967 171.3008423  10.1131058
  86.2026291 171.6367340  11.0812407  87.0349884 170.3571777  10.4049559
  87.6667328 172.3369141   9.6458387  87.3142395 173.3618774   9.5305519
  88.6638718 172.3756561  10.7800350  89.1732178 171.4140778  10.8435612
  89.3292160 173.2019806  10.5298367  88.1225281 172.5543976  11.7090693
  88.3636932 171.8851166   8.3441610  87.6138153 171.9079895   7.5534215
  89.0916214 172.6402893   8.0476313  88.7669983 170.8928223   8.5461950
  84.5923309 169.9654388   9.3437185  85.0494614 168.8758392   8.9209366
  83.4315643 169.9705811  10.0564489  83.0741577 170.8638763  11.0914154
  82.2736893 171.5632477  10.8501329  83.9032135 171.5025635  11.3961153
  82.6245270 169.9873962  12.2632990  82.0664444 170.5755615  12.9918003
  83.4823303 169.4253998  12.6326571  81.8000412 168.9520264  11.4389210
  80.7799072 169.3118439  11.3049040  81.7748413 167.9788513  11.9292316
  82.4810791 168.8234100  10.0541058  83.0626144 167.9015808  10.0669956
  81.4772186 168.7815857   8.8822956  81.2127151 167.7811127   8.2844992
  80.9217911 169.9387207   8.5302391  81.2173080 170.7731628   9.0165119
  79.8271255 170.0918884   7.5981898  79.2436371 169.2124786   7.8707342
  79.0088348 171.3806000   7.8687854  78.2161407 171.4332123   7.1224842
  78.2941437 171.3912048   9.1724577  79.0700684 171.4179535   9.9375286
  77.5901642 172.2219238   9.2216797  77.7056503 170.4742432   9.2035618
  79.7723465 172.5725555   7.9923024  79.6745529 173.0403595   7.1597190
  80.2016296 170.1072083   6.0725574  79.3016739 169.9560699   5.2476969
  81.5023193 170.2158203   5.8277712  82.0913086 170.3451691   6.6379943
  82.1430740 169.8560944   4.5685840  81.6111755 170.3924713   3.7827797
  83.5982513 170.4073639   4.5584893  84.0873795 170.2792358   3.5928602
  83.5104141 171.4855957   4.6919403  84.2900848 169.9371338   5.7117596
  85.0570068 170.4980927   5.8486867  82.0861664 168.2996368   4.3063097
  82.0449371 167.8847198   3.1334717  82.1268997 167.4508362   5.3937187
  82.0601654 167.8176270   6.3323913  82.1621475 165.9631805   5.3531599
  82.2239227 165.5196075   6.3469071  80.8375320 165.3552551   4.9019456
  80.6899338 165.6574554   3.8651266  81.0049896 164.2814636   4.9858437
  79.6755447 165.6083527   5.8560543  79.4519119 164.8508911   7.0289655
  78.4217606 165.4247742   7.6306920  77.9263535 164.9636688   8.4723301
  77.9385529 166.4052582   6.8885274  77.0569153 166.8709259   7.0497236
  78.7391205 166.5646820   5.7979565  78.5126114 167.1747589   4.9360375
  83.4444580 165.3618927   4.6815262  83.4088898 164.3197784   4.0312829
  84.5894623 166.0380249   4.8930535  84.5343704 166.9482117   5.3273678
  85.9338150 165.5604858   4.2658362  85.7472916 165.6920013   3.1999996
  86.9947891 166.5514374   4.7839665  86.9176712 166.6779633   5.8638487
  87.9737244 166.0863190   4.6679435  86.9053726 167.9156647   4.0686102
  87.1330338 167.8125305   3.0076511  85.8774414 168.2595062   4.1836176
  87.8294144 169.2924805   4.9098077  89.5238724 168.9061737   4.3129630
  89.5535507 168.9251251   3.2235284  90.2207108 169.6904907   4.6085510
  89.7960968 167.9416351   4.7415094  86.3095398 164.1173248   4.5380416
  86.9053345 163.5018616   3.7112806  85.9266205 163.5433350   5.6927109
  85.5230789 164.1878662   6.3574314  86.1656342 162.1214905   5.9454346
  87.2111664 161.8855286   5.7472296  85.7231216 161.7328186   7.3499513
  86.1598892 160.7497864   7.5260000  86.0522156 162.4860382   8.0658112
  84.2210770 161.5290680   7.5132294  83.4122238 162.6373749   7.8100562
  83.7501526 163.6466217   7.9934525  82.0202637 162.4559021   7.8516979
  81.4834213 163.3429260   8.1540051  81.4150696 161.2253113   7.5533509
  80.1117706 161.0146790   7.6403608  79.5917969 161.8032379   7.8118958
  82.2154617 160.1344452   7.2250905  81.7661285 159.1997070   6.9238400
  83.6249771 160.2897797   7.1740131  84.2774277 159.5059357   6.8186512
  85.5090866 161.2142639   4.9558272  86.0596542 160.1525269   4.6336679
  84.3326874 161.6172791   4.4015341  83.9405060 162.5234375   4.6140804
  83.5904999 160.9673309   3.2776482  83.6547928 159.8962860   3.4694824
  82.1337891 161.4687347   3.4655182  81.8757477 161.5995941   4.5164194
  82.1561584 162.4129944   2.9214892  81.0816345 160.5289307   2.8180599
  81.3393631 160.2038269   1.8100955  80.5605774 159.3694305   3.7542894
  80.1162872 159.7364655   4.6794872  79.7867966 158.7646942   3.2813742
  81.4255981 158.7922668   4.0809755  79.7932587 161.3301544   2.5085187
  80.0253906 162.1003723   1.7729975  78.9537888 160.7321472   2.1538813
  79.4538574 161.8776855   3.3878012  84.2881622 161.2296448   1.9441143
  83.8852539 160.6834106   0.9274424  85.4323883 161.9127960   1.9533894
  85.7566986 162.3115692   2.8228188  86.1067200 162.3337097   0.7772931
  87.1745300 162.4430847   0.9667951  85.9661484 161.6844788  -0.0869071
  85.6455154 163.6957245   0.2127331  84.4408646 164.0083771   0.1463665
  86.5816956 164.5077209  -0.2376558  87.5498428 164.2799377  -0.0618696
  86.2272949 165.6561127  -1.1244015  85.3936920 166.2801971  -0.8023199
  87.4625015 166.5760498  -1.0990068  87.0623016 167.5479736  -1.3876306
  87.9322891 166.7258148  -0.1269141  88.4496460 166.1306458  -2.0632017
  88.8880234 165.3083344  -1.8325188  85.8047256 165.2659454  -2.5766089
  85.5527725 164.0606232  -2.7885110  85.8110886 166.2284851  -3.5398138
  86.0611954 167.1629333  -3.2493999  85.8714066 165.9452057  -5.0025468
  85.8075104 166.9069519  -5.5115004  87.2347794 165.2560120  -5.3240213
  87.9894104 165.7124481  -4.6834764  87.1925812 164.2492065  -4.9084778
  87.7474289 165.2068939  -6.7937407  87.4664459 166.1129303  -7.5925727
  88.4304352 164.2272797  -7.1689458  84.6405029 165.0995483  -5.5507455
  84.7984009 164.1469727  -6.3360763  83.4327316 165.4059906  -5.1430492
  83.3809891 166.2558441  -4.5997529  82.1494980 164.8206787  -5.5340009
  82.3360596 163.7856598  -5.8204269  81.1699982 164.8226776  -4.3470068
  80.7569809 165.8028717  -4.1088161  80.3171234 164.2209930  -4.6611443
  81.8323288 164.1544037  -3.1072040  82.2077866 163.1723328  -3.3947365
  82.6544342 164.7553101  -2.7184362  80.7679367 163.8121948  -1.6879058
  79.9805527 162.2385254  -2.1704879  80.7472305 161.5044403  -2.4183171
  79.3345490 161.8807983  -1.3687377  79.3769989 162.4200745  -3.0597935
  81.5292511 165.5438995  -6.7693100  81.8652649 166.6799011  -7.0889449
  80.4993744 164.9285583  -7.4250255  80.2290726 164.0015717  -7.1288123
  79.4703903 165.6389923  -8.2185965  79.9802399 166.3649597  -8.8519325
  78.8019562 164.6655579  -9.2146206  79.5036697 164.0842438  -9.8127565
  78.3748627 163.8546295  -8.6246157  77.7051315 165.2638092 -10.1425009
  76.7809525 165.4864960  -9.6092091  78.0473328 166.1638641 -10.6532907
  77.3850708 164.2980804 -11.3134670  77.3524246 163.0592957 -11.0960512
  76.9952850 164.8275757 -12.3866348  78.5753403 166.4015656  -7.2937117
  77.9587173 165.8132477  -6.4134021  78.3920975 167.7350159  -7.4430170
  78.8695679 168.1733398  -8.2176018  77.3171844 168.5090485  -6.7364497
  76.9061737 168.0316162  -5.8469400  77.9184341 169.8675232  -6.2500949
  78.5907669 170.4137878  -6.9116607  77.0862732 170.5523071  -6.0867915
  78.6682358 169.7599792  -4.9043107  78.1333389 169.1817017  -4.1509418
  79.6393433 169.2934723  -5.0698433  78.9948654 171.1577911  -4.3028011
  78.2820511 172.1997833  -4.4862766  80.0355911 171.3795319  -3.5750141
  76.1291046 168.8288727  -7.5967016  76.2407684 169.3352356  -8.7219229
  74.9647827 168.3664703  -7.1412477  74.9481354 168.0034027  -6.1989074
  73.7022171 168.6486969  -7.8545871  73.8235779 168.8242188  -8.9234953
  72.6259308 167.5641785  -7.5978489  72.7931061 167.3135223  -6.5503135
  71.6376190 167.9902039  -7.7705884  72.9479065 166.3005219  -8.3740444
  72.7169189 166.1663055  -9.7634516  72.4307480 167.0200043 -10.3598824
  72.9619751 164.9299469 -10.3886261  72.9053497 164.9259644 -11.4671335
  73.4040298 163.7853851  -9.6631184  73.6402740 162.7808533  -9.9817114
  73.5447083 163.9572906  -8.2508650  73.9818192 163.1547241  -7.6753364
  73.3996277 165.1684265  -7.6279607  73.4960327 165.1875763  -6.5524426
  73.1695175 169.9927216  -7.3568401  73.2452240 170.3102875  -6.1770062
  72.6114502 170.7342072  -8.3299828  72.5094070 170.4351349  -9.2892752
  72.1588821 172.1415863  -8.0544434  72.5050201 172.5397644  -7.1006374
  72.6317444 172.9798584  -9.2711973  72.4502716 174.0367737  -9.0759954
  73.7026901 172.7968292  -9.3587875  72.0785751 172.6572113 -10.6787901
  72.2737732 171.4619293 -11.3941975  71.8898315 171.7012939 -12.6359682
  72.0497589 170.9753571 -13.4194479  71.3957977 172.9478149 -12.7850952
  70.9811478 173.3375397 -13.6195288  71.5292892 173.6025391 -11.5712309
  71.3449860 174.6513824 -11.3914194  70.6058884 172.4247894  -7.9723721
  70.1854630 173.4223480  -7.3897481  69.7689285 171.6122437  -8.6963425
  70.0668106 170.9060974  -9.3541622  68.3288879 171.9897766  -8.7789564
  68.2095032 173.0731049  -8.7623301  67.9416428 171.6591187  -9.7426968
  67.5380783 171.4218140  -7.5843987  67.8392715 170.3556213  -7.0553198
  66.5937119 172.2175751  -6.9918542  66.3413010 173.1224670  -7.3627505
  65.8385849 171.6864166  -5.8325791  66.4401321 170.9918671  -5.2462020
  65.4796066 172.9019623  -4.9184470  64.8588867 173.6854401  -5.3531408
  64.9629898 172.4253387  -4.0853524  66.7199097 173.6628265  -4.3344598
  67.3397751 173.9980469  -5.1660166  66.3795395 174.5603790  -3.8180804
  67.5355453 172.8188324  -3.3254232  67.0271378 172.6235352  -2.3812373
  67.8148804 171.9127502  -3.8630896  68.8140182 173.4321899  -2.9631922
  69.6144562 172.9878845  -3.3897991  69.0491180 174.5249939  -2.2431726
  68.1530304 175.1901550  -1.6675653  67.2334595 174.8105621  -1.4932224
  68.3449860 176.0710144  -1.2122015  70.2345352 175.0178375  -2.1797175
  71.0212326 174.5751038  -2.6326847  70.4743500 175.8399200  -1.6442031
  64.5262680 170.8359985  -6.1043415  63.8851128 170.9959412  -7.1296396
  64.2988739 169.8363495  -5.2869315  64.9420090 169.7131805  -4.5179706
  63.1460991 168.9725647  -5.3708444  62.6672707 168.9895172  -6.3498988
  63.5584641 167.4310608  -5.0632191  63.8852425 167.2583618  -4.0377970
  62.3794441 166.4935913  -5.4902620  61.8605690 166.9385986  -6.3392859
  62.7568283 165.4847260  -5.6572304  61.7186279 166.3622437  -4.6334295
  64.6552200 167.1295471  -5.9406581  64.5543594 166.2101746  -6.1978927
  62.1011276 169.4351044  -4.3382826  62.2939262 169.3320312  -3.1575308
  60.9037056 169.7639313  -4.7613063  60.7744713 169.7715454  -5.7629752
  59.7327538 169.9041443  -3.8780546  59.8022728 169.1321106  -3.1117411
  59.6069527 171.2857971  -3.3022137  59.5524368 171.9825439  -4.1386819
  58.6497040 171.4321442  -2.8018606  60.6974831 171.6990356  -2.3607118
  61.6855583 171.5250092  -2.7867634  60.5249596 173.1793060  -2.0731409
  59.5443268 173.4618835  -1.6902517  61.2702980 173.6129608  -1.4064301
  60.6051025 173.8012085  -2.9647174  60.5314827 171.0271759  -1.0121272
  60.9996643 170.0538177  -1.1587145  61.0963974 171.6067963  -0.2820536
  59.4946594 170.9458008  -0.6858116  58.3540268 169.6090240  -4.5307975
  58.1858444 169.9971619  -5.6808763  57.4408035 168.9393005  -3.8624353
  57.7115364 168.6338654  -2.9385746  56.0222511 168.6369781  -4.2503786
  55.9759598 168.5949707  -5.3385859  55.6455345 167.2469482  -3.7396333
  55.4700394 167.2014313  -2.6648169  54.7843628 167.0688934  -4.3836689
  56.6233864 166.1690979  -4.0170178  57.6720390 165.7899323  -3.2012489
  58.4637375 164.9982147  -3.9031844  59.3570442 164.5448608  -3.4996185
  57.9747467 164.7886810  -5.0927982  58.2967606 164.1014404  -5.7592053
  56.7996750 165.5069427  -5.1663370  56.1970444 165.6987457  -6.0418077
  55.0409470 169.6930084  -3.6728590  55.3407059 170.4244995  -2.7144494
  53.8418884 169.7348175  -4.2151175  53.6744423 169.1441650  -5.0171146
  52.7633209 170.5975952  -3.7634573  53.1088486 171.6299133  -3.7082896
  51.6094246 170.6262054  -4.8339543  51.0268326 169.7050171  -4.8435321
  50.8742180 171.3898468  -4.5801597  52.0680733 171.0574188  -6.2252622
  52.6965103 172.1506348  -6.2900496  51.7427673 170.3237610  -7.2105107
  52.2556992 170.0964050  -2.3961232  52.4055710 168.9037476  -2.0815077
  51.6745567 171.0091858  -1.5759156  51.6306038 171.9554749  -1.9261920
  51.2593155 170.6262360  -0.2642468  52.1643066 170.2547913   0.2165014
  50.8263245 171.8165283   0.5752459  50.1017532 172.3640594  -0.0275167
  50.3632240 171.5224457   1.5171363  51.9776573 172.7778473   0.9893305
  53.1343842 172.3305359   1.1753852  51.7199326 173.9974518   0.9542731
  50.1763649 169.5596161  -0.2244618  49.2816925 169.5797119  -1.0845857
  50.3574181 168.6187286   0.7242587  51.0295067 168.8473358   1.4426860
  49.5313263 167.4262848   0.9279534  50.1118965 166.7919159   1.5977509
  48.1339493 167.7939758   1.5431728  47.5860023 168.4777985   0.8949103
  47.5270500 166.8886719   1.5290256  48.2060509 168.3517914   3.0008307
  48.7074814 167.5890198   3.8737042  47.7294006 169.4826660   3.2566507
  49.3370476 166.5569916  -0.3505532  48.3746033 165.8564911  -0.5533973
  50.2372398 166.7104187  -1.2972971  51.0081062 167.3591309  -1.2261842
  50.2404022 165.7634583  -2.4072826  49.2693214 165.8076324  -2.9003873
  51.1425056 166.1398773  -3.5481105  51.0664520 165.3542023  -4.2997994
  50.7429581 167.0570526  -3.9808147  52.5038567 166.1995392  -3.1973464
  52.6370277 167.0004272  -2.6850488  50.4756775 164.2327271  -2.0477402
  51.3146210 164.0142670  -1.1801738  49.7621956 163.3081512  -2.6695647
  48.9189644 163.5811920  -3.1538231  49.9815979 161.8675385  -2.6097205
  50.1576843 161.6308594  -1.5603991  48.7657738 161.0352020  -2.9864419
  47.8482780 161.5382690  -2.6811171  48.5258064 160.9338684  -4.0448589
  48.8805656 159.4008942  -2.1714861  48.0183334 158.7435913  -2.9521272
  51.1867027 161.4623718  -3.5408270  51.2500534 161.7967529  -4.7334218
  52.1490517 160.7021790  -2.9215190  52.0231247 160.5053864  -1.9389108
  53.3942604 160.3238983  -3.5707769  53.2644157 160.4470520  -4.6459908
  54.5324478 161.2461090  -3.2956436  54.8791199 160.9766693  -2.2979829
  55.3242340 160.9395447  -3.9791648  54.3159790 162.7912598  -3.4247186
  53.4705772 163.0473938  -2.7861288  55.1789398 163.3604736  -3.0791845
  54.0849457 163.1285248  -4.8256226  54.3588409 162.3672943  -5.8030195
  53.6592026 164.3753357  -5.1341844  53.3925018 164.6184082  -6.0775213
  53.4767342 165.0380402  -4.3941665  53.7762299 158.8345490  -3.2988598
  53.3086166 158.2621460  -2.3046246  54.7095299 158.2687378  -4.0643454
  55.0341301 158.7120667  -4.9118066  55.3939819 157.0157166  -3.7326107
  55.2022705 156.8285217  -2.6760547  54.7219200 155.7642365  -4.4495673
  53.6461067 155.7450562  -4.2753363  54.8517990 155.9079895  -6.0164433
  55.9063721 155.9013977  -6.2920136  54.4217377 155.0406494  -6.5172935
  54.4609718 156.8857422  -6.2981730  55.3713264 154.4531250  -3.9904792
  55.4020004 154.4406738  -2.9009814  54.6798515 153.6537170  -4.2567511
  56.3440208 154.2534027  -4.4400144  56.9017563 157.0498657  -3.8663323
  57.3673935 157.4277191  -4.9321899  57.6430168 156.7218781  -2.8175912
  57.2113495 156.3829956  -1.9696965  59.0542755 157.0850067  -2.7484980
  59.3958969 157.3039398  -3.7601621  59.2443237 158.4732513  -2.0205429
  58.8460770 158.4404907  -1.0064296  60.6562042 159.0520935  -2.0741553
  60.9260941 159.3158112  -3.0967541  60.7544441 159.9481506  -1.4613401
  61.3792076 158.3319244  -1.6911197  58.3423080 159.6348724  -2.6554348
  58.6215134 159.7529297  -3.7024348  57.2992058 159.3687592  -2.4845057
  58.5088463 161.0078735  -2.0764172  59.4141502 161.4832916  -2.4539049
  57.7147484 161.6757050  -2.4103432  58.3611755 160.9105072  -1.0008641
  59.9724579 155.9559326  -2.1416466  59.5632095 155.3360748  -1.1467917
  61.1279221 155.5584412  -2.7481723  61.8465233 156.1430664  -3.8568695
  62.0340347 157.1938782  -3.6361001  61.2782478 156.1161194  -4.7866211
  63.2167244 155.4095001  -4.0122919  63.9936218 155.9845581  -3.5084779
  63.5893517 155.3350525  -5.0339117  63.0103149 154.0932922  -3.2824371
  63.9140282 153.7307587  -2.7925675  62.7052345 153.3122864  -3.9789038
  61.8877869 154.4106598  -2.2400253  61.1850662 153.5857544  -2.1224737
  62.5041389 154.7395935  -0.8504397  62.7760468 155.9110260  -0.5288712
  62.7957344 153.6968842  -0.0647157  62.5797310 152.7977905  -0.4710132
  63.3705406 153.7434235   1.3017200  63.7469826 154.7419281   1.5239397
  62.2816658 153.2806396   2.3669863  62.0575523 152.2301331   2.1817970
  62.8506012 153.3214417   3.8056507  63.1187325 154.3321838   4.1132336
  62.1755371 152.8543396   4.5227337  63.7450752 152.6990967   3.8321104
  60.9637146 154.0213318   2.2741265  60.4630280 153.7175446   1.3548188
  60.2855492 153.7589111   3.0861187  61.2085533 155.0807343   2.3504357
  64.5866470 152.8158722   1.3982333  64.3885345 151.6222992   1.6412076
  65.7583847 153.3747406   1.5765574  65.9624939 154.3339539   1.3349968
  66.9617233 152.5601196   1.9038863  67.1151810 151.8756714   1.0695746
  68.2049103 153.4825439   1.9084715  67.8950195 154.3449554   2.4986792
  68.9729843 152.8880157   2.4031391  68.7545319 153.8403168   0.4746974
  67.9331512 154.0332794  -0.2153833  69.5619736 155.1781769   0.4654971
  70.3108521 155.1725464   1.2574857  70.0049515 155.2909393  -0.5240235
  68.8035278 155.9397888   0.6466533  69.7956009 152.7725372  -0.0213020
  69.3195114 151.8110657   0.1710700  70.1307220 152.9015350  -1.0504537
  70.6681900 152.7464294   0.6313947  66.8244629 151.8143005   3.2128582
  66.6390381 152.4188995   4.2423234  66.8773346 150.4844208   3.2336438
  67.0256729 149.7098541   2.0613897  67.9244156 150.0211792   1.5290107
  66.1619415 149.9123077   1.4280788  67.0339661 148.2811890   2.6130402
  68.0555115 147.9645844   2.8235447  66.5381012 147.6098328   1.9119788
  66.2077560 148.2596741   3.8793309  66.5440292 147.5355225   4.6213660
  65.1444016 148.1490173   3.6668980  66.5284348 149.6887360   4.4029460
  65.6182022 150.0833588   4.8544354  67.6144638 149.5523834   5.4506321
  67.3042603 149.1669464   6.5894732  68.8903732 149.8064575   5.1687388
  69.1922913 149.8359070   4.2053709  69.8916397 150.0019379   6.2580266
  69.6193695 149.3453064   7.0843472  71.2518997 149.5674133   5.7102666
  71.4598999 150.0521545   4.7564006  71.9460297 149.7754517   6.5245132
  71.3383789 148.0549164   5.4089661  70.7016068 147.4319458   4.3410110
  70.8196259 146.0798645   4.5234265  70.3091507 145.3249512   3.9438448
  71.4536896 145.8685608   5.7021241  71.6630478 144.9362488   6.0293350
  71.7671432 147.0761566   6.2552924  72.1440887 147.2346497   7.2548871
  69.9285507 151.2959747   7.0359902  70.6998215 151.5050507   7.9806108
  69.0280685 152.1749878   6.6256828  68.5326080 151.9243164   5.7820125
  68.7496414 153.4768372   7.3195386  69.6844330 153.8096924   7.7706413
  68.2506104 154.6400146   6.4025249  67.3542938 154.3897400   5.8350010
  67.9898911 155.8998566   7.1540365  68.9584808 156.2330017   7.5267920
  67.6950531 156.6219025   6.3925748  67.1955338 155.7844543   7.8914523
  69.2483139 154.9003296   5.2715325  69.5095444 153.9745026   4.7589793
  68.6358337 155.5047302   4.6024590  70.1284790 155.4690094   5.5715380
  67.7003403 153.2338715   8.4600592  66.5981598 152.8511658   8.2027893
  67.9745102 153.7400360   9.6630945  68.9570007 153.8410339   9.8742962
  67.1088409 153.5528107  10.8469963  66.0813141 153.3343353  10.5562143
  67.6129684 152.3371582  11.6129189  68.6782227 152.5474548  11.7083349
  67.0826797 152.3258514  12.5651665  67.4765015 150.9544373  10.9965115
  66.4204025 150.7359924  10.8383284  67.9856796 150.9376068  10.0328951
  68.1469421 149.6308899  12.0406990  69.1008682 148.6334686  10.8963451
  69.8747101 149.2483368  10.4367571  69.4925232 147.7556610  11.4103165
  68.5316696 148.3117981  10.0241947  66.9328232 154.8343658  11.6888399
  66.0334702 154.8745117  12.5760298  67.8114548 155.8347321  11.5243320
  68.4432220 155.7996521  10.7370949  67.6845856 157.1451263  12.2074184
  67.4903488 156.8933105  13.2499943  68.9666672 158.0177612  12.1078148
  68.7875061 158.9691162  12.6087580  70.1145782 157.3721008  12.9046354
  70.3876419 156.4216156  12.4462318  71.0271988 157.9589386  13.0087824
  69.7821350 157.1574097  13.9202595  69.4604645 158.2971344  10.7047100
  68.6803970 158.6382751  10.0241117  70.2259750 159.0675049  10.7975826
  69.9012604 157.4008179  10.2683344  66.4645462 157.9148102  11.6453972
  66.1064835 157.7460175  10.4868231  65.9214935 158.8106079  12.4357347
  66.0021133 158.7894135  13.4422894  64.8970261 159.7459259  11.9099827
  64.3245392 159.2459564  11.1287136  64.0516129 160.0406799  13.1693802
  63.5655251 159.1194153  13.4904470  64.7202454 160.3230743  13.9825802
  62.9014435 161.1138611  13.0025816  63.1784592 162.0682373  12.5547924
  62.0836449 160.6818237  12.4258165  62.1771355 161.6526489  14.5386305
  62.1320877 160.1234283  15.5297995  63.0981064 159.7565460  15.8766594
  61.6058388 160.4669342  16.4203930  61.5620613 159.3243713  15.0558071
  65.4954605 161.0793762  11.3812227  65.9550247 161.8681183  12.2129450
  65.5731354 161.2529907  10.0883503  65.2787857 160.5295563   9.4479628
  65.9851837 162.4843292   9.5327997  66.9231949 162.6992340  10.0447035
  66.1836395 162.2989502   7.9863505  66.8807068 161.4716187   7.8531976
  65.2276001 162.0472107   7.5273194  66.7506561 163.5174713   7.2402773
  66.2054443 164.4277954   7.4895730  68.2574463 163.6790619   7.5173073
  68.8042145 162.7388000   7.4461660  68.7666550 164.3513947   6.8268261
  68.4463120 164.1366730   8.4883976  66.6986008 163.2459412   5.7224932
  65.6948547 163.2206421   5.2982817  67.2205048 164.0404663   5.1891494
  67.1642609 162.2636261   5.6431789  64.9260254 163.5868530   9.8462706
  63.7650490 163.3867035   9.5437117  65.3297348 164.7285156  10.3524323
  66.2952423 164.8542328  10.6209221  64.5865936 166.0310974  10.4838095
  63.5318108 165.7711487  10.3945036  64.9309006 166.7177429  11.8064032
  66.0151978 166.8238220  11.8403053  64.4137344 168.1786652  11.9895220
  63.3305397 168.1994324  11.8696594  64.6985321 168.5127716  12.9871979
  64.9396057 168.7279968  11.2086353  64.5744095 165.9313202  13.0431614
  65.1627197 165.0211639  12.9265747  64.9923477 166.3887634  13.9399204
  63.1153030 165.6285858  13.2085266  62.7875900 165.0342102  12.3556271
  62.8931656 165.0347290  14.0951395  62.4763184 166.5094299  13.2710371
  64.9016037 166.9359894   9.2647858  66.0313034 166.8111877   8.7996893
  64.0088654 167.7123871   8.7157145  62.6102905 167.9027252   9.0489130
  62.5013199 168.5457458   9.9222698  62.0631371 166.9759369   9.2214727
  61.9935150 168.5323944   7.7755270  61.0552101 169.0531769   7.9665203
  61.7666893 167.7203064   7.0847597  63.1002731 169.4585419   7.3381739
  62.9941444 170.3042908   8.0175524  63.1269341 169.7847748   6.2984791
  64.3338928 168.6900177   7.6473813  64.5927200 168.1344147   6.7460470
  65.4730759 169.6518402   7.8941631  65.8405228 169.9398193   9.0486965
  66.1408997 170.1880951   6.8676229  65.7264862 170.0994263   5.9508338
  67.3419342 171.0378571   7.0063992  67.5719986 171.5646057   6.0802674
  67.0520401 171.8149109   7.7136898  68.6098938 170.3448944   7.4922400
  69.6998138 170.8800507   7.2781644  68.5184326 169.2064514   8.2347040
  67.5523376 169.0025787   8.4473076  69.5967941 168.3184204   8.5924253
  70.4108047 168.8824463   9.0477991  68.9694443 167.1508026   9.4869318
  68.2486191 167.5308075  10.2108870  68.5541229 166.4242401   8.7885695
  70.0464935 166.5020752  10.4010706  70.7204666 165.8899078   9.8018026
  70.5587387 167.2289886  11.0313931  69.5227203 165.4750977  11.3451366
  68.3041229 165.3622437  11.5584850  70.3787537 164.6273651  11.9550209
  70.1371231 163.9866180  12.6974220  71.3493118 164.6579285  11.6772184
  70.2524261 167.6621857   7.3721814  69.6058578 167.0892792   6.4811740
  71.5679932 167.7040253   7.3774433  72.0760498 168.1451263   8.1307068
  72.4725800 167.0557556   6.3819580  72.0348053 167.0531921   5.3837361
  73.7917709 167.8572083   6.2882342  74.3042908 167.7663574   7.2459269
  74.7189331 167.3619843   5.1524959  74.2355652 167.5533905   4.1944661
  75.7207184 167.7892303   5.1971231  74.8581619 166.2823639   5.2084446
  73.6046295 169.2143555   6.0454030  74.4784241 169.5790558   5.8870263
  72.7015152 165.6145935   6.7356305  72.6802902 165.2526550   7.8902111
  72.7805634 164.7038422   5.7632704  72.7226639 165.0751801   4.8257918
  72.8752823 163.2542572   5.9670396  73.0773697 162.9972839   7.0068603
  71.3874130 162.7306976   5.6998191  70.7494354 163.0619965   6.5191712
  71.0330887 163.1953278   4.7796721  71.3155441 161.1441803   5.5806785
  71.8780670 160.8267365   4.7026663  71.7729492 160.3264923   6.8209887
  71.2245789 160.6389618   7.7096677  71.7595520 159.2507935   6.6455460
  72.8371582 160.5065460   6.9731603  69.8718338 160.7615051   5.3333902
  69.5031738 161.1893158   4.4010997  69.7635117 159.6781464   5.2813959
  69.1696091 160.9881897   6.1356316  73.9741211 162.6411285   5.0024772
  73.7044296 162.4032440   3.8508081  75.1652908 162.3677826   5.4909372
  75.7189713 162.7802734   6.7631917  75.0903702 162.4188538   7.5770402
  75.9077682 163.8415222   6.6013384  77.0567627 162.0672607   6.8761621
  76.9035263 161.1874695   7.5011206  77.7059631 162.7685852   7.4003615
  77.4769440 161.7690582   5.4705939  78.2146988 160.9732361   5.3681622
  77.8362350 162.6987610   5.0293860  76.1323929 161.5561218   4.7984400
  76.1584625 161.7697601   3.7298994  75.6754761 160.1467438   4.9165697
  75.1324997 159.6815796   5.9550600  75.9603348 159.3698883   3.8810475
  76.3870926 159.8126831   3.0798507  75.7244492 157.9047241   3.6993480
  75.6930923 157.4868469   4.7055779  74.3563156 157.7069244   2.9613543
  74.4245148 158.3331451   2.0718074  74.3450165 156.6499023   2.6954968
  73.0551224 157.9906464   3.7107334  73.2530823 158.9885101   4.1020880
  71.7921066 158.0969086   2.8559082  71.7742844 157.1944427   2.2448993
  70.9626160 158.1902161   3.5568666  71.8207169 158.9509583   2.1792319
  72.7081985 156.8796387   4.7819166  73.6314163 156.4838562   5.2051673
  72.1207962 157.3041992   5.5960445  72.2569351 155.9810486   4.3612041
  76.8639221 157.3028564   2.8710451  77.4435959 157.8869324   1.9704237
  77.3245544 156.0781555   3.1499958  76.9096069 155.6433258   3.9616897
  78.1550140 155.2390442   2.3108499  78.2203064 155.7291870   1.3394580
  79.5661545 155.0003967   2.9824386  80.0074539 155.9811707   3.1597190
  79.4656830 154.6069489   3.9939771  80.4938660 154.1847382   2.1211479
  80.0717697 153.1800537   2.1441870  80.4826736 154.4990997   1.0775230
  81.9269180 154.1387787   2.6430032  82.3204803 155.0148773   3.4179261
  82.8205643 153.3267059   2.1457462  83.7646255 153.3987122   2.4974012
  82.5313644 152.6041718   1.5020065  77.4246063 153.9350433   2.0217445
  77.2334671 153.1760712   2.9265039  77.1197815 153.6311493   0.7550794
  77.3658218 154.3022461   0.0415097  76.2714996 152.5727386   0.3618397
  75.8807526 152.0096588   1.2094046  75.0413589 153.1024628  -0.3643182
  75.3526535 153.5819244  -1.2923871  74.4176178 152.2705688  -0.6914259
  74.1789856 154.0646362   0.4547377  74.8573990 154.9024048   0.6160287
  73.0639725 154.7807922  -0.2905510  72.3355103 154.1075745  -0.7424754
  72.6095047 155.4179382   0.4681239  73.4965744 155.3611603  -1.1054957
  73.6222916 153.5348053   1.8007678  74.4304810 153.2802124   2.4864180
  72.9969482 154.2715454   2.3050168  73.0151901 152.6464691   1.6264340
  77.0597992 151.5940552  -0.4853649  77.3939819 151.8913727  -1.6373861
  77.2896042 150.4051819   0.0473171  77.0729065 150.2204742   1.0163525
  78.0736618 149.3429565  -0.5538058  78.5257034 149.5731506  -1.5185719
  79.3057785 149.0632172   0.3502462  79.9056854 148.2669830  -0.0904590
  79.8597946 150.0014954   0.3784806  78.9121170 148.6505280   1.8073276
  78.5782623 149.6228485   2.7300837  78.7545166 150.6519775   2.4539962
  78.2382431 149.2685242   4.0657835  77.8753281 150.0218658   4.7492824
  78.2171707 147.9069214   4.4598413  77.9129944 147.6375885   5.4605112
  78.5172119 146.9417572   3.4669282  78.3285904 145.9110718   3.7286959
  78.7267990 147.3053589   2.1443529  78.6939392 146.5981598   1.3287654
  77.2973022 148.0478058  -0.8696349  77.7007065 147.3111115  -1.7973292
  76.1336060 147.8311157  -0.1960873  75.8540649 148.4105835   0.5824813
  75.2941513 146.7283630  -0.6180925  75.9795837 145.8810120  -0.6344603
  74.1038132 146.4063873   0.2828881  73.3865128 147.2256622   0.3316302
  73.6304245 145.5179749  -0.1351155  74.6067276 146.0025787   1.6561371
  74.9649658 144.6920166   2.0133934  75.0517654 144.6495667   3.3711481
  75.5707550 143.8706818   3.9100001  74.6443481 145.8139648   3.8631940
  74.6959686 146.0815582   4.8357301  74.2377701 146.5932770   2.8352146
  73.6919632 147.5247040   2.8656800  74.7493744 146.9488220  -2.1119077
  74.1722717 148.0186310  -2.3424611  74.7882690 145.9131775  -2.9937449
  75.3643188 144.5755463  -2.8634853  75.0103912 144.1416168  -1.9283212
  76.4370193 144.7329865  -2.7510653  74.9855728 143.7586365  -4.0513945
  73.9754791 143.4043579  -3.8457069  75.6987610 142.9414978  -4.1597676
  74.8983307 144.8359680  -5.1974721  73.9997101 144.6100464  -5.7715268
  75.7930069 144.8358002  -5.8200917  74.6773911 146.2084808  -4.4780025
  75.4228210 146.9569855  -4.7466445  73.2964096 146.7959290  -4.7997470
  73.2132492 147.9320831  -5.3645892  72.2343597 146.1994781  -4.2737260
  72.3239136 145.3345032  -3.7600234  70.8850021 146.7901611  -4.3684406
  70.7293015 146.8975372  -5.4419065  69.8231812 145.7823944  -3.7666092
  68.8752594 146.2049408  -4.0997629  70.0269547 144.8648071  -4.3185244
  69.6878433 145.6330414  -2.3023684  69.6575317 146.6414642  -1.8897417
  68.6937866 145.2804108  -2.0273907  70.7662582 144.7646027  -1.6088866
  71.7794800 144.4440460  -2.1931646  70.5658264 144.4561615  -0.2890503
  71.2909088 144.0048065   0.2500597  69.6906815 144.6690979   0.1679846
  70.7987442 148.2313538  -3.8273721  69.9858093 149.0493774  -4.3767562
  71.4663391 148.6053162  -2.7720888  72.0961990 148.0054626  -2.2587266
  71.3693390 149.9809265  -2.2673540  70.3471298 150.3574524  -2.2296228
  72.0328751 150.0216522  -0.9048244  73.0808258 149.7280273  -0.9653962
  72.0529556 151.0707703  -0.6097696  71.2649460 149.1660919   0.1388811
  70.1947250 149.2334900  -0.0565512  71.5741043 148.1247101   0.0492500
  71.5028152 149.7250824   1.4999168  72.7258530 149.7792969   1.9186766
  70.5739746 150.1781006   2.1966815  72.1536255 150.9642944  -3.1666355
  71.7918243 152.0973053  -3.3575881  73.2271271 150.4918518  -3.8185258
  73.5315018 149.5352783  -3.7071137  73.7986832 151.1715698  -4.9847460
  74.0502548 152.1888733  -4.6849070  75.0918884 150.5555267  -5.5151381
  74.9027557 149.6565704  -6.1018462  75.9151688 151.5741577  -6.3255577
  76.3564911 152.3138123  -5.6575427  76.6899643 150.9565887  -6.7798886
  75.3766861 152.0909271  -7.1199617  75.9777451 150.0677795  -4.3738651
  75.6316452 149.1155853  -3.9718399  76.9881897 149.9301758  -4.7587900
  76.0874252 150.8353577  -3.6077764  72.8521194 151.2600708  -6.1120620
  72.7603073 152.3187866  -6.7132249  72.1472244 150.1627960  -6.4708643
  72.3285599 149.2814636  -6.0120788  71.3011932 150.1017914  -7.6261029
  71.8970718 150.4010315  -8.4883633  70.7287674 148.7260132  -7.7683063
  71.5582504 148.0199890  -7.8081021  70.1770401 148.3761139  -6.8957915
  69.9603271 148.6827850  -8.9266825  69.4548340 147.8694763  -8.9945421
  70.1608963 151.1566315  -7.6356196  69.9054260 151.9304962  -8.5539932
  69.4267120 151.2268066  -6.5264964  69.6200104 150.6465759  -5.7227106
  68.3175049 152.1378021  -6.4142008  67.6568832 151.8415375  -7.2290115
  67.6672592 151.9134369  -5.0545812  67.4178925 150.8523712  -5.0611062
  68.3699722 152.1003571  -4.2425737  66.3114548 152.6432343  -4.9717193
  65.7449951 152.5778198  -5.9006667  65.7283478 152.1500549  -4.1939816
  66.3334045 154.3463440  -4.4440141  66.9239426 154.2449341  -2.8022144
  67.8094330 153.6100616  -2.7714770  67.2678680 155.2108307  -2.4322784
  66.2282257 153.6676636  -2.1932588  68.7391052 153.5961456  -6.5386257
  68.0444565 154.3739929  -7.2376108  69.7904053 154.0426483  -5.8780518
  70.3780060 153.4720154  -5.2871318  70.2206573 155.4081421  -6.0643325
  69.2970886 155.9811096  -5.9816999  71.0506516 155.8889923  -4.9163351
  71.2762680 156.9374847  -5.1108875  70.4260788 155.7229156  -3.5429463
  70.0232697 154.7103729  -3.5184042  71.0836945 155.9392090  -2.7010050
  69.5428467 156.3608551  -3.5751884  72.4724274 155.2292328  -4.8148894
  72.9943466 155.0969696  -5.7626257  73.1149063 155.8754272  -4.2167587
  72.4875031 154.2254639  -4.3902645  70.8457870 155.7136230  -7.3665948
  70.4024200 156.6755829  -7.9742780  71.6884232 154.8342743  -7.9366908
  71.8610687 153.9575043  -7.4659810  72.0754852 154.8389893  -9.3569841
  72.7856827 155.6285400  -9.6026325  72.7342148 153.5709229  -9.7174311
  73.6331635 153.4897614  -9.1063566  72.1139221 152.7246552  -9.4222183
  73.0752411 153.4006653 -11.2228107  72.2019577 153.3917694 -11.8750343
  73.6328506 154.2054138 -11.7019272  73.7727585 152.0201569 -11.4618397
  73.0361862 151.3382874 -11.0368538  73.8335571 151.7876892 -12.5250254
  75.1216278 151.9225006 -10.8706198  75.5167236 152.7572937 -10.4617929
  75.7810287 150.7659302 -10.6421957  75.5198669 149.5588379 -11.0944948
  74.7263641 149.5715332 -11.7192307  75.9964066 148.7223816 -10.7889633
  76.7759247 150.7676544  -9.7651033  77.1220016 151.7086639  -9.6433516
  77.3816833 149.9710388  -9.6288958  70.8670654 155.0887604 -10.2641211
  70.9656448 155.9488373 -11.1138496  69.7482910 154.4009552 -10.0874624
  69.7505112 153.6627808  -9.3981209  68.6692810 154.5034943 -11.0746365
  68.9995346 154.6972656 -12.0951681  67.9528046 153.1268921 -11.1145401
  67.5404129 152.8643951 -10.1403065  67.1412964 153.2494049 -11.8318529
  68.8204041 151.9117889 -11.5611315  69.9194565 151.9970703 -12.0899858
  68.4002075 150.6981201 -11.3069763  68.9852142 149.9337311 -11.6128464
  67.5978241 150.5578003 -10.7098207  67.6622314 155.6235657 -10.7607403
  67.1157532 156.1432343 -11.7865334  67.6358643 156.1820679  -9.5697985
  68.0638199 155.6219635  -8.8464518  67.0544357 157.4762421  -9.1625032
  66.0616989 157.5845337  -9.5993567  66.9360809 157.3625641  -7.6366663
  66.1213913 156.6944580  -7.3573418  67.8929367 156.9710541  -7.2913432
  66.6808548 158.6865845  -6.8654876  67.3607407 159.4693604  -7.2018185
  65.2879868 159.2317505  -7.1453147  64.4917603 158.5063782  -6.9780955
  65.0724564 160.0782623  -6.4933405  65.1768951 159.5733948  -8.1744089
  66.8427124 158.4036255  -5.4081106  67.8909225 158.3781128  -5.1102567
  66.3738403 159.2439117  -4.8960867  66.3319550 157.4716187  -5.1660628
  67.8489532 158.7303009  -9.6391993  67.2057266 159.8068085  -9.8616514
  69.2206268 158.6842499  -9.8209257  69.8007431 157.8959045  -9.5717821
  70.0753555 159.8765717  -9.9749098  69.6982803 160.6519775  -9.3080730
  71.5441055 159.6466980  -9.5103760  71.5491257 158.7740631  -8.8572588
  72.4899750 159.3689728 -10.6487551  72.4338837 160.2296600 -11.3152380
  73.5377502 159.2981415 -10.3567772  72.2103729 158.4734344 -11.2036715
  71.9231262 160.7814941  -8.5622921  73.0004120 160.7751160  -8.3964024
  71.6026764 161.7443695  -8.9601336  71.2671432 160.8267365  -7.1944680
  71.7278061 160.1428070  -6.4816227  71.4538269 161.8289032  -6.8085923
  70.2142334 160.5458221  -7.1704574  69.7967300 160.5705566 -11.2888813
  69.9511948 161.7955933 -11.3858376  69.2672424 159.9328003 -12.3351660
  69.0961456 158.9390259 -12.2782679  68.8611069 160.6339722 -13.5755215
  69.5067749 161.4649658 -13.8595762  68.9906311 159.6937256 -14.8015022
  68.3766403 158.7964172 -14.7243567  68.6154633 160.2187347 -15.6799755
  70.4570770 159.5405884 -15.3245354  70.4026947 159.1181946 -16.3278961
  70.9377823 160.5187683 -15.3376522  71.4466095 158.7504272 -14.4671412
  72.6327820 159.0645447 -14.3216257  70.9700470 157.7434998 -13.7999983
  71.6294556 157.3423004 -13.1485996  70.0978775 157.2698059 -13.9871540
  67.4721375 161.2696838 -13.4567728  67.0134354 161.7261047 -14.5206661
  66.7372208 161.1697540 -12.3270960  67.2164154 160.8234253 -11.5082378
  65.3781586 161.5935516 -12.0658655  65.1540298 162.3537903 -12.8141327
  64.3985596 160.4050293 -12.2148838  63.4451065 160.8298340 -11.9009323
  64.3219757 160.0158691 -13.2301607  64.8048172 159.1891785 -11.4045458
  65.7381363 158.7986755 -11.8101711  64.9093246 159.4739532 -10.3576078
  63.7617264 158.0209656 -11.4399366  63.8975906 157.2695160 -10.6621370
  62.7812157 158.4532166 -11.2402916  63.6275864 157.2886047 -12.8271837
  63.4305077 158.0112152 -13.6190758  64.5103073 156.7318420 -13.1416845
  62.4407959 156.3095093 -12.8598595  61.5964661 156.8517456 -12.9747553
  62.4585724 155.7530212 -13.7025337  62.4418716 155.6086273 -12.1326342
  65.2639771 162.4659882 -10.7457867  66.1417160 163.3186188 -10.6503553
  64.1918030 162.4396973  -9.9650602  63.6432266 161.5936737 -10.0235138
  63.8779488 163.3782043  -8.8882599  63.8608093 164.3856354  -9.3040638
  62.4075432 163.0575256  -8.3980684  61.8825264 162.5708771  -9.2200346
  62.5874252 162.4068756  -7.5422740  61.4665337 164.2246399  -8.0741777
  61.7502136 165.4175110  -8.3307266  60.4084358 164.0203247  -7.5030804
  64.8475342 163.4618225  -7.6639814  64.5929108 164.2432251  -6.7672310
  65.8555679 162.5519562  -7.5094404  65.9626083 161.9642029  -8.3238049
  66.9254913 162.4679718  -6.4224997  67.4642868 161.5405884  -6.6168451
  67.9971848 163.5849915  -6.6723800  67.3765564 164.4768372  -6.7591887
  68.6243439 163.7319794  -5.7930822  68.7540054 163.3866577  -7.9485292
  69.3026657 162.4448242  -7.9455605  68.0777817 163.3138275  -8.8003073
  69.7175827 164.4862976  -8.1336813  70.2719879 164.5505676  -7.1974106
  70.4836731 164.2485199  -8.8716965  69.0581131 165.8140411  -8.5327520
  69.0501099 165.9576111  -9.5324688  68.7500305 166.8329468  -7.8037214
  68.9302216 166.7948151  -6.4888744  69.3844757 166.0267029  -6.0158668
  68.5604248 167.5456848  -5.9235835  68.2177887 167.8841553  -8.3037405
  67.9811859 167.9721832  -9.2816830  67.9517975 168.6869049  -7.7515216
  66.4812317 162.4223328  -4.9636297  67.2972488 162.5280304  -4.0438342
  65.1595154 162.2526550  -4.6524758  64.5041351 162.3504486  -5.4147210
  64.6146774 162.0692749  -3.2898307  65.4675598 162.2672119  -2.6405859
  63.4347839 162.9784851  -2.9233515  63.0081367 162.6104279  -1.9902910
  63.8247490 164.4612885  -2.8815603  64.3187256 164.6890259  -3.8261380
  62.8775749 164.9989166  -2.8376231  64.3582077 164.6340942  -1.9468623
  62.4458809 162.8311615  -4.0035791  62.2118111 161.9174652  -4.1823521
  64.3366089 160.5437927  -2.9672227  63.8197289 159.7760925  -3.7515254
  64.6904526 160.2008820  -1.6932552  65.0770264 160.9074097  -1.0837681
  64.3991318 158.9487915  -1.0927814  63.6585732 158.4273529  -1.6992371
  65.6075897 158.0118256  -1.0517619  65.2537766 157.0556488  -0.6662286
  65.9155273 157.7621613  -2.0671175  66.7483826 158.3941650  -0.1086491
  67.9052887 158.8930054  -0.6407874  67.9574814 158.9424438  -1.7183921
  68.8899765 159.3245239   0.1712300  69.7506027 159.8441010  -0.2234165
  68.7961731 159.2340546   1.6072680  69.6276932 159.5979767   2.1925380
  67.6411133 158.5617371   2.1514635  67.5666962 158.3283691   3.2033229
  66.6046524 158.2229767   1.3121723  65.7214127 157.7636566   1.7308691
  63.7218895 159.2357788   0.2491439  63.9426193 160.2985229   0.8453139
  62.8998566 158.3308868   0.8140233  62.8591232 157.4219971   0.3754579
  62.2744675 158.5115814   2.1553202  62.2224426 159.5767517   2.3806920
  60.8270645 157.9495697   2.1270251  60.7357597 157.2779846   1.2733688
  60.5024376 157.3593597   2.9839766  60.1046333 158.7326508   1.8968537
  63.2199135 157.8764496   3.2120936  63.5810356 156.6981506   3.1402743
  63.4339638 158.6755219   4.2663765  63.0711708 159.6173248   4.3047028
  63.8276291 158.1199951   5.5989041  64.2677231 157.1255798   5.5241756
  64.7330551 159.1689758   6.3437710  64.2785950 160.1595764   6.3604918
  65.0581665 158.6062469   7.7636395  65.2294846 157.5298004   7.7570190
  65.9687271 159.0610962   8.1536236  64.2320328 158.8630981   8.4266796
  66.0156097 159.2371368   5.5217814  65.8045807 159.5126648   4.4885063
  66.6986618 159.9637299   5.9617753  66.5242462 158.2768097   5.6064763
  62.5037460 158.0336456   6.3546624  61.7110748 158.9841766   6.2897711
  62.2936401 156.8636475   6.9979825  62.9499397 156.1128387   6.8377919
  61.1145401 156.6071320   7.8887639  60.3184662 157.2924652   7.5977578
  60.6875648 155.1333618   7.7600517  61.6097374 154.5629578   7.8711591
  60.0856056 154.8987885   8.6379566  59.9118767 154.8310699   6.4733510
  60.5140305 155.0096283   5.5824866  59.6179352 153.3130188   6.4427533
  58.8916512 152.9375916   7.1636338  59.2666130 153.0785675   5.4379139
  60.5405998 152.7331085   6.4647346  58.5925446 155.5707245   6.4118629
  58.7096596 156.6518860   6.3378010  58.0926208 155.2052917   5.5148482
  57.9720345 155.3198547   7.2721744  61.4512939 156.9297638   9.4129143
  62.5746956 156.6523438   9.8611269  60.5640869 157.5480194  10.1424961
  59.6991158 157.7529907   9.6630020  60.5345192 157.7007599  11.5543060
  61.5430298 157.9937439  11.8461246  59.5970955 158.9134521  11.8828459
  58.5392647 158.6959229  11.7353163  59.7016563 159.0491486  12.9593019
  59.8680229 159.8532562  11.4017401  60.2040749 156.3771057  12.2090168
  59.0596504 156.0868225  12.5713949  61.1874352 155.4689026  12.2708988
  62.0485077 155.6800232  11.7870827  60.9380455 154.1946106  12.9071827
  60.0285912 153.8415985  12.4210091  62.0315018 153.1379242  12.7162333
  63.0032349 153.5336304  13.0116091  61.7707062 152.2190704  13.2414122
  62.1216774 152.6294098  11.3409958  61.1540413 151.7156525  10.8580065
  60.2800751 151.3997498  11.4082718  61.1571541 151.2923584   9.5135174
  60.3729172 150.6544037   9.1335249  62.2727470 151.5942230   8.6972656
  62.3774567 151.0884247   7.4253535  61.5149803 150.7748260   7.1435871
  63.2809143 152.4552307   9.1896553  64.1232986 152.7736053   8.5934820
  63.1681671 152.9921722  10.4995527  63.9126854 153.6522369  10.9195490
  60.6092033 154.2817993  14.3989525  61.4732857 154.4104767  15.2904739
  59.2629128 154.2311707  14.6393661  58.6437721 154.0905609  13.8538771
  58.5501938 154.1793213  15.9707088  58.8991623 154.8737335  16.7349777
  57.0551834 154.4671783  15.8115435  56.5893097 154.4448853  16.7967167
  56.9727554 155.4133301  15.2766571  56.5370827 153.3932190  14.9531536
  55.5845337 153.4442596  15.0610714  58.7188606 152.8497925  16.6820621
  58.7179604 152.8849030  17.9441280  59.0849876 151.7503357  15.9651680
  59.1448746 151.9061432  14.9690571  59.7040138 150.4828186  16.4660301
  60.1498642 150.6292877  17.4498310  58.5712967 149.4157104  16.5825081
  57.8376503 149.8594513  17.2555351  58.1336899 149.1629639  15.6167355
  59.0237312 148.1542664  17.2484226  60.1258545 147.5510712  17.0572128
  58.1448936 147.5189514  17.9467545  58.4175682 146.6723633  18.4253387
  57.2464600 147.9163818  18.1812019  60.7221375 149.9701996  15.4756565
  60.3771248 149.7251892  14.3172503  61.9783249 149.8048401  15.8486328
  62.1458092 150.1056519  16.7981358  63.1418800 149.5597229  14.9294558
  62.9334373 149.9590302  13.9368830  64.2975998 150.5049744  15.4168043
  63.8652229 151.4559631  15.7278948  65.0519943 149.9729309  16.6757469
  65.5792389 149.0250702  16.5676479  65.8716354 150.6351013  16.9547195
  64.4193115 149.8401947  17.5533581  65.4330902 150.7665710  14.3459301
  64.9243469 151.1186676  13.4485416  66.0594788 151.5600586  14.7535067
  65.9865494 149.8412170  14.1862497  63.5076599 148.0464172  14.8048859
  64.2499695 147.6926422  13.9431114  62.9511490 147.2210083  15.7139549
  62.4094887 147.6986847  16.4200134  62.9807663 145.7738647  15.7427721
  63.9374352 145.4416504  15.3396406  62.9385376 145.3428955  17.1871834
  63.7608261 145.8272247  17.7138500  61.9661407 145.6067200  17.6030407
  63.1826363 143.8439789  17.3354416  62.3514366 143.3997040  16.7878838
  64.2089691 143.7215729  16.9893723  63.1179008 143.3673248  18.8055305
  63.9015884 143.8720093  19.3705368  62.0811539 143.5196991  19.1055851
  63.3875732 141.8999481  18.7963142  64.2918625 141.5929108  19.1250763
  62.5500450 140.8911285  18.5306339  61.3930779 141.0506134  17.9252548
  61.1327477 141.9773560  17.6195049  60.8204613 140.2496490  17.7001953
  62.9197426 139.7013550  18.8667278  63.8017502 139.5449829  19.3333282
  62.3824081 138.8764343  18.6411610  61.8393288 145.0863037  14.9320250
  62.0265198 144.1293793  14.2195969  60.6329308 145.7067413  14.9986553
  60.4289551 146.4146423  15.6895676  59.4510193 145.3354340  14.2017269
  59.6057434 144.3709717  13.7180176  58.1457024 145.3575745  15.0041656
  58.0035973 146.3461456  15.4408121  57.2591553 145.2153168  14.3861856
  58.1974564 144.2348785  16.0973949  58.9306335 144.5685272  16.8317223
  57.3286934 144.1765289  16.7530937  58.5128136 142.8086853  15.5119953
  58.0490189 142.3773041  14.3896608  59.2160072 142.0496826  16.1980057
  59.3472557 146.1870117  12.9295502  58.5961838 145.7745972  12.0423613
  60.2029495 147.2437134  12.7462111  60.7246742 147.5601044  13.5510674
  60.3069077 148.1614532  11.5772257  60.9687271 148.9780731  11.8657064
  61.0012856 147.3980255  10.3918715  60.4081001 146.6027985   9.9403763
  61.1943817 148.1086273   9.5882187  62.3592644 146.7819366  10.7903967
  62.7897835 147.4686584  11.5192080  62.1842728 145.7998199  11.2296305
  63.3741417 146.5923767   9.6654139  64.2483368 146.0236359   9.9823074
  62.8483009 146.0680389   8.8675060  63.8321877 147.9200439   9.2675762
  63.4004059 148.6967621   9.7475624  64.9060593 148.2365417   8.5443525
  65.6812897 147.3112183   7.9767213  65.2924042 146.3816681   8.0461960
  66.4754639 147.6035156   7.4254041  65.2674866 149.5210876   8.4758863
  64.6957321 150.3012085   8.7667561  66.0735245 149.6944427   7.8924899
  58.9775124 148.8938293  11.2390566  58.6498260 149.1286621  10.0839529
  58.1686554 149.2137909  12.2693863  58.5328827 148.9476318  13.1730471
  57.0413322 150.1367188  12.0877876  56.5974503 149.9269409  11.1146135
  55.9388695 149.8433075  13.0923462  56.3494263 150.1688232  14.0481567
  55.0965118 150.4850616  12.8341188  55.4430466 148.3785858  13.3193855
  55.2390442 147.9831543  12.3243399  56.2287483 147.8077240  13.8142490
  54.1803055 148.3366699  14.1371241  54.1384163 148.6445160  15.3685446
  53.1200752 147.9255829  13.5878649  57.5684471 151.6027985  12.1494675
  58.4713249 151.9862671  12.9312181  56.8689537 152.3939819  11.2928553
  56.1160774 152.0003967  10.7466269  56.9604912 153.8843842  11.2724247
  57.2053146 154.2408447  12.2729692  58.1089058 154.2660980  10.3162947
  57.8517532 153.8608093   9.3376684  58.2067719 155.3498535  10.2529888
  59.0897865 153.8837585  10.5987673  55.6815643 154.5903931  10.7045259
  55.2032738 154.1089478   9.6921453  55.0759392 155.5864716  11.3604822
  55.3549500 155.8392487  12.2976856  53.9574127 156.2498932  10.7453747
  53.4673042 155.5617065  10.0566874  52.9236794 156.5296326  11.7952080
  53.2976456 157.3762817  12.3709240  51.9339867 156.7252502  11.3824768
  52.6190376 155.3122711  12.7196522  51.8712006 154.1750183  12.3206654
  51.6730347 153.3948059  13.3828516  51.1391068 152.4574890  13.4354248
  52.3136902 153.9713287  14.4382439  52.2887230 153.5481110  15.3549547
  52.8680725 155.1716003  14.0342951  53.3210869 155.9621124  14.6141882
  54.2047386 157.5436859   9.9638100  53.2917862 158.0832214   9.3416824
  55.4167786 158.0990448  10.1199284  56.1078949 157.6209717  10.6802034
  55.9079285 159.3432159   9.5207148  55.2668800 159.5336304   8.6599550
  55.8894997 160.4594574  10.5990124  56.5964584 160.3303833  11.4185534
  56.1654892 161.3570404  10.0455770  54.5216713 160.5927277  11.2255726
  53.6859055 161.6250458  10.7076368  54.1015587 162.3219604   9.9949274
  52.4010849 161.8607635  11.2853308  51.7646980 162.6860809  11.0020056
  51.9184418 161.0381012  12.3006020  50.8939819 161.1565552  12.6213045
  52.6925011 159.9784393  12.7651939  52.3270111 159.3497772  13.5636950
  54.0384521 159.8377838  12.3235397  54.7105827 159.1799316  12.8544598
  57.3347015 159.2859955   8.9718218  58.0174675 158.2629089   9.0999451
  57.7813797 160.3283386   8.3499002  57.1423759 161.0962067   8.2010574
  59.1632538 160.4921722   7.9093761  59.8010254 160.5040588   8.7932367
  59.3436890 159.6767273   7.2089667  59.5008888 161.7647858   7.1395450
  58.7628860 162.7388611   7.1063743  60.7191391 161.7862549   6.6387186
  61.1547089 160.8764343   6.5877156  61.2940063 162.9656067   5.9253144
  60.4218063 163.5653687   5.6652508  62.1834869 163.7745819   6.8755336
  62.8665199 163.0610962   7.3365211  63.0029335 164.8759766   6.2157583
  62.3543739 165.6807861   5.8696785  63.6359596 165.2648010   7.0133758
  63.6493301 164.5115814   5.4173307  61.4554596 164.4969940   7.8890271
  61.7333145 164.1175079   8.7259159  61.9987488 162.6536560   4.5761952
  62.7139244 161.6884613   4.4300017  61.7490196 163.4420319   3.5259740
  61.1012573 164.2099457   3.6298888  62.3097343 163.1642761   2.1792698
  62.1958275 162.1084595   1.9335704  61.4230042 163.8824005   1.1375203
  61.7587662 163.7363281   0.1108606  59.9626350 163.5003357   1.2098020
  59.5289726 164.1042023   2.0069079  59.5281715 163.7580872   0.2439317
  59.7679405 162.4450684   1.4011778  61.3641777 165.2697754   1.4287864
  62.0806732 165.7076721   0.9635072  63.7328377 163.7317200   2.0428176
  63.9873924 164.9240112   2.1188695  64.7481461 162.8361053   1.9130380
  64.5140762 161.8706055   1.7309783  66.1133728 163.3140717   1.8212588
  66.3041992 164.2489014   2.3482862  66.9683609 162.0979767   2.4297378
  66.9151611 161.2262726   1.7775153  68.0224915 162.3445587   2.5566990
  66.5981445 161.7519226   3.3947680  66.3880157 163.5302734   0.3137790
  66.2101059 162.6021271  -0.4615582  66.7057419 164.7352142  -0.1146821
  66.7517548 165.4647827   0.5822552  67.2920380 164.9859772  -1.4866174
  66.7821350 164.3425598  -2.2036252  66.9979172 166.4586029  -1.9046998
  65.9915161 166.7049561  -1.5662191  67.6956863 167.1788177  -1.4774749
  67.0390167 166.7274933  -3.4134948  67.8456421 166.1387024  -3.8502738
  66.1009369 166.3972015  -3.8596141  67.2351074 168.2326050  -3.8033440
  66.5551376 169.1505127  -3.2581151  68.1385193 168.5456848  -4.5921931
  68.7696457 164.6730042  -1.5402991  69.5687027 165.3019104  -0.8705075
  69.2303162 163.6552277  -2.3516834  68.5839767 163.0793915  -2.8720193
  70.6903915 163.4775543  -2.6448278  71.3238449 163.3941193  -1.7617135
  70.9508667 162.1415100  -3.3440998  70.4102020 162.2267303  -4.2867136
  72.4361267 162.0893707  -3.7613471  73.0443192 162.4536438  -2.9333956
  72.7953415 161.1086426  -4.0731802  72.5248489 162.7937622  -4.5884318
  70.5754013 160.9836884  -2.4759805  71.2089920 160.8788605  -1.5952599
  69.5671692 161.2594452  -2.1668968  70.5867920 159.6657715  -3.1735241
  71.5906296 159.5170593  -3.5714014  70.3736115 158.8730621  -2.4563880
  69.8596268 159.6700592  -3.9855053  71.2286453 164.7077789  -3.4653351
  70.7500153 164.9348297  -4.5799651  72.1117935 165.4759979  -2.8439243
  72.4126587 165.1613007  -1.9325804  72.6999741 166.6999207  -3.4174247
  72.1901550 166.8854523  -4.3628182  72.3667908 167.9726105  -2.6249855
  72.3444290 168.8357849  -3.2902074  71.3166428 167.9341278  -2.3354778
  73.2423096 168.1882935  -1.3788288  74.2211075 169.1768799  -1.3247832
  74.4181137 169.8063660  -2.1799648  74.9486923 169.4753418  -0.1497995
  75.7577972 170.1890869  -0.1016385  74.6277161 168.7268982   1.0285873
  75.3325043 168.9640656   2.2005954  76.0874252 169.5361633   2.0443766
  73.5621567 167.8317413   1.0108078  73.2635345 167.3166199   1.9118440
  72.8939133 167.4885406  -0.2049221  72.0371399 166.8331451  -0.1521336
  74.1989365 166.5520782  -3.7721126  74.7293549 167.4076996  -4.4229865
  74.9004822 165.4929199  -3.2608306  74.5151138 164.9591522  -2.4948819
  76.2944489 165.2178497  -3.6375232  76.3960495 165.5908051  -4.6566787
  77.2781830 166.1358032  -2.8823612  77.1913223 165.8101196  -1.8457836
  78.3091507 166.0208435  -3.2170231  77.0742416 167.2022247  -2.9785042
  76.5195007 163.7207947  -3.6206524  76.0854263 163.0260010  -2.7038546
  77.1170425 163.2650299  -4.7481914  77.2916489 163.9886169  -5.4308586
  77.2307129 161.8617554  -5.1598773  77.1027832 161.2255402  -4.2841158
  75.9980850 161.6417694  -6.0629826  75.1863708 161.8603516  -5.3691168
  76.0723724 162.3276825  -6.9068508  75.8371964 160.2430725  -6.6832442
  74.8677292 159.3612213  -6.1448002  74.2196960 159.6619263  -5.3348355
  74.7070541 158.0639954  -6.6754541  73.9794693 157.4041443  -6.2264256
  75.4193954 157.6406860  -7.8172607  75.0894012 156.4806213  -8.4536238
  74.8977737 155.7406158  -7.8728642  76.4250793 158.4929352  -8.3638191
  77.0669022 158.1699219  -9.1701250  76.6273193 159.7644806  -7.7064185
  77.3705826 160.4340210  -8.1134567  78.5454941 161.5191345  -5.8121963
  79.0894928 162.3135986  -6.5861497  79.0654755 160.3271027  -5.5175929
  78.4720078 159.7556763  -4.9333320  80.3246307 159.6263428  -6.0310922
  80.4666290 159.9909668  -7.0484390  81.4685059 160.1226501  -5.1508026
  81.2905579 161.1695557  -4.9049821  81.4259109 159.6191101  -4.1850171
  82.9115067 159.9063873  -5.7264843  83.0924454 158.8420563  -5.8767428
  83.0303802 160.3627167  -6.7092018  83.9690552 160.5841217  -4.8110652
  83.4482269 161.1725006  -4.0556464  84.4655533 159.7437439  -4.3259406
  84.9021912 161.3886871  -5.5651684  84.5739212 162.2552490  -5.9669313
  86.0657043 160.9052277  -5.9484835  86.5966797 159.7142029  -5.7427306
  86.0945587 159.1013031  -5.1163559  87.3998489 159.3754883  -6.2529049
  86.8221283 161.7328033  -6.5989251  86.4990387 162.6892853  -6.6282563
  87.7497787 161.4532166  -6.8842144  80.3087158 158.0501709  -5.9876442
  80.2810135 157.4235992  -4.9657407  80.2052689 157.4041290  -7.1534138
  79.9767075 157.9552002  -7.9683914  80.4690399 155.9549866  -7.2514505
  80.0084000 155.4500885  -6.4023337  79.8274307 155.2488861  -8.4688139
  80.1116104 155.8016205  -9.3642683  80.0776520 154.1880035  -8.4678659
  78.3176498 155.3568115  -8.4631042  77.8619614 155.0199738  -7.5319777
  78.0608521 156.4083862  -8.5908651  77.8292389 154.5594330  -9.7189522
  77.0762939 153.5677032  -9.3567829  78.1627426 154.8799286 -10.9188385
  81.9895859 155.6956940  -7.2331491  82.7814941 156.4147339  -7.9081669
  82.4307709 154.6497803  -6.5453753  81.7231598 154.0997467  -6.0796909
  83.7450562 154.0259857  -6.6219220  84.1536636 154.3787231  -7.5688763
  84.6803131 154.5110474  -5.5141435  84.1767654 154.1883240  -4.6028872
  85.6553879 154.0370178  -5.6264749  84.9994278 156.0631714  -5.5095687
  85.4251251 156.3474884  -6.4718843  84.0925064 156.6258240  -5.2881331
  86.0111084 156.4023438  -4.4047594  87.1262894 155.8177643  -4.4392209
  85.8925247 157.3954468  -3.6559744  83.6448898 152.4652405  -6.7211108
  82.5875320 151.8265381  -6.5889287  84.7537155 151.7672119  -6.9735708
  85.6475449 152.2356110  -7.0155745  84.9107285 150.3148193  -7.1837764
  84.1340942 149.8554993  -6.5722418  84.5513535 150.0596466  -8.6721802
  83.5103455 150.3494568  -8.8150301  85.2732010 150.7004089  -9.1786003
  84.8596344 148.6269836  -9.2230921  85.9377899 148.4674072  -9.2085962
  84.3681183 147.8429108  -8.6471148  84.3449097 148.3841400 -10.6863213
  84.3883438 147.2522888 -11.2255116  84.0246277 149.4305573 -11.4613209
  83.7148895 149.2039490 -12.3955622  84.0639496 150.3990326 -11.1773691
  86.3204575 149.8232269  -6.6192012  87.3830032 150.2855835  -7.0785618
  86.2747116 148.9765015  -5.6061525  85.4023209 148.5606842  -5.3126655
  87.4640045 148.4852905  -4.9586749  88.2502213 148.1317139  -5.6257210
  88.0275879 149.3857574  -3.8477955  87.2725372 149.4693756  -3.0661249
  88.8441315 148.7804260  -3.4541848  88.6690750 150.6925201  -4.2277141
  89.5321426 150.4601440  -4.8515849  88.0157089 151.3768463  -4.7689295
  89.1612625 151.4845123  -2.9893467  88.3862228 152.0830994  -2.1648893
  90.3839569 151.7440033  -2.8881896  87.1433411 147.1364594  -4.2094417
  85.9444962 146.8976746  -4.0576091  88.0956726 146.3098297  -3.8601356
  89.0389633 146.6469727  -3.9891272  87.8808212 144.9980621  -3.1236305
  88.8465118 144.5140228  -2.9778612  87.4533234 145.2253265  -1.6708868
  86.4529800 145.6545563  -1.6146306  87.3691330 144.2618408  -1.1681789
  88.3702927 146.1431732  -0.8080195  89.6265640 145.7105713  -0.3428674
  89.9798126 144.7185059  -0.5824974  90.4488297 146.5090179   0.4064095
  91.4629974 146.1992798   0.6111763  90.0487061 147.8457794   0.6569303
  90.9812851 148.6367188   1.2594577  90.8382263 149.5677643   1.0742816
  88.8420029 148.3912354   0.2095830  88.5976257 149.4275818   0.3903089
  88.0193634 147.5232239  -0.5442170  87.0854492 147.9050598  -0.9294530
  87.0871124 143.9658966  -3.9679930  86.5423203 143.0209198  -3.4522035
  86.8559570 144.2903137  -5.2509780  87.2577515 145.1706085  -5.5403237
  86.0642548 143.5180359  -6.1536493  86.2904968 143.5399475  -7.2196875
  86.0920792 142.4533844  -5.9215899  84.6088867 143.9729919  -6.0464220
  83.7544327 143.2049713  -6.4950881  84.2205582 145.1008911  -5.4593801
  84.9171295 145.6486816  -4.9747934  82.8179932 145.5014038  -5.2396111
  82.1399384 144.8255615  -5.7607465  82.3837433 145.5152740  -3.7451365
  81.2989349 145.4090729  -3.7437732  82.9826965 144.2873688  -3.0371370
  84.0409622 144.3659821  -2.7881703  82.4905319 144.1010742  -2.0825832
  82.8695068 143.3987427  -3.6581228  82.7559357 146.8147888  -2.9734209
  83.8430710 146.8933105  -2.9655538  82.3853302 147.7275391  -3.4399276
  82.1025162 146.8893585  -1.6177611  82.6567917 146.2618408  -0.9198352
  82.0686417 147.9334717  -1.3066636  81.0732498 146.5512543  -1.7377913
  82.5784683 146.9135284  -5.8907070  83.4783325 147.7251740  -5.9539914
  81.3022156 147.1212158  -6.2609549  80.5886078 146.4395142  -6.0461211
  80.8249207 148.5298004  -6.5506921  81.6592102 149.0556030  -7.0150156
  79.7180557 148.5408478  -7.5991898  78.9187317 148.0211029  -7.0709481
  79.4505539 149.5748444  -7.8169398  80.0047302 147.7684631  -8.9347115
  81.0729446 147.8994293  -9.1075115  79.8986435 146.6889343  -8.8276033
  79.1105804 148.2170715 -10.1404676  77.8482590 148.2719727 -10.0039749
  79.5969620 148.5697021 -11.2305994  80.3369064 149.2253265  -5.2461538
  79.6577606 148.6213074  -4.4148870  80.6563721 150.4896393  -5.0748372
  81.2631454 150.9573975  -5.7329655  80.2281799 151.2339783  -3.8762610
  79.3096466 150.8144836  -3.4658618  81.3037872 151.1835632  -2.8056781
  81.7081451 150.1720734  -2.8442950  82.4134216 152.1829224  -2.9338372
  82.0416794 153.2035217  -3.0248172  83.0594177 152.1121674  -2.0587428
  83.0193710 152.0220337  -3.8254874  80.6425171 151.4867096  -1.6759981
  81.1438675 151.1934357  -0.9116495  79.8722687 152.6582489  -4.1995578
  80.2298965 153.1194916  -5.2900791  79.1470642 153.4058380  -3.3094101
  78.8465500 153.0144958  -2.4281402  78.7767715 154.8317261  -3.5574577
  79.5901794 155.2100067  -4.1766310  77.4710693 154.8541870  -4.5125999
  77.6579666 154.2224274  -5.3809614  76.2353058 154.3241425  -3.8101201
  76.0696411 155.0018921  -2.9726889  75.3563004 154.2905884  -4.4538064
  76.4261932 153.3484039  -3.3633475  77.2428436 156.2493896  -5.0330534
  78.0920486 156.4983215  -5.6694307  76.2424622 156.3904266  -5.4422531
  77.2160950 157.0009308  -4.2440219  78.6871338 155.7143860  -2.3409002
  78.1435776 155.2781219  -1.3212874  79.3123550 156.8957062  -2.3750525
  79.7659836 157.1687927  -3.2351360  79.3218994 157.8961792  -1.2762930
  79.0615768 157.5101929  -0.2907237  80.7976608 158.3316956  -1.1351385
  81.0567551 158.9689941  -1.9806063  80.7666473 158.9680786  -0.2507426
  81.7812881 157.1491852  -0.9288162  81.5005493 156.5131836  -0.0893002
  81.7599258 156.5294647  -1.8252563  83.2161636 157.5936737  -0.5907782
  83.4842987 158.4581299  -1.1981598  83.1776505 158.0282135   0.4081129
  84.3031158 156.5054626  -0.8596465  84.2726135 155.7488556  -0.0756061
  84.1337585 156.0457153  -1.8333249  85.6429367 157.1056061  -0.9126039
  85.8895950 157.7670898  -0.1903112  86.3017426 156.3520813  -0.7774129
  85.8513565 157.4971008  -1.8200177  78.3844376 159.0883331  -1.5175569
  78.5334854 159.7790985  -2.5635250  77.3959961 159.2841949  -0.6315614
  77.2416611 158.7912292   0.2363476  76.3528671 160.3263397  -0.9177694
  76.7794724 160.8949738  -1.7440686  75.0795135 159.7673798  -1.5142448
  74.4994812 160.6379242  -1.8205432  75.3690567 158.8143158  -2.7017226
  75.8548737 157.9099579  -2.3353686  74.4762878 158.4608307  -3.2175782
  75.9770432 159.3248291  -3.4486015  74.1826248 159.0117188  -0.5427986
  73.8907318 159.6962585   0.2536421  73.2548904 158.7167816  -1.0331203
  74.7096100 158.1297150  -0.1788507  76.0760117 161.1759644   0.3151402
  76.1753006 160.7719879   1.4747441  75.7322159 162.3965607   0.0267632
  75.6601562 162.6353455  -0.9519542  75.2688599 163.3945770   0.9634888
  75.2213287 162.9871979   1.9733831  76.3430557 164.6232910   1.0226629
  76.5179901 165.0732117   0.0453822  75.9034119 165.3431702   1.7130269
  77.6047363 164.2788239   1.7646872  77.4174118 164.3203125   2.8376691
  77.6965332 163.2186584   1.5286499  78.7824249 165.1380310   1.3062837
  79.5941010 164.8941193   1.9916953  79.0197449 164.9786377   0.2544418
  78.6302338 166.6766205   1.5077974  77.6969910 166.9887390   1.0390260
  78.5928421 166.8762817   2.5787022  79.7333374 167.4047394   0.8933111
  79.5673752 167.4492950  -0.1019644  79.7152252 168.3582611   1.2258513
  80.6288452 166.9660797   1.0537233  73.8890610 163.8540192   0.4831214
  73.6232910 164.0550842  -0.7380053  72.9741211 164.0507355   1.4357785
  73.3038177 163.7287140   2.3345037  71.5566101 164.2014313   1.3052980
  71.4388885 164.5296021   0.2725607  71.0021057 162.7695007   1.5569037
  71.1693954 162.3565979   2.5517063  69.9287338 162.8024292   1.3701203
  71.3736496 162.1187134   0.7653729  71.0995636 165.2574921   2.3193419
  71.7797241 165.4663544   3.3212216  69.9202499 165.8180695   2.1617048
  69.5744171 165.8672791   1.2140344  69.3842087 166.9125977   3.0525670
  69.7324142 166.7961121   4.0788646  69.9236526 168.2305450   2.5025837
  70.9774017 168.0027924   2.3418443  69.3231201 168.6540070   1.1527653
  68.3081360 169.0275269   1.2884409  69.9037247 169.4826965   0.7474720
  69.2527618 167.8199921   0.4544953  69.7690811 169.3253632   3.5687082
  68.7840881 169.7424316   3.3590882  69.8431091 168.8860168   4.5634937
  70.8173904 170.4422302   3.3929365  70.8568878 170.7594757   2.3508687
  70.5454025 171.2605133   4.0596714  71.7633057 169.9826050   3.6794243
  67.8661804 166.7550201   3.1560562  67.1733704 166.5360413   2.1408758
  67.2978363 166.8076630   4.3316050  67.9101791 167.0062408   5.1098790
  65.7984772 166.7066650   4.4566298  65.4784927 165.7495880   4.0446682
  65.6369781 166.6935120   5.5345201  64.9506531 167.8657684   3.8942642
  65.0725021 169.0160217   4.4136848  64.2173615 167.7412415   2.8241827
  64.2264481 166.8148041   2.4220407  63.3517303 168.8569946   2.2375638
  63.8210754 169.8077698   2.4902709  63.2689171 168.6835175   0.7397756
  63.0089493 167.6340332   0.6014969  62.4002533 169.2477112   0.4003358
  64.5443802 168.8761139  -0.1297475  65.4291382 168.6934357   0.4801097
  64.4902954 168.1167145  -0.9098050  64.7493210 170.2363434  -0.7129006
  65.2759018 170.1413574  -1.6625232  63.7891693 170.6360931  -1.0391114
  65.4520187 171.1319275   0.2420330  64.7953491 171.6639099   0.7951085
  66.7567673 171.4904022   0.3150853  67.5627670 170.9142914  -0.5501759
  67.1922684 170.1904907  -1.1493089  68.5610352 171.0670013  -0.5346770
  67.1679688 172.3806305   1.1258898  66.5591202 172.9586487   1.6874112
  68.1325226 172.6570282   1.0104071  61.9908943 169.0009613   2.9153943
  61.5477142 170.1129456   3.1779180  61.2669296 167.8863678   3.0508568
  61.6616211 167.0081635   2.7457781  59.7725372 167.8379211   3.4445708
  59.4277954 168.7505646   3.9307373  58.8628082 167.5391083   2.2396567
  59.0936012 166.5165558   1.9409454  57.8555183 167.3684540   2.6196096
  58.8687553 168.5761566   1.0764532  58.0973473 169.3180695   1.2828237
  59.7530327 169.2126617   1.1081177  58.6557846 167.9123230  -0.2797900
  57.9836655 168.4361572  -1.1295416  59.2945175 166.7897339  -0.6994773
  59.1567192 166.4845276  -1.6523472  59.8764076 166.2542114  -0.0711988
  59.5483971 166.7954102   4.4923439  59.9908981 165.6253662   4.2709947
  58.7542458 167.0405731   5.5758190  58.4233894 167.9891205   5.6801515
  58.1783485 165.9851837   6.4281802  58.8699913 165.1584778   6.5903296
  57.7471123 166.6339569   7.7182970  56.9568901 167.3792572   7.6278987
  57.2859039 165.8871613   8.3645926  58.8314285 167.3402252   8.5251789
  59.6310120 166.6236877   8.7131567  59.2936897 168.1775970   8.0024672
  58.2805862 167.7336884   9.8794680  57.7458038 166.8721313  10.2792253
  59.0873566 168.0216827  10.5534735  57.3571053 168.9366302   9.8052559
  57.7072830 169.6567841   9.1897392  56.1215172 169.0871124  10.1081238
  55.4778481 168.0615692  10.6837006  55.9683495 167.3719788  11.2350368
  54.4752426 168.0897217  10.8024368  55.5128021 170.1664124   9.7620926
  55.9884224 171.0124969   9.4827528  54.5110054 170.0518036   9.7040615
  56.9502029 165.3215027   5.7057171  56.3732338 165.9627991   4.8156295
  56.6166344 164.0830841   6.0778203  57.1354980 163.7211456   6.8651447
  55.4905510 163.3146362   5.5470872  54.7863884 164.0719604   5.2025390
  55.8463516 162.5011444   4.3022799  54.9729004 162.0118866   3.8712337
  56.1034546 163.1758881   3.4857450  56.9396553 161.4290161   4.4143386
  56.6100883 160.1719666   4.9250751  55.6334229 160.0752411   5.3758130
  57.5270615 159.1525726   5.0085526  57.2495346 158.1967316   5.4277635
  58.8122520 159.3927612   4.5940108  59.5112801 158.5739441   4.6794477
  59.1674652 160.6423187   4.0014272  60.1618690 160.8096313   3.6146853
  58.2273445 161.6719818   3.9649723  58.4162064 162.6664734   3.5885289
  54.8380623 162.3506927   6.6238222  55.4826698 161.7752533   7.5029888
  53.5731201 162.0447235   6.3734221  53.1720428 162.5656891   5.6067138
  52.7732811 160.9162140   6.9056730  53.2613068 160.6334229   7.8383884
  51.3080406 161.3359833   7.2551827  51.4302979 162.1256409   7.9965339
  50.8570633 161.6858215   6.3265629  50.5222473 160.2428589   7.9415727
  50.8153343 159.2402344   7.6302056  50.7917900 160.1805267   8.9958801
  49.0006714 160.4109497   7.7647500  48.7917976 160.1707153   6.7222719
  48.4676590 159.7860107   8.4813013  48.4927330 161.7783051   8.0623226
  48.9400330 162.2192841   8.9531412  48.8414116 162.4569855   7.2839217
  46.9706383 161.8183899   8.0573301  46.6028633 161.0694275   8.6264486
  46.6549644 162.6805267   8.4782410  46.6608810 161.7073364   7.1024384
  52.8302536 159.7606659   5.9200969  52.6515884 159.9456787   4.7177649
  52.8996086 158.5060425   6.4327564  52.9135780 158.4675446   7.4419255
  52.9347229 157.1612244   5.7411785  53.3792496 157.2452698   4.7494965
  53.8258514 156.1792297   6.5039845  53.4193687 156.0272522   7.5038700
  53.9233665 154.8580933   5.7610698  54.1898575 155.0905151   4.7300172
  54.7138901 154.2021179   6.1255822  52.9958191 154.2856293   5.7545609
  55.2437782 156.7060699   6.6279292  55.2910690 157.7447510   6.9550729
  55.7117882 156.0768890   7.3850236  55.8057137 156.6979828   5.6939793
  51.5928497 156.5013123   5.5535388  50.7810059 156.3330994   6.4781361
  51.3627968 156.0555573   4.3024507  52.0664177 156.1656342   3.5862792
  50.1114311 155.4111023   3.9165530  49.3926697 155.4703522   4.7338457
  49.5345268 156.0229340   2.6359360  50.2773056 155.9090729   1.8463703
  48.6223068 155.4767609   2.3958311  49.0765038 157.4563293   2.7756507
  49.9111557 157.9625854   3.2605963  48.8152084 158.0071259   1.3834802
  48.0345688 157.4333191   0.8840379  48.4023132 159.0139618   1.4460486
  49.6979446 157.9018707   0.7527668  47.8631020 157.6074982   3.6520445
  48.1375732 157.2126770   4.6302438  47.6354942 158.6667938   3.7712758
  46.9934273 157.1096497   3.2232099  50.2123756 153.8718719   3.7906435
  49.4000854 153.0764771   4.3123446  51.3215675 153.5022278   3.1670785
  52.0648994 154.1060333   2.8461971  51.5780869 152.0615845   2.9050441
  51.2446594 151.4712830   3.7585475  50.7824936 151.6109009   1.6312028
  49.7908821 152.0508881   1.7371585  51.1747208 152.1323090   0.7580513
  50.5672379 150.0916901   1.4563003  51.5554008 149.6524048   1.3196641
  50.1377945 149.6968994   2.3770721  49.6319160 149.8724976   0.2714417
  48.4150581 149.9922028   0.4330121  50.1872864 149.5502777  -0.8221329
  53.0765610 151.7994995   2.7580216  53.7798080 152.7553101   2.3897040
  53.5162735 150.5232849   2.9889657  52.9127541 149.7426910   3.2047095
  54.9718552 150.1397400   2.7241094  55.4053040 150.9093628   2.0854352
  55.8053513 150.1218719   4.0312443  55.4052963 149.2675171   4.5772586
  57.2912827 149.8350220   3.7485561  57.7554169 150.7381897   3.3523929
  57.7809219 149.5436096   4.6777668  57.3944092 149.1132812   2.9382656
  55.7365456 151.4231873   4.8582239  56.2924118 152.1761932   4.2995720
  54.6894875 151.6991577   4.9832139  56.3573685 151.3695526   6.2678075
  57.4145203 151.6338654   6.2938223  55.9452362 152.2413025   6.7760367
  56.1832695 150.4481964   6.8235922  55.0059013 148.8707275   1.9155774
  54.7068481 147.8042755   2.4131186  55.4905815 148.9103546   0.6673115
  55.7068443 149.7875366   0.2157658  55.7412338 147.6718597  -0.1539101
  55.2397194 146.7939301   0.2533199  55.2810059 147.8697510  -1.6403941
  54.2428551 148.1957397  -1.5766071  55.7570610 148.7336578  -2.1042135
  55.4115791 146.5964813  -2.4994135  56.4453049 146.2747498  -2.6258786
  54.7510757 145.8294983  -2.0949538  54.8946915 147.0245361  -3.8806541
  53.8755379 147.3726196  -3.7125432  55.5398407 147.7957306  -4.3015456
  54.9673805 145.8482056  -4.8338552  55.0190964 144.9150696  -4.4508462
  54.7857857 145.9506226  -6.1453772  54.8852882 147.1685486  -6.7114968
  55.1561890 147.9255524  -6.1002278  54.6856041 147.3261261  -7.6889405
  54.5781593 144.9257965  -6.9026613  54.3955650 144.0312805  -6.4706831
  54.5574455 145.0772858  -7.9010210  57.1854935 147.3388672  -0.0171662
  58.0543633 148.2084656   0.1296653  57.4790649 146.0366058  -0.1308471
  56.7407494 145.3495789  -0.1853458  58.8894234 145.5386505  -0.1963239
  59.5152206 146.4307709  -0.1716574  59.1753731 144.6571503   1.0618621
  58.6514435 143.7018433   1.0933205  60.7107086 144.3243408   1.0113356
  61.3053627 145.2168579   0.8166801  60.9479218 143.8553314   1.9662535
  60.7509537 143.5249634   0.2714089  58.9755020 145.4326477   2.2964075
  58.0507011 145.3167267   2.5264246  59.1869659 144.8321991  -1.5180395
  58.6070747 143.8122406  -1.8887492  60.0982971 145.4205017  -2.3160620
  60.5404549 146.2454224  -1.9364702  60.4802170 144.8466949  -3.6632676
  59.5475006 144.4646759  -4.0782328  61.0494347 145.9411163  -4.6194081
  61.8730659 146.4349823  -4.1038308  61.4743004 145.3988342  -5.4641161
  59.9945374 146.8121490  -5.2665925  59.2818298 146.1494751  -5.7575045
  59.5023193 147.4041443  -4.4949989  60.4424591 147.7684937  -6.3401232
  60.8920174 148.8539429  -6.0558467  60.3471489 147.3640137  -7.5925031
  60.8322983 147.8902435  -8.3051062  60.2584305 146.4004822  -7.8820882
  61.3666306 143.5921173  -3.6203468  62.0944138 143.3044281  -2.6343470
  61.3178062 142.8529053  -4.7309313  60.8036118 143.2070160  -5.5248518
  61.9160690 141.5481110  -4.9270267  61.6000061 140.9628448  -4.0634990
  61.4369354 140.9246979  -6.2343783  61.8127937 141.4503784  -7.1121473
  61.9252357 139.9511719  -6.2782836  60.0460205 140.7776642  -6.2246842
  59.8540497 139.8429413  -6.1195478  63.4445953 141.6261902  -4.9827824
  64.0953903 140.6040497  -4.7494655  64.0313187 142.8116913  -5.2157469
  63.3883095 143.4838715  -5.6092253  65.4347458 143.1450958  -5.0733294
  66.0321884 142.2789154  -5.3577542  65.7749176 144.3865814  -5.9526358
  66.8526993 144.4688873  -6.0930424  65.3705292 144.2476501  -6.9552646
  65.3309402 145.7317200  -5.5483370  64.9433670 145.9248505  -4.3956294
  65.3811340 146.6476593  -6.4004416  65.9260941 143.3307648  -3.6151717
  67.1345825 143.3836212  -3.3444602  65.0413971 143.5001831  -2.6198180
  64.0664520 143.3495941  -2.8363764  65.2533035 143.7626190  -1.1906990
  64.6949387 142.9507751  -0.7246053  66.3262634 143.6718750  -1.0215356
  64.7857132 145.1122589  -0.6761562  64.4054794 145.2222900   0.4806100
  64.7370377 146.1815491  -1.4740268  64.7551041 146.0216522  -2.4711266
  64.4505768 147.5489197  -0.9643237  64.8862915 147.7445831   0.0154598
  65.1582870 148.7430878  -1.7223424  65.0696487 149.5930176  -1.0456884
  66.6559143 148.5094452  -1.8714830  66.8389511 147.6934814  -2.5706136
  67.2154312 149.4291229  -2.0424905  67.1774292 148.1246643  -0.9950854
  64.6157379 149.2287292  -3.1309881  65.3929901 149.5497284  -3.8244874
  64.3048325 148.3314056  -3.6660249  63.5727844 150.3443451  -3.1533821
  63.8367310 151.0993652  -2.4128587  63.4955559 150.8497009  -4.1160593
  62.6252251 149.8185730  -3.0358994  62.9325523 147.8718109  -0.8107073
  62.0605316 147.2983704  -1.4667038  62.5157776 148.7855835   0.0503968
  63.2601357 149.2754669   0.5258420  61.1668739 149.2260284   0.2874954
  60.4379578 148.4799347  -0.0289361  60.8531532 149.4164124   1.8136238
  61.1515160 150.4118347   2.1425676  59.7711754 149.3007812   1.8772821
  61.4529228 148.3372803   2.6942840  61.2809448 147.3504639   2.2645190
  62.5310936 148.4744873   2.7768602  60.7377548 148.2799377   4.0754151
  60.9977989 149.0720215   4.9853711  59.8326378 147.2801819   4.2472811
  59.3496704 147.3001709   5.1340976  59.6283875 146.5060120   3.6315997
  60.7468452 150.4686432  -0.5141679  61.5618973 151.3422241  -0.8600978
  59.4566193 150.5694733  -0.7521877  58.9549789 149.7140961  -0.5603617
  58.7564583 151.6523590  -1.4889671  59.3994446 152.5129395  -1.6735274
  58.3279686 151.1412048  -2.8631783  57.7746353 150.2066498  -2.7707703
  57.5755501 151.8599854  -3.1877234  59.4388580 150.9029236  -3.9001007
  60.3582077 150.5254211  -3.4524500  59.1527863 150.1581573  -4.6428018
  59.8568420 152.0673218  -4.6988063  59.6113014 153.2237091  -4.4235430
  60.5984459 151.8255920  -5.7438483  60.9975624 152.6043701  -6.2481499
  60.8851013 150.8692474  -5.8966346  57.5565948 152.0050964  -0.6273105
  56.7711296 151.1147919  -0.2669869  57.3660812 153.2767944  -0.3250815
  58.0161591 153.9477386  -0.7089208  56.3903542 153.6593170   0.6583103
  55.7491188 152.8446808   0.9948864  57.0969429 154.1703644   1.9344261
  57.6490364 155.0908203   1.7445149  56.3865623 154.4548187   2.7106659
  57.8126602 153.4360352   2.3040321  55.4241943 154.7221680   0.0422632
  55.8265114 155.7902832  -0.4044027  54.0853920 154.4838104   0.1043631
  53.7987061 153.7534180   0.7403048  53.1115570 155.5356903  -0.2487136
  53.4433060 156.0370026  -1.1579627  51.7392502 154.9674988  -0.4888675
  51.4224319 154.3722687   0.3675403  51.1192436 155.8556061  -0.6110892
  51.6665344 154.2121124  -1.8222824  52.0445442 154.8225708  -2.6423702
  52.2726173 153.3214874  -1.6563122  50.2637634 153.7423553  -2.0997028
  50.0553398 152.9938202  -1.3352695  49.6071053 154.6095581  -2.0298586
  50.1283112 153.1703796  -3.5420237  49.1283684 153.3330231  -3.9442225
  50.7091942 153.8011017  -4.2149715  50.3435173 151.6916656  -3.6594930
  49.6171646 151.1499939  -3.2132797  50.3591766 151.4632416  -4.6431985
  51.1930313 151.4227448  -3.1839833  53.0329018 156.6133270   0.9131270
  52.9194832 156.2348633   2.0960960  53.1500244 157.8954468   0.5830303
  53.2504616 158.2015686  -0.3742047  53.2068558 158.9557190   1.5792607
  52.8674583 158.5943756   2.5500050  54.7149010 159.3839569   1.7513423
  54.7710915 160.2293243   2.4371388  55.6158295 158.2710876   2.3673782
  55.5290108 157.3990173   1.7192417  56.6524506 158.5897522   2.4767404
  55.1809616 158.0424805   3.3403795  55.3518143 159.7814636   0.4050869
  54.7957611 160.5402374  -0.1455278  56.3769035 160.0858307   0.6164086
  55.5350380 159.0332336  -0.3660668  52.4019356 160.1856232   1.1887389
  52.1311531 160.3577728  -0.0047819  52.0424042 161.0827026   2.1196764
  52.0892334 160.7058868   3.0555794  51.5332184 162.4536133   1.8433444
  51.4081268 162.5850220   0.7685478  50.0791740 162.5977173   2.4020517
  49.3417892 161.9645691   1.9085889  50.0899506 162.4589996   3.4831371
  49.5632744 164.0506134   2.3527124  50.2074165 164.7739563   2.8526621
  49.5031242 164.4000549   1.3219994  48.1865883 164.0809326   2.9781461
  47.3977776 163.1888275   2.6963141  47.7263718 165.0710907   3.7695901
  46.8218880 164.9800568   4.2097287  48.2458153 165.9358826   3.8188984
  52.5013580 163.4862823   2.4299264  52.9040833 163.4672852   3.6103978
  52.9876480 164.3841858   1.5321211  52.5038795 164.2564545   0.6547652
  53.8431244 165.5156097   1.8408915  54.6825333 165.1661530   2.4420407
  54.5346031 166.0911865   0.5687927  53.7339706 166.0164185  -0.1670727
  54.8814468 167.5481262   0.6565425  55.3875732 167.7532501   1.5998652
  55.4528122 167.8594055  -0.2179543  53.9873276 168.1669312   0.5808521
  55.8719711 165.3363647   0.2215058  56.2368546 165.6112061  -0.7681542
  56.6629333 165.7071991   0.8734083  55.8706284 163.8084412   0.2315483
  54.9827766 163.4728241  -0.3043315  56.7308693 163.3068542  -0.2117180
  55.7768822 163.5131683   1.2765957  53.0986519 166.4348145   2.8130605
  52.2139626 167.1973419   2.3889165  53.4562492 166.4007721   4.1067672
  54.2825050 165.8414612   4.2635612  52.9864311 167.3781128   5.0836596
  51.9102325 167.4195709   4.9157996  53.1634636 166.8642731   6.5398951
  54.2179947 166.6215973   6.6709609  52.9162064 167.5927582   7.3120828
  52.2969513 165.6007996   6.8793988  52.5989799 164.7142792   6.3217635
  52.4539909 165.2833557   8.3842926  52.1844177 166.1690674   8.9595881
  51.8041916 164.4350281   8.5992203  53.4533730 164.8896332   8.5695305
  50.7535934 165.9120178   6.6424599  50.5458755 165.8492279   5.5742774
  50.0492554 165.3274841   7.2343454  50.4590912 166.9008179   6.9940867
  53.4983215 168.8686981   4.9563551  54.6979790 169.0166779   4.7675071
  52.5908279 169.8210907   5.1581621  51.1595421 169.7660065   5.2692127
  50.9174461 169.1695251   6.1488109  50.7060127 169.3952332   4.3500113
  50.6617470 171.2513733   5.4403386  50.6926651 171.5227203   6.4955716
  49.6908379 171.4221497   4.9752970  51.7800751 172.0076141   4.7552257
  51.6485901 173.0539703   5.0308371  51.7804832 171.9720764   3.6657999
  53.0586166 171.2250977   5.1344194  53.8081093 171.3836670   4.3590350
  53.4950142 171.7860565   6.4782672  53.0243721 171.3580322   7.5556464
  54.1102333 172.9389038   6.4379163  54.3470879 173.3799896   5.5607367
  54.1492043 173.8885803   7.5612111  54.2734489 173.3424530   8.4963102
  55.3646584 174.8948517   7.3612113  55.2815475 175.3214874   6.3616238
  55.3453217 175.6819611   8.1149950  56.7137299 174.2718964   7.5684056
  56.8899422 173.4279175   6.9015183  57.4772377 175.0042877   7.3061891
  56.9048882 173.7820892   8.9687881  57.5113106 174.5577850   9.7830973
  56.5138512 172.6275024   9.3716450  52.8095436 174.6772156   7.5839362
  52.4024429 175.2525635   6.5634303  52.1780052 174.7714081   8.7824850
  52.4675598 174.3787231   9.6668234  50.9536514 175.6473236   8.8822212
  50.5461426 175.7366180   7.8752155  49.8457680 175.0110168   9.7070541
  50.2728043 174.8477936  10.6965475  49.0198860 175.7190247   9.7758684
  49.4022255 173.6491699   9.0961895  48.9878120 173.7972717   8.0989771
  50.2056046 172.9135132   9.0575161  48.3270454 172.9015198   9.9090185
  48.0864830 171.9628448   9.4099007  48.5930138 172.6310730  10.9308939
  47.1112289 173.7334137   9.9258728  46.6683121 173.7165070   9.0183268
  46.3701515 174.1683197  10.9455843  46.8794708 174.3449097  12.1389427
  47.8448753 174.0664215  12.2416134  46.2197990 174.6585541  12.8364830
  45.1518440 174.5358887  10.8480892  44.6196976 174.2951202  10.0241003
  44.6216850 174.5517883  11.7076130  51.4043884 177.0347290   9.3655443
  51.3409882 177.2936707  10.5586443  51.8318443 177.8655548   8.4174728
  51.8866119 177.5612030   7.4559793  52.5072632 179.1143036   8.6804581
  53.2669678 179.0299530   9.4575243  53.3295937 179.5009766   7.4090333
  52.7528229 179.4541626   6.4853230  53.8647537 180.9381561   7.5302601
  54.1980057 181.2106171   8.5316677  54.7237740 180.9181976   6.8596029
  53.0352058 181.5671844   7.2073441  54.5240707 178.4922028   7.1751418
  54.0642357 177.5220795   6.9867339  54.9643669 178.6712036   6.1942239
  55.3105278 178.5320129   7.9288030  51.4475288 180.1939392   9.0321751
  50.4545403 180.3688965   8.3917542  51.5443039 180.7951050  10.2465324
  52.3856468 180.6721802  10.7916260  50.6154442 181.7270508  10.7870436
  49.6549759 181.6387177  10.2793083  50.2680550 181.2497101  12.2418842
  51.1544456 181.2552795  12.8762226  49.5447273 181.9728394  12.6187000
  49.5618477 179.8480835  12.3214540  50.0105934 179.0696869  11.7043371
  49.5282097 179.3699036  13.8318062  48.7490120 179.8819580  14.3963766
  49.1965218 178.3337708  13.7644539  50.5729446 179.4858704  14.1202154
  48.0766335 179.9325409  11.9457045  47.9677505 180.4246674  10.9792309
  47.8146553 178.8833771  11.8088665  47.4429703 180.3878784  12.7067814
  51.1125336 183.1846161  10.6173563  52.2935486 183.4864807  10.8131237
  50.1773300 184.2006226  10.5154428  48.7368889 184.0832977  10.3345222
  48.2661667 183.4301300  11.0692902  48.5980568 183.6895599   9.3276491
  48.0500259 185.4785156  10.5626497  47.7322960 185.6557922  11.5901327
  47.2367706 185.7135162   9.8760023  49.2946815 186.3101349  10.1460428
  49.2371559 187.3275452  10.5329437  49.1981850 186.2777557   9.0608053
  50.5896721 185.6045685  10.5617971  51.4498634 185.7481537   9.9079161
  50.9206123 186.0519867  12.0144129  50.7517700 185.3210602  12.9636488
  51.1940842 187.3476562  12.2033682  51.4846306 187.9529419  11.4488401
  51.2197647 187.9854279  13.4874859  52.0504799 187.6193848  14.0908384
  51.4244804 189.5256348  13.2703028  52.3344154 189.7043610  12.6974382
  50.6181297 189.9530640  12.6743031  51.4617424 190.2639008  14.4831533
  51.6806107 191.1884460  14.3457069  49.8815918 187.7023315  14.1778421
  48.8134270 187.8039551  13.5799675  49.9151459 187.4072876  15.4811249
  50.7616844 187.5338440  16.0172710  48.7079430 186.9949646  16.2458344
  48.2214928 186.2063446  15.6717720  49.1161919 186.3160858  17.6025734
  48.2476349 185.8888550  18.1037521  50.1438217 185.1744232  17.3420448
  51.1138306 185.4139404  16.9063568  50.5120239 184.7576141  18.2794876
  49.6532898 184.4626312  16.6780987  49.7121277 187.3425598  18.4351635
  50.2746964 186.8858032  19.0648270  47.7242203 188.1067963  16.5777512
  46.6383705 187.7743988  17.0478230  48.0657196 189.3690796  16.3088799
  49.0063515 189.5503235  15.9887848  47.1611443 190.5035553  16.5091743
  46.3466568 190.2954254  17.2029953  47.9659538 191.7823029  17.0189877
  48.7429390 192.0376129  16.2984238  47.3255386 192.6636810  16.9852829
  48.5607872 191.7405701  18.3520336  49.2610588 190.9107971  18.4479237
  49.1914520 192.6257172  18.4349174  47.3866234 191.9533234  19.6955509
  47.1839294 190.2033539  20.1749954  48.1115646 189.6310120  20.1785011
  46.8077393 190.0838470  21.1910152  46.3757553 189.7525177  19.5990696
  46.5616264 190.8536987  15.1454630  45.7255554 191.7407227  15.1075993
  47.0240402 190.2728729  14.0403490  47.7173576 189.5384216  14.0392551
  46.6988831 190.8113251  12.7163286  47.1556473 191.7969208  12.6264706
  47.3548698 189.9696655  11.6302328  47.3421860 190.5181427  10.6883669
  48.4031448 189.8475037  11.9028168  46.7651939 188.6772003  11.4185200
  46.3793526 188.5606537  10.5472336  45.1521263 191.0329590  12.4749889
  44.6881599 192.1162262  11.9419584  44.3828926 190.1349792  12.9639511
  44.8850060 189.3551788  13.3638229  42.9168625 190.0208282  12.8546705
  42.7332306 190.4165802  11.8557911  42.5747986 188.5435791  12.7843695
  43.0132790 188.2628174  13.7419748  41.5090942 188.3215332  12.8397818
  42.9750214 188.0930786  11.8760929  42.0429993 190.9440460  13.7582541
  40.8624611 191.1284180  13.5596151  42.6936378 191.4964600  14.7655354
  43.6545219 191.1874695  14.8020773  42.1933556 192.4302826  15.7562389
  41.1237411 192.5168304  15.5651093  42.2195854 191.8224792  17.1931858
  42.1048737 190.7535095  17.0136604  43.5507317 192.1647491  17.8961391
  43.5400505 193.1939545  18.2548866  43.6015472 191.6579285  18.8598022
  44.4008026 191.9756775  17.2406025  41.0132294 192.2583618  18.0540962
  40.1436577 191.7815247  17.6017914  41.2679596 191.8157959  19.0170860
  40.9149551 193.3387299  18.1600838  42.7630005 193.8951416  15.6352530
  42.0800552 194.8400574  16.0673733  43.9208679 194.1071014  15.0045347
  44.4884949 193.2765198  14.9148445  44.6328125 195.3700409  14.9804277
  44.2517586 195.9271851  15.8362865  46.1478882 195.1876068  15.1610346
  46.4459038 196.1831512  15.4899349  46.4051743 194.5594025  16.0138397
  47.0101547 194.7133789  13.9843512  47.0811539 193.6324921  14.1058750
  46.4604530 194.8317719  13.0505848  48.4037628 195.2337036  13.7532959
  48.8587112 196.0846252  14.5697985  49.1090393 194.7390747  12.7691622
  50.0903320 194.9629669  12.6852598  48.7180595 193.9720001  12.2411108
  44.2793655 196.2938995  13.8516750  45.0016479 197.2413940  13.5204725
  43.1527367 196.0493011  13.1767817  42.6561928 195.1990051  13.4016066
  42.6566200 196.9054718  12.0987339  43.5256996 197.0303650  11.4528236
  41.5250740 196.1178436  11.2810984  40.9061089 195.4887390  11.9207926
  40.9108467 196.9362946  10.9056511  42.0521240 195.4025269  10.0482311
  42.6470451 196.0570526   9.4112349  42.9989319 194.2255554  10.4842882
  42.6743927 193.7680206  11.4188671  43.0194397 193.4266205   9.7430763
  44.0248795 194.5745087  10.6015940  40.9801598 194.7035675   9.2686405
  40.1556892 195.3731232   9.0235834  41.3370590 194.1979980   8.3713570
  40.5780678 193.9390259   9.9333792  42.1767502 198.2146912  12.6320238
  40.9923439 198.4431305  12.9619160  43.0319939 199.2011566  12.6289701
  43.9513016 198.9154968  12.3233957  42.8824615 200.6292419  13.0653610
  42.0238800 201.0339508  12.5295000  42.6998177 200.7108154  14.6288776
  42.6283836 201.7652130  14.8957796  41.7824364 200.2237091  14.9593801
  43.7816391 199.9968719  15.4835997  43.9338188 198.9735107  15.1405478
  44.7508659 200.4955750  15.4861240  43.4313622 199.9504242  16.9708195
  43.6700363 198.9533234  17.6208324  42.8616219 200.9742889  17.5983906
  42.5917892 200.8740234  18.5664997  42.5433350 201.7570953  17.0452023
  44.0457840 201.4742126  12.4937954  45.0051765 200.8814392  12.0154257
  44.0465546 202.7608643  12.7300062  43.2338333 203.1418762  13.1930523
  45.1244316 203.6802826  12.2474947  45.1996689 203.5590515  11.1668711
  44.6822510 205.1344910  12.5540695  45.5781784 205.7537842  12.5104856
  44.0656166 205.4740601  11.7218714  44.1501198 205.2201385  13.8699751
  43.7940826 206.1110992  13.9021339  46.5235023 203.4091034  12.8945484
  47.5770302 203.8605194  12.3591852  46.6399574 202.7911682  14.1039944
  45.7956657 202.4796143  14.5624781  47.9573288 202.3644562  14.7417974
  48.6830673 203.1767883  14.7808771  47.7136421 202.0363770  16.2246819
  46.8492584 201.3726807  16.2460251  48.5195351 201.4148560  16.6150322
  47.5440178 203.2801819  17.1224060  48.2733879 204.0295410  16.8148823
  46.1379623 204.0107574  17.0868149  45.3501396 203.3280334  16.7685127
  45.9263420 204.5196991  18.0271854  46.1625710 204.7956848  16.3309059
  47.8553200 202.8974915  18.5650387  48.8863831 202.5472260  18.6133213
  47.8777351 203.7131195  19.2877712  47.1812172 202.1200409  18.9245663
  48.7316093 201.1777344  14.0336447  49.8695564 200.9915771  14.3132725
  48.0777435 200.4395599  13.2005310  47.1113777 200.6421661  12.9879684
  48.7215538 199.2619629  12.6366606  48.9112740 198.6113434  13.4903574
  47.8136749 198.5726166  11.7162094  48.3213806 197.6376343  11.4792776
  46.9574966 198.2286072  12.2964869  47.5046196 199.4060974  10.5590944
  46.6275024 199.7661896  10.7094164  50.1085587 199.4715881  11.9509888
  50.9790993 198.6223450  11.8893251  50.3096848 200.7273407  11.4223614
  49.5458527 201.3876801  11.3975267  51.6154251 201.2249603  10.9347792
  52.0405273 200.3951263  10.3701811  51.3201294 202.3057861   9.8026085
  52.1653214 202.3529816   9.1159334  50.5031128 201.8380737   9.2532225
  50.9131050 203.6175690  10.4760227  49.8991623 203.4665070  10.8464289
  51.6213150 203.9104004  11.2511320  50.8467255 204.7808533   9.5065889
  51.8027153 205.2696991   9.3189392  50.5069313 204.3437958   8.5676317
  49.7450027 205.7328644   9.8317909  48.8313370 205.4654846   9.4944067
  49.8591118 206.8639679  10.4095497  50.9879036 207.2732697  10.8098202
  51.8113365 206.8623810  10.3936110  50.9457245 208.1439209  11.3200102
  48.8290482 207.5555267  10.7204094  47.8907204 207.2092285  10.5800047
  49.0422974 208.4517822  11.1343641  52.7378235 201.6623535  11.9190254
  53.8075676 202.0538940  11.4335518  52.5554237 201.5174103  13.2673378
  51.6730156 201.1203766  13.5568447  53.6956062 201.5492249  14.2424469
  54.1712494 202.5264893  14.1599150  53.0989456 201.5644836  15.6468878
  52.2655678 200.8682098  15.7405901  53.8530769 201.2297058  16.3591499
  52.5574799 202.9158936  16.0706768  53.3358421 203.6686859  15.9460344
  51.7118111 203.1812592  15.4362345  52.2012215 203.0097351  17.5627022
  51.2247353 203.4940643  17.5614185  52.0989609 202.0502167  18.0696335
  53.1705284 203.7722626  18.3524170  53.8557854 204.1990356  17.7454567
  53.3047562 203.8658447  19.7001476  52.4239197 203.3058167  20.4345837
  51.5655975 203.0161743  19.9879379  52.4624176 203.2953949  21.4437962
  54.3126259 204.4763947  20.2752934  54.9768829 204.9288940  19.6636486
  54.4053268 204.7003937  21.2557735  54.7515831 200.4233704  14.0791721
  54.5397873 199.2891388  14.5756617  55.8204117 200.7378693  13.3301144
  55.8947372 201.6816711  12.9782305  56.6365967 199.6624756  12.7137251
  56.0422554 198.7489014  12.7293968  56.8386078 200.0549469  11.1972303
  55.9435501 200.5334930  10.7997847  57.6487274 200.7838593  11.2191830
  57.1763382 198.9780426  10.2224407  58.2550926 198.9252777   9.2909813
  57.9402390 197.8011627   8.5689125  58.6640511 197.4009705   7.8743992
  56.7834702 197.2592468   8.9130878  56.4355507 196.4243622   8.4636335
  56.2603836 197.9938812   9.9304762  55.2770500 197.8620453  10.3571777
  57.9523430 199.3238831  13.4114151  58.2518997 199.9550629  14.4225626
  58.6680336 198.2937012  12.9491472  58.4034233 197.9523468  12.0361538
  59.8359566 197.6049500  13.5584641  59.7460709 197.7887573  14.6290894
  59.6980667 196.0806732  13.2477570  60.6699066 195.6468201  13.4831104
  58.5854187 195.3526001  14.1245975  57.5793571 195.4668274  13.7209997
  58.8862915 194.3105316  14.2327080  58.7199249 195.7249756  15.1401472
  59.4253387 195.7365570  11.7605591  58.3840752 195.9122467  11.4903679
  60.0911865 196.3755188  11.1804934  59.8736000 194.2669067  11.4709988
  59.3075066 193.5419312  12.0558510  59.6944275 194.0572052  10.4164734
  60.9459114 194.1118927  11.5902586  61.1944084 198.1883545  13.1004419
  61.3201904 198.8560486  12.0544119  62.3132019 198.0557709  13.7666969
  63.0398369 198.6151123  13.3433380  62.8656960 196.9741974  14.6351042
  63.8185806 197.4117737  14.9328346  62.1340256 196.8717651  15.9767275
  61.1849480 196.3817291  15.7594395  62.7582550 196.1254272  16.4680710
  61.9712486 198.1406555  16.8714085  63.0486870 199.0813141  17.0093670
  64.0321808 198.8773041  16.6124783  62.8436089 200.1846466  17.8875504
  63.6978455 200.8127136  18.0929909  61.5551529 200.3937378  18.4584980
  61.4048920 201.1391754  19.2253952  60.5011215 199.5040894  18.3012333
  59.5554276 199.7141113  18.7786808  60.7115822 198.3836517  17.5290546
  59.9013176 197.6777496  17.4214115  63.2124825 195.6401062  13.9658089
  63.6379662 195.6439667  12.7943487  63.2112427 194.4244690  14.6325493
  62.0491371 193.8286743  15.3378620  61.0997276 194.2511749  15.0089064
  62.1954918 193.9684448  16.4089088  62.1430855 192.3444061  15.0302916
  61.7929993 192.0248108  14.0487661  61.5374756 191.8046570  15.7583036
  63.6773186 192.1741028  15.1510601  63.9118805 191.2697296  14.5896387
  63.9165230 192.1000671  16.2119083  64.3356094 193.4906616  14.6886148
  65.0439911 193.8041687  15.4554329  64.9998322 193.3488922  13.3661623
  64.3782425 192.8914490  12.3745537  66.3064346 193.6516571  13.2352123
  66.5815048 193.6564484  12.2634010  67.4153748 194.0323334  14.1928616
  68.3228149 194.1079559  13.5937462  67.6507416 192.8360748  15.1603918
  68.6408920 192.9875793  15.5902271  66.9342957 192.8955994  15.9796925
  67.6956024 191.5556335  14.4738979  67.5318832 190.8974152  15.1532707
  67.1765366 195.3799896  14.8649073  66.1347809 195.9988708  14.9394665
  68.2855453 195.8778687  15.3800039  69.1287689 195.3240967  15.3308449
  68.3544998 197.0042419  16.2739277  67.5100632 197.6354675  15.9971828
  68.1777649 196.4820709  17.6996956  67.8121567 195.4559174  17.7374840
  69.1411667 196.4522705  18.2086945  67.4405212 197.2726440  18.5306282
  66.5111313 197.0369110  18.4829922  69.4736099 198.0945587  16.1261272
  69.4654083 199.0969696  16.8455753  70.5380554 197.9801788  15.3105888
  71.0577698 198.8444366  15.2553110  71.1934814 196.9530487  14.5007076
  72.2317429 197.2826080  14.4617367  70.6207428 196.9004822  13.0335541
  69.6890717 196.3434753  13.1326923  70.3701553 197.9201050  12.7408590
  71.3835449 196.0480957  11.9941750  71.5145569 195.0428467  12.3946867
  70.7611008 195.9374237  11.1062431  72.8065643 196.5535431  11.6784353
  73.4234543 196.4575043  12.5719261  73.2796478 195.8791351  10.9646788
  72.8013306 197.9959412  11.2332535  72.1763916 198.5201569  11.9562635
  73.7635422 198.5079803  11.2411861  72.3625641 198.0704803   9.8373909
  71.4910736 197.5654449   9.7628746  72.0430450 199.0152740   9.6781578
  73.0197983 197.8390503   9.1062336  71.4419479 195.6205139  15.2113676
  70.6635208 194.6883087  14.9281397  72.2349167 195.5728912  16.2717304
  72.0569916 194.5448151  17.3068161  72.0341797 193.5120087  16.9591064
  71.2380066 194.8200684  17.9713440  73.2958679 194.5605469  18.1287498
  73.5856171 193.5875702  18.5255680  73.2119904 195.4008179  18.8179531
  74.3639984 194.8954620  17.0610161  75.3261261 195.2510223  17.4297829
  74.5618439 194.0342560  16.4228153  73.6261597 195.9413300  16.1846199
  73.9372482 195.8382721  15.1450481  74.0376358 197.3694458  16.6067352
  73.4566650 197.8965912  17.5694904  75.2042236 197.8513489  16.1884365
  75.6706848 197.2922821  15.4884615  76.0001907 199.0119476  16.6927586
  76.8386688 199.0309906  15.9965601  75.2141800 200.2967987  16.5660400
  75.0899506 200.4626617  15.4959221  74.2236176 200.1895752  17.0080795
  75.8314590 201.5656128  17.2609062  75.8469772 201.5151367  18.3496246
  76.8832779 201.6956024  17.0061855  75.0507812 202.7984924  16.9017582
  73.9994202 202.6185303  17.1261349  75.4165878 203.6511078  17.4738922
  75.1702347 203.0968018  15.3925076  76.2469406 203.1211548  15.2245445
  74.7117996 202.2797852  14.8353615  74.4799347 204.3692627  15.0652676
  74.8665924 205.1055450  15.6384029  74.7461319 204.5895081  14.1161966
  73.4753418 204.2794342  15.0121698  76.6734467 198.7970123  18.0761414
  77.7350464 199.3225555  18.3362770  76.1196823 197.8967896  18.9145985
  75.2105331 197.5418854  18.6546059  76.6930008 197.4850159  20.2037315
  77.5282211 198.1620789  20.3829231  75.6611328 197.6649017  21.2933540
  76.1042862 197.2052917  22.1767979  75.3318024 199.1394501  21.4882183
  74.7999039 199.5410461  20.6257191  74.7715759 199.1467285  22.4232025
  76.1705170 199.8222656  21.6239338  74.4025803 196.8617249  21.0681782
  74.7023392 195.9451904  20.5600204  73.8663483 196.6052246  21.9818306
  73.7047577 197.4154358  20.4400578  77.3667374 196.1299896  20.3647842
  78.0798111 195.9232635  21.3589764  77.2943802 195.2361450  19.3431702
  76.8601532 195.6134949  18.5130157  77.6352615 193.8221741  19.3950272
  77.3959351 193.3642273  18.4352779  79.0812073 193.5853424  19.6173229
  79.4157028 193.8222961  20.6273022  79.3386002 192.5285797  19.5457726
  80.1003036 194.3155975  18.7052288  81.0637970 195.1358337  19.1756382
  81.1567383 195.2441711  20.2461643  81.9014511 195.5149994  18.1459045
  82.7454910 196.0695343  18.1591396  81.6247101 194.7772522  17.0381546
  82.3345642 194.6685944  15.7891178  83.1973343 195.3029175  15.6489058
  81.8035507 193.9040070  14.7581205  82.2058105 193.9362793  13.7563477
  80.5739517 193.2120056  15.0089579  80.1969070 192.5750122  14.2225294
  79.9870300 193.2266541  16.2728539  79.1068039 192.6577454  16.5335159
  80.4878616 194.0227814  17.3220501  76.7159958 193.0379181  20.4094067
  75.5149078 193.1629181  20.3146553  77.2469711 192.1766357  21.3031788
  78.2539215 192.1014099  21.2811089  76.6552811 191.4440765  22.4491501
  77.5443726 190.8704224  22.7109833  75.5999527 190.3310547  21.9867783
  74.8244553 190.2111053  22.7432957  75.0964355 190.6054230  21.0597954
  76.3490448 189.0799408  21.6680737  75.6162186 188.4707184  21.1389885
  77.1718445 189.3264923  20.9970245  76.6637268 188.1876984  22.9025784
  76.0785599 188.2742767  23.9847393  77.7327118 187.4204407  22.8476944
  78.0040512 186.9791565  23.7147293  78.2143631 187.3806458  21.9608250
  76.2702332 192.3265228  23.6625347  76.0612030 193.5096436  23.5012226
  76.2154083 191.7329407  24.8679028  76.2475967 190.7280121  24.9637203
  76.2543564 192.3505707  26.2052708  75.9002991 191.6031189  26.9152374
  77.6669846 192.7740784  26.7076397  77.8971863 193.7919159  26.3928070
  77.6122284 192.7323151  27.7954617  78.8065491 191.9591980  26.0710258
  79.4818268 192.3888397  25.0905666  79.2080612 190.9451752  26.7059765
  75.3974686 193.6004028  26.4154949  75.7531815 194.7252045  25.9478607
  74.2603607 193.4262085  27.1648426  74.0265579 192.4757233  27.4138508
  73.3936615 194.4937897  27.6462593  72.4539032 194.0438080  27.9663601
  74.0138168 195.1558838  28.9684677  73.2540741 195.8660278  29.2949219
  74.0884857 194.3690186  29.7190437  75.3387680 195.8815308  28.8939152
  75.6108398 196.0303802  29.9388676  76.1162109 195.2867432  28.4144135
  75.3880463 197.3654480  28.4397964  74.4158325 197.8335876  28.5938950
  76.0403748 197.9573212  29.0818672  75.9134598 197.5903015  27.1015816
  75.3278198 197.4230499  26.2958813  77.1945190 197.7272797  26.7124596
  78.2008438 197.7897644  27.5386391  77.9978943 197.5578461  28.5004711
  79.1600266 197.8004913  27.2224655  77.4809952 197.7726593  25.4176464
  78.4264984 197.8723145  25.0767593  76.7528076 197.6392822  24.7305832
  72.8135223 195.4333038  26.5824509  72.7232895 195.1454315  25.4093018
  72.2840118 196.5820618  27.0585403  72.2562866 196.6338043  28.0668316
  71.4399338 197.6521912  26.3535690  71.3944397 198.4679565  27.0750656
  72.2331543 198.2561188  25.1500683  72.5983658 197.5836487  24.3738632
  71.5804443 198.9325104  24.5981922  73.0746384 198.8247681  25.5458698
  69.9734344 197.2973785  26.0816822  69.0011749 197.9857483  26.3876076
  69.7446060 196.2469330  25.2673454  70.5317307 195.7609711  24.8619118
  68.4421387 195.8666840  24.6896286  68.0662613 196.8302612  24.3456364
  68.6975250 195.1375732  23.3130302  67.7008972 194.7912598  23.0393276
  68.8781891 195.9101105  22.5655994  69.7090454 193.9170990  23.2193871
  69.2786789 192.6140289  23.4675140  68.2229919 192.4802856  23.6519833
  70.1897049 191.5370941  23.3590298  69.9605103 190.5126801  23.6128922
  71.4872208 191.7291260  22.8152714  72.2180405 190.9399719  22.7176037
  71.8875580 193.1027374  22.5722389  72.8690033 193.2820129  22.1586704
  71.0446396 194.1750488  22.8344402  71.3871460 195.1838379  22.6571560
  67.3048553 195.3629608  25.6475010  66.1896133 195.0630035  25.2855358
  67.5777588 195.2440338  26.9706173  68.5444031 195.4327240  27.1944580
  66.6561279 194.5444336  27.9098587  66.3104324 193.5806427  27.5360889
  67.2104034 194.2913208  29.3584499  67.0306015 195.1415710  30.0163612
  66.5368500 193.5724792  29.8250237  68.6512146 193.7015686  29.5402374
  68.5516052 192.8497925  30.2130375  69.0023117 193.2219696  28.6265564
  69.6240616 194.7533722  30.1338730  70.6758652 194.4720306  30.1854706
  69.4862366 195.6062927  29.4693069  69.2547226 195.1996613  31.4813156
  68.7800217 194.5438995  32.0852394  69.5684280 196.3509216  32.0614510
  70.0899582 197.4128876  31.4810314  70.3341446 197.4188538  30.5010128
  70.1032562 198.2904816  31.9807796  69.2625809 196.4598389  33.3105545
  68.7480621 195.7281952  33.7796860  69.2206726 197.3210144  33.8366089
  65.3619690 195.4249878  27.9640007  64.2853699 194.8533478  27.8065529
  65.5058365 196.7305450  28.2049427  66.4502182 197.0828247  28.2693787
  64.4367447 197.6726074  28.1349220  63.7058487 197.4478302  28.9116917
  65.0464630 199.0561523  28.5344143  65.8909531 199.2548981  27.8745422
  64.2457657 199.7950745  28.5027657  65.7427597 199.0924072  29.9706078
  64.9472885 198.7421265  30.6283512  66.5921402 198.4113159  30.0232735
  66.1787949 200.5180054  30.4149990  67.0772400 201.1552429  29.8108692
  65.6670685 201.0242462  31.5187130  66.0576096 201.8861084  31.8719444
  65.0031586 200.5115051  32.0812302  63.6949883 197.7804871  26.8093357
  62.5151749 198.1020966  26.7497749  64.3360672 197.4860840  25.7110634
  65.3122330 197.2498627  25.8177509  63.7325974 197.3029938  24.3691483
  62.9914093 198.0692596  24.1420498  64.8158340 197.3806305  23.3217430
  65.1047821 198.4310913  23.3555241  65.6454926 196.6958160  23.4972744
  64.2650757 197.0796509  21.9669571  63.6142616 197.9272461  21.1346207
  63.3806419 198.9527740  21.3798103  63.1070023 197.2101898  20.0484715
  62.6111107 197.6342621  19.2775249  63.4321823 195.8519287  20.1315327
  63.2074738 194.8032837  19.2401695  62.6394768 194.8811035  18.3248997
  63.8692322 193.6055756  19.4634781  63.8154564 192.8750305  18.6698761
  64.6755981 193.4517975  20.6397781  65.2141647 192.5229950  20.7567768
  64.8095551 194.4715118  21.5279446  65.4637909 194.3965759  22.3839569
  64.1870956 195.7608490  21.3559418  62.9260979 195.9902802  24.2413960
  61.9178543 196.0171814  23.5895653  63.3123970 194.8908386  24.8705750
  64.2350769 194.8230133  25.2757416  62.4323921 193.6896210  24.9228840
  62.1350136 193.4642029  23.8987484  63.1998024 192.4270630  25.4103966
  63.8767395 192.6909485  26.2229366  62.4973259 191.7345886  25.8741817
  63.9387932 191.7153015  24.3603954  65.2936325 191.5801849  24.2825184
  66.0247650 192.0082550  24.9522896  65.5877762 190.8721008  23.1007214
  66.5268326 190.6046906  22.8423462  64.4704514 190.5494690  22.3865337
  64.2305756 190.0124054  21.1183529  65.0479736 189.9332275  20.4169273
  62.8981247 189.9028168  20.6631184  62.7400208 189.6862793  19.6169262
  61.8303185 190.2102966  21.4383373  60.8238411 190.0884247  21.0661144
  62.0420380 190.8307800  22.6785259  61.2058983 191.1188049  23.2984562
  63.3723602 190.9981537  23.1558399  61.1117172 193.9182434  25.6234741
  60.0375671 193.5204163  25.1379261  61.1245918 194.7763824  26.7385578
  62.0621948 194.9478455  27.0726166  59.8745804 195.2054749  27.4114609
  59.3371124 194.2905121  27.6606121  60.2446060 195.8430634  28.7813625
  61.0831146 196.5342255  28.6958847  59.3802719 196.3703613  29.1850929
  60.6048737 194.8169556  29.8652020  59.7769051 194.1213989  30.0021992
  61.4050217 194.1719818  29.5020409  61.0339470 195.4897614  31.1844559
  61.7537613 196.5085449  31.1762772  60.6614571 194.8899536  32.3128014
  61.0636978 195.3356018  33.1250305  59.8944016 194.2381287  32.3954887
  59.0196114 196.0630951  26.4780750  57.8390579 195.7956543  26.3861694
  59.6568146 197.0396423  25.8322124  60.6366119 197.1083832  26.0675297
  59.1301994 198.0553894  24.9386272  58.2885742 198.5882416  25.3811569
  60.1648216 199.0969696  24.6959362  60.7571335 199.4698334  25.5315437
  60.9125175 198.7169800  23.9997654  59.5594101 200.3551178  24.1786861
  58.9849625 200.0602417  23.3005276  58.8568573 200.7923126  24.8881912
  60.6589203 201.3698273  23.8016167  61.3783302 201.6067963  24.5854511
  61.2994919 200.9497833  23.0261612  60.0405617 202.7834473  23.3509140
  60.8361244 203.3069763  22.8207283  59.2125816 202.5196228  22.6929283
  59.5592995 203.6170349  24.4718742  60.3365288 203.7271423  25.1074047
  59.3650093 204.5816040  24.2439384  58.7504234 203.2453003  24.9489765
  58.5634537 197.3982849  23.6503696  57.4871788 197.7875061  23.2600231
  59.2462997 196.4476318  23.0068169  60.0957527 196.1705475  23.4777164
  58.7709885 195.8026428  21.7783146  58.5744286 196.5727386  21.0323830
  59.8375740 194.9176788  21.2493134  60.6275635 195.4890442  20.7619247
  60.3869247 194.2843628  21.9459057  59.4962425 193.9294586  20.1355705
  59.5958824 194.3033752  18.7842999  59.9939384 195.2828064  18.5637054
  59.3380585 193.3510284  17.7997704  59.5491104 193.5341797  16.7565479
  58.9668350 192.0093842  18.1125069  58.7561226 191.1432343  17.0702267
  58.7221718 191.4429932  16.1588573  58.7237587 191.6667938  19.5098267
  58.2613449 190.7140350  19.7215767  58.9211121 192.6432648  20.5213642
  58.6135864 192.4251099  21.5334110  57.4361191 195.0596008  22.1413097
  56.4449768 195.3754120  21.4308224  57.4135132 194.2379913  23.2569923
  58.2879066 194.1426697  23.7534294  56.1535568 193.7288055  23.7699127
  55.7908211 193.0970306  22.9591198  56.5132751 192.7116852  24.8753452
  56.7169991 191.7944336  24.3228760  57.4344902 193.0103912  25.3755856
  55.3920441 192.4228668  25.8553352  54.9431229 193.2854309  26.3478470
  54.5995102 191.9057159  25.3144550  55.8631554 191.4788208  26.9882030
  56.4957047 190.4378662  26.7492466  55.4966240 191.8161163  28.2173882
  55.7889442 191.2091370  28.9698658  54.8766937 192.6034241  28.3436165
  55.0457993 194.7817535  24.0820694  53.8975754 194.5947571  23.6295013
  55.3916588 195.8824310  24.7237930  56.3341599 195.9465027  25.0811272
  54.4648056 197.0170288  24.9867840  53.6016655 196.5064697  25.4139004
  55.1038666 198.0058136  25.9962826  55.2312622 197.3842163  26.8825626
  56.0134773 198.4632416  25.6070862  54.1372452 199.1810913  26.3586216
  54.0064316 199.7265930  25.4240532  53.2044945 198.7907104  26.7656689
  54.7417030 200.0671082  27.4398232  54.8672256 199.4780426  28.3483028
  55.7196007 200.4753418  27.1845341  53.8248405 201.2814789  27.6135941
  53.9833374 201.9010773  26.7309380  52.7709618 201.0078430  27.6641960
  54.2418404 202.0811310  28.8211670  55.1590996 202.4867096  28.7018528
  53.6061363 202.8219604  29.0802727  54.3282280 201.5512390  29.6766491
  53.9881287 197.6648865  23.6691532  52.8186798 198.0462494  23.6075344
  54.8033829 197.8475800  22.6597900  55.7932549 197.7948303  22.8533592
  54.4276619 198.5382233  21.3632908  53.7880058 199.3903809  21.5930309
  55.7472534 199.0811310  20.7927551  56.0335617 199.7206421  21.6277103
  56.4557343 198.2615204  20.6728039  55.4760475 199.9162445  19.4852715
  54.9096718 199.3158875  18.7733116  54.9028854 200.8120575  19.7242413
  56.6912575 200.4910278  18.7266636  57.4123688 199.6782837  18.6397076
  56.4103889 200.7547302  17.7070217  57.2866096 201.6445312  19.4154491
  56.8490486 201.8538513  20.3013496  58.3042107 202.4196472  19.0195351
  58.8704224 202.1573334  17.9032478  58.4660568 201.4745636  17.2784195
  59.5639496 202.8112335  17.5692844  58.7597847 203.4690094  19.7323532
  58.3181229 203.8066254  20.5755882  59.5350952 204.0342712  19.4169502
  53.6511002 197.7013245  20.3852978  52.7492371 198.2387543  19.6831551
  54.0727310 196.4290466  20.2572651  54.9177208 196.1627350  20.7422066
  53.5026703 195.4695740  19.2372456  53.2209167 196.0406189  18.3525829
  54.7113609 194.5627747  18.9092064  55.5365562 195.2449188  18.7046566
  55.0251694 193.9524994  19.7560787  54.4683151 193.7142487  17.7115135
  53.4997673 193.2443695  17.8824577  54.4603500 194.2817078  16.7809029
  55.4811630 192.5907288  17.4752846  56.3384247 193.1283722  17.0701485
  55.6897545 192.1062622  18.4291649  55.1185455 191.5170288  16.4176083
  55.7995338 190.6665802  16.4506950  54.1401482 191.0578613  16.5590572
  55.1149979 191.9780121  14.9814425  55.9868317 192.4206238  14.7282467
  54.9557915 191.2256622  14.3266735  54.3488083 192.6191711  14.8332071
  52.2856102 194.7149658  19.6931095  51.3427963 194.6305084  18.9099274
  52.2080536 194.3059998  20.9292870  53.0015068 194.4164276  21.5443821
  50.9988861 193.5998230  21.4704399  50.3418541 193.3607025  20.6342411
  51.4074326 192.3547668  22.1842804  51.8686409 192.5741730  23.1472168
  50.5373535 191.7349701  22.4008904  52.3373604 191.4607239  21.4223442
  51.9618416 190.9602051  20.1353092  50.9889603 191.2186432  19.7440014
  52.8940849 190.1561279  19.4227409  52.5567780 189.5808868  18.5732040
  54.1764984 189.8793030  19.9728794  54.8789330 189.2696533  19.4239502
  54.5806465 190.4125671  21.2251568  55.5660248 190.3128662  21.6558475
  53.6632042 191.2377930  21.8726788  53.9567528 191.6823730  22.8121357
  50.1334343 194.5509796  22.3272209  49.1509285 194.1518250  22.9017982
  50.4166298 195.8640594  22.3449116  51.3340492 196.0707550  21.9765072
  49.4957237 196.9842834  22.7344131  49.6879768 197.2312317  23.7785187
  49.9367905 198.2174530  21.8827591  50.9894371 198.4609222  22.0268383
  49.8262863 197.9312286  20.8368282  49.2534447 199.4806366  22.0884666
  49.4652824 200.3102570  23.1840553  48.6867981 201.3438110  23.0662956
  48.6858597 202.1951752  23.7308006  47.8091354 201.1117401  22.0209465
  46.9686584 201.6519928  21.8732166  48.2139854 199.9597778  21.3646812
  47.7720795 199.4581299  20.5164604  47.9596062 196.7083588  22.4138069
  47.1548805 197.0730743  23.2984715  47.5787773 196.2035065  21.2488956
  48.3420219 195.9967194  20.6205635  46.1812973 196.0034180  20.8501835
  45.6123505 196.9005585  21.0941811  46.1221542 195.9340057  19.3229008
  46.4130516 194.9563751  18.9385700  45.0858765 195.9373474  18.9849434
  47.1489830 197.1766205  18.4623299  46.1550751 198.0104980  18.1434307
  45.4230537 194.8349457  21.4559822  44.2067871 194.7717285  21.2704639
  46.0516319 194.0432281  22.3543453  47.0017624 194.3330231  22.5370274
  45.5047569 192.8902130  23.0580502  45.0006218 192.2950592  22.2966461
  46.6979713 192.1276093  23.6569309  47.1894608 192.7871094  24.3721943
  46.3110123 191.2974701  24.2478886  47.2934227 191.7166443  22.8416729
  44.4935341 193.2859955  24.0909576  43.6201973 192.5037231  24.4615250
  44.4726295 194.5525665  24.4396629  45.0923195 195.2240906  24.0093994
  43.4372025 195.1593628  25.2724419  43.6059303 194.7070923  26.2497253
  43.7711716 196.6996765  25.3166485  43.0879517 197.1602783  26.0302048
  44.7962646 196.7864075  25.6768818  43.6242561 197.1864319  23.9959545
  43.9520226 198.0860291  24.0658913  41.9566612 194.9399567  24.8223267
  41.0750008 194.9586792  25.7157249  41.6538620 194.7330780  23.5537491
  42.4723816 194.8219147  22.9687443  40.3819008 194.3943481  23.0172672
  39.5941696 194.9365692  23.5403156  40.3594704 194.7389679  21.5320358
  41.0778618 194.0438843  21.0974236  39.4139175 194.5592041  21.0204449
  40.7761879 196.1629486  21.1393547  41.6834030 196.4565277  21.6674347
  40.9969254 196.2064209  19.6430740  40.0619316 195.9823151  19.1295929
  41.3447990 197.2027283  19.3702164  41.7081413 195.4393311  19.3367386
  39.6206741 197.0766296  21.5188751  39.4932251 197.0195160  22.5998955
  39.8634453 198.1083984  21.2646637  38.6985321 196.7481232  21.0394630
  39.9875984 192.9264526  23.3342743  38.8506432 192.5361176  23.0335217
  40.8886070 192.0342407  23.7788734  41.7940712 192.4054260  24.0287666
  40.6260033 190.6164551  24.1682358  39.5593033 190.4433289  24.0257797
  41.3678131 189.6202698  23.2512226  40.7914505 188.6997681  23.3438148
  41.3699722 189.9521790  21.7500858  41.9578896 190.8666229  21.6710663
  41.7447891 189.1721191  21.0874214  40.3708763 190.1589508  21.3664818
  42.6722679 189.2753296  23.7301216  43.0298386 188.5228271  23.2531738
  40.8023415 190.2774353  25.6185150  41.1097908 191.1257935  26.4557819
  40.4751892 189.0126801  25.9485645  39.9925919 188.4349670  25.2751656
  40.5402298 188.5696106  27.3240891  40.0892296 189.3437042  27.9449615
  39.7747917 187.2652740  27.5104084  39.9310417 186.8452301  28.5040150
  38.6968231 187.4249115  27.4859257  40.0461655 186.2202606  26.6097851
  39.6001091 185.3895111  26.7900391  41.9739075 188.3582001  27.9180260
  42.0682907 188.0536804  29.1137505  43.0394249 188.5646362  27.1530437
  42.9038925 188.8755341  26.2016907  44.4431992 188.3125610  27.5236130
  44.3358879 187.8286133  28.4943752  45.0003052 187.2971039  26.5505219
  45.0619736 187.8120117  25.5917892  46.0256500 187.0354614  26.8118877
  44.1643791 186.0280151  26.3351364  43.4673004 185.8049011  25.2117290
  43.3741570 186.5479736  24.4335461  42.7755470 184.6309204  25.3039951
  42.1962929 184.3067627  24.5427551  42.9258308 184.0860748  26.5627518
  42.4123917 182.9403687  27.1008739  41.8124580 182.3152313  26.4561291
  42.8711777 182.4492188  28.3395405  42.5373230 181.4747314  28.6640320
  43.8286018 183.2024078  29.0155048  44.1886902 182.9128418  29.9916706
  44.3296890 184.4261322  28.5043221  44.9816322 185.0496368  29.0981407
  43.8820839 184.8964844  27.2608204  45.4002953 189.5236053  27.5936031
  45.5067482 190.3022461  26.6357250  46.2266464 189.6695862  28.6650505
  46.3053284 188.7577667  29.7754917  46.3806458 187.6969147  29.5366898
  45.4222832 188.9044952  30.3974285  47.5363541 189.1358795  30.5461121
  48.2996407 188.4299774  30.2186794  47.4088440 189.1003723  31.6280460
  47.8636169 190.5731506  30.1029186  48.9422684 190.6892700  29.9974251
  47.4499397 191.3365326  30.7618713  47.2730331 190.6294861  28.6333256
  46.8730392 191.6315918  28.4787254  48.4545059 190.4113007  27.5723896
  48.7031364 189.2772217  27.1235180  49.3038292 191.4457855  27.2717724
  49.3297310 192.7898254  27.8634510  49.7228317 192.7539673  28.8794651
  48.3221512 193.1999512  27.9319534  50.2192497 193.7056885  27.0416107
  50.7758026 194.3627167  27.7099419  49.5515137 194.3015594  26.4193840
  51.0627899 192.8119812  26.2201500  52.0307693 192.6926117  26.7068405
  51.1577492 193.2031708  25.2072086  50.2567406 191.4168701  26.1687336
  49.7612076 191.3021545  25.2046833  51.2686691 190.2455597  26.2381821
  51.6493759 189.6876373  25.2285633  51.6602592 189.7393799  27.4219456
  51.4044266 190.1576843  28.3049355  52.6945496 188.6767731  27.5543957
  53.5632744 188.9877472  26.9741364  53.2853851 188.5690918  28.9876289
  53.8806992 187.6589813  29.0611134  53.9451065 189.4329681  29.0687962
  52.2704582 188.5945129  30.0943222  51.9287567 189.6516876  30.8821087
  52.2954521 190.6660309  30.8270550  51.0621185 189.2342987  31.8151474
  50.6256676 189.8688507  32.4685593  50.6883583 187.8809052  31.6715260
  49.8186722 186.9897461  32.3062515  49.1727142 187.3963318  33.0703392
  49.7827225 185.6464996  31.9462433  49.0963898 184.9943542  32.4658928
  50.6867332 185.1641388  31.0059280  50.6066895 184.1293793  30.7071934
  51.4852257 186.0386810  30.2668190  52.0271416 185.5749817  29.4558182
  51.4837265 187.4563446  30.5302601  52.2639580 187.2323456  27.0491066
  53.1817970 186.4835815  26.7343941  50.9857101 186.8340759  26.9559708
  50.2597466 187.5096436  27.1474819  50.5594597 185.5129242  26.4516029
  51.2278328 184.8027344  26.9384594  49.1194916 185.2101135  26.8682499
  48.9751472 185.2825165  27.9462223  48.4920082 186.0116272  26.4784279
  48.5921059 183.8158569  26.3723793  48.8489571 183.7198181  25.3174381
  49.1978149 182.6874542  27.2257252  49.0984116 182.8845825  28.2931366
  48.6056595 181.7967377  27.0157890  50.2224274 182.4391022  26.9489708
  47.0860748 183.6569519  26.3796043  46.6144485 184.5660706  26.0065517
  46.8298759 182.8263092  25.7219639  46.7523346 183.4760132  27.4013577
  50.8293495 185.4701843  24.9125862  51.0836334 184.4712067  24.3435192
  50.6944389 186.6101685  24.1918392  50.5485916 187.4553223  24.7252731
  51.1077957 186.7366028  22.7797089  50.6659698 185.8542633  22.3167210
  50.3238411 187.8752594  22.1544609  50.5867729 188.8279877  22.6141319
  50.6764297 187.8526154  21.1233120  48.8050652 187.7270660  22.1335258
  48.1565857 186.7323151  21.2923603  48.7071495 185.9912872  20.7318478
  46.7890091 186.4564362  21.3893394  46.4011040 185.6855316  20.7399940
  45.9528847 187.2187347  22.2174988  44.6271248 186.9594421  22.3294353
  44.2285233 186.4925385  21.5913849  46.5862732 188.1941833  23.0217476
  46.0273514 188.8489227  23.6739330  47.9605598 188.4963531  22.9573460
  48.3330193 189.2673798  23.6155071  52.5858917 186.7287140  22.5533504
  53.0659447 186.0819702  21.6571026  53.3822289 187.1624451  23.5272942
  52.9234734 187.7058868  24.2444496  54.8528938 186.9422913  23.4950199
  55.1862564 187.2422028  22.5015278  55.5169907 187.8028564  24.5394783
  55.1196747 187.5591736  25.5247993  56.5840340 187.5902252  24.4738579
  55.3202667 189.2372894  24.2395687  56.0192566 189.7221375  24.6844788
  55.3067398 185.5078278  23.6824379  56.3772659 185.1274719  23.1637211
  54.4115944 184.6805573  24.2775574  53.5353317 185.0574799  24.6095142
  54.6177864 183.1941681  24.4655571  55.6994781 183.0831299  24.5411453
  53.9008675 182.7424011  25.8001232  52.8267899 182.8989868  25.7004337
  53.9417953 181.6548920  25.8613243  54.5027847 183.3454742  27.1346569
  54.5001755 184.4353790  27.1210670  53.6676712 182.7922821  28.2794933
  53.8631630 181.7256317  28.3896828  54.0410042 183.2781677  29.1809616
  52.6097221 182.9933624  28.1109486  55.9072189 182.8967285  27.3327904
  56.5729141 183.3280029  26.5851555  56.3210449 183.0820618  28.3239994
  55.8417702 181.8159027  27.2077332  54.1901207 182.4056702  23.2267685
  54.2826157 181.1756592  23.2167702  53.6910286 183.0722961  22.1380520
  53.5985260 184.0778503  22.1177578  53.3341675 182.4208221  20.8475780
  53.7179413 181.4033508  20.7727966  51.8050308 182.2957001  20.7455845
  51.3941307 183.2911682  20.9138317  51.4954948 181.9671021  19.7534599
  51.1534615 181.2160797  21.6364365  50.7809906 181.4634094  22.9628983
  50.9607124 182.4555969  23.3497658  50.2278366 180.4527283  23.7445793
  50.0935097 180.6269531  24.8019371  49.8742943 179.1979980  23.2611713
  49.1409912 178.3290405  24.0103550  48.5720329 178.6943970  24.6918259
  50.2132034 178.9114838  21.8832607  49.9695663 177.9937744  21.3686256
  50.8552704 179.9144287  21.0935173  50.9086418 179.6679077  20.0433846
  54.0417938 183.2036133  19.6907387  53.9922409 182.6946716  18.5582123
  54.6043625 184.3820953  19.8937073  54.5060005 184.8890839  20.7616844
  55.2673149 185.1708221  18.8750305  54.5583687 185.3443146  18.0654678
  55.6765671 186.4447784  19.5620003  54.7353745 186.9910889  19.6237030
  56.1014252 186.1474304  20.5207386  56.6186485 187.2850494  18.6841335
  56.4492798 187.3938751  17.4370956  57.5164719 187.9403687  19.2849197
  56.5303154 184.4250031  18.3469105  57.4342651 184.0600433  19.0724869
  56.5999069 184.1560516  17.0494270  56.0100288 184.6404266  16.3879623
  57.8520203 183.5347595  16.4959145  58.0484695 182.5679169  16.9592991
  57.7329025 183.2845001  14.9712782  57.5126648 184.1962891  14.4160881
  58.6833534 182.9227448  14.5789948  56.9953613 182.5024719  14.7907648
  59.1391945 184.3430023  16.7865944  60.1879845 183.7664337  17.1306496
  59.1531448 185.6756287  16.7802963  58.2476921 186.1230164  16.7708569
  60.3463593 186.5490417  17.0351791  61.1473503 186.1054840  16.4437618
  60.1380997 188.0293884  16.5118523  59.4065094 188.5194702  17.1542683
  61.0209885 188.6371002  16.7100925  59.7479248 188.2400360  15.0191116
  58.8521194 187.6520844  14.8192377  59.5471077 189.2908783  14.8105249
  60.9099121 187.8556366  14.0464935  62.1226692 187.7941742  14.4337730
  60.5625648 187.4231110  12.9185371  60.8887978 186.4281616  18.4407406
  62.0852242 186.1790924  18.6498966  59.9824028 186.5420227  19.4488277
  59.0855179 186.9376068  19.2055016  60.3527451 186.4491272  20.8379745
  61.2871399 186.9994507  20.9481411  59.2209702 186.9606476  21.8360100
  58.3450966 186.3130341  21.8753510  59.8144760 186.9981995  23.2722702
  60.7618103 187.5157928  23.1214142  59.2402687 187.6418762  23.9386578
  59.8434830 186.0454865  23.8010311  58.7684059 188.3134308  21.5674000
  58.3189316 188.3378296  20.7194729  60.7776680 184.9905548  21.2012329
  61.7486267 184.8269043  21.9400768  60.1619759 183.9775391  20.5487652
  59.4964371 184.3224640  19.8718681  60.4377632 182.5177612  20.7382202
  60.4638023 182.2359161  21.7908344  59.2514153 181.6968079  20.0912685
  59.0992165 182.0773315  19.0812531  59.6133003 180.6799316  19.9392223
  57.9157257 181.5545654  20.8099594  57.5874062 182.5453491  21.1240501
  56.8630981 180.8684692  19.9702110  57.1627045 179.8401794  19.7678604
  55.9525223 180.8235321  20.5676537  56.7339897 181.3460693  18.9989605
  58.0159683 180.8068542  22.1255798  58.5837250 181.3108673  22.9077034
  57.0645332 180.5041656  22.5628948  58.4462242 179.8315277  21.8981857
  61.7485924 182.0857697  20.0866337  62.3712273 181.1417999  20.5214825
  62.1495781 182.6833649  18.9543839  61.4987564 183.3457947  18.5572338
  63.4643021 182.6137848  18.3381901  63.7285995 181.5715027  18.1595268
  63.5712395 183.3591309  16.9879131  63.1031761 184.3434143  17.0017262
  64.6032944 183.6211548  16.7548904  63.0141525 182.5646057  15.8505716
  63.5864487 181.6413574  15.7601557  62.0239449 182.2057953  16.1313610
  62.9638100 183.1952057  14.1762133  64.7046890 182.9236450  13.8170147
  64.8552094 181.8746643  14.0721340  64.9432755 183.0035553  12.7564526
  65.4105530 183.5482483  14.3644876  64.5124054 183.1904449  19.3092003
  65.5508499 182.5424652  19.5903187  64.2689972 184.3725128  19.8282242
  63.4852791 184.9391479  19.5369740  65.2200089 184.9098206  20.8566589
  66.2004623 184.8594360  20.3830891  64.9663391 186.4111023  21.1665344
  64.9408035 186.9264221  20.2063808  64.0129547 186.4373474  21.6942368
  66.0354691 187.1097870  22.0664806  65.7383804 188.1444702  22.2375393
  66.0655670 186.6412201  23.0501728  67.3682632 187.0356903  21.3305588
  67.4394150 187.2781525  20.1055088  68.4358673 186.8354950  22.0517178
  65.4191818 184.1027832  22.1413479  66.5591583 183.8094025  22.4418049
  64.3332062 183.6152496  22.7785587  63.4384346 183.9809875  22.4857788
  64.5684586 182.7307739  23.8896656  65.0569229 183.2277374  24.7278461
  63.1631279 182.2804871  24.4518757  62.5899200 181.8347015  23.6389732
  63.3831062 181.5933685  25.2689381  62.4679184 183.4983063  25.0860004
  63.0035210 183.8160248  25.9805851  62.3886986 184.3586426  24.4214401
  61.1025810 183.0158386  25.5411015  60.5611000 183.8638306  25.9603882
  60.5946350 182.7730865  24.6077328  61.1478233 181.9103699  26.5646629
  61.9893227 181.7900543  27.1101017  60.1441765 181.1371460  26.9086933
  58.9378166 181.0870056  26.3679810  58.7222595 181.8041992  25.6902943
  58.1974907 180.4956207  26.7176838  60.2971764 180.3703766  27.8726749
  61.0825958 180.3447876  28.5071526  59.5239029 179.7639465  28.1059132
  65.4858398 181.5423889  23.5528526  66.2613983 181.1663666  24.3680134
  65.4503784 181.0650024  22.2896843  64.7339935 181.4031525  21.6631413
  66.3395538 179.9839783  21.8399754  66.4843521 179.2432404  22.6263809
  65.7861404 179.1574707  20.6688385  65.5421600 179.7325287  19.7755947
  66.7128525 178.0110931  20.1845112  66.7524109 177.2986145  21.0084782
  66.2104263 177.5131989  19.3551884  67.7032928 178.3529968  19.8841400
  64.4260254 178.5279388  21.1198006  63.6915894 179.2821045  21.4025211
  63.9473648 178.1277313  20.2260323  64.6166534 177.8747406  21.9713230
  67.8232040 180.4544830  21.5779915  68.7874756 179.7753754  21.9706745
  68.0073013 181.6975555  21.0143700  67.1829376 182.2438965  20.8093414
  69.3768845 182.2905579  20.7936134  69.9642944 181.5385132  20.2668438
  69.1873627 183.5655823  19.9157047  68.2705688 184.1181335  20.1212788
  70.0543900 184.1673279  20.1882324  69.2092514 183.2184906  18.4591770
  70.0615234 182.5671387  18.2655525  68.2852707 182.7304077  18.1491261
  69.3906403 184.5036621  17.6215916  68.7058029 185.2575226  18.0099297
  70.4038925 184.8885803  17.7367363  69.0374146 184.1773224  16.1674366
  69.7622986 183.5049896  15.7085161  68.0504074 183.7164917  16.1278095
  69.0867615 185.4557190  15.3924522  69.9508667 185.9660034  15.5066395
  69.0692749 185.3671417  14.3864946  68.4077530 186.1240692  15.7276506
  70.0814819 182.5269165  22.0943718  71.2262878 182.1239471  22.2325687
  69.4173355 183.0182190  23.1794167  68.4892807 183.3921051  23.0414772
  70.0118408 183.1098022  24.5446301  70.9035950 183.7327271  24.4749546
  69.0117950 183.8537445  25.5111599  68.7363968 184.7526855  24.9596596
  68.1410522 183.2037659  25.5973721  69.5476151 184.1709900  26.8650703
  69.5666351 183.2897949  27.5063515  70.5703659 184.5462646  26.8297710
  68.6142044 185.2415009  27.5141926  68.9524612 185.5839386  28.4921589
  68.7196198 186.1886902  26.9852123  67.1971893 184.8382874  27.5699844
  67.0435333 183.9576721  28.0400848  66.2427368 185.6954651  27.3288002
  66.4863358 186.9105835  26.8321075  67.4446945 187.1902161  26.6789284
  65.7330704 187.5172729  26.5412197  65.0188904 185.3731232  27.6128807
  64.7986450 184.5544128  28.1618004  64.4179306 186.1661530  27.4395103
  70.5195999 181.7626190  25.0975323  71.3850021 181.8772125  25.9675713
  70.1084824 180.5654907  24.5719433  69.4423523 180.5885620  23.8131027
  70.8341522 179.2937317  24.7878056  71.2254486 179.2606812  25.8046112
  69.7338791 178.1858521  24.7668877  69.0467224 178.2804718  25.6076984
  69.1083298 178.1222992  23.8765202  70.3296967 176.7680359  25.0025806
  69.5550156 176.0203552  24.8324890  71.1179276 176.5387268  24.2854939
  70.8859177 176.6363068  26.3752079  70.1703720 176.4869537  27.3344250
  72.1678085 176.7486725  26.5487156  72.4768829 176.8103638  27.5082836
  72.8148575 176.7012177  25.7746487  71.8935852 179.0328979  23.7696514
  72.9995499 178.7335052  24.0747852  71.6264725 179.1818237  22.4327183
  70.6983795 179.4748688  22.1627674  72.6171875 178.9044647  21.3528137
  72.9392548 177.8742828  21.5047836  72.0484238 179.1412964  20.0121021
  71.6855698 180.1688232  19.9867382  72.8024139 179.0084839  19.2362404
  70.8752899 178.2667847  19.6426430  70.1087112 178.2777863  20.4174576
  70.2384796 178.7293854  18.3206081  70.9658508 178.5097961  17.5390663
  69.3493423 178.1380310  18.1018581  70.0520630 179.8026123  18.2814522
  71.3489761 176.8027344  19.2582550  71.6933594 176.2867432  20.1545067
  70.4841232 176.2425690  18.9028053  72.0886459 176.8091125  18.4576607
  73.9276657 179.7265625  21.4997005  75.0020065 179.3025055  21.1283684
  73.8597946 180.9265900  22.0976582  72.9511032 181.2785339  22.3631935
  75.0666428 181.7100525  22.4885769  75.7588577 181.6543884  21.6484356
  74.6919403 183.1761932  22.5794849  73.7826996 183.3478241  23.1556168
  75.4081268 183.6129456  23.2754917  74.6738815 183.8238983  21.1880665
  75.8611298 184.2838440  20.6028214  75.4824677 184.8043365  19.4116039
  76.1153946 185.4040222  18.7742920  74.1326828 184.6843262  19.2469978
  73.6019211 185.1187286  18.5055904  73.6343842 184.0427856  20.3486309
  72.5854950 183.9926300  20.6010494  75.8957214 181.2496033  23.6863346
  77.0363998 181.7115479  23.7616806  75.3350983 180.4837494  24.5736618
  74.3944626 180.1537018  24.4112740  76.0623245 179.6866760  25.5967312
  76.8908310 180.2681885  26.0011063  75.1575470 179.2513885  26.7527466
  74.3334503 178.7230225  26.2733612  75.6808319 178.5148773  27.3625221
  74.6327057 180.3721619  27.7011242  74.4639740 181.3508453  27.2518978
  73.6876221 180.0004730  28.0970573  75.5586090 180.4422455  28.8896637
  76.4533997 181.3741455  28.9635181  75.4506989 179.6146240  29.8112640
  76.6738281 178.4434662  24.9919071  77.7350693 178.0519104  25.4586430
  76.0669403 177.8092346  23.9957600  75.1706085 178.1129303  23.6429520
  76.6452560 176.6426392  23.3677177  77.1919098 176.1282654  24.1580887
  75.6144180 175.7065430  22.7821064  74.9696045 176.3540955  22.1879864
  76.1414566 174.9689026  22.1769447  74.7096100 174.9962463  23.7478275
  75.0838699 174.5399628  24.9520798  76.0680771 174.6841125  25.3727455
  74.0202713 173.8387909  25.4936314  74.0835114 173.4098206  26.4058151
  73.0135193 173.7391205  24.5818367  71.7922821 173.0071411  24.5656052
  71.5360260 172.6097412  25.5365925  70.9140167 172.9568024  23.4197655
  69.9611664 172.4498444  23.3812485  71.2968063 173.7158508  22.2708111
  70.7073059 173.7278748  21.3659649  72.5232849 174.4195099  22.3172054
  72.8084183 174.8955994  21.3906879  73.3790436 174.4896851  23.4567184
  77.6928177 177.0168457  22.2313557  78.4058075 176.1017303  21.8373318
  77.7571335 178.2972717  21.8058472  77.1622009 178.9372559  22.3123779
  78.7343674 178.7538910  20.8646297  79.5913315 178.0978699  21.0174541
  78.1873703 178.5448456  19.4514675  77.4894562 177.7102661  19.3845348
  77.5342102 179.3539734  19.1246548  79.2192612 178.4676208  18.3832455
  80.4254456 178.6168213  18.6536274  78.7952271 178.3442078  17.2241287
  79.2653961 180.1495209  21.1475868  78.8068390 181.1235809  20.6236362
  80.1806564 180.2456818  22.0366516  80.4844971 179.3755188  22.4497108
  80.6779251 181.4994812  22.5770473  79.8186722 182.1186218  22.8348141
  81.4736481 181.2573395  23.8530807  82.4214478 180.7629395  23.6401291
  81.7048645 182.2461243  24.2492237  80.7394485 180.4391479  24.9776478
  81.1513672 180.8697815  25.8903217  79.6672363 180.5561829  24.8202896
  81.0156021 178.8906403  25.0104160  81.0878906 178.2608185  23.9570827
  81.2633667 178.3422089  26.0828190  81.4505768 182.4159546  21.5835037
  81.7740326 183.5366516  21.9168110  81.7228241 181.9016266  20.3980179
  81.2027664 181.0692596  20.1596947  82.3391571 182.6031189  19.2482986
  82.5076752 183.5813141  19.6986427  83.7097855 181.9371490  18.9418526
  83.5102158 180.8972321  18.6832733  84.1270370 182.3621826  18.0289803
  84.6711655 182.0463257  20.1052589  85.1059265 180.9926147  20.5624809
  85.0973053 183.2343292  20.5489750  85.8237381 183.2435455  21.2506199
  84.9446335 184.1165619  20.0815792  81.4237900 182.8456421  17.9730988
  81.9604034 183.0739594  16.9020958  80.0917816 182.6105652  18.1548080
  79.7483978 182.3384094  19.0648155  79.2059708 182.6590424  17.0396919
  79.6856537 182.2127686  16.1685791  78.0110168 181.8186188  17.4007034
  78.4958344 180.8474274  17.4998989  77.5818024 182.0784607  18.3683586
  76.8179321 181.7164917  16.3392773  77.1844177 182.1098633  15.3910942
  76.2793579 180.3537445  16.0990238  75.9112549 179.8758240  17.0068684
  75.4315109 180.4961395  15.4289646  77.1180191 179.7392578  15.7716942
  75.7200546 182.6720886  16.8381691  76.0262680 183.6982727  17.0413456
  74.9346085 182.6957092  16.0827732  75.2770233 182.2326202  17.7318668
  78.8419113 184.0822601  16.6570168  78.4131622 184.8408813  17.4850464
  78.8641205 184.3285522  15.3654041  79.5328293 183.7501068  14.8771973
  78.1343155 185.4198761  14.6472731  77.8881226 186.2053986  15.3617258
  78.9772034 185.9665070  13.4999914  79.1352081 185.2462158  12.6972933
  78.4623337 186.7138977  12.8963270  80.3037567 186.5141144  14.1212177
  80.1790466 187.5377197  14.4744434  80.6872711 185.9830170  14.9923992
  81.3756485 186.5454712  13.0568037  82.3202972 186.7068024  13.5761404
  81.4686127 185.5455170  12.6330729  81.0989151 187.5179291  11.9134188
  81.8964386 187.4978027  11.1706839  80.2021637 187.2473297  11.3559971
  81.1669769 188.9293365  12.3372669  82.1217499 189.1967621  12.5296402
  80.8741837 189.5502625  11.5964403  80.6425705 189.1027222  13.1828623
  76.8389282 184.9449310  14.0912371  76.7165451 183.8645325  13.5458345
  75.7838821 185.7506256  14.2449865  75.8416595 186.5504608  14.8590031
  74.3756332 185.4175720  13.9374771  74.1053238 184.5339813  14.5156727
  73.4248047 186.5359955  14.3449745  73.8416367 187.5360413  14.2254868
  72.5631409 186.4991760  13.6784334  72.7658768 186.4770355  15.7924948
  73.5440445 186.1907654  16.7619686  71.5006104 186.6934357  15.9751062
  74.2112198 185.0719604  12.4438915  73.2529526 184.4153900  12.1386337
  75.1142502 185.5139465  11.5275030  75.8864746 186.0711975  11.8640337
  75.0325699 185.3165894  10.0629168  74.1200714 185.7688751   9.6744595
  76.1843796 186.0683594   9.3949499  77.1198654 185.5139160   9.4695148
  76.0181274 186.1220398   8.3190413  76.4374466 187.4966125   9.9181252
  76.8929367 187.5307770  10.9078016  77.0614243 188.0171814   9.1916628
  75.2186737 188.4168701  10.0731764  74.2405701 188.3047943   9.2738056
  75.2713089 189.3493042  10.9268475  75.1589203 183.8440094   9.6221809
  74.9195480 183.5010223   8.4628305  75.4958572 182.8732758  10.5559368
  75.5583496 183.1024628  11.5376034  75.5107498 181.3951569  10.3573208
  75.7208176 181.0870514   9.3330936  76.6604309 180.8502350  11.2018642
  76.8760300 179.8185272  10.9240208  77.5712433 181.4271393  11.0414801
  76.2734604 180.8729095  12.5196114  76.9520187 180.4370422  13.0403519
  74.1721191 180.6961060  10.6418352  73.9020309 179.6024933  10.1170216
  73.2605133 181.2787018  11.3545046  73.4430313 182.2452545  11.5838099
  71.9371414 180.7319641  11.6379900  71.8439407 179.6742249  11.3918457
  71.6906357 180.9136047  13.1355963  71.8364639 181.9725037  13.3491135
  70.6679077 180.6699524  13.4232645  72.7181854 180.1052246  14.0298023
  73.7163086 180.4247589  13.7302008  72.5028610 180.3894196  15.5634308
  71.4746323 180.1808624  15.8589764  73.2643051 179.8729858  16.1478901
  72.6214676 181.4590302  15.7365732  72.5862808 178.5710754  13.8576946
  72.5496902 178.2036285  12.8321562  73.3609848 178.0637665  14.4326334
  71.6137085 178.2374268  14.2194595  70.7951279 181.4012299  10.8490067
  70.8643570 182.5962372  10.6084757  69.6995010 180.6133575  10.4920053
  69.5008240 179.2152252  10.5732498  68.9471588 178.9530945  11.4748325
  70.4567032 178.6998901  10.4793348  68.7248840 178.9321442   9.3245649
  68.3007584 177.9337006   9.4310007  69.3542633 179.0229187   8.4392757
  67.6857376 180.0208740   9.3382616  66.9344559 179.7850342  10.0919542
  67.2041473 180.1740265   8.3724937  68.5825348 181.2009125   9.7411900
  68.9968491 181.5200348   8.7848415  67.7497406 182.3340149  10.4223356
  67.3755493 182.3488159  11.6218348  67.3499908 183.3160400   9.6128578
  67.6977310 183.3981628   8.6681709  66.3758316 184.3479462  10.0527468
  66.6337128 184.6255341  11.0747747  66.4350510 185.5662842   9.2326307
  65.7106552 186.3151245   9.5529547  67.8017883 186.2181854   9.2524605
  68.5638962 185.5568390   8.8402710  67.8167572 187.0830078   8.5891628
  68.0604935 186.4526367  10.2850342  66.2141800 185.2897644   7.8090038
  66.1053238 186.0947876   7.2974420  64.9587936 183.8169403  10.0989008
  64.1399765 184.3088379  10.9118490  64.6223526 182.7724609   9.3081388
  65.2955246 182.3620453   8.6768675  63.2568092 182.4720612   9.0430288
  62.5828018 183.3210144   9.1574717  63.1824417 181.9200439   7.6073837
  63.6195259 182.6052551   6.8810539  63.9161911 181.1141663   7.6237445
  61.7312546 181.6347961   7.2451348  60.8330574 182.3213196   7.5927401
  61.5829430 180.5225677   6.6253195  60.6574287 180.3151550   6.2781739
  62.4052277 180.0198669   6.3232460  62.8848991 181.4041290  10.0994358
  63.6273079 180.4190979  10.1219091  61.8432198 181.5087585  10.9108601
  60.9786491 182.7240753  11.0310020  60.7411652 183.2239075  10.0919247
  61.4157791 183.4666901  11.6984806  59.7245789 182.2740173  11.7293406
  58.9835052 181.8996429  11.0231085  59.3788414 183.0686188  12.3905220
  60.2423553 181.1351776  12.6533337  59.4145050 180.4474792  12.8260565
  60.5391846 181.6094971  13.5887613  61.4886284 180.6089325  11.9545307
  62.3059044 180.5999603  12.6756964  61.3627853 179.1469116  11.5048504
  61.8586159 178.3144379  12.2717896  60.8846588 178.8390350  10.2972383
  60.5028114 179.6174316   9.7791891  60.7814026 177.4306793   9.7994890
  60.2601051 176.7565308  10.4790983  60.0323181 177.4671021   8.4079971
  60.5902977 178.1553345   7.7730966  60.1840553 176.0881195   7.6796045
  59.8436928 175.2462158   8.2824736  59.4789734 175.9086456   6.8679686
  61.2116661 175.8829346   7.3795867  58.5493927 177.9102325   8.6003141
  57.9029961 177.4256897   7.8685436  58.2017403 177.6211548   9.5921125
  58.4997826 179.4161377   8.3234577  58.7180710 179.6107025   7.2734094
  57.4692535 179.7605438   8.4100256  59.2209702 180.0605469   8.8261700
  62.2087784 176.8706970   9.6815329  62.5085182 175.9055939  10.3941479
  63.0457726 177.4295197   8.8016558  62.8142242 178.3144684   8.3734617
  64.4295654 176.9335632   8.7465572  64.4092026 175.8904266   8.4310036
  65.1313477 177.7326355   7.5928230  65.1919556 178.7278748   8.0332108
  66.1608658 177.4167328   7.4243021  64.3381577 177.8870544   6.2475305
  63.8002167 178.9796295   5.9974718  64.2999268 176.8612213   5.4614325
  65.2641144 176.9513702  10.0235090  66.0639877 176.0346680  10.2615690
  65.1025543 177.9202576  10.9495831  64.4495850 178.6669464  10.7593327
  65.6941376 177.9734497  12.2535458  66.7643661 177.7791138  12.1833067
  65.5175171 179.2994232  12.9680262  65.8396683 180.0545654  12.2510395
  64.4537582 179.5364838  12.9855165  66.0236130 179.4888000  14.3625250
  65.2001572 179.1587219  15.4393797  64.2435226 178.7316589  15.1769838
  65.6588135 179.3900757  16.7606773  65.0354614 179.1362152  17.6053047
  66.9336777 179.8424835  16.9714603  67.2703247 180.1533356  17.9494438
  67.7634583 180.2042236  15.8728771  68.7350616 180.6432037  16.0452251
  67.3029785 179.9646301  14.5851622  67.9136658 180.2521057  13.7420626
  65.2114487 176.8149567  13.2062988  65.9863739 176.0628357  13.7643566
  63.8855324 176.6157379  13.3272982  63.2102318 177.2566071  12.9356966
  63.3719788 175.5852661  14.1576719  63.8013000 175.7118378  15.1515331
  61.8762741 175.6739044  14.3207588  61.4273491 174.9169006  14.9638138
  61.6090927 176.6741638  14.6616096  61.3461304 175.5365601  13.0074701
  61.5389214 176.2776794  12.4285288  63.7822304 174.1419678  13.6810093
  64.2250977 173.3161469  14.4730301  63.7308197 173.9178009  12.3712044
  63.2036057 174.5859375  11.8273811  64.0356750 172.6633759  11.7475805
  63.5013885 171.8400574  12.2216816  63.6940308 172.6218567  10.2686110
  64.0784149 173.5286102   9.8015327  64.2224579 171.7324219   9.9254446
  62.2905083 172.3805695   9.8678637  61.6170845 171.2785797  10.4676895
  62.0478249 170.7369843  11.2968731  60.4591713 170.7304688   9.7938461
  59.8731384 169.9131012  10.1874084  59.9776611 171.3723907   8.6881962
  58.7721596 170.8616638   8.1871014  58.5878029 171.2689972   7.3375750
  60.6281891 172.4820862   8.0555992  60.1758270 172.9688873   7.2042489
  61.7427521 172.9713898   8.7287989  62.3703117 173.7552795   8.3311987
  65.4983749 172.4262390  12.0342026  65.8279343 171.2959900  12.3672113
  66.4410324 173.3768616  11.8699007  66.0419998 174.2272491  11.4987831
  67.8708878 173.2484894  12.3454609  68.4978409 172.5511932  11.7897625
  68.5905838 174.6200409  12.2595139  68.4951248 175.0464630  11.2609386
  68.0754623 175.3261414  12.9107924  70.1040421 174.5710144  12.7091284
  70.4347382 175.5971527  12.8697033  70.2489395 174.0654602  13.6638660
  71.0738220 173.9182129  11.6492605  72.0721588 174.1735077  12.0045633
  70.8878784 172.8450012  11.6073875  70.9046631 174.4905701  10.2583303
  70.1721725 174.0702972   9.7043219  71.5392609 175.5308838   9.7455273
  72.2481689 176.3724976  10.5168238  72.3788147 176.0883942  11.4771986
  72.7945480 177.0906525  10.0631552  71.3395081 175.8879089   8.5306101
  70.7449951 175.3200226   7.9439631  71.6610413 176.7997894   8.2387638
  67.9329834 172.8423157  13.8517380  68.6860886 171.9611816  14.2557697
  67.0825348 173.3533630  14.6693134  66.5134125 174.0970612  14.2910051
  67.1665649 173.2183533  16.1620808  68.2237167 173.1849670  16.4255619
  66.6919403 174.4681549  16.9015503  65.7572937 174.8258514  16.4695969
  66.5841827 174.3268280  18.4682484  67.5680923 174.0908661  18.8736382
  66.2120209 175.2526093  18.9070091  65.9603348 173.4837036  18.7650242
  67.6283417 175.6674500  16.6510429  67.8573303 175.7207642  15.5866966
  67.1428528 176.5855865  16.9818439  68.5974197 175.5443268  17.1346092
  66.5432816 171.8960571  16.6821327  67.2344818 171.1672668  17.4240742
  65.3282089 171.5391388  16.2971210  64.8820572 172.1033325  15.5880909
  64.8826370 170.1497498  16.4227524  64.6100235 169.8829193  17.4438229
  63.5844269 170.0383911  15.6449575  63.8419914 170.1851959  14.5960503
  63.1689224 169.0366211  15.7541819  62.8677597 170.8158569  15.9095898
  65.9066238 169.0839844  15.8092852  66.0906982 168.0643463  16.4878998
  66.5238876 169.2774200  14.6134748  66.3963318 170.1929779  14.2065487
  67.5108566 168.4116516  14.0456848  67.0447617 167.4447327  13.8560953
  67.9730530 169.0241852  12.6919699  68.2268143 170.0823059  12.7560711
  68.8198166 168.4858856  12.2661591  67.2287369 168.7905426  11.9307213
  68.6668472 168.1509094  15.0272369  69.0324707 166.9777069  15.2627716
  69.3449478 169.2095032  15.5458050  69.0266190 170.1090240  15.2147093
  70.5554733 169.1000061  16.3228817  71.1721497 168.2742004  15.9681149
  71.4531937 170.3032379  16.0755138  72.4367371 170.1759491  16.5277767
  71.6914444 170.4987793  15.0300016  70.6659470 171.7171021  16.8067627
  69.7901535 171.8682556  15.8092470  70.3419800 168.8223877  17.8596478
  71.3052444 168.8280945  18.6438503  69.0956650 168.6088409  18.3785992
  68.3666763 168.3777771  17.7188358  68.7537003 168.5220490  19.7845097
  69.3222885 169.3295288  20.2457981  67.2438965 168.8175049  19.9950848
  66.6909103 168.6735382  19.0668716  66.8659821 168.1645203  20.7817936
  67.0854263 170.3174286  20.5011597  67.8738174 170.9380493  20.0752659
  65.6560364 170.7656097  20.1851559  64.9199295 170.1581726  20.7117081
  65.6160431 171.7619629  20.6253567  65.4327011 170.8254089  19.1199589
  67.1064224 170.4843597  22.0103722  68.0606003 170.0518036  22.3112793
  67.0090942 171.5426025  22.2527733  66.3916626 169.8941193  22.5838165
  68.9712219 167.1391296  20.4645119  68.5647125 166.1466064  19.8344135
  69.4873505 166.9643250  21.7268295  70.3983841 167.9528351  22.3426838
  69.8834915 168.8020020  22.7920074  71.0392838 168.2838898  21.5255241
  71.1125946 167.2182922  23.4764366  70.3949738 167.2475281  24.2963562
  71.9905167 167.7845764  23.7873383  71.1244049 165.8238068  22.9705582
  71.1854935 165.1429291  23.8195381  71.9817734 165.7224731  22.3051605
  69.8873672 165.6339264  22.1672192  70.1393433 165.0606079  21.2750740
  68.7165298 164.9401855  22.9718533  68.6096344 165.1670685  24.1654015
  67.9108124 164.1532898  22.3158607  67.9902267 164.0506897  21.3142300
  66.6357193 163.5943756  22.8639545  66.7779846 163.3536987  23.9174919
  65.4733505 164.6321411  22.7159119  64.5413361 164.0685883  22.7589569
  65.3893356 165.6504517  23.9182014  66.1819534 166.3985901  23.9301834
  64.4341812 166.1446075  23.7404766  65.3579941 165.0863190  24.8503265
  65.5112152 165.3831787  21.3371010  66.2649918 166.1695557  21.2981167
  65.6350784 164.6553650  20.5351925  64.1520767 166.0510406  20.9696712
  63.9145470 166.8319092  21.6921177  64.2294235 166.6727295  20.0776997
  63.3785133 165.3135223  20.7557354  66.3156891 162.2575836  22.3179703
  66.8129272 161.8777466  21.2581692  65.5965576 161.4047394  23.0623264
  65.2456970 161.6312561  23.9819393  65.1579742 160.0759430  22.5607662
  66.0051804 159.4873810  22.2087231  64.4691391 159.2928314  23.6964474
  63.9025879 158.4598846  23.2801266  65.2206039 158.7501373  24.2699146
  63.5305710 160.0326843  24.5883884  63.9337502 161.0130310  25.2124081
  62.3520813 159.6015015  24.7505684  64.0929565 160.1607056  21.4781113
  63.4678345 161.1777191  21.2609024  63.9918060 159.0866089  20.7098351
  64.4588394 158.2268066  20.9602814  63.3185959 159.1246185  19.4305763
  63.6985512 160.0478210  18.9930458  63.6079063 157.9795837  18.4971790
  63.2134972 157.1000824  19.0061302  63.0220947 158.0328674  17.5795212
  65.1388550 157.7675171  18.2759171  65.8527374 158.6846924  17.8176193
  65.6662827 156.7002106  18.7025585  61.7828140 159.3429718  19.5806847
  61.2207108 160.1759491  18.9324684  61.1865768 158.7644501  20.6079865
  61.6921692 158.1352539  21.2150955  59.7677956 158.9817200  20.8645363
  59.1407928 158.6623383  20.0320892  59.4196205 158.0760345  22.0837917
  60.0923347 158.3440552  22.8984871  58.4110260 158.2993011  22.4316387
  59.4974098 157.0231171  21.8128662  59.4259109 160.4557343  21.1626625
  58.3072128 160.8704224  20.7665844  60.4356728 161.2751312  21.5924854
  61.3330650 160.8221741  21.6906147  60.4251976 162.7123718  21.7925720
  59.4138451 162.9556274  22.1183071  61.3150101 163.0401611  23.0245247
  60.8373337 162.5654602  23.8816032  62.3366547 162.7064056  22.8430252
  61.4292870 164.5096893  23.3847790  62.0059280 165.0498962  22.6339302
  60.0700455 165.2187958  23.4834213  59.4162292 164.6829529  24.1715221
  60.2810745 166.2451935  23.7835693  59.6116829 165.1190186  22.4995289
  62.1408691 164.5705872  24.7421684  62.9948616 163.8979340  24.8218536
  62.5171471 165.5811157  24.9013386  61.4531937 164.2711792  25.5330906
  60.7759476 163.4550171  20.4894333  60.1096725 164.4468842  20.2068844
  61.6696281 162.9423676  19.6652985  62.1048279 162.0770874  19.9516392
  61.9053688 163.4235229  18.2900600  62.0091400 164.5085754  18.2874565
  63.2487755 162.9165802  17.6329594  63.1568680 161.8543701  17.4063206
  63.4016762 163.4892120  16.7181911  64.4534073 163.1859589  18.5156097
  64.6543274 164.2526703  18.6149731  64.2399445 162.8094940  19.5160122
  65.7723007 162.6486664  18.0790558  66.5267334 162.9224701  18.8165855
  65.5633392 161.5794067  18.1129284  66.2653198 163.0599670  16.7246475
  66.3885345 162.3153381  16.0534973  66.8997574 164.1443481  16.3632126
  67.2907028 165.0319824  17.2062359  67.2114487 164.9075928  18.2054062
  67.8010483 165.8440247  16.8896294  67.2795486 164.2363586  15.1181965
  67.1458206 163.4464569  14.5031662  67.8750229 164.9889526  14.8033695
  60.6869125 163.1386261  17.3650169  60.4614372 163.9830780  16.5090694
  59.8158455 162.1404419  17.6119595  60.1365547 161.4185486  18.2413445
  58.5180511 161.9956665  16.9509411  58.5445595 162.1185608  15.8682165
  58.0411110 160.4761200  17.1252346  57.9570732 160.2776947  18.1937237
  56.6833305 160.3103638  16.4868546  56.7341347 160.6598511  15.4556513
  56.3160591 159.2841187  16.4824047  55.9366150 160.8438416  17.0750122
  59.0103760 159.3739319  16.5104599  59.1499710 159.6474609  15.4646120
  59.9768181 159.3779907  17.0145130  58.5412560 157.9046631  16.5307026
  57.8457336 157.6740417  15.7237511  59.4229202 157.2728424  16.4231224
  58.1292229 157.5603943  17.4792881  57.5045052 162.9530792  17.4741268
  56.7009354 163.4708099  16.7038212  57.3781319 163.2045441  18.7907600
  57.9092140 162.6785126  19.4699879  56.5003090 164.2021332  19.3739662
  55.4767303 163.9988098  19.0592556  56.5797005 164.2071838  20.8756027
  57.5766106 164.4056244  21.2691689  55.9464226 165.0204468  21.2301102
  56.1266479 162.9262085  21.6567974  57.0105782 162.3286743  21.8797550
  55.7006989 163.3149872  22.5817471  55.1614532 161.9904480  20.9194355
  54.0790863 162.3810883  20.4809990  55.5134277 160.7321014  20.9834690
  54.9228439 160.0099792  20.5963688  56.4856300 160.5455322  21.1837521
  56.7798233 165.6236267  18.7410126  55.8286018 166.2795563  18.4323864
  58.0558701 165.9428406  18.5409260  58.7553673 165.3238220  18.9251461
  58.5218697 167.1920319  17.8889999  58.0352783 168.0592194  18.3354568
  59.9630852 167.2906342  18.2774906  60.0532036 167.0868225  19.3444691
  60.4608841 166.6026154  17.5941639  60.6206589 168.6656189  18.0352554
  60.5686264 168.9904022  16.9960651  59.9658051 169.7410889  18.8214512
  59.8304939 169.4060059  19.8498077  60.5561867 170.6457062  18.6758518
  58.9570312 169.8974304  18.4393139  62.0524216 168.5069733  18.4944057
  62.6713181 167.8063202  17.9339142  62.5488777 169.4757080  18.4379501
  62.0102959 168.1683960  19.5296345  58.3221931 167.1259613  16.3695488
  57.7638206 168.0213013  15.7375908  58.6944466 166.0083771  15.7021351
  59.1453438 165.2935486  16.2551270  58.5281906 165.8445740  14.2345819
  59.0278740 166.7101746  13.7996550  59.2368889 164.5804443  13.7413797
  60.3174362 164.5521393  13.8818016  58.8538284 163.7891388  14.3857441
  58.9042244 164.1257935  12.3092480  57.8470802 164.1568909  12.0454712
  59.6397934 164.9998322  11.3258896  60.6955070 164.7770233  11.1711740
  59.1746559 164.9101715  10.3442011  59.5523300 166.0504456  11.6027784
  59.2465935 162.5996094  12.1316328  58.7693596 162.0427094  12.9379978
  58.9105797 162.2931061  11.1410503  60.3206100 162.4446106  12.2343884
  57.0210228 165.9528198  13.8379631  56.8032265 166.4652100  12.7373734
  56.0828476 165.5098419  14.6644011  56.3378868 164.9360199  15.4554701
  54.6151848 165.6338959  14.3664112  54.4331055 165.3234558  13.3375387
  53.7961159 164.7554016  15.3330822  54.1802597 164.9486694  16.3346729
  52.7657356 165.0982361  15.4273729  53.6366577 163.2766571  14.9806070
  52.9794502 163.0565186  14.1393442  54.5958099 162.9297028  14.5962238
  53.1703300 162.4182281  16.2815838  54.0965271 161.9945679  16.6698895
  52.7181282 163.0877075  17.0132885  52.2222748 161.2485504  15.8907719
  51.5189857 161.7461243  15.2230053  52.8719597 160.5046844  15.4296112
  51.5879402 160.6893005  17.0593605  50.9670410 161.3420258  17.5160275
  51.0504036 159.8800659  16.7831783  52.2884064 160.3854675  17.7205124
  54.0833054 167.0769348  14.4457340  52.8179970 167.2541656  14.1826057
  54.8808784 168.0122528  14.9622211  55.8656693 167.8524933  15.1196127
  54.2054253 169.3019714  15.2443199  53.2492371 169.0831146  15.7196178
  55.0844917 170.0217438  16.2681236  56.0980492 170.0454407  15.8678246
  54.7709389 171.4578857  16.5141525  53.7075310 171.6222992  16.6880188
  55.4397888 171.7206573  17.3337231  55.0536766 172.0577698  15.6491089
  54.9203072 169.3699646  17.6361542  54.9075813 168.2930450  17.4683285
  55.7340660 169.5720367  18.3326225  53.6066818 169.6038361  18.4492874
  52.7453423 169.1413269  17.9673405  53.6996269 169.0484009  19.3825321
  53.4299431 170.6765442  18.5277710  54.0180283 170.1953125  14.0251627
  54.9283676 170.3083344  13.1625872  52.8311157 170.7962646  13.9574900
  52.2325821 170.7359467  14.7687960  52.2937622 171.4419708  12.7798185
  52.4597664 170.7602081  11.9457130  51.2055511 171.4981689  12.8070097
  52.8688316 172.7623444  12.3725967  52.7608528 173.1404724  11.2249994
  53.3579140 173.5790253  13.3125334  53.4619293 173.1255951  14.2090197
  53.7651176 174.9477386  13.0490751  53.9875679 175.0935211  11.9920177
  52.7000008 175.8846893  13.5759230  51.7055283 175.5869141  13.2435780
  52.7066231 175.8944397  14.6658592  52.9794044 177.2000885  13.1162834
  52.5415535 177.3425903  12.2739191  55.0722275 175.2028198  13.8070517
  55.2899742 174.6985168  14.8781414  55.8693123 176.1169128  13.2512255
  55.7650185 176.2239532  12.2523384  57.1691322 176.4488068  13.7997494
  57.7220383 175.5144348  13.8964319  57.9479141 177.2677765  12.8027706
  57.2249146 177.8646545  12.2467756  58.6327095 177.9477844  13.3094740
  58.4399757 176.5918579  12.1034088  56.9980164 177.0963440  15.1965027
  57.7713928 176.8395996  16.0633659  56.0101166 178.0597534  15.2825212
  55.5416756 178.4118042  14.4598942  55.6091080 178.5933838  16.6353855
  56.3523636 179.2735291  17.0514050  54.2087402 179.2972412  16.5595417
  53.5656013 178.6476746  15.9657927  53.4348335 179.5225983  17.9246140
  54.0088005 180.0691528  18.6729050  52.5071678 180.0901642  17.8510571
  53.2134361 178.5127563  18.2700233  54.4094696 180.6866455  15.8532829
  55.0519295 181.3028870  16.4822426  55.0285416 180.5099945  14.9737129
  53.1603165 181.4148407  15.3451500  52.5315285 181.8267059  16.1345100
  53.5751953 182.3212585  14.9042749  52.5587425 180.8192902  14.6584625
  55.5349350 177.4467163  17.7437439  56.0549355 177.5937500  18.8296928
  54.7879448 176.3458557  17.4654598  54.3118973 176.4043121  16.5766068
  54.5766563 175.2483215  18.4436169  54.2308769 175.6134644  19.4106750
  53.5591354 174.2904968  17.7819042  53.9723778 174.0827484  16.7949009
  53.5504074 173.3340149  18.3045559  52.1139755 174.7347412  17.7075825
  51.7534103 174.9239960  18.7186565  52.1284180 175.7053986  17.2118816
  51.1040649 173.9260712  16.9267235  51.4364090 172.9534912  16.2786369
  49.8190346 174.2104340  17.0775394  49.1362839 173.6675110  16.5684357
  49.5326424 175.0039825  17.6328373  55.8253860 174.4643555  18.5783405
  56.1478310 174.1310883  19.6630821  56.5490265 174.2545013  17.4857883
  56.1898880 174.4698029  16.5666771  57.7760544 173.5239868  17.5073528
  57.5037193 172.6071167  18.0301304  58.1342316 173.2351532  16.0195026
  57.1972389 173.1776733  15.4655724  58.6690750 174.0784607  15.5826111
  58.9475937 171.9422913  15.9325037  59.9917030 172.1359100  16.1783600
  58.5587654 171.1697235  16.5958710  58.8763657 171.3834381  14.5293026
  59.4741020 170.4724274  14.4997129  57.8771706 170.9797668  14.3657141
  59.3746643 172.3124542  13.5439320  60.1882248 172.8457947  13.8155088
  58.8375168 172.5972443  12.3033590  57.8851662 171.9484863  11.6751623
  57.3956604 171.1596985  12.0730515  57.4090080 172.3999939  10.9073687
  59.2643204 173.6096802  11.6910257  59.9031677 174.2585449  12.1280146
  58.7249565 173.8507080  10.8718224  58.8004608 174.2527466  18.4186802
  59.4393463 173.5912170  19.1704903  58.9019241 175.5719910  18.3271561
  58.4315720 176.1221466  17.6227493  59.6225586 176.4422455  19.2587318
  60.6568260 176.1039124  19.3214092  59.5654259 177.9096527  18.8255520
  58.5124207 178.1251373  18.6443253  59.8891945 178.5747223  19.6261482
  60.2652092 178.2220764  17.5552769  60.1652641 177.3135529  16.9613895
  59.5733147 179.4632568  16.8597984  59.9781075 180.3565063  17.3355503
  59.8320770 179.4010315  15.8027878  58.4858017 179.4165802  16.9166965
  61.7838745 178.6195984  17.6590233  62.3265877 177.7367249  17.9968014
  62.1330414 178.9032135  16.6661777  62.0229874 179.4778748  18.2869453
  59.2116661 176.2649994  20.7125607  60.0514603 175.9074249  21.4847107
  57.9355583 176.3501740  21.1009960  57.2592697 176.4844360  20.3629532
  57.4569283 176.0664215  22.4751301  57.8004036 176.8677063  23.1293907
  55.9703636 176.2394867  22.5153847  55.4850426 175.5833588  21.7928505
  55.6941605 175.9926758  23.5405140  55.4828262 177.6743011  22.1702728
  55.8216362 178.3748779  22.9334965  55.9743767 178.0895996  21.2904930
  53.9257507 177.7536621  22.0055447  53.6190262 178.7962646  21.9219513
  53.7859230 177.2674561  21.0400658  53.2115059 177.0219421  23.1148396
  52.9730453 176.0476379  22.9965839  52.7687645 177.4858704  24.2421513
  53.0205574 178.7357635  24.6556416  53.3754272 179.3645172  23.9493637
  52.6038475 179.0936127  25.5032253  52.1369057 176.6761017  25.0592594
  51.6935081 175.8979187  24.5924149  51.9494858 176.9852905  26.0023270
  57.8942146 174.7063751  23.0337009  58.5252953 174.6044617  24.0800781
  57.7446709 173.6426544  22.1876507  57.2783623 173.8621368  21.3190384
  58.2285957 172.2683563  22.5308781  57.7386475 171.8813934  23.4243546
  57.7543640 171.3565674  21.4188137  56.7151299 171.5857544  21.1830959
  58.3084984 171.6304016  20.5210037  57.9443092 169.5724030  21.7446861
  56.9290199 169.5210114  22.6115398  59.7775421 172.2270203  22.6200619
  60.2541542 171.7355499  23.7074928  60.5496788 172.9029541  21.7205715
  60.1431999 173.2638397  20.8693161  62.0237694 173.0341797  21.8581238
  62.4808464 172.0460663  21.8049641  62.5414886 173.9074402  20.7166710
  61.9127007 174.7832031  20.5561199  63.5011101 174.2518158  21.1021996
  62.7384529 173.1997223  19.3892403  63.5929260 172.5229950  19.3946133
  61.9108734 172.5207977  19.1836090  62.7297783 174.2076111  18.2344208
  63.4898109 175.1832581  18.3097706  61.9341698 173.9248047  17.2596455
  62.3632088 173.6844482  23.2475376  63.2612152 173.2346191  23.9439354
  61.6803589 174.7373047  23.6205425  60.9771881 175.0792389  22.9812241
  61.9430237 175.5647430  24.8134270  62.9990540 175.8337555  24.7903290
  61.1806374 176.9038544  24.7990551  60.1514587 176.6907196  24.5101509
  61.1595802 177.2867889  25.8193588  61.7052727 178.0004578  23.8122845
  61.9364929 177.4778137  22.8841248  60.6174736 179.0403290  23.6022491
  60.3938408 179.6581726  24.4719486  60.9507332 179.6823120  22.7868347
  59.8136864 178.4546356  23.1561642  62.9320641 178.6237488  24.3849945
  63.6072006 177.8150787  24.6649342  63.2890663 179.3209686  23.6270142
  62.6729546 179.1636353  25.2957573  61.6636276 174.8246613  26.1170769
  62.3611870 174.9289856  27.1158791  60.5490150 174.0251770  26.1274796
  59.9039345 174.1140594  25.3554249  60.1482315 173.0930786  27.2220039
  60.1415520 173.6026764  28.1855183  58.7279053 172.6671906  26.8562450
  58.0396805 173.4956970  26.6888676  58.7101898 172.0876160  25.9332714
  58.0523949 171.9278259  28.0317612  57.8605843 172.5069580  29.1658573
  57.7257996 170.7457886  27.8685169  61.1326408 171.9409332  27.4297295
  61.5186958 171.6618195  28.5511665  61.5968094 171.3618622  26.2893448
  61.2567177 171.6398315  25.3798561  62.8218498 170.5124969  26.2792511
  62.4484406 169.6939240  26.8945560  63.1650085 170.0182953  24.8026009
  63.1471825 170.8858948  24.1430092  64.4777603 169.3860168  24.6804523
  64.5609512 168.5930328  25.4236565  64.6018219 168.9612732  23.6843052
  65.2293091 170.1609650  24.8311558  62.0945320 168.9984436  24.3718739
  62.2700272 168.0408936  24.8621864  61.1120872 169.3800812  24.6498184
  61.9141464 168.9052429  22.8202839  62.8803215 168.7422180  22.3427448
  61.2579956 168.1203918  22.4440060  61.4880257 169.8416901  22.4603062
  64.0600739 171.2097626  26.9309063  64.6716919 170.6256561  27.8290157
  64.4279251 172.4058685  26.5040131  64.0369949 172.7937927  25.6573753
  65.5965042 173.1241913  27.1012745  66.4502106 172.4466095  27.1145210
  65.9140091 174.4116516  26.3413429  65.1031723 175.1222687  26.5015564
  66.7785416 174.8932800  26.7982101  66.2904968 174.2011871  24.8728180
  67.0808563 173.4662476  24.7201805  65.3338776 173.8825684  24.4587498
  66.6925507 175.6768951  23.8815670  67.7874374 175.0514221  22.5788975
  67.1806564 174.5404663  21.8313351  68.3096161 175.8951874  22.1278000
  68.5383224 174.3571472  22.9560738  65.3853226 173.4806519  28.5984955
  66.3457718 173.6612244  29.2697811  64.1885376 173.6626282  29.1090393
  63.3880539 173.6942596  28.4939556  63.8748360 173.9134369  30.4837818
  64.5919266 174.6493683  30.8475018  62.4380836 174.5119019  30.6550789
  61.6728020 174.0386963  30.0398369  62.1135216 174.3594513  31.6844139
  62.3405113 176.0438232  30.3575897  63.2705688 176.7530670  30.1672688
  61.1526833 176.5308075  30.6575584  60.9912949 177.5225372  30.7601337
  60.4402885 175.8270569  30.7891827  64.0496979 172.6851501  31.3543797
  64.7510834 172.7628174  32.3669167  63.4866066 171.5834808  30.8188133
  62.9084740 171.7177429  30.0015984  63.3216476 170.3203125  31.6307755
  63.1692734 170.5550232  32.6842461  62.0966873 169.4987488  31.1121273
  62.0552788 169.5456238  30.0239239  62.0848999 168.4576721  31.4347973
  60.8738441 170.1762848  31.6262646  61.0111732 170.2380676  32.7058105
  60.7712021 171.1861572  31.2291298  59.6438828 169.3760223  31.2111759
  59.5972061 169.3029480  30.1246281  59.6460114 168.3706818  31.6323490
  58.3633919 170.0836639  31.7053738  58.3653679 170.0417633  32.7945671
  58.4551468 171.1237183  31.3923817  57.0997353 169.5116730  31.1675644
  57.1596298 168.5139771  31.3129387  56.2847939 169.8985443  31.6217690
  57.0176010 169.7546082  30.1906605  64.5640030 169.3802795  31.5160866
  64.7295227 168.5155487  32.4286880  65.4026413 169.4730377  30.4820137
  65.0551529 170.0594025  29.7366810  66.6786423 168.7665405  30.3293171
  66.5184174 167.7041779  30.5132332  67.0474014 169.0158997  28.8715687
  66.3524094 168.5471802  28.1748791  67.1500092 170.0704193  28.6154919
  68.6459579 168.2708435  28.6275291  68.2762680 166.9954224  28.7743492
  67.6533966 169.3869629  31.2646027  67.9548340 170.5075226  31.1600456
  68.3073044 168.5799255  32.1224861  68.1457367 167.5858612  32.0460968
  69.4384918 168.9875031  32.9930878  69.7846146 169.9488525  32.6134796
  69.0371628 169.0844269  34.4644890  69.8190231 169.5348358  35.0759850
  67.8643646 170.1449585  34.6479683  66.9673309 169.8564453  34.1000595
  67.6363983 170.2807312  35.7051773  68.2890015 171.0921631  34.3154144
  68.5812607 167.8345032  34.9196205  68.5906525 167.8200531  35.8794670
  70.6728516 168.0663910  32.9213638  71.8195648 168.4741821  32.9148560
  70.3921738 166.7730408  32.8480110  69.4250641 166.4920502  32.9244614
  71.3479385 165.7215881  32.8805923  72.3749771 166.0692902  32.7692680
  71.3269424 165.0733795  34.2840996  71.7709427 165.8924713  34.8498344
  70.3039322 164.8176422  34.5600548  72.2114410 163.9556732  34.5433540
  71.7280045 163.1338501  34.4315376  71.1493073 164.6189728  31.7819004
  70.0569305 164.5241089  31.1789188  72.2352829 163.8860626  31.4460449
  73.1165009 164.1967468  31.8294907  72.2586136 162.8410797  30.4066715
  71.2149811 162.5631866  30.2593231  72.8033524 163.4447021  29.1153889
  73.8036957 163.7725067  29.3981514  73.0737381 162.6913147  28.3755188
  72.1033478 164.6522522  28.4534912  71.7154770 165.3690643  29.1772652
  73.0932617 165.4409027  27.5175762  73.7749786 164.8480072  26.9077911
  72.5991821 166.1403198  26.8431892  73.7061462 166.0358124  28.1947403
  71.0198746 164.2363892  27.4411888  70.2157822 163.8162689  28.0453625
  70.6147690 165.0707855  26.8686657  71.4471588 163.4919891  26.7693291
  73.0893936 161.6459503  30.8055687  74.2822418 161.7287903  31.2567768
  72.4357529 160.4126587  30.6447544  71.4814529 160.4890442  30.3229198
  72.9338150 159.2032776  31.2509117  73.9191666 159.3367004  31.6974277
  71.9356461 158.7206116  32.3149529  70.9465408 158.7244720  31.8569584
  72.0395050 157.6851044  32.6390648  71.8118439 159.9225922  33.6996918
  71.8512878 159.0697937  34.7273560  73.0502243 158.0738068  30.1778412
  72.6637802 158.2567749  29.0123577  73.5030518 156.8236389  30.4897213
  73.6742249 156.6244049  31.4649677  73.3526840 155.6452332  29.6275940
  73.5307922 155.9619141  28.5999279  74.4024734 154.5258636  29.9723301
  75.3722229 154.9552612  29.7207317  74.3569412 154.2817535  31.0336742
  74.1483536 153.0043793  28.9999161  75.3171997 152.3783112  29.1634216
  71.9119492 155.0940247  29.6501732  71.2913132 154.9894714  30.6637363
  71.3913651 154.7007294  28.4480667  71.9014053 154.8817291  27.5953102
  70.0957413 154.0508728  28.3059883  69.3807907 154.5632477  28.9497414
  69.6699677 154.1930237  26.7993755  69.7909698 155.2183838  26.4499569
  70.3124084 153.5675964  26.1795387  68.1693039 153.9030457  26.6081772
  68.0555801 152.8959045  27.0092087  67.5441895 154.6576233  27.0856018
  67.7500610 153.7278442  25.1167450  68.4801178 152.9994507  24.7638016
  66.7772217 153.2374573  25.0818806  67.7333679 155.0649872  24.3531113
  67.0354080 155.7070465  24.8904400  68.7222137 155.5228729  24.3281269
  67.3768005 154.8540192  22.9100437  66.4635696 154.4556427  22.7444706
  67.3329239 155.7201385  22.3923302  68.0197372 154.2496033  22.4187088
  70.0419464 152.6130219  28.7475796  68.9778976 152.1735992  29.1299877
  71.1338348 151.8545990  28.7449093  71.9837112 152.1765900  28.3043041
  71.0803146 150.5056915  29.3555965  70.1447678 150.0781708  28.9949341
  72.2862396 149.7675476  28.7486267  72.1271286 149.6819000  27.6737080
  73.1438446 150.4336853  28.8428516  72.6073914 148.4116211  29.3911648
  72.8858032 148.5035706  30.4409904  71.7753906 147.7108765  29.3216629
  73.6763763 147.6230164  28.6237049  74.0413971 147.9702911  27.5174999
  74.1784363 146.5050354  29.1206779  74.8170700 145.9330139  28.5867939
  73.8371277 146.1464233  30.0010223  71.1126785 150.5062561  30.8621693
  70.5303040 149.5959930  31.5016499  71.6942444 151.5165558  31.5072422
  72.2137680 152.1960754  30.9701691  71.6362991 151.6900940  33.0463867
  71.7347870 150.7529602  33.5942764  72.8824844 152.5074768  33.3543320
  72.7055511 153.5089569  32.9621353  73.0271072 152.7081146  34.4158974
  74.4062347 151.8905640  32.6373558  74.7260742 151.0457916  33.6217155
  70.3464050 152.4116821  33.5030022  69.7703400 152.2154999  34.6202240
  69.9001160 153.2847290  32.5993271  70.5984650 153.4275818  31.8837833
  68.9639664 154.4161224  32.7964859  68.9412079 154.9703522  31.8581791
  67.4874039 153.9251709  33.0152512  67.4120483 153.5180054  34.0235367
  66.7409058 154.7114258  32.9028358  67.1998825 152.8759003  31.9641552
  67.4932022 153.3379974  31.0215378  67.7514877 151.9580383  32.1675606
  65.7568207 152.3502808  31.8673668  65.1843872 151.8385468  32.8163071
  65.0524750 152.4514923  30.7235069  64.0682678 152.2279510  30.6853523
  65.6077347 152.5372772  29.8842030  69.4588089 155.4284058  33.8303337
  69.2113113 156.6159210  33.5563889  70.1714172 155.0487518  34.8426590
  70.0139694 154.0928497  35.1282349  70.5412521 155.9625702  35.9486504
  69.8589935 156.8094177  36.0226440  70.5024414 155.2246399  37.3064995
  70.4654083 155.9887390  38.0829620  69.5632706 154.6721802  37.3354607
  71.6154938 154.1712952  37.5187721  71.9181519 153.4244537  36.5722733
  72.0296478 154.0543671  38.6615677  71.9211884 156.5815887  35.7642746
  72.0422897 157.7630768  35.9812088  72.9987488 155.7987366  35.4821892
  72.8587189 154.8027191  35.5739899  74.3661652 156.3709106  35.4200363
  74.6649704 156.5853119  36.4461212  75.2549515 155.1937561  34.9563637
  75.0167999 154.9936218  33.9116936  76.7630081 155.3483734  35.1201515
  77.0592346 155.2913971  36.1675797  77.2469330 154.5073395  34.6235962
  77.0501175 156.3088226  34.6921272  75.0757446 154.0060577  35.6585846
  75.0949173 154.1248169  36.6110153  74.5745926 157.5658417  34.4689865
  74.4984360 157.5496521  33.2530365  74.9375534 158.7013550  35.0858231
  75.0551910 158.5971527  36.0835228  75.2602005 159.9629669  34.4637642
  74.4773560 160.1929016  33.7410011  75.2588272 161.0644073  35.5533981
  74.2659454 161.1586151  35.9931908  76.0177841 160.7914276  36.2865868
  75.6225052 162.4514771  34.9463043  76.5420914 162.3395691  34.3718948
  74.8118286 162.7781830  34.2950325  75.9206467 163.5092468  36.0183487
  75.6910934 163.2246552  37.1998634  76.3751602 164.6218414  35.5919609
  76.5628662 159.9199677  33.6637840  77.6313934 159.7301636  34.2055283
  76.5141068 160.3074799  32.3823586  75.6045227 160.5951233  32.0506630
  77.7102051 160.4430542  31.5741138  78.6038742 160.0269775  32.0392494
  77.4542847 159.7760162  30.2248325  76.4134827 159.8902283  29.9218559
  78.1496506 160.4533997  29.0789566  79.2242279 160.4785004  29.2599449
  77.9438324 159.9155731  28.1534939  77.7381973 161.4464569  28.8982639
  77.8531647 158.2307434  30.2290115  77.6412277 157.7974854  29.2515259
  78.9324341 158.1347351  30.3476467  77.0922928 157.3319550  31.2505894
  76.0049362 157.2736206  31.2022610  77.3947906 156.2966614  31.0931606
  77.3923264 157.6189117  32.2584343  78.0750351 161.9588318  31.4406452
  79.2815781 162.2333679  31.3571796  77.1030350 162.8658600  31.3266544
  76.1169662 162.6500244  31.2923870  77.4469528 164.2939301  31.0681801
  78.2466965 164.6018066  31.7417717  77.9141922 164.5699158  29.6174545
  78.7617416 163.9371948  29.3540020  76.8469543 164.4556580  28.5596066
  76.0287323 165.1626587  28.6966248  77.1586075 164.4280853  27.5154743
  76.3576889 163.4848785  28.6389713  78.4843063 165.8898010  29.5201797
  79.3897705 165.7713623  29.8163490  76.2560883 165.2037964  31.4497490
  75.1087723 164.7571259  31.6398563  76.4926300 166.5174866  31.6357708
  77.4515457 166.8051758  31.5023270  75.4869232 167.5868530  31.8276863
  74.4670868 167.2052155  31.8766804  75.7816772 168.2245331  33.2248840
  75.6980438 167.4745636  34.0114250  77.1206512 168.9176788  33.2713661
  77.1703262 169.6349487  32.4521255  77.3017349 169.4176636  34.2228432
  77.8917084 168.1551971  33.1607780  74.8386993 169.2140045  33.4262123
  74.2292328 168.9201965  34.1072655  75.3437729 168.5682068  30.6353607
  76.1774750 168.5743866  29.6821880  74.2122040 169.3114014  30.6550369
  73.6794281 169.0447998  31.4706211  73.7694778 170.2056885  29.6409760
  73.7596893 169.6409760  28.7087135  72.3703079 170.6795959  30.0515480
  71.6361694 169.8842926  29.9226456  72.3648224 170.9547119  31.1062450
  72.0041962 171.9065552  29.2197456  72.7284775 172.7048187  29.3818989
  71.8921509 171.6707611  28.1614704  70.6044159 172.4748840  29.6662312
  69.8249817 171.7546692  29.4174652  70.6019440 172.6660919  30.7393246
  70.2168503 173.7393799  28.9597836  71.0904694 174.3823547  28.8526993
  69.8079147 173.6233368  27.9560852  69.1995316 174.4530487  29.7825298
  69.4347305 174.5632019  30.7585659  68.9500732 175.3586731  29.4114361
  68.3405991 173.9217987  29.7933693  74.8790817 171.3277740  29.5818863
  75.2924042 171.7028351  28.4598312  75.3798523 171.7459106  30.7370033
  75.0744629 171.3371887  31.6086597  76.4020462 172.7864380  30.8754578
  76.0887299 173.7393494  30.4489880  76.5969772 173.0971832  32.3644943
  76.9493179 172.2583618  32.9647827  77.4692154 173.7507782  32.3753510
  75.4924316 173.8544769  33.1117668  74.6271744 174.4868622  32.4834595
  75.3195419 173.7750397  34.3876457  74.5812378 174.2933044  34.8419647
  75.8631287 173.1646118  34.9809303  77.7154388 172.4816284  30.2351971
  78.4909973 173.4038086  29.9889641  78.0000916 171.2221222  29.8696880
  77.3295441 170.4996948  30.0900440  79.2284470 170.8152924  29.0968475
  80.0005646 171.5519867  29.3186874  79.7439041 169.4215546  29.4880791
  79.0879898 168.7070770  28.9906921  80.7282486 169.3970032  29.0205479
  79.9336700 169.0102386  30.9036617  78.9189606 168.9252014  31.2925587
  80.4410324 168.0465088  30.9473228  80.8413239 169.8739777  31.8008080
  81.3156128 170.9751740  31.4479237  81.0899887 169.4098816  32.9089394
  79.0545425 170.7866669  27.5723991  79.9289093 170.3835144  26.8072243
  77.9134674 171.2028656  27.0696106  77.2073364 171.5669556  27.6932468
  77.5171432 171.1314697  25.6387424  78.0229187 170.2691345  25.2043781
  75.9896164 170.8840637  25.3271599  75.3843460 171.5492859  25.9429741
  75.6974258 171.0736237  23.8683815  76.3419876 170.4209442  23.2796021
  74.6606445 170.9366455  23.5611134  75.8112564 172.1110382  23.5538425
  75.6735535 169.4343262  25.7672997  76.1752777 168.7504272  25.0827236
  76.1494522 169.2636719  26.7329617  74.2017899 169.0952606  25.7592201
  73.7488327 169.1645508  24.7702141  74.1371307 168.0329285  25.9945126
  73.6526794 169.7444916  26.4411831  78.0595245 172.3562469  24.8591118
  78.0243301 173.4543457  25.3861847  78.7754364 172.0745239  23.7686691
  78.7946930 171.0867462  23.5589046  79.3808594 173.0719299  22.8730488
  78.8864594 174.0414581  22.9337025  80.8045731 173.3274689  23.2381344
  81.0410919 174.3912811  23.2165089  80.9256516 173.1236267  24.3020382
  81.8734131 172.4648438  22.5461578  81.9313583 171.1467896  22.8436832
  81.2116623 170.7098541  23.5200863  82.8276825 170.3306732  22.1241989
  82.8971481 169.2608948  22.2551956  83.7411575 170.9309082  21.2335339
  84.5474319 170.4442139  20.7049084  83.7399445 172.3386230  20.9685574
  84.4758987 172.8930206  20.4051590  82.7452698 173.0756531  21.6330376
  82.7450256 174.1477509  21.5026207  79.1476746 172.6818695  21.3309002
  79.0704880 171.4829559  20.9475822  79.0483398 173.7455750  20.5522919
  78.9894638 174.6740875  20.9453640  78.8076782 173.7548065  19.1041431
  78.1688538 172.9198761  18.8162346  77.9937286 175.0121307  18.8070374
  78.5276947 175.9124756  19.1109676  77.8158340 175.0711823  17.7332764
  76.7559052 174.9270477  19.4543400  76.1916199 175.6465302  19.1618881
  80.0872726 173.6328583  18.3026924  80.6203842 174.6184998  17.8036804
  80.5723877 172.3844757  18.1447258  80.1702347 171.6582947  18.7200718
  81.6419754 172.0982666  17.2637863  82.3639145 172.9074707  17.3737469
  82.3492126 170.7876587  17.6372070  82.5138245 170.9053345  18.7082615
  81.5705872 170.0421753  17.4756641  83.6370621 170.4969635  16.9382229
  83.6012421 170.4420013  15.8501978  84.8204803 171.4618988  17.1808434
  85.1250458 171.5041504  18.2265739  85.6291351 171.1011658  16.5452061
  84.7187805 172.4721375  16.7843742  84.1421127 169.0971069  17.4278011
  83.3860321 168.3379974  17.2273693  85.1148071 168.8775635  16.9876003
  84.2563019 169.1600037  18.5099773  81.2661591 172.2235718  15.7533941
  82.0658569 172.5158997  14.8894386  79.9881363 172.0504456  15.4716244
  79.3101578 171.7811127  16.1701317  79.5388489 172.2683563  14.1161041
  80.3730621 172.2384186  13.4151793  78.6379089 171.0854187  13.7385635
  79.0937042 170.0976868  13.8074665  77.7410812 171.1015167  14.3578701
  78.2901154 171.1603088  12.4207191  78.2549057 170.3346863  11.9321432
  78.8229980 173.6170502  13.9672337  78.2331543 174.1866455  14.9124508
  78.7822571 174.1482086  12.7662096  79.3442612 173.7452545  12.0300865
  77.7637558 175.0750885  12.2799768  77.6707993 175.9594727  12.9103117
  78.1783600 175.5207825  10.9014473  78.1121750 174.6356049  10.2688522
  77.3332901 176.1337433  10.5880289  79.4478989 176.3886719  10.8054752
  80.3132858 175.8898163  11.2417440  79.7549210 176.6239777   9.3235073
  78.8496094 176.9542389   8.8141489  80.4482346 177.4537048   9.1858215
  80.1724854 175.7591705   8.8079023  79.2073746 177.7863617  11.3836460
  79.2710419 177.8252563  12.4710875  79.9637909 178.4576874  10.9771080
  78.1977158 178.0704956  11.0870867  76.3279724 174.5806122  12.3017483
  75.3637161 175.3464966  12.4607096  76.1354370 173.2536774  12.3381386
  76.9070053 172.6019745  12.3306303  74.8385162 172.6127930  12.5531721
  74.1352310 173.1873474  11.9503708  74.8020935 171.1566620  12.0380688
  75.5360184 170.5271606  12.5412416  73.8075714 170.7706604  12.2617502
  75.1120377 171.2105560  10.2552929  74.4377670 170.0880890   9.9900703
  74.3736877 172.7519379  14.0158510  73.1804428 172.4391937  14.2438879
  75.2086868 173.1545563  15.0067902  76.1376038 173.4389954  14.7305632
  74.9417191 173.2581329  16.4314384  75.0898056 174.2732391  16.7998371
  73.8839035 173.0096893  16.5175419  75.6756744 172.1970215  17.2710991
  76.7658234 171.8292542  16.8709602  75.2316666 171.8654327  18.4895363
  73.9486237 172.2712097  19.0724621  73.1196594 172.2571259  18.3648453
  74.1122513 173.2999420  19.3934402  73.7051620 171.4026031  20.3066292
  73.1594543 170.4981384  20.0378723  73.1332245 171.9094849  21.0838509
  75.1235428 170.9958496  20.6862221  75.0496140 170.0646973  21.2479897
  75.6009674 171.7061157  21.3612804  75.8930359 170.8416443  19.4157887
  76.9042816 171.1674957  19.6593094  76.0581894 169.3922729  18.9471188
  76.6192551 168.5220032  19.6753387  75.4303818 168.9571533  17.8578949
  74.8847580 169.6350708  17.3452301  75.1283112 167.6005859  17.4547939
  76.0615540 167.1164246  17.7424755  73.9997940 167.0747070  18.2406197
  73.9947891 167.3925323  19.2832413  73.1276093 167.6313324  17.8977680
  73.7561874 165.5374603  18.2324848  73.7244415 165.2377625  17.1849728
  74.6043320 165.0188141  18.6794415  72.2088928 164.9095306  18.9518623
  71.1546478 165.0234985  17.5259171  71.6422043 164.4892731  16.7104416
  70.1341629 164.6504211  17.6126366  71.1912766 166.0429688  17.1419468
  74.8512573 167.5123138  15.9516983  74.3372650 168.4844666  15.3684921
  75.3863373 166.4874268  15.2253294  75.9926987 165.8393707  15.7074442
  75.0013046 166.2062531  13.8497496  73.9411774 166.4252472  13.7221956
  75.7713470 167.2048645  12.8906956  76.8529663 167.0765533  12.9322615
  75.3889160 167.0943604  11.8759851  75.5864944 168.2375946  13.1863489
  75.0905228 164.7539673  13.5654993  75.0505600 163.9305725  14.4811354
  75.2145920 164.3331299  12.3024397  75.4456024 164.9555817  11.5413265
  74.9973068 162.9346161  11.9681520  74.9637833 162.2962952  12.8510571
  73.6324463 162.8359528  11.2778654  73.5947723 163.3815308  10.3349905
  73.4064484 161.7937317  11.0524855  72.8644104 163.3140259  11.8858719
  76.1260986 162.5095825  10.9750338  76.5071716 163.2698059  10.0977077
  76.6345139 161.2968903  11.0904970  76.1123581 160.6179047  11.6256828
  77.8287125 160.8512573  10.3904905  77.9933929 161.3877716   9.4560738
  79.0372314 161.3065338  11.2524958  78.9168167 160.7685547  12.1928101
  79.9632950 161.0179901  10.7552519  79.1512299 162.7843475  11.6804886
  79.5494995 163.8255615  10.7463760  79.7416077 163.6266632   9.7023745
  79.7279053 165.1499786  11.2210283  80.0219193 165.9245758  10.5282278
  79.4225845 165.4435730  12.5437107  79.4360352 166.7001190  13.0264301
  79.5878754 167.3058624  12.2973051  78.9400558 164.4606781  13.3897982
  78.6188736 164.7301788  14.3850908  78.8057556 163.1497650  12.9556875
  78.3814163 162.4369659  13.6472454  77.8030243 159.3196716  10.0816002
  76.8418579 158.6385193  10.4243822  78.8982468 158.7722473   9.5023270
  79.6829681 159.3960266   9.3789988  79.0539246 157.3388214   9.2123213
  78.3807373 156.7306824   9.8165398  78.5531158 156.9529724   7.7778721
  78.6436310 155.8781586   7.6206555  77.0709000 157.2612915   7.5855041
  76.7407608 158.2973633   7.6606421  76.7410126 157.0393066   6.5706182
  76.3980560 156.6681824   8.2048674  79.4151230 157.6590424   6.7386470
  80.4572830 157.3405457   6.7149773  78.9651489 157.5041046   5.7580266
  79.2331772 158.7089691   6.9681463  80.4730835 156.7572327   9.4117489
  81.4241028 157.3584442   8.8743525  80.5927353 155.5383148   9.9191084
  79.7961349 155.0513458  10.3043194  81.8558350 154.6848755   9.9258623
  82.6443710 155.4188690  10.0918226  81.7590485 153.7180634  11.1031017
  82.7349091 153.4535217  11.5102987  81.1496735 154.2072296  11.8630285
  81.1637573 152.3855286  10.7718239  80.1693954 152.3702240  10.0211649
  81.6181107 151.2789917  11.3331509  81.1852875 150.4105225  11.0529213
  82.2310944 151.3731995  12.1303177  82.1287384 154.0350342   8.5558968
  81.1463928 153.9366150   7.8031044  83.3303680 153.4095764   8.2879181
  84.3930130 153.4027252   9.2235737  84.1950302 152.6224213   9.9584446
  84.5679626 154.3549347   9.7243643  85.5697784 152.9725342   8.3881874
  86.2523651 152.3997803   9.0159864  86.0283813 153.7698975   7.8033710
  84.9545212 151.9844208   7.3677773  84.8506088 151.0562286   7.9297204
  85.5705414 151.7562408   6.4979739  83.6418839 152.6742096   7.0911970
  83.8092651 153.5056000   6.4064574  82.5650711 151.6575470   6.5919833
  82.3303070 151.5299225   5.3875885  81.9123001 150.9739380   7.5468273
  82.2220764 151.2142944   8.4776173  80.8117752 150.0211182   7.4328828
  81.0607910 149.5243378   6.4951749  80.8433990 149.0075989   8.6403484
  80.4211121 149.5899658   9.4592600  80.1669388 148.1676788   8.4821043
  82.2430496 148.4999695   8.9977465  83.0225449 149.0331573   9.9565248
  84.2007904 148.4248505   9.8537540  85.0004120 148.5833588  10.5621901
  84.1488953 147.5703125   8.8177662  84.9696503 147.0223846   8.6027498
  82.9100647 147.5535278   8.3035917  82.5076294 147.0459900   7.4393849
  79.3897095 150.6762695   7.3141961  78.3817673 150.0042267   7.3633614
  79.3072128 151.9904480   7.0513873  80.1474533 152.5289612   7.2065983
  78.1158752 152.7618561   6.6032724  78.4942017 153.7556152   6.3636885
  77.7070770 152.3078156   5.7005854  76.9342194 152.9656982   7.5914102
  76.0289841 153.6963806   7.2946157  76.9317322 152.3182220   8.7797756
  77.7649002 151.7896271   8.9954700  75.9880371 152.5677795   9.8728104
  74.9869995 152.4041138   9.4737635  76.3317261 151.6256104  11.0439072
  76.5822906 150.6481476  10.6317415  77.2740326 151.9351654  11.4959555
  75.2922516 151.5099792  12.2060509  74.1866608 150.6964264  12.0424137
  74.1359863 150.0088959  11.2110739  73.1881943 150.5937042  13.0459671
  72.4282684 149.8269958  13.0131044  73.3484955 151.3849640  14.2177620
  72.5367050 151.1757965  15.2881441  71.9985580 150.3896790  15.1697330
  74.3745041 152.3730774  14.2497520  74.3780212 153.0122070  15.1203289
  75.3430099 152.4665527  13.2552462  76.0601425 153.2740784  13.2571487
  76.0180283 154.0620422  10.3213625  77.1132126 154.5776062  10.6306696
  74.8324661 154.7041473  10.5296631  73.9866104 154.2068024  10.2903347
  74.7345810 156.1567841  10.8383579  75.5697479 156.6561737  10.3472242
  73.5038757 156.8056488  10.1294775  72.5948868 156.2856903  10.4319344
  73.4170761 158.3230438  10.4913139  72.7202835 158.8026886   9.8039112
  73.0433426 158.4233093  11.5103207  74.4105988 158.7437439  10.3363400
  73.4575119 156.6744232   8.5940828  73.5947876 157.6068420   8.0465040
  74.2406311 155.9996796   8.2482986  72.1093216 155.9834442   8.2532206
  71.2497406 156.6457520   8.3560143  72.0983353 155.5598450   7.2489595
  71.9295044 155.1886749   8.9771729  74.8332214 156.3342590  12.3786144
  74.1506958 155.6323700  13.1617155  75.6841202 157.2468719  12.7924509
  76.1495209 157.7651367  12.0610733  75.9512939 157.6769409  14.1422424
  75.1986313 157.1040649  14.6839218  77.3863907 157.3427582  14.6433182
  78.0869598 157.7668304  13.9239683  77.5280838 157.8139648  15.6159353
  77.6657715 155.8579254  14.7407551  77.0107498 155.0849609  15.7014656
  77.6400299 153.9002228  15.5799437  77.3417740 153.0192413  16.1288643
  78.5845642 153.8786316  14.6084986  79.2875443 153.1869507  14.3905621
  78.6488190 155.1658325  14.1080427  79.3662796 155.5466156  13.3962374
  75.5225525 159.1340179  14.3100214  75.5538635 159.9076691  13.3505707
  75.0175629 159.4751587  15.4906626  74.8694839 158.8416290  16.2631969
  74.7105789 160.8436584  15.8216133  75.1416397 161.5456696  15.1078367
  73.2039490 161.2268982  15.8717546  72.6831818 160.5421600  16.5411186
  73.2627029 162.2178802  16.3218765  72.4332352 161.3740082  14.5664501
  72.9205780 162.0072937  13.8251305  72.2405167 160.3955231  14.1265469
  71.0468063 161.9047241  14.8900652  70.2841568 161.3041382  15.7152882
  70.6189194 162.9398041  14.2765427  75.4096603 161.2270050  17.1860771
  75.1258392 160.6107635  18.2304173  76.4187775 162.1136780  17.1047802
  76.6048737 162.5876160  16.2325153  77.3534851 162.3959351  18.1678371
  77.1411209 161.8141937  19.0648212  78.7827911 162.0405884  17.7550240
  79.4875870 162.4140778  18.4979057  79.0012436 160.5114288  17.5011253
  78.8350830 160.2422028  16.4580441  80.0639648 160.2785645  17.5682411
  78.4631805 159.9564819  18.2696495  79.0521469 162.7293854  16.5304470
  79.9301758 162.4182587  16.2983646  77.1341476 163.7621155  18.7380733
  77.4536591 164.7479401  18.0904045  76.6774597 163.8622131  19.9798851
  76.6297302 162.9757843  20.4616165  76.6186829 165.0493164  20.8091412
  76.1892471 165.8535309  20.2116966  75.6975555 164.8162689  21.9702435
  74.6515808 164.7736664  21.6665516  75.9690399 163.8406677  22.3734856
  75.6861343 165.8838654  23.0308647  76.7212296 166.1068268  23.2896404
  74.9141159 167.1024323  22.4237213  73.8804169 166.8522797  22.1850090
  75.0245667 168.0155792  23.0085735  75.4038849 167.5471191  21.5574169
  74.9231796 165.4665375  24.2733402  75.5039597 164.7043915  24.7928753
  74.7039261 166.3449249  24.8803501  73.9296494 165.0830383  24.0411358
  78.1060333 165.3512421  21.2680016  78.7099991 164.4693604  21.8780632
  78.5303955 166.6068878  21.0136490  77.9713974 167.1916504  20.4089394
  79.8947678 166.9857178  21.3450089  80.4167786 166.0459900  21.5253181
  80.6111755 167.6161804  20.1625748  81.5645142 167.9167633  20.5971832
  80.8158188 166.6696930  18.9685249  79.8902740 166.6014252  18.3968563
  81.6157303 167.0345764  18.3242416  81.1389694 165.6722870  19.2666397
  79.8774109 168.7363129  19.6339283  79.2525711 168.9841766  20.3192959
  79.9541855 167.8053436  22.6564827  79.2043457 168.7723694  22.8578663
  80.7384796 167.3129120  23.5631104  81.2306519 166.4459381  23.4011917
  80.9142227 167.9418488  24.9154530  80.5288773 168.9614716  24.9144878
  80.1370316 167.1551514  26.0146027  80.3512573 167.6162567  26.9787560
  78.6081924 167.2448273  25.9137936  78.2037659 166.4948273  25.2340603
  78.1929779 167.1843414  26.9197979  78.3344574 168.1850433  25.4350662
  80.5037537 165.6945038  26.2762318  81.5512085 165.5388947  26.5345573
  80.0407333 165.3147736  27.1870079  80.2329865 165.0675507  25.4266891
  82.3672638 168.0176697  25.2886753  83.0756149 167.1062317  24.9066906
  82.8323517 169.0422516  26.0249023  82.1816330 169.7516479  26.3305378
  84.2674332 169.0706787  26.4144821  84.8862534 169.1326599  25.5193138
  84.5552216 170.3607025  27.1617203  84.0413437 170.4207306  28.1211071
  85.6226196 170.3926392  27.3802299  84.2555466 171.6737518  26.4617043
  85.2166214 172.1401978  25.5154305  86.0766220 171.5586700  25.2177601
  84.9494019 173.3947601  24.8471279  85.6962204 173.8034058  24.1825447
  83.8544006 174.1494446  25.2267590  83.6868668 175.4146881  24.7195206
  84.0585938 175.5869598  23.8513393  82.9631500 173.6930084  26.1910572
  82.1694489 174.3583527  26.4972572  83.1187363 172.4279022  26.7581425
  82.3754654 172.0807953  27.4606094  84.7362518 168.0160370  27.4252453
  85.9506531 167.7118835  27.5044022  83.8429794 167.5184479  28.2692242
  82.9021378 167.8841248  28.3038788  84.1407242 166.6079407  29.3873768
  85.0713120 166.0572357  29.2501755  84.4293747 167.5220184  30.5803432
  85.3236008 168.0405884  30.2345924  83.5984955 168.2253571  30.6354847
  84.8026810 166.9142151  31.9414520  84.0179977 166.2749329  32.3460312
  85.7014847 166.3094177  31.8211365  85.0520859 168.0821991  32.9616890
  85.8363495 168.7692261  32.6438217  84.1135178 168.6353607  32.9271545
  85.3721466 167.5005798  34.3230286  85.3171158 168.3149719  35.0454102
  84.5953140 166.7833252  34.5879478  86.7538300 166.9620667  34.4558868
  87.4957962 167.5401001  34.0878410  86.9440613 166.8931580  35.4454155
  86.9436035 166.0774078  34.0070152  82.9798431 165.6419830  29.6528149
  81.7941666 165.9792328  29.4221668  83.2865753 164.4620056  30.1330261
  84.2438278 164.1529694  30.0421238  82.3489609 163.4173279  30.5143185
  81.3632584 163.8125916  30.7597923  82.1618347 162.5176697  29.2718735
  83.1388855 162.0597076  29.1177845  81.3935089 161.7813873  29.5077839
  81.9101562 163.1813660  28.4446659  82.8139038 162.5691986  31.7883759
  84.0127411 162.4165039  32.0509605  81.9033966 162.1286926  32.7063751
  80.9345398 162.0901184  32.4236565  82.2487793 161.4694824  34.0104713
  83.2628937 161.8557739  34.1126785  81.4743500 162.1603394  35.1432228
  80.3971939 162.0075378  35.0762520  81.8298111 161.7988129  36.1081352
  81.8787460 163.9400482  35.1542740  83.1392212 163.8570709  34.7192841
  82.3471146 159.9746094  33.9979248  83.4805069 159.5078278  34.2411003
  81.2717819 159.1732025  33.9183807  80.4260483 159.6980133  33.7468452
  81.3189468 157.7379913  34.1269646  82.1747894 157.5505066  34.7754097
  79.9876633 157.3813019  34.8231392  79.1179581 157.6331024  34.2162514
  79.9665604 156.3110657  35.0286484  79.9297714 158.0671539  36.1620598
  80.7432404 157.7498322  37.0271416  79.1069794 159.0291901  36.3583717
  79.0431976 159.4328003  37.2820206  78.4328995 159.2995605  35.6565056
  81.6020126 156.9669800  32.8163605  80.8007889 156.0582886  32.4298897
  82.7336349 157.2623444  32.1489601  83.3292542 158.0111389  32.4724731
  83.1947403 156.4937592  30.9935360  82.4807053 155.6978912  30.7817688
  83.2131653 157.3399658  29.6796894  83.9593430 158.1294403  29.7692928
  83.4629669 156.6473083  28.8759899  81.8409576 157.9400177  29.3449650
  81.4225082 158.4932556  30.1857643  82.0559616 158.9589081  28.2496166
  82.3579025 158.4099884  27.3576450  81.0499954 159.3454285  28.0860844
  82.6869049 159.7588959  28.6369381  80.9148788 156.8147583  28.9023952
  80.6415939 156.1787872  29.7443886  79.9650803 157.1957397  28.5271130
  81.4438934 156.1776886  28.1935978  84.5811310 155.9338226  31.1548767
  85.4968872 156.6314087  31.5407524  84.7617874 154.6506805  30.8004341
  83.9132309 154.2533875  30.4233246  86.0223541 154.0253601  30.6137524
  86.8221664 154.5039673  31.1788578  86.0431747 152.5508270  31.1680756
  85.2503662 151.9864960  30.6770592  86.9950256 152.1431732  30.8276291
  85.9453278 152.4525146  32.6833954  85.8068466 153.4188538  33.4802208
  85.8567657 151.2013702  33.0827522  85.9354019 151.0322266  34.0753784
  85.9813232 150.5424957  32.3274460  86.4302063 154.1354370  29.1008892
  85.5608749 154.1311798  28.2285023  87.7302170 154.1729126  28.7805138
  88.2712708 153.7565765  29.5248451  88.2991714 154.1259155  27.4392490
  87.5753555 154.4710388  26.7009392  89.4752197 155.1052399  27.3626537
  90.2681122 154.7490540  28.0203495  89.8726196 155.1698456  26.3497353
  88.9921188 156.5375977  27.7820168  88.3268051 156.5361023  28.6454144
  90.2164078 157.2675629  28.1979160  90.9239807 157.1835327  27.3730640
  90.0719223 158.3158875  28.4591255  90.6459274 156.7752991  29.0704384
  88.3237000 157.3104706  26.6110344  87.4406586 156.7795258  26.2554569
  87.9079056 158.2605743  26.9464493  89.0835037 157.4937134  25.8512859
  88.7055893 152.6854553  27.0922718  89.1213226 151.8714447  27.8924217
  88.7620697 152.3910370  25.7790947  88.5323868 153.0922394  25.0894222
  89.3313370 151.1304016  25.2174683  90.0513229 150.6936646  25.9095516
  88.2242355 150.0949249  25.0471973  88.5351181 149.2266235  24.4662323
  87.8854294 149.8196564  26.0459690  87.1213074 150.6988525  24.3120270
  86.4639130 150.0363312  24.0873260  90.0743790 151.4027863  23.8863907
  89.9113770 152.4890289  23.3147392  90.9597626 150.5259857  23.4264221
  91.0214615 149.6757202  23.9680462  91.7351913 150.6497345  22.1997395
  92.2765045 149.7500916  21.9069309  91.1332855 150.8449402  21.3122139
  92.8262024 151.7133026  22.3322563  93.3839493 151.9142456  23.3972015
  93.1797562 152.3365784  21.1858215  92.7878265 151.9760284  20.3276253
  94.1919556 153.3874207  21.0627670  94.1848602 153.8335876  22.0572414
  95.5816040 152.8618164  20.6474915  95.4899292 152.2559967  19.7460079
  96.2885895 153.6259460  20.3244019  96.3116455 151.9266510  21.6427231
  95.6535721 151.0780334  21.8294945  97.1744308 151.5096130  21.1233311
  96.8064804 152.6513977  22.9517879  97.4868851 153.4605713  22.6864948
  95.9676971 153.0645142  23.5120239  97.5421066 151.6226807  23.8075809
  98.5104446 151.5211792  23.5390072  97.0721130 150.6914062  24.6626091
  95.7921371 150.7592621  25.0433273  95.1900330 151.4994507  24.7121544
  95.3999481 150.0273285  25.6182919  97.8031540 149.7244873  25.0697689
  98.7750320 149.6781769  24.7988167  97.4531784 148.9802094  25.6560020
  93.7569046 154.3990784  19.9733372  93.0001984 154.0782318  19.0610561
  94.2522812 155.6426086  20.0446548  95.1351547 156.1678162  21.1225986
  96.1672134 156.0709991  20.7855911  94.9464951 155.6136780  22.0420723
  94.8221893 157.6563263  21.2001305  95.6113510 158.3264923  21.5410233
  93.9187698 157.8061371  21.7913074  94.5174484 157.9000702  19.7238808
  95.4162598 158.1179199  19.1470070  93.9067230 158.8027039  19.7425728
  93.8015060 156.6815033  19.1519718  92.7344894 156.6933746  19.3743038
  94.0816803 156.3893127  17.6497307  95.0337372 155.7372589  17.2306309
  93.1797409 156.8396606  16.7821980  92.2254028 157.0530090  17.0348110
  93.3600082 156.9638062  15.3185339  94.3892365 157.2262268  15.0737572
  93.0582809 155.5738220  14.6611347  93.7678146 154.8169861  14.9956245
  92.0191956 155.3968658  14.9387846  93.2022324 155.7064972  13.2699938
  93.9253387 155.1116028  13.0583010  92.5265198 157.9991760  14.6513309
  91.4128342 158.2702637  15.0845175  93.0366821 158.6589203  13.5909843
  94.0398178 158.5761719  13.5074883  92.3662796 159.6859741  12.7348194
  91.5829544 160.2163849  13.2762623  93.4757080 160.7073059  12.2656832
  93.0019531 161.4760284  11.6551609  94.0991135 161.5482025  13.3928070
  94.7632141 160.8963013  13.9603386  94.6513672 162.3912506  12.9776192
  93.3745575 162.0603333  14.0259295  94.4930496 160.0481415  11.5629530
  94.1921005 159.9315948  10.6588259  91.7332001 158.9736176  11.5102329
  91.0911484 159.6979218  10.6919785  91.7809982 157.5834503  11.4073935
  92.2241745 157.0264130  12.1239071  91.1211395 156.7974854  10.3458633
  91.4935913 157.1982727   9.4031305  91.4751129 155.3401337  10.4337816
  91.2216110 154.9328766  11.4125490  90.9300919 154.7603455   9.6888676
  93.0271835 155.0568695  10.2579985  93.6840210 155.6999054  10.8438129
  93.2016830 154.0835114  10.7165146  93.4726105 155.0391693   8.7591887
  92.8244934 155.5419159   7.8298616  94.5332108 154.5091095   8.4583464
  89.5654526 156.9879608  10.3038979  88.8040161 156.6034851  11.2055178
  89.1432495 157.6189575   9.1786184  89.7762375 157.7337646   8.4000053
  87.7468872 158.0189972   8.9092741  87.6637726 158.4499969   7.9115601
  86.8816452 156.7782745   8.7649288  87.4784546 155.8879242   8.5669575
  86.3828659 156.4752655   9.6855268  85.8413620 156.7759399   7.6933527
  84.4646988 156.7536621   7.9470725  83.8538742 156.8252106   6.7469702
  82.7816391 156.8166504   6.6179614  84.7735672 156.8082123   5.7537866
  84.5190659 156.7815094   4.7767425  86.0437851 156.8321686   6.3460431
  86.9677429 156.8002167   5.7877626  87.1898651 158.9671631  10.0428591
  85.9814224 159.0213623  10.2859478  88.0207748 159.8077545  10.6875668
  89.0058441 159.7649841  10.4686718  87.5387573 160.7602539  11.7407646
  87.0027924 160.1757355  12.4885521  88.7804184 161.4702759  12.3315516
  89.3102951 160.6203918  12.7616968  89.4117889 161.9871521  11.6088428
  88.3840332 162.3467865  13.3403463  89.2015228 162.7929382  13.5732822
  86.6103439 161.8596497  11.2329922  87.0242538 162.7527161  10.4611998
  85.3734131 161.9023895  11.7052622  85.1383209 161.3237762  12.4990187
  84.3358917 162.9216309  11.4356680  84.0880814 162.8583984  10.3760948
  83.1458282 162.4783173  12.2386770  83.3731384 162.6174011  13.2955990
  82.3335953 163.1847382  12.0673294  82.6987534 161.0550690  11.9654875
  82.8550034 160.3583679  10.7884531  83.2333679 160.8052979   9.8809929
  82.3392868 159.0899658  10.8977280  82.3983154 158.4487457  10.1196156
  81.9761963 158.8007660  12.2212276  81.4450073 157.6929016  12.8021402
  81.2671356 156.8012085  12.2193403  81.1238785 157.7404175  14.1959162
  80.8041611 156.8510437  14.7186003  81.4980698 158.9244995  15.0258818
  81.3635330 158.9192505  16.0974579  81.9527893 160.0362854  14.3013411
  82.2182083 160.9055328  14.8847532  82.1784210 160.0317993  12.9212532
  84.7623444 164.2947845  11.7945786  84.0309601 165.2003479  11.3461990
  85.8923416 164.5246277  12.4832773  86.3206635 163.6333313  12.6887770
  86.4957428 165.7174683  13.0873747  86.0303421 166.6147308  12.6794319
  86.2663422 165.6521912  14.5467119  86.6373444 164.7051239  14.9385366
  86.7257919 166.4777679  15.0902500  84.7565842 165.8044128  14.8678923
  84.1282806 167.0184479  14.4973974  84.6314926 167.8846588  14.0938396
  82.7847290 167.1910706  14.7797365  82.3336105 168.1643677  14.6548748
  81.9895554 166.1971741  15.2933445  80.9439850 166.3516235  15.5154409
  82.5554504 164.9366913  15.5212841  81.9182510 164.1657562  15.9287519
  83.9412994 164.7460480  15.3146648  84.3096390 163.7659607  15.5795660
  87.9932709 165.7740784  12.7330399  88.8664246 165.3675385  13.5226545
  88.3691559 166.2274628  11.5439835  87.4589462 166.7665863  10.5128126
  86.9954453 167.7183228  10.7725554  86.6852341 166.0306091  10.2941465
  88.3163376 166.9846497   9.2839985  87.9085312 167.7586517   8.6338453
  88.4125671 166.0413513   8.7463675  89.7206039 167.4995575   9.8543854
  89.7631226 168.5653839  10.0786657  90.5218506 167.2097931   9.1745749
  89.7885666 166.5868225  11.1508856  90.3042984 165.6527557  10.9280834
  90.5805511 167.1866760  12.2766266  90.2681580 168.3131409  12.7486696
  91.8093948 166.6603699  12.4833384  91.9790573 165.8027496  11.9775734
  92.7704086 167.1285248  13.4584560  93.7729340 166.8717041  13.1162615
  92.6815948 168.2142334  13.4962282  92.6470108 166.5426331  14.8317080
  93.3524780 166.9474945  15.7860756  91.6822891 165.6787720  15.0357342
  91.0830994 165.3232574  14.3045206  91.4595413 164.8252563  16.1994705
  92.1531830 165.0876007  16.9983025  90.1070786 165.1646271  16.8714027
  89.3033447 164.9328613  16.1725483  89.9044800 164.5858002  17.7725143
  89.9843521 166.5937653  17.3513508  90.2829742 166.8659973  18.7256432
  90.5150681 166.0816345  19.4308548  90.1380615 168.1736298  19.1767254
  90.3898010 168.4581604  20.1877079  89.7440948 169.2289734  18.3157806
  89.7761078 170.5690613  18.7785740  90.1809769 170.6860352  19.6411228
  89.4089279 168.8798218  16.9954586  88.8817291 169.5835724  16.3684139
  89.5659866 167.5893250  16.4976463  89.1374130 167.3482208  15.5360870
  91.5989151 163.3537140  15.9450035  91.1432877 162.9339447  14.9045305
  92.1375198 162.5784760  16.8707542  92.5588837 162.9739838  17.6990757
  92.0540009 161.1040192  16.8481216  91.8350601 160.6845703  15.8661690
  93.4560089 160.4963989  17.2505627  93.6848984 160.8758392  18.2464218
  93.2286682 159.4303741  17.2494278  94.2172699 160.7905426  16.5280266
  90.9226379 160.6820374  17.7504921  90.8001556 161.2076416  18.8612633
  90.0218124 159.8464203  17.2144527  90.1346283 159.5528870  16.2546558
  88.9892426 159.1734314  18.0625916  88.6096191 159.9106750  18.7700176
  87.7495117 158.7888641  17.2365837  87.0180817 158.3534698  17.9174385
  87.2938766 159.6718750  16.7884941  87.9853210 157.8707275  16.1041718
  88.0736008 158.1931152  14.8032541  87.9935150 159.2218323  14.4843388
  88.4479370 157.0618591  14.1060419  88.6382217 157.0902557  13.1145353
  88.6171417 155.9246674  14.8449879  88.9894562 154.6150055  14.5588112
  89.2722168 154.2464447  13.5838203  88.8979797 153.7165985  15.6446590
  89.1940765 152.7081909  15.3959637  88.5142517 154.1238708  16.9507904
  88.5353317 153.4565735  17.7997150  88.2349319 155.5003204  17.2171154
  88.0504074 155.8056946  18.2364769  88.2688217 156.4464569  16.1742992
  89.5974274 158.0121460  18.8796597  90.5632553 157.3660126  18.4853458
  88.9553528 157.7701263  20.0269203  88.2572021 158.4142303  20.3701973
  89.2736588 156.6097260  20.8089352  89.4719086 155.8028412  20.1034355
  90.5993118 156.8011932  21.6113033  91.4398041 156.8800659  20.9217682
  90.6454086 158.0560150  22.5027370  89.9773865 157.9408264  23.3563118
  91.6826706 158.1557159  22.8224926  90.3398819 158.9623718  21.9799595
  90.9115448 155.7085571  22.3754292  91.7178650 155.9297180  22.8471680
  88.0382080 156.2157593  21.6168633  87.2986603 157.0578308  22.1689434
  87.7443619 154.8870697  21.5100117  88.5256119 154.2924194  21.2731018
  86.4643478 154.3659668  21.9526234  85.7364655 154.8449402  21.2977448
  86.4089432 152.8135376  21.6622849  87.2101517 152.2816772  22.1753960
  85.0547714 152.2372742  22.0934811  84.1553497 152.5941620  21.5917015
  85.0335693 151.1709747  21.8684521  84.9823151 152.3939667  23.1697235
  86.6134949 152.4753723  20.1412449  85.9443893 151.6819458  19.8082809
  86.4864960 153.3676300  19.5281849  88.0423889 151.9126434  19.9469204
  87.9900665 150.9462433  20.4483681  88.1752243 151.5646362  18.9225426
  88.9029846 152.5432739  20.1700439  86.1862717 154.7424927  23.4240227
  87.0676270 154.6500092  24.3133221  84.8561478 154.9552002  23.6700020
  84.2040176 155.0372925  22.9031277  84.2357483 155.0989838  25.0472298
  85.0980530 155.0263214  25.7099991  83.6622696 156.5146332  25.1907921
  82.8917770 156.7530212  24.4575634  83.2130585 156.4645996  26.1826630
  84.4745865 157.2414246  25.1856804  83.2688141 153.9784851  25.3754692
  82.4685287 153.5624084  24.5704422  83.2848587 153.4655762  26.5957108
  83.9575348 153.8598022  27.2377415  82.2543335 152.6005859  27.2468815
  81.4619751 152.5570221  26.4996319  82.9357834 151.2152557  27.3826504
  83.8863907 151.3771057  27.8908367  82.2740021 150.6683044  28.0541973
  83.2578888 150.4511566  26.0457420  82.4116821 150.5656738  25.3683014
  84.0817261 150.9656677  25.5510921  83.8076630 148.9914551  26.1093712
  84.9449615 148.7719421  26.4447403  82.9824829 147.9687958  25.8352776
  83.3567810 147.0379944  25.7186413  81.9987030 148.1068878  25.6530266
  81.7066422 153.1862335  28.4959869  82.3920746 153.8146667  29.3166332
  80.4424362 152.7940521  28.8806324  79.9237213 152.2651367  28.1941242
  79.8003006 153.0735321  30.2074928  79.6962128 154.1263885  30.4697247
  78.3421478 152.6766663  30.0161018  77.8933868 153.2884827  29.2335453
  78.3356628 151.6129456  29.7782764  77.4635162 153.0293884  31.6335526
  76.3724899 152.2628632  31.5498638  80.4405823 152.3398438  31.3468399
  80.6975784 151.1389923  31.2222652  80.7012863 152.9819794  32.5152626
  80.3322067 153.9221191  32.5216904  81.5730133 152.4913940  33.6529694
  82.4485397 151.9751740  33.2591667  82.0576401 153.6375427  34.4882698
  82.5425034 154.3818817  33.8566399  81.2244720 154.1203613  34.9989777
  83.1251297 153.2225342  35.5027618  82.6200867 152.6284790  36.2644196
  83.8681107 152.5394135  35.0911293  83.6882248 154.4901276  36.1425323
  82.9086227 155.1127167  36.5815201  84.3748245 154.2307739  36.9483948
  84.4660797 155.2344971  35.1177673  84.5889664 154.7465363  34.2420464
  85.2779388 156.2310944  35.2756157  85.3539352 157.0206146  36.3329506
  84.5908279 156.9102936  36.9853210  86.0465622 157.7464905  36.4490433
  86.2256165 156.5157013  34.4285316  86.3859482 155.9555664  33.6035194
  86.8416748 157.3029785  34.5726395  80.8495712 151.3581390  34.4478722
  81.5027618 150.4701233  34.9305763  79.4897308 151.3924255  34.4636688
  79.0641479 152.2586823  34.1660576  78.6741180 150.3508148  35.1972847
  79.2780762 150.0163879  36.0407791  77.3896637 150.9627991  35.7917099
  76.9377441 151.5722046  35.0090866  76.3207855 149.9581604  36.1963730
  76.6409607 149.2272339  36.9388924  75.4604950 150.5290222  36.5458260
  75.9385910 149.3611298  35.3683739  77.7770767 151.9989471  36.8968811
  78.4466324 152.7767944  36.5298042  76.8776474 152.5285492  37.2109566
  78.3413925 151.4430542  38.1458015  79.4297180 151.3892365  38.1183510
  78.1082001 152.0970001  38.9860840  78.0292282 150.4256592  38.3815384
  78.4196777 149.1228027  34.3423424  78.3080521 148.0240936  34.8847656
  78.3591919 149.2297211  33.0010643  78.5216522 150.1068726  32.5274506
  77.8179398 148.1206207  32.2054443  77.7034378 147.1785736  32.7416687
  76.3687134 148.4996948  31.8113346  75.9292679 147.5685272  31.4536762
  75.8019028 148.8339233  32.6803055  76.2668457 149.7908325  30.5290279
  75.0005493 150.1242371  30.7940388  78.5827408 147.7612915  30.9677143
  78.2120743 146.7785797  30.3564968  79.6005707 148.5034027  30.5381222
  79.9239120 149.2607574  31.1229095  80.4422531 148.1897888  29.4141216
  81.4138489 148.6566010  29.5759296  80.5828781 147.1148987  29.3004150
  79.8601303 148.6427917  28.0758686  80.5171661 148.4324951  27.0654945
  78.6913986 149.2983246  27.9470806  78.1314316 149.4116516  28.7799644
  77.9793091 149.5780487  26.6641808  77.8886719 148.7004700  26.0240612
  76.5499725 150.1383972  26.9090195  76.1721725 149.3961487  27.6121750
  76.5884552 151.1463623  27.3220940  75.6292114 150.0686646  25.6929207
  75.4772720 149.0330048  25.0588837  74.9372177 151.1324768  25.4509926
  74.3199692 151.1193695  24.6516609  74.9734268 151.9968719  25.9721737
  78.7541580 150.5890045  25.8696594  79.3215714 151.4737244  26.4509220
  78.8679199 150.4119110  24.5342407  78.6471863 149.5179138  24.1193409
  79.4843979 151.3630676  23.5979099  80.5302658 151.6319580  23.7461052
  79.4250870 150.8666534  22.1322479  80.0517120 149.9794006  22.0415783
  78.4471588 150.5440826  21.7748795  79.9034729 151.8473969  21.0988255
  79.4073029 152.0949097  19.8093185  80.2445297 152.9856873  19.2966022
  80.0851059 153.5337982  18.3797836  81.2663116 153.2575378  20.1512413
  81.9341888 154.0028534  20.0150166  81.0908432 152.5474701  21.3101501
  81.7931519 152.5877533  22.1296253  78.7238159 152.7150116  23.7021465
  77.5051651 152.7517242  23.5012646  79.3983231 153.7844238  24.0275764
  80.3564911 153.6241913  24.3038731  78.7596512 155.1175842  24.2610245
  77.6989975 155.0265198  24.0268650  78.9868622 155.6432343  25.6650600
  80.0488968 155.6199799  25.9092636  78.7234650 156.6970062  25.7561073
  78.2405472 154.7968292  26.7003536  78.6498947 153.8088989  26.9113731
  78.2504807 155.3062134  27.6639538  76.4324188 154.5126953  26.4453773
  76.0559387 156.2411499  26.4978333  76.3811035 156.7554932  25.5935020
  74.9771576 156.3883820  26.5493984  76.5615921 156.7625732  27.3105621
  79.2797852 156.1796722  23.1991158  78.9145203 157.2766724  23.2374763
  80.0803146 155.7768860  22.2340698  80.3111725 154.8009491  22.1143131
  80.7276611 156.6641083  21.2566357  80.5872116 156.1863861  20.2870216
  80.3713837 157.6942291  21.2640705  82.2668152 156.7188873  21.5077496
  82.9570312 155.6351624  21.5659676  82.7755203 157.9714508  21.4579678
  82.1319580 158.7368927  21.3164749  84.2323227 158.1649170  21.4341984
  84.7425232 157.3700409  21.9782429  84.8557434 158.0298157  20.0118141
  84.7074051 158.9512482  19.4487419  85.9309311 157.9110107  20.1458340
  84.4211044 156.9651642  19.0695915  85.1100998 155.8448181  18.8687649
  86.0332184 155.6222382  19.3832817  84.4490967 154.9407196  18.1075172
  84.7710266 154.0046539  17.9069290  83.1721725 155.3987732  17.8281231
  82.1222687 154.8229218  17.1115189  82.2954941 153.8303680  16.7226353
  80.9025116 155.5347290  17.0257244  80.0489349 155.1123047  16.5164413
  80.8013153 156.7963715  17.6719723  79.8992386 157.3902130  17.6692715
  81.9318390 157.3838043  18.2844086  81.8959122 158.4001007  18.6481018
  83.1513290 156.7360687  18.3590565  84.6975327 159.4297791  22.0688457
  84.0794754 160.5168304  21.9393387  85.7901764 159.3154297  22.8053646
  86.2804337 158.4325104  22.8194885  86.6299820 160.4413147  23.1986771
  85.9451141 161.2222443  23.5291653  87.5806198 160.1757050  24.3599606
  87.0040741 159.9113617  25.2464256  88.2559509 159.3862305  24.0301800
  88.4096375 161.3784943  24.8823395  88.9837112 161.8036499  24.0590649
  87.6672134 162.1224365  25.1711884  89.3476562 161.1059418  26.0986481
  88.6904526 160.7714539  26.9013348  90.1094513 160.3883820  25.7939072
  90.0100708 162.4679260  26.5412636  90.7430267 162.7180634  25.7742462
  89.3468323 163.3329163  26.5403805  90.6898041 162.2111053  27.8565922
  91.1372223 161.3062439  27.8225460  91.4009399 162.9014130  28.0511475
  90.0110550 162.2648926  28.6025867  87.4395294 160.8328400  21.9392433
  87.8756256 160.0099487  21.1498432  87.7582550 162.1068420  21.9395103
  87.3310089 162.7336884  22.6063061  88.4925385 162.7603760  20.9105358
  89.0255280 161.9884033  20.3554859  87.5902328 163.6768646  20.0598812
  86.9663086 164.3025055  20.6981583  88.2902832 164.2771454  19.4787617
  86.8492279 162.9510498  19.0235558  87.3618698 162.7481995  17.6932926
  88.3330917 163.1395416  17.4287548  86.4751434 162.2266693  16.7183704
  86.7759323 162.1787109  15.6822100  85.1817856 161.7863922  17.0581284
  84.5398178 161.1872253  16.4294262  84.7983093 161.7628174  18.3829269
  83.8813934 161.2787781  18.6851883  85.5989761 162.3980865  19.3768406
  85.2475662 162.4534149  20.3965721  89.6778946 163.5611725  21.5454102
  89.5121078 164.6122284  22.1401310  90.9059906 163.0957184  21.2982140
  90.8926086 162.2574768  20.7349472  92.2306290 163.6945953  21.6813526
  92.1636200 164.3439636  22.5542412  93.2746964 162.6403046  22.2174702
  94.3110580 162.9439392  22.0696678  93.0956421 162.3138123  23.7158756
  92.1597061 161.7730103  23.8560276  93.8427505 161.5819397  24.0229187
  93.0147858 163.2522125  24.2644939  93.1596451 161.4331665  21.5379982
  93.6115417 161.6453094  20.7180061  92.7658005 164.4052734  20.4089489
  92.9467163 163.7404480  19.3856049  93.1199722 165.6578827  20.5537834
  92.9217148 166.1826324  21.3936787  93.6826019 166.4223022  19.4057999
  93.0167542 166.3498993  18.5458584  93.6705170 167.9117126  19.7494583
  94.4192505 168.0815430  20.5231819  93.8886795 168.4550781  18.8300762
  92.6904297 168.2957916  20.0323429  95.1111069 165.9490967  19.0011597
  95.9471588 165.7768555  19.9062920  95.4210052 165.7308350  17.6916008
  94.7749252 165.8653717  16.9270229  96.8396988 165.3487244  17.2920074
  97.1863022 164.6010590  18.0054359  96.8912659 164.7062683  15.9349117
  97.9153900 164.3887177  15.7388515  96.0182953 163.4662323  15.8781281
  95.0033417 163.7062225  15.5612993  96.4028168 162.8291321  15.0816622
  96.0546265 162.9481049  16.8364201  96.4290771 165.5182495  14.8588552
  96.2973938 164.9620819  14.0875330  97.8616486 166.4900970  17.2666073
  99.0549622 166.2680054  17.4478970  97.3972168 167.7358704  17.1332512
  96.3992691 167.7578125  16.9792366  98.2021255 168.9787598  17.1208820
  99.2554550 168.7023468  17.0740280  97.7950516 169.7593079  15.9603033
  96.7135773 169.7527466  15.8243961  98.0748291 170.7902222  16.1772213
  98.4858093 169.2561188  14.6663065  99.5648499 169.3177338  14.8075953
  98.3443985 168.1797028  14.5692148  98.1245041 170.0758820  13.3959751
  97.8733368 171.0890503  13.7098331  98.8915405 169.9710693  12.6286669
  96.8649902 169.3130646  12.8253527  97.1756821 168.3346710  12.4588451
  96.1623383 169.2684631  13.6574535  96.2801971 170.1972046  11.7385530
  96.8140488 170.4485168  10.9188194  95.4357834 169.7363586  11.4308653
  95.8893433 171.0552063  12.1007328  98.0982056 169.6756897  18.4611149
  97.0092545 169.6694489  19.1044540  99.2448502 170.2943573  18.9134693
  99.9988708 170.0722656  18.2792511  99.4505081 170.8973846  20.2201710
  99.0028992 170.1269531  20.8480396 100.9040756 171.0829010  20.5443363
 101.0049591 171.2555237  21.6158409 101.5106735 170.2008820  20.3389187
 101.6231003 172.1656494  19.6878757 101.7581940 171.7389984  18.6939812
 100.9813690 173.0465393  19.6705627 102.9520035 172.5143890  20.3884544
 102.7770309 172.6087799  21.4601707 103.6756363 171.7238159  20.1898880
 103.5822144 173.8529358  20.0022564 102.9158630 174.6242828  20.3883915
 104.5397491 174.0305023  20.4918480 103.5989380 174.0444183  18.5513325
 102.6809692 174.2099457  18.1639729 104.2232361 174.8023071  18.3147678
 103.9923935 173.2221222  18.1164646  98.8073807 172.3002319  20.4258804
  98.8452072 172.8124542  21.5642033  98.2811584 172.9384918  19.3520508
  98.3197937 172.4880676  18.4488773  97.7717896 174.3574829  19.3509636
  98.0316925 174.7063904  20.3503704  98.4758453 175.1884613  18.2568340
  97.9984970 176.1649933  18.1754208  99.5209885 175.3509216  18.5202332
  98.5450134 174.6357422  16.8049984  98.2612839 173.4303741  16.6262627
  98.9126053 175.4043579  15.8736906  96.2627106 174.5118561  19.1581974
  95.6516113 175.5818176  19.3120003  95.5847015 173.4191284  18.7636909
  96.0538483 172.5396881  18.6006031  94.1373444 173.3333282  18.6250401
  93.8510590 174.0826416  17.8870106  93.6961823 171.9095459  18.1709156
  94.1995468 171.1621704  18.7842274  92.6094818 171.8536072  18.2347012
  94.1610947 171.8102570  16.6833324  93.7964783 172.6777802  16.1332836
  95.2485504 171.8487091  16.7471790  93.7059097 170.3249359  15.7076168
  92.0711899 170.8008575  15.0557222  92.0494003 171.8861237  15.1548433
  91.9017258 170.4547119  14.0361300  91.3412399 170.3648834  15.7377853
  93.4904938 173.5972137  19.9409084  93.9880753 173.1219177  20.9613094
  92.3866806 174.2977905  19.9190121  92.0766754 174.6381836  19.0200481
  91.4535065 174.5108795  21.0196629  91.7310715 173.8505859  21.8412933
  91.6212921 175.9036255  21.6624813  92.6029205 175.8906555  22.1361198
  91.6919327 176.6442413  20.8658619  90.5817947 176.1079712  22.6089706
  90.7083206 177.0108185  22.9097366  90.0279236 174.2194366  20.5194435
  89.6969757 174.8016205  19.4586563  89.1899643 173.4365540  21.2415943
  87.7823944 173.1413574  20.9221725  87.6649628 172.8413544  19.8808708
  87.1347504 173.9792023  21.1804085  87.4422455 171.9389648  21.7531147
  87.9149246 171.0398712  21.3577461  86.3917694 171.7316895  21.9571609
  88.2453384 172.2728577  23.0213718  88.3589020 171.4156952  23.6850700
  87.6990433 173.0502167  23.5555687  89.5225143 172.8342743  22.5189419
  89.9601135 173.5463562  23.2186069  90.6155090 171.7402344  22.4214630
  90.6511993 171.0640106  21.3643456  91.3911514 171.5277100  23.4597645
  91.3441086 172.1158600  24.2795029  92.4042969 170.4420013  23.4425106
  92.9390945 170.5725861  22.5017452  93.2951126 170.6980591  24.6806679
  93.8816299 171.5811768  24.4272709  92.7216644 170.9617310  25.5693359
  94.2822113 169.6012421  25.0368061  94.9141083 169.9852295  25.8376541
  93.7308578 168.7297211  25.3897324  95.1847839 169.1819305  23.8192234
  95.2674561 169.9145508  22.8108521  95.7403412 167.9664001  23.8334789
  96.3734665 167.7551727  23.0754375  95.7818909 167.4553833  24.7036667
  91.7952423 169.0391388  23.3651371  92.3867416 168.1198578  22.7714596
  90.6534653 168.8297729  24.0173550  90.1593018 169.6242371  24.3977852
  89.8834457 167.4979858  24.1853294  90.0863037 166.8071594  23.3669701
  90.2228775 166.8937073  25.5825996  89.5578003 166.0486908  25.7606850
  91.2319107 166.4854584  25.5253391  90.1016998 167.7965698  26.8201637
  90.5754929 168.7654114  26.6621742  89.0813522 167.8949432  27.1907272
  90.8165512 167.1043854  28.0137672  90.2023468 167.3638458  28.8760605
  91.0336685 166.0495911  27.8453903  92.1588593 167.7371826  28.3529148
  92.8587112 167.5070953  27.5495682  92.1392822 168.8219147  28.4582214
  92.7928848 167.2337036  29.5480537  92.9327698 166.2409821  29.6708126
  93.7058792 167.6542358  29.6464901  92.2766953 167.5434570  30.3590412
  88.3770294 167.7445526  24.0537720  87.8588409 168.7605896  24.5120468
  87.6423187 166.7999878  23.4250603  88.1281586 165.9588013  23.1485538
  86.1813736 166.7155457  23.6214695  85.8502426 167.0810394  24.5935116
  85.4004822 167.6349487  22.6237373  84.3927765 167.7883911  23.0098610
  85.8888550 168.6088257  22.6579685  85.3390808 167.1599274  21.1700630
  86.4612732 167.3861389  20.2898102  87.3287964 167.9347229  20.6257668
  86.4522095 166.8495026  19.0017433  87.2018280 166.9280548  18.2282410
  85.3628845 166.0390015  18.6370335  85.3063965 165.5819397  17.6601486
  84.2747955 165.8835297  19.4417610  83.3571014 165.3815918  19.1728859
  84.2176590 166.4731598  20.7062836  83.3129272 166.3436890  21.2816906
  85.7210159 165.2772827  23.5270367  86.5363693 164.3855896  23.3407478
  84.4290924 165.0126801  23.6368275  83.8187027 165.7685699  23.9127903
  83.7874680 163.7047424  23.4638424  84.4808578 162.9600372  23.0730381
  83.3288345 163.1615753  24.8546124  82.5304642 163.7868195  25.2543259
  82.8750534 162.1804504  24.7145958  84.3903580 163.0228577  25.9582787
  85.0039291 164.0021057  26.5849419  84.8608170 165.0514984  26.3734875
  85.8632431 163.5496216  27.5180435  86.5861664 164.0760040  27.9875202
  85.8363419 162.1593781  27.5789337  86.3942795 161.1813507  28.4473038
  87.0759430 161.5187073  29.2140617  86.1294861 159.7835846  28.2943707
  86.5412521 158.9978790  28.9104195  85.1876755 159.4295654  27.2930393
  84.8391113 158.4161987  27.1588211  84.6473465 160.4353180  26.4278545
  83.9506683 160.0852661  25.6805210  84.9576263 161.7872620  26.5126019
  82.5804596 163.8302612  22.4956264  81.7889709 164.6998138  22.7120514
  82.5975113 162.9524536  21.4801216  83.3912582 162.3281555  21.4980526
  81.4352188 162.6369476  20.6389809  80.7070312 163.4475708  20.6118679
  81.8338013 162.4588318  19.6402283  80.7737579 161.3091278  21.1366196
  81.1119080 160.1725922  20.8669910  79.8044662 161.5168610  21.9858856
  79.5596695 162.4870300  22.1235237  78.8874054 160.5495453  22.6170292
  79.5237656 159.6781311  22.7711563  78.5588684 161.1055756  24.0170441
  77.8403015 161.9008942  23.8190002  78.0478058 160.3367615  24.5965672
  79.7262115 161.5617371  24.9126148  80.3381882 162.2316742  24.3086491
  79.2061081 162.2243042  26.1885910  78.6004791 161.5307465  26.7719288
  80.0203476 162.5829926  26.8182392  78.5826035 163.0735168  25.9090004
  80.5885239 160.4179230  25.5032291  81.1725845 159.9105530  24.7354069
  81.2413712 160.8013458  26.2873631  79.9869614 159.6006012  25.9009972
  77.6472321 160.2637787  21.7879982  77.0392990 161.2213593  21.3196354
  77.3164139 158.9885712  21.6687393  77.8170319 158.2401123  22.1262112
  76.2145996 158.5049438  20.8135262  76.3426590 159.0872345  19.9010429
  76.4406967 157.0891571  20.3287926  75.4630661 156.7512054  19.9850979
  77.4278717 156.9659271  19.1160545  78.3358917 157.5372314  19.3089790
  77.6879807 155.9448700  18.8369713  76.9160385 157.4921875  18.3103409
  76.9436188 156.1289215  21.2583179  76.8196182 155.2762909  20.8349419
  74.8255539 158.6956787  21.3881721  74.4283371 158.1156158  22.4055176
  74.0751266 159.6072540  20.7928734  74.5412521 160.0236053  19.9994812
  72.7801361 160.1582184  21.3959236  72.9765167 160.3767853  22.4455700
  72.3128281 161.5586853  20.8495293  71.5354691 161.9859161  21.4830036
  73.1340103 162.2749939  20.8239975  71.7653503 161.4257965  19.4658394
  72.4216614 161.9573975  18.7768269  71.7482758 160.3976593  19.1042442
  70.3823776 162.0514984  19.2703400  70.3831940 163.0023499  19.8032303
  70.2089157 162.2319336  18.2094612  69.3177719 161.1458740  19.7653408
  69.1255798 161.0940552  20.7555313  68.6093521 160.3058472  18.9660110
  68.7885132 160.0296173  17.7166195  69.4710922 160.5222015  17.1584454
  68.0790329 159.4824982  17.2503681  67.6020050 159.7398987  19.5088005
  67.2416534 159.9844818  20.4200821  66.9951096 159.3451843  18.8045425
  71.6169662 159.1380920  21.3807621  70.7212753 159.1857758  22.2145824
  71.6538391 158.1052246  20.4439049  72.3512421 158.1467285  19.7145214
  70.7875061 156.9217987  20.4932003  69.7285995 157.1733856  20.5525684
  71.0485077 156.1201935  19.2187252  70.6694031 155.0984039  19.2013416
  70.5138626 156.6154633  18.4081917  72.4611969 156.0846252  18.9744549
  72.5600967 155.6202850  18.1400661  71.1101379 156.0147552  21.6759186
  70.2069702 155.2952118  22.1131134  72.3161011 156.0431824  22.2912045
  72.9181366 156.7133484  21.8345737  72.7055969 155.2104492  23.4980125
  71.9993896 154.3885193  23.6154671  74.0497055 154.5002899  23.1132240
  74.8039856 155.1982727  22.7499447  74.4102097 153.9812775  24.0013485
  73.8969421 153.7980804  22.2936668  72.6328812 156.0835114  24.7888222
  72.8119888 155.5998840  25.9038811  72.4035797 157.3992157  24.6603642
  72.2371521 157.7630157  23.7329636  72.0881195 158.2577972  25.8042202
  72.5589600 157.7943878  26.6711960  72.6205444 159.7130585  25.6099319
  72.3184357 160.0499115  24.6182861  72.1164398 160.3556519  26.3317680
  74.1189346 159.9695892  25.6978703  74.6325073 159.1907196  25.1342106
  74.5104218 161.3144989  25.0502853  74.1378098 162.1731262  25.6088715
  75.5953979 161.4122467  25.0131187  74.2125549 161.2850952  24.0021877
  74.6127090 160.0126648  27.1506062  74.6693497 158.9876251  27.5169506
  75.6355362 160.3729858  27.2606106  73.8787231 160.5172424  27.7789059
  70.6007385 158.2830505  26.1991444  69.7185440 157.7322388  25.5132484
  70.2932434 158.7219849  27.4640732  71.0848846 158.8799744  28.0710659
  68.9112244 158.8957672  28.0281601  68.2567139 158.9818115  27.1607990
  68.5388641 157.6390076  28.8612461  68.5924835 156.7463684  28.2380104
  69.2649841 157.5449066  29.6687088  67.1500549 157.7807617  29.4451294
  67.0876617 158.7094574  30.0123348  66.0735626 157.6753693  28.3614311
  66.1934357 156.6963043  27.8975773  65.0618973 157.7152557  28.7652111
  66.1943283 158.4394531  27.5935135  66.8788071 156.6042023  30.3867722
  67.6964569 156.6178741  31.1074448  65.9895248 156.8161926  30.9803619
  66.8681030 155.7017212  29.7756290  68.8797531 160.2205353  28.8146782
  69.6693878 160.4126740  29.7187462  67.8965988 161.1180115  28.5092487
  67.3788528 161.2753448  27.2120075  66.3262558 160.9923859  27.2033787
  67.8867188 160.6989136  26.4387684  67.4653854 162.8001251  26.9357815
  66.7000504 163.1461334  26.2410526  68.4881134 162.9905853  26.6104374
  67.1251755 163.3822174  28.3298645  66.0447922 163.2973022  28.4467545
  67.5382080 164.3852997  28.4363384  67.7763596 162.4225464  29.2669945
  68.7366333 162.8367920  29.5741901  67.0229187 162.3932495  30.6264305
  66.2040634 163.2293396  30.9030457  67.3927689 161.5334778  31.5660629
  68.2058105 160.9729462  31.3542652  66.7897415 161.3227844  32.8254471
  65.7098618 161.3968353  32.6970787  67.2627869 159.9740295  33.3699989
  66.9844666 159.1781006  32.6792450  68.3459015 159.9468842  33.4892693
  66.5782700 159.6163635  34.7459946  66.8976746 160.4141388  35.4165421
  65.4934692 159.7226715  34.7488708  67.1098633 158.3658752  35.3592033
  68.1293182 158.1098785  35.0706329  67.1036377 158.5874329  36.4264297
  66.2229843 157.2969971  34.8784943  66.0961456 157.2891693  33.8765221
  65.5988693 156.5016022  35.5853157  65.6186447 156.5558624  36.8910522
  65.9810562 157.3800201  37.3488121  64.9654846 155.9647980  37.3851471
  64.9237061 155.5288849  34.9992523  64.9575348 155.4664459  33.9917526
  64.2294006 155.0188446  35.5264206  67.2066193 162.4564514  33.7840042
  66.3396072 162.9548187  34.4951897  68.4208603 162.8257751  33.8197670
  84.7482758 154.5851898  14.8715487  85.4746780 153.4165649  14.4088001
  84.0205078 153.4194336  14.4565191  85.7187653 152.0157623  13.8338785
  83.3739166 152.3409271  14.0865059  84.2888107 151.5652771  13.8587408
  84.8699265 155.8238831  12.2393532  84.8043823 156.5494080  13.2550163
  84.5209274 155.9365234  14.5580368  84.9976425 157.9736633  13.1420240
  84.5762634 156.9054718  15.4202852  84.9601135 158.8952942  14.2228823
  84.7568665 158.0768433  15.4260893  85.0611038 160.1114197  14.1209059
  84.9805984 158.3728180  12.2109213  86.7565460 151.4571838  13.1056080
  87.7126999 150.4470825  13.0366974  87.4054871 149.1735229  12.4131613
  88.0100403 151.3082581  11.9734449  87.6582489 148.8649445  11.1090403
  88.3091660 151.5798798  10.8120012  87.6518631 149.2268524   9.7208977
  88.0455399 150.4971161  10.3023233  86.7074661 149.3481750   9.3564882
  86.6057510 148.2070770  13.1032515  86.2546692 148.4001465  14.2525206
  85.9759369 147.1485596  12.5105524  86.1509018 147.2105713  11.5559330
