Cpptraj Generated Restart                                                       
   30  4.0000001E-01
  84.4434128 153.9636993  14.1035776  85.0987015 152.9276886  13.4076576
  83.4339905 153.4775543  14.8469296  84.6162720 151.6953583  13.7322264
  82.9574356 152.1209717  15.1134291  83.7448883 151.1564941  14.3193245
  85.0482635 155.6007233  11.6519184  84.9446106 156.1350708  12.7596540
  84.6913452 155.3106537  13.9636335  85.0944824 157.5837250  12.9288368
  84.7236099 156.1169739  14.9738646  85.0359650 158.3204346  14.1627493
  84.7904587 157.2368469  15.2140045  85.2608948 159.5243835  14.1900949
  85.1803741 158.2174683  12.1429806  86.1100998 153.1284332  12.4736328
  86.7279358 152.0865326  11.9368267  82.1713028 151.7696381  16.2523689
  81.2159729 150.9564514  16.7893810  81.3911057 149.5008698  16.4832668
  82.1777267 151.2364197  17.7520809  82.3378372 148.7364197  17.2046165
  82.9983215 150.9909058  18.6131592  83.0657043 148.3371277  18.3745785
  83.0280457 149.7727203  18.5096378  84.0379486 148.0527802  18.2593784
  80.5558319 148.7928009  15.5538168  80.8102798 147.6109924  15.3163691
  79.4632950 149.3460388  14.9523163  79.3877106 150.2560577  15.2868490
