Cpptraj Generated Restart                                                       
 6188  4.0000001E-01
  89.9949875 180.6054688  24.7315674  91.0015717 180.5805206  24.6523666
  89.7981720 179.6354980  24.9329014  89.6935120 181.1966248  25.4929771
  89.3492966 180.8454132  23.3795929  88.2800674 180.7732086  23.5786934
  89.5495911 182.3004303  22.9652481  90.6268616 182.4647675  22.9411373
  89.2708969 182.3857574  21.9149399  88.8482666 183.4286194  23.7175694
  87.7714081 183.2664032  23.6710587  89.0695419 183.3619537  24.7827892
  89.3185806 185.1389771  23.2310772  88.2919083 185.4217072  21.7511101
  87.2914581 185.6685944  22.1064224  88.6578293 186.2859650  21.1968136
  88.2332687 184.5188751  21.1431980  89.5293121 179.7436981  22.3349361
  90.5705414 179.0494080  22.2929592  88.5261536 179.5595551  21.4757767
  87.7386169 180.1833344  21.5797176  88.5914993 178.4736481  20.5039673
  89.1158142 177.6622314  21.0087376  87.1144104 178.0421906  20.2941418
  86.5579987 178.9694214  20.1572227  86.8026733 177.2628784  19.0643902
  87.2434387 176.2662964  19.0896626  85.7321472 177.0578766  19.0576115
  87.1025925 177.7521057  18.1376705  86.4127731 177.3778229  21.5459423
  85.4184189 177.1181030  21.1827736  87.0403290 176.5169678  21.7766190
  86.1316605 178.2875214  22.7938805  85.5837402 179.1890564  22.5198231
  85.5681152 177.7163696  23.5316525  87.0527496 178.5618134  23.3081284
  89.3187408 178.8674011  19.2189407  89.4247971 180.0739288  18.9623814
  89.7482986 177.9782104  18.3837280  89.8696594 177.0245819  18.6935310
  90.2595520 178.3364258  17.0348225  89.7060089 179.2068329  16.6825809
  91.7388992 178.6525574  17.1529179  92.0190048 179.0932465  16.1961346
  91.8586426 179.4819031  17.8500214  92.6199493 177.4540253  17.5977249
  92.2802582 176.3081818  17.4377365  93.7936935 177.7335663  18.1131573
  94.4459991 176.9735718  18.2435379  94.1873703 178.6605988  18.0375061
  89.8581390 177.2719879  15.9701385  90.2790527 177.3422394  14.8384657
  89.1911926 176.2009735  16.2852573  88.8999863 176.1606903  17.2515259
  88.7717590 175.2026825  15.2991886  89.6352158 174.8391724  14.7420444
  88.2148743 173.9197998  15.8610640  88.8727188 173.4934998  16.6184311
  87.3125076 174.1436005  16.4300556  87.8350601 172.8545837  14.8932962
  88.7384338 172.0905304  14.1716309  89.7705231 172.3983917  14.0914850
  88.3758621 170.9339905  13.4718246  89.1029587 170.2863617  13.0045843
  87.0419083 170.5315247  13.4427061  86.6806259 169.6732178  12.8957310
  86.0371399 171.3526154  14.0292873  84.9745941 171.2088623  13.8999128
  86.4648438 172.5485077  14.6869545  85.7631073 173.2482605  15.1162815
  87.7462082 175.8249512  14.2714815  86.8020554 176.5234528  14.6289024
  87.9835052 175.5876923  12.9737053  88.7585754 174.9692688  12.7815771
  87.0838852 176.0219574  11.9166622  86.8001633 177.0616760  12.0797892
  87.7691803 175.9661560  10.5981207  88.5750198 176.6996918  10.6238441
  88.1251678 174.9539032  10.4065409  86.8656006 176.3150940   9.3800592
  85.7117157 176.7445068   9.6579866  87.2635803 176.1972961   8.1732168
  85.7932053 175.1447906  11.9406366  85.6968002 174.0749054  11.3534365
  84.6664124 175.7193146  12.4435768  84.6527328 176.6998138  12.6855040
  83.4116058 174.9339294  12.7220936  83.6443405 174.0118561  13.2547369
  82.5109406 175.5419922  13.7174864  81.6094894 174.9334412  13.7893438
  83.1680069 175.6324005  15.1284389  83.8866425 176.4488373  15.0568857
  82.4527893 175.8185120  15.9296446  83.6989288 174.6936798  15.2865953
  82.0627594 176.8193207  13.3416433  81.6125641 177.1479340  14.1232672
  82.6476288 174.5175781  11.3942327  81.6511612 173.8585052  11.3859596
  83.2100983 174.9102020  10.2500868  83.9825821 175.5596771  10.2106009
  82.8140411 174.3188629   8.9598217  81.7296524 174.2150269   8.9973927
  83.0680008 175.2483978   7.7512813  82.4695435 174.9387207   6.8945179
  82.7036057 176.2587433   7.9371452  84.4312744 175.3934021   7.4469075
  84.8618546 175.8578949   8.1683369  83.4223785 172.9954071   8.6296110
  82.7993927 172.2589569   7.8434963  84.6009293 172.6380005   9.2064714
  84.9767685 173.2825470   9.8872185  85.2823639 171.3608246   8.8520441
  85.4953461 171.3086090   7.7843280  86.5801010 171.2893219   9.6267433
  86.2907486 171.5843201  10.6353836  86.9997559 170.2934113   9.7686739
  87.7447433 172.1367035   8.9819059  87.5275726 173.2008514   8.8896761
  88.9398956 171.9768524   9.9148474  89.2387161 170.9286041   9.9149008
  89.8348389 172.5727386   9.7356720  88.6259613 172.2308197  10.9272947
  88.2442169 171.5486298   7.6939464  87.4347076 171.4165344   6.9760618
  88.9641190 172.1999817   7.1983943  88.6738052 170.5752106   7.9306445
  84.5100327 170.0254974   9.0971060  84.9365768 168.9962311   8.5592279
  83.3726883 169.9956665   9.9185505  83.2200394 170.8245392  11.1382084
  82.5669174 171.6705322  10.9241371  84.2072296 171.1490326  11.4672298
  82.4808121 169.9924622  12.1610661  81.7822647 170.6294556  12.7036228
  83.2360535 169.5476227  12.8090057  81.7271118 168.9798737  11.1918344
  80.7107315 169.3266449  11.0052080  81.7217484 167.9938507  11.6564159
  82.4007034 168.9428253   9.8553038  82.9246674 167.9946442   9.7348518
  81.3574142 169.0466919   8.8139858  81.0152740 168.0262299   8.1937885
  80.8021317 170.2291107   8.5707026  81.1452179 171.0296173   9.0821514
  79.6218262 170.4593201   7.6804700  78.8932648 169.7530670   8.0786057
  79.0346832 171.8197021   7.7504311  78.1952057 171.7631531   7.0574832
  78.6291656 172.1069031   9.1716881  79.4775085 172.4412689   9.7688780
  77.8941116 172.9115295   9.1908846  78.2452698 171.2539673   9.7313366
  79.9200363 172.8285522   7.3497930  79.8549500 173.0364532   6.4148378
  79.8273392 170.1123352   6.1929302  78.8914642 169.7641449   5.4538507
  81.0731659 170.1411743   5.7637229  81.8251801 170.4470825   6.3645434
  81.6595612 169.6767883   4.4988718  81.1065445 170.0412903   3.6331851
  83.0556641 170.3096771   4.4214034  83.5213623 169.7896271   3.5842760
  82.8899612 171.3538818   4.1563129  83.7649078 170.1228333   5.6412506
  84.5367508 170.6934052   5.6240301  81.8155365 168.1431274   4.4374194
  81.7821274 167.5413055   3.3128664  81.7564697 167.4317932   5.6085176
  81.7375336 167.8921051   6.5073261  81.8892746 165.9335938   5.6654296
  82.0989532 165.6378937   6.6933846  80.5983963 165.1299438   5.4058065
  80.2490387 165.2598419   4.3815112  80.9020081 164.1020355   5.6040330
  79.4651489 165.3601685   6.3671494  79.4938049 164.7811432   7.6302323
  78.4274292 165.3187714   8.2298927  78.2375717 165.0232849   9.2511845
  77.7748184 166.1667938   7.4572997  77.0456619 166.7374878   7.8607073
  78.4057465 166.2280273   6.2579060  78.0945358 166.8058929   5.4002271
  83.1239090 165.3816681   4.9618382  83.1438141 164.3103790   4.3453918
  84.2666855 166.0734406   5.1756821  84.1641617 166.9869995   5.5940118
  85.5121994 165.7926788   4.5361609  85.4262772 166.0176849   3.4731045
  86.5179825 166.7927704   5.1098180  86.4004898 166.9941101   6.1746006
  87.5242767 166.3881226   5.0015407  86.4437943 168.1577454   4.3027043
  86.5476074 167.8616638   3.2588401  85.4207840 168.5283051   4.3677549
  87.5203857 169.6091003   4.7550564  89.0933762 168.9780731   4.1925921
  89.2305984 168.9521332   3.1115797  89.8664246 169.6114044   4.6277833
  89.2323151 167.9563446   4.5459290  86.0821915 164.3751221   4.7257562
  86.6835632 163.8245697   3.7993810  85.6940002 163.7214661   5.7883158
  85.0872116 164.2365112   6.4101195  86.1487656 162.2980499   5.9450312
  87.2376404 162.2738495   5.9016695  85.7235336 161.7343140   7.3286099
  86.1151276 160.7208405   7.4157605  86.2045288 162.3247681   8.1084242
  84.2060013 161.5969391   7.5628247  83.4899979 162.7783203   7.8402243
  83.9948883 163.7210999   7.9907541  82.1278534 162.7433014   7.9913392
  81.7455368 163.6826172   8.3627138  81.3894424 161.5658112   7.7413945
  80.0765457 161.4476929   7.8621073  79.7725601 162.3545532   7.7796745
  82.1119843 160.4064178   7.4572845  81.5400925 159.5128021   7.2552781
  83.5116425 160.3922272   7.3715096  84.0530472 159.5069885   7.0721183
  85.5687561 161.3307037   4.9420094  86.3112717 160.3550568   4.5994101
  84.3201981 161.5720673   4.3822970  83.8973465 162.4485016   4.6527977
  83.6567688 160.6688538   3.4301889  83.7890167 159.6505737   3.7958691
  82.1562500 161.0481720   3.4592957  81.6711731 160.9496307   4.4304256
  82.2077255 162.1097565   3.2174222  81.2318344 160.3835907   2.4072115
  81.4795456 160.5991516   1.3678477  81.0647507 158.8772125   2.5921597
  80.7303467 158.6390076   3.6018772  80.3549881 158.4104919   1.9091407
  82.0701599 158.4562073   2.5964339  79.8513794 161.0247803   2.4708047
  79.9537201 162.0726013   2.1884720  79.2830887 160.7000885   1.5991867
  79.3303528 160.9064331   3.4208684  84.3070374 160.8849640   2.0813284
  84.2649994 159.9963684   1.2122844  84.8210220 162.1023102   1.8045502
  84.6195526 162.8815002   2.4147696  85.6183472 162.3675232   0.6366649
  86.6734085 162.2735596   0.8937970  85.4380264 161.6822968  -0.1916177
  85.4939423 163.7533569   0.0298122  84.4121094 164.2741241   0.0451243
  86.4989090 164.2788696  -0.6693277  87.4148941 163.8544922  -0.7007707
  86.4174576 165.4947968  -1.5093765  85.6385727 166.1667480  -1.1489486
  87.8164368 166.2173767  -1.3725840  87.6252213 167.1948242  -1.8154836
  88.1449661 166.3046875  -0.3369467  88.7650452 165.5825043  -2.1675885
  89.4247360 166.2217255  -2.4465201  86.1511154 165.0879974  -3.0283260
  86.1807709 163.9064178  -3.3509774  85.9794998 166.1014709  -3.8850877
  86.0641098 167.0547028  -3.5621526  85.8223190 165.8219757  -5.3617716
  85.5565186 166.7815247  -5.8052974  87.2011337 165.3780823  -5.9893823
  88.0104294 166.0679016  -5.7500477  87.5576553 164.4182129  -5.6156564
  87.1997147 165.2716064  -7.5152125  86.4272995 165.9722595  -8.2062111
  87.9924927 164.4245758  -8.0284290  84.6310654 164.9115906  -5.7099214
  84.7795105 163.8483429  -6.3462696  83.4701691 165.2210541  -5.1104383
  83.5142822 166.1273499  -4.6668458  82.1750488 164.6873932  -5.5967593
  82.4488525 163.6940308  -5.9522481  81.2188339 164.5060425  -4.4075141
  80.7538986 165.4606476  -4.1612201  80.4085922 163.8881989  -4.7946424
  81.8914337 163.7624817  -3.2526321  82.2345810 162.7661285  -3.5312815
  82.7207489 164.3872223  -2.9209087  80.7473831 163.6235046  -1.8810639
  79.6442642 162.3144836  -2.4516037  80.2160187 161.3979492  -2.5969946
  78.8444595 162.2225342  -1.7167856  79.1581497 162.5630341  -3.3950102
  81.5769272 165.4646912  -6.7841992  81.7945404 166.6439362  -7.0540619
  80.5844727 164.8600616  -7.4319396  80.3701782 163.9192505  -7.1335278
  79.5802765 165.5390778  -8.2933617  80.0685654 166.2872925  -8.9177427
  79.1303940 164.4130096  -9.2800789  79.9633331 163.8879547  -9.7476635
  78.5538483 163.6599579  -8.7428551  78.2478943 165.0580139 -10.3908453
  77.4100342 165.5225220  -9.8709135  78.8222198 165.8741302 -10.8292418
  77.6490631 164.0630188 -11.5117636  77.0209045 163.0778809 -11.0492525
  77.8762283 164.3018646 -12.7260475  78.4373322 166.1977539  -7.5393438
  77.6720581 165.5550537  -6.7659483  78.1995926 167.4992218  -7.7346749
  78.7908249 167.9274292  -8.4326563  77.0646515 168.2120056  -7.0496240
  76.6920166 167.7045593  -6.1598234  77.5352402 169.5986786  -6.5964675
  77.8970718 170.2157593  -7.4188905  76.6820602 170.1297760  -6.1744356
  78.5356674 169.5560303  -5.4945135  78.1380997 169.0554657  -4.6116319
  79.4218445 169.0181885  -5.8314586  78.9551544 170.9421692  -4.9732528
  78.0057678 171.7517548  -4.7111268  80.1518097 171.2630310  -4.6872711
  75.8126984 168.3772430  -7.9305959  75.8627014 168.3762360  -9.1631660
  74.6281586 168.6397552  -7.2741265  74.7385254 168.6269836  -6.2702556
  73.3223648 168.9462738  -7.8590555  73.4472427 169.1018219  -8.9306469
  72.3706741 167.7802124  -7.5848551  72.3728104 167.5865784  -6.5121942
  71.3503571 168.0443878  -7.8628182  72.7373505 166.5071259  -8.3732166
  72.2179260 166.2092133  -9.6342545  71.5429459 166.9085388 -10.1051502
  72.4609222 165.0229340 -10.2731066  71.9912338 164.8184357 -11.2238808
  73.3323746 164.1076965  -9.6636639  73.6165543 163.1266022 -10.0145073
  73.9037247 164.3604889  -8.4263039  74.5415573 163.6362000  -7.9415607
  73.5944824 165.5543213  -7.7751198  73.9193954 165.7360687  -6.7613163
  72.7722397 170.2590027  -7.2915168  72.9093018 170.5564117  -6.1240568
  72.0873260 170.9757233  -8.1524019  71.9708633 170.5540619  -9.0627470
  71.7795715 172.4259338  -8.0256805  72.1289902 172.8938599  -7.1053271
  72.4460220 173.2148743  -9.1967497  72.3491745 174.2848511  -9.0127563
  73.4681320 172.8391571  -9.2438431  71.8652802 172.8753052 -10.5797920
  72.0749817 171.7400665 -11.3303976  71.4437027 171.9258728 -12.4774361
  71.4842072 171.2653961 -13.3309784  70.7044296 173.0543976 -12.4138041
  70.1240692 173.4365234 -13.1467896  71.0132370 173.6862946 -11.2207336
  70.7443695 174.6835480 -10.9051495  70.3012772 172.8824921  -7.9442611
  69.9667206 173.6819153  -7.1004486  69.3874512 172.3863220  -8.8010311
  69.8238373 171.8268585  -9.5198259  67.9062729 172.5510559  -8.7533741
  67.7042465 173.6080017  -8.5797501  67.4696426 172.3861237  -9.7383852
  67.2375336 171.7019958  -7.6846313  67.5968781 170.5095215  -7.5172572
  66.4792328 172.3070679  -6.8043551  66.2554703 173.2826996  -6.9391923
  65.7670593 171.5906067  -5.6956034  66.4595032 170.8644409  -5.2697968
  65.3985825 172.6299438  -4.5557470  64.8153534 173.4995728  -4.8585372
  64.8366013 172.0915375  -3.7925978  66.6574478 173.2572327  -3.9280558
  67.3355103 173.5645905  -4.7242169  66.3640060 174.0763702  -3.2715318
  67.4572449 172.3209991  -3.0150402  67.1007996 172.3354187  -1.9850705
  67.2869492 171.3084564  -3.3808920  68.8790436 172.5451508  -3.1190803
  69.3052597 172.0335236  -3.8784714  69.7041473 173.2473450  -2.3482261
  69.3069611 173.9610901  -1.3652290  68.3134003 174.0982056  -1.2463328
  69.8084030 174.5553741  -0.7206526  70.9571915 173.3265533  -2.6026192
  71.3695526 172.7540894  -3.3253522  71.6181793 174.0060120  -2.2539992
  64.5086670 170.8336487  -6.1225452  63.8022461 171.2171783  -7.0436668
  64.2828445 169.6814270  -5.4761724  64.9384995 169.3469543  -4.7845507
  63.0762405 168.8246155  -5.5056624  62.6767769 169.0492554  -6.4946346
  63.4384193 167.2396393  -5.4236698  63.6435928 166.9988708  -4.3805785
  62.3092041 166.2878265  -5.8251462  61.9864769 166.5440521  -6.8342505
  62.7229500 165.2794037  -5.8221350  61.5498428 166.2906952  -5.0431862
  64.6295090 166.8951416  -6.1594787  64.6951981 165.9393921  -6.0975504
  62.0574417 169.1354675  -4.4031353  62.1841736 168.7156982  -3.2604063
  60.9716988 169.7764587  -4.7781439  60.9272766 170.1985779  -5.6946273
  59.7416382 169.9925995  -3.9844186  59.8977051 169.3184509  -3.1422379
  59.5251656 171.4123230  -3.4042103  59.6709061 172.0626984  -4.2666950
  58.5026550 171.6150818  -3.0856884  60.5354843 171.7309875  -2.3774629
  61.4747620 171.3396149  -2.7682407  60.7527275 173.2090454  -2.1021111
  59.9540520 173.6831512  -1.5316454  61.6152573 173.2749329  -1.4389409
  60.9767075 173.7564850  -3.0176642  60.3113708 171.0823364  -1.0032337
  60.3737450 169.9974976  -1.0888345  61.1101456 171.4487610  -0.3584211
  59.3506279 171.3493195  -0.5630052  58.4511566 169.5757446  -4.7202678
  58.1006851 170.0382538  -5.8151927  57.6960983 168.7718811  -4.0188370
  57.9499321 168.6531372  -3.0484912  56.2858734 168.3824158  -4.2697234
  56.1945496 168.3345032  -5.3548336  56.1163597 166.9148560  -3.8059974
  56.1122017 166.9073792  -2.7160361  55.1762466 166.4679565  -4.1293678
  57.1995964 166.0648041  -4.2747216  58.3096924 165.7751465  -3.5693777
  59.0042992 165.0319061  -4.3998909  59.9433670 164.5695801  -4.1337676
  58.3979836 164.8789368  -5.6121311  58.7787628 164.3852386  -6.4067125
  57.2025337 165.5350800  -5.5425777  56.4158478 165.6415253  -6.2748313
  55.2468071 169.3013000  -3.6998227  55.4524498 170.0928650  -2.7760885
  54.0628624 169.2833252  -4.2920599  53.9507790 168.8912354  -5.2160754
  52.8954620 170.0633545  -3.8276620  53.2853584 171.0805206  -3.7893045
  51.7378502 170.0543365  -4.8688712  51.2707062 169.0721130  -4.7974324
  50.9863968 170.7616577  -4.5179944  52.1510811 170.4902496  -6.2694712
  51.5439262 171.4120636  -6.8312907  52.9901085 169.7796936  -6.8818321
  52.3689423 169.7423401  -2.4357638  52.4624519 168.6372833  -1.8908856
  51.8504333 170.7533264  -1.7235562  51.6379089 171.5164642  -2.3500922
  51.3622551 170.6301422  -0.3991980  52.1891365 170.2789764   0.2180973
  51.0750999 172.0617218   0.1497502  50.2803612 172.4724884  -0.4729551
  50.7245865 171.9985352   1.1799182  52.3608170 172.9237823   0.1512286
  53.4252777 172.3643036   0.5450222  52.4307442 174.1000061  -0.2236551
  50.1594467 169.7066040  -0.3720942  49.1708488 169.8595276  -1.0801215
  50.2433548 168.7428589   0.5850884  51.1006165 168.7205811   1.1186745
  49.3375702 167.5538330   0.8697661  49.8762131 166.9457703   1.5965631
  48.0523682 168.0673370   1.5130196  47.6764297 168.8649292   0.8722274
  47.3601646 167.2258148   1.4843831  48.2550049 168.6170502   2.9091046
  48.6922417 167.8664246   3.7925594  47.8200417 169.7793274   3.1796198
  49.0573082 166.6655731  -0.4324489  48.0857353 165.9267273  -0.5632895
  49.8942566 166.7121277  -1.4358346  50.7037392 167.3054352  -1.3226506
  49.8674812 165.7125397  -2.5157163  48.9177399 165.6373749  -3.0452824
  50.7832222 166.1761322  -3.6204259  50.5896606 165.5181122  -4.4675655
  50.6374702 167.2134552  -3.9217477  52.1719093 166.0990448  -3.3435156
  52.4290199 166.9677124  -3.0258286  50.3573303 164.2824402  -2.0852046
  51.1916656 164.1836243  -1.1886774  49.7250786 163.2400513  -2.6679811
  48.9282684 163.4109497  -3.2646308  50.0535164 161.8023071  -2.4368489
  50.3932571 161.7201996  -1.4044075  48.7543297 160.9588470  -2.5067542
  48.2375069 161.2071686  -1.5797497  48.0832329 161.1020203  -3.3536499
  49.0265541 159.1551819  -2.5909841  49.1154785 158.9938660  -3.9142261
  51.1579056 161.4310150  -3.3513031  51.0924339 161.8467712  -4.5161729
  52.1187210 160.6915436  -2.8236406  52.0399971 160.4434814  -1.8477449
  53.3331680 160.3079376  -3.6202624  53.1365509 160.2868652  -4.6921773
  54.4911346 161.2200928  -3.2444980  54.9305000 161.0265350  -2.2659307
  55.3086205 160.9900818  -3.9278100  54.3027153 162.7231750  -3.4622025
  53.5437775 163.0719604  -2.7618787  55.2478905 163.2113495  -3.2246649
  53.8941765 163.0604858  -4.8885112  54.2118607 162.3249207  -5.8092008
  53.3147087 164.2130127  -5.2454109  52.8459206 164.2459869  -6.1394200
  53.0726738 164.8978577  -4.5436273  53.7789040 158.8683472  -3.2681193
  53.4194298 158.4675751  -2.1555960  54.5698013 158.1730499  -4.0468183
  54.8122406 158.5312195  -4.9595265  55.2294998 156.9622650  -3.6484213
  55.0084229 156.8351440  -2.5886724  54.6912994 155.7634277  -4.4246092
  53.6078300 155.8505859  -4.3433781  54.9982033 155.5765991  -6.0042663
  56.0739288 155.4372711  -6.1115150  54.3819008 154.7597351  -6.3797588
  54.7275009 156.5112610  -6.4954228  55.1280556 154.4529877  -3.7611694
  54.7373009 154.3976440  -2.7451186  54.6956787 153.6181183  -4.3126636
  56.2029266 154.3333893  -3.6253741  56.7129097 157.0884247  -3.8418031
  57.1108665 157.5718079  -4.8895626  57.5142136 156.7971344  -2.8187480
  57.0760460 156.5127563  -1.9543189  58.9375839 157.1778259  -2.7658277
  59.2826424 157.4423065  -3.7653713  58.9948959 158.5745697  -2.0037119
  58.5900002 158.4724579  -0.9968663  60.4601288 159.0610046  -1.7965280
  60.9118156 159.3324432  -2.7506704  60.4027214 159.9795074  -1.2124503
  61.1649094 158.3266144  -1.4065729  58.1714058 159.7006073  -2.7001722
  58.4380722 159.7483826  -3.7559686  57.1083794 159.5099487  -2.5527685
  58.3186302 161.1550446  -2.2224531  59.2082710 161.5765839  -2.6903553
  57.4993858 161.7843018  -2.5702422  58.2749443 161.2049408  -1.1344723
  59.8616486 156.0673218  -2.2272267  59.4868469 155.4839325  -1.2057422
  61.0610962 155.7385101  -2.7885523  61.6363831 156.3269501  -3.9624081
  61.8437958 157.3961182  -3.9182262  60.9944191 156.0925598  -4.8115525
  62.9900322 155.5895538  -4.1997175  63.8529129 156.1893463  -3.9102676
  63.1295357 155.2848358  -5.2369189  62.9240570 154.2862396  -3.3688295
  63.8659286 153.9503479  -2.9350624  62.5997314 153.5077515  -4.0593843
  61.9466019 154.6403961  -2.2469161  61.2487106 153.8239441  -2.0613420
  62.6316795 154.8790741  -0.8488656  62.8037682 155.9283752  -0.3317982
  63.1204758 153.7622986  -0.2392447  62.8692856 152.8554230  -0.6060876
  63.6650772 153.7900543   1.1039211  64.0414505 154.7788544   1.3660244
  62.6293411 153.3069000   2.1887934  62.3713303 152.2653351   1.9972792
  63.2609673 153.3516235   3.5909159  63.6013794 154.3605957   3.8237431
  62.5548706 153.0061798   4.3460269  64.0842056 152.6428223   3.6802108
  61.2863655 154.1364288   2.1310437  60.8064346 154.0706787   1.1546023
  60.6626015 153.7332001   2.9288044  61.4681015 155.2003326   2.2833135
  64.8264389 152.8119659   1.1084136  64.6077271 151.6186523   0.8493856
  65.9904709 153.1367340   1.6414356  66.1282272 154.0686493   2.0056348
  67.0891495 152.2468414   1.8977975  67.2102737 151.4730988   1.1396837
  68.4023438 153.0106964   1.8421504  68.4298859 153.5928802   2.7632389
  69.1162796 152.2040558   2.0086720  68.7892227 153.9008026   0.6168324
  67.9009705 154.4308167   0.2730523  69.7928467 155.0028381   1.0698183
  70.6656799 154.5156555   1.5044612  70.1064377 155.5802917   0.2001539
  69.2339020 155.6454773   1.7500417  69.4913788 153.1033630  -0.5117911
  68.7406845 152.3676147  -0.8002952  69.9187775 153.6858063  -1.3280056
  70.2729797 152.4749603  -0.0847992  66.8910675 151.5963745   3.2896535
  66.8909073 152.2978973   4.2704425  66.7259369 150.2683563   3.3699193
  66.5539780 149.3494720   2.2513652  67.4000549 149.4189606   1.5676795
  65.6396179 149.6045074   1.7156224  66.4847412 147.9503937   2.9528465
  67.4663162 147.4818726   3.0242641  65.8153229 147.2621765   2.4367602
  65.7782822 148.2682190   4.2892141  66.0292358 147.5785522   5.0951238
  64.7075424 148.3984375   4.1321998  66.3297043 149.6616211   4.6216736
  65.5682983 150.2931519   5.0794182  67.4544449 149.5951843   5.6657796
  67.1752777 149.3525543   6.8712416  68.7348404 149.7868652   5.2388115
  68.9352112 149.8590851   4.2515240  69.8551407 150.0100555   6.2133541
  69.6556396 149.4251709   7.1112466  71.1654968 149.4394226   5.6731300
  71.3939590 149.6964569   4.6387997  72.0005112 149.7563629   6.2979445
  71.1161041 147.9162445   5.6695013  70.5788879 147.1033020   4.6117363
  70.6019440 145.8449707   5.1613326  70.2016678 144.9609375   4.6873479
  71.0429153 145.8616638   6.4643340  71.2197876 145.0272980   7.0053072
  71.3974380 147.1693726   6.7954698  71.7713928 147.5375977   7.7393785
  69.9324417 151.4027557   6.8327603  70.7175980 151.6727905   7.7401867
  69.0499496 152.3449860   6.3748522  68.4997101 152.1177216   5.5589576
  68.8009262 153.6501312   7.1016359  69.6995239 154.1088867   7.5141525
  68.3006973 154.8749847   6.2318330  67.4316406 154.4473267   5.7318864
  67.8545227 156.0171967   7.1319332  68.6816101 156.2639465   7.7976236
  67.6068649 156.9261627   6.5837321  67.0067444 155.7547150   7.7647696
  69.3662415 155.2778320   5.2312074  69.8565979 154.4266357   4.7588549
  68.9027634 155.9362335   4.4964967  70.0336838 155.8802185   5.8474617
  67.8804321 153.3632202   8.3551121  66.8281784 152.8904114   8.0360432
  68.3367157 153.6872864   9.5999279  69.3386612 153.7359619   9.7175846
  67.5316696 153.3837280  10.8000288  66.5031204 153.1189423  10.5549221
  68.0915298 152.1072845  11.4621906  69.1685410 152.1302490  11.6283617
  67.5741959 151.9298859  12.4050560  67.8544617 150.8742065  10.6535635
  66.7736053 150.7675781  10.5615225  68.3487473 150.9853516   9.6884604
  68.5105057 149.3902130  11.4267931  69.1128006 148.5567932   9.9622517
  69.9551239 149.0673370   9.4954090  69.3195267 147.5334167  10.2754364
  68.2962952 148.4278870   9.2517538  67.4205170 154.5886536  11.7616940
  66.5585709 154.5541687  12.6761799  68.0813904 155.7278748  11.4712305
  68.5262070 155.8350525  10.5708075  67.9187622 157.0359955  12.2120438
  67.6802521 156.8600311  13.2609701  69.1948242 157.8742523  12.2497692
  68.9970245 158.7578125  12.8566637  70.2248154 157.1336365  13.0904398
  70.5624084 156.2058411  12.6285686  71.0612488 157.7655792  13.3889790
  69.7978287 156.9036407  14.0665970  69.7039948 158.2637482  10.8563776
  68.9109879 158.6862793  10.2393656  70.4613190 159.0241852  11.0468750
  70.0787125 157.3377533  10.4202356  66.7672501 157.8254852  11.6184940
  66.3770599 157.6989899  10.4635582  66.2782898 158.7162628  12.4072285
  66.5723038 158.6936188  13.3732204  65.2895355 159.6161346  12.0096855
  64.6200027 159.1984863  11.2577581  64.4578934 159.9216766  13.2192430
  64.0502777 158.9602203  13.5315809  65.0686035 160.2296906  14.0679245
  63.3102188 160.9107056  12.8901691  63.5689278 161.8858795  12.4776125
  62.6672935 160.4813385  12.1217985  62.4105072 161.4015198  14.3406906
  62.3944168 159.9637146  15.4003429  63.3377228 159.7989655  15.9210529
  61.7032166 160.1401978  16.2244759  62.0816574 159.0824127  14.8403425
  65.9242096 160.9341888  11.4547100  66.7393417 161.5533752  12.1126070
  65.5559387 161.2662659  10.2273989  64.8727951 160.7284698   9.7133951
  65.9767151 162.5046539   9.6114731  66.9582977 162.7793121   9.9976921
  66.0924759 162.2418213   8.0511904  66.7530518 161.3856354   7.9145465
  65.1051483 161.9466705   7.6960006  66.5363693 163.4310455   7.2344794
  65.8403702 164.2561188   7.3859482  68.0025558 163.8427887   7.5880780
  68.5697632 162.9271088   7.4210978  68.4388733 164.5287628   6.8620152
  68.1518860 164.2098389   8.6035004  66.5235519 163.0511169   5.7140083
  65.5898666 162.6148834   5.3589954  66.8910446 163.8906097   5.1238518
  67.3275681 162.3297882   5.5679178  64.8962479 163.5354767   9.9582510
  63.7288094 163.3566132   9.5901337  65.2457733 164.6802216  10.5137148
  66.2319412 164.6886597  10.7316599  64.4540253 165.9279785  10.5592747
  63.3901863 165.6908722  10.5476084  64.7422943 166.6669769  11.8918543
  65.7811050 166.9940186  11.8471146  63.9322433 167.9953613  12.0512352
  62.8721123 167.7826233  11.9135008  64.1271133 168.3991241  13.0447683
  64.2120819 168.7040253  11.2717438  64.5066528 165.7917938  13.1159410
  65.2591324 165.0174103  13.2650175  64.5635757 166.3643341  14.0417109
  63.1590767 165.0960846  13.2415876  62.9756165 164.3822327  12.4385538
  63.0974655 164.6139984  14.2172403  62.3277397 165.7958527  13.1561108
  64.8252563 166.8015747   9.3319750  65.9614410 166.6519775   8.8677263
  63.8536835 167.5218353   8.7229929  62.4063606 167.4207916   8.8751230
  62.1456566 167.8644562   9.8360090  62.1651497 166.3603821   8.8013315
  61.7894020 168.1202087   7.6924834  60.8381042 168.5659485   7.9830942
  61.6486931 167.3243866   6.9610739  62.8104019 169.1391144   7.2732363
  62.7960472 170.0635529   7.8505654  62.7642326 169.3347778   6.2019324
  64.1952667 168.4969330   7.5993166  64.4909286 168.0153046   6.6672664
  65.2770233 169.4395599   7.9717274  65.5526505 169.6431427   9.1758108
  65.9348297 170.0854797   7.0114141  65.4955902 170.0397491   6.1030765
  67.1336060 170.9596100   7.1659923  67.2224121 171.4762421   6.2103224
  66.8703842 171.7133484   7.9080815  68.4373550 170.2795105   7.5859313
  69.5420456 170.8845520   7.4844542  68.3733749 169.0306396   8.1446333
  67.4449615 168.8514252   8.4996367  69.5137177 168.1845703   8.5994015
  70.1612549 168.7867737   9.2367048  68.9596176 167.0330811   9.5226250
  68.2590637 167.4229584  10.2610798  68.3650208 166.3143311   8.9587450
  70.1333694 166.3659515  10.2419662  70.7786789 165.7843170   9.5836535
  70.7571259 167.1430664  10.6836805  69.6629181 165.4584503  11.4381914
  68.5623245 165.5447693  11.9268456  70.4981537 164.5298004  11.9671125
  70.2846222 164.0037537  12.8024397  71.3285294 164.2579498  11.4604845
  70.2947998 167.6037750   7.4153724  69.6794968 167.0679474   6.4859796
  71.6184692 167.6562805   7.4733953  72.0274582 168.0509338   8.3083057
  72.4553604 166.9908142   6.4552712  71.9510498 166.9474945   5.4899211
  73.8170242 167.6813660   6.3878236  74.3411942 167.5955658   7.3396540
  74.7084885 167.2606964   5.2238474  74.2423859 167.4605408   4.2590122
  75.6420364 167.8193817   5.2905231  74.9348679 166.2010193   5.3420057
  73.6631699 169.0677490   6.1242700  73.2134552 169.5857239   6.7958703
  72.7071762 165.4795837   6.8630753  72.9608459 165.2071381   8.0377073
  72.8036957 164.5681152   5.8791566  72.5602722 164.8697205   4.9464865
  72.8343582 163.1389771   6.0648685  73.0422363 162.9397888   7.1161594
  71.4556274 162.4942627   5.8173590  70.6903152 163.0007782   6.4054389
  71.2139969 162.5673676   4.7569962  71.4156647 160.9900818   6.2189054
  72.2744217 160.5734863   5.6925187  71.6240692 160.7368469   7.7445097
  70.9717789 161.3324585   8.3831615  71.4683228 159.7247772   8.1180849
  72.6809998 160.8406372   7.9899263  70.1156464 160.4132690   5.8191714
  69.9780960 160.6435699   4.7626944  70.1348419 159.3310547   5.9478416
  69.3221512 160.8404999   6.4322987  73.9202805 162.5394135   5.1058774
  73.6536102 162.1764984   3.9629929  75.1160049 162.2296143   5.5907617
  75.5716934 162.6007690   6.9149899  74.9598465 162.1459351   7.6940107
  75.6649628 163.6852417   6.8575735  76.9611664 162.0426941   7.0601478
  76.9421310 161.0891418   7.5878720  77.5805054 162.7063751   7.6635156
  77.4565735 161.8537598   5.6579165  78.2559128 161.1288605   5.5039778
  77.7147980 162.8154755   5.2146068  76.1422653 161.5711060   4.9341941
  76.2637253 161.8807983   3.8961949  75.8951569 160.1021729   4.8916144
  75.7456818 159.5068817   5.9613605  75.8431702 159.4788971   3.7355440
  75.8803864 159.9855804   2.8626230  75.8176956 157.9920959   3.6590693
  75.9040604 157.6207733   4.6802249  74.4657593 157.5301208   3.0287194
  74.4181366 157.9054413   2.0064828  74.3854599 156.4517975   2.8913484
  73.1829376 157.8673248   3.7195392  73.1244736 158.9504700   3.8265874
  72.0338058 157.4543152   2.8421333  72.0252991 156.3709717   2.9620836
  71.0636673 157.8179474   3.1807992  72.0924835 157.8730927   1.8374984
  73.0843582 157.2786865   5.1564021  73.7852402 157.6919403   5.8817267
  72.0961761 157.5532837   5.5254645  73.2039642 156.1988068   5.2437892
  76.9577179 157.4254761   2.7673175  77.4838409 158.1031647   1.9086058
  77.2537613 156.1249695   2.9822023  76.6746368 155.7222900   3.7050853
  78.2218933 155.2936707   2.2308116  78.4394073 155.6608734   1.2278446
  79.5886230 155.2828827   2.9850702  80.0246277 156.2765961   2.8823373
  79.4824066 155.1084595   4.0557690  80.5587082 154.1732178   2.5649927
  80.2057266 153.1626282   2.7704313  80.6233749 154.1856232   1.4769832
  82.0165634 154.2070770   2.9775333  82.4538727 155.0006104   3.8099358
  82.8354797 153.2965546   2.4499104  83.7894974 153.2652588   2.7800040
  82.5002289 152.7531738   1.6673255  77.6785202 153.8663788   2.0403843
  77.4372101 153.0843811   2.9762132  77.2950134 153.5110321   0.7686045
  77.5088043 154.0760956  -0.0407769  76.3012390 152.4408264   0.5376630
  75.9218521 152.0561523   1.4843349  75.0935898 153.1546478  -0.1396826
  75.4766769 153.4429169  -1.1185844  74.3761292 152.3438263  -0.2658731
  74.3430328 154.2328949   0.6342400  75.0629272 155.0264282   0.8346431
  73.2628250 154.9476318  -0.1293114  72.4702606 154.2732239  -0.4535659
  72.8669281 155.7443237   0.5004905  73.7708817 155.3680420  -0.9971960
  73.7298813 153.7437286   1.9762777  74.4555283 153.2662048   2.6346898
  73.1622543 154.4371643   2.5968070  73.0780640 152.9030762   1.7385191
  77.0195999 151.3813477  -0.3428600  77.4542160 151.6656342  -1.4821961
  77.1113739 150.1538391   0.1578296  76.7349548 149.9694519   1.0767484
  77.9207153 149.1023254  -0.3400620  78.2067490 149.3706970  -1.3570477
  79.1910095 148.9735107   0.4876209  79.8642197 148.2631378   0.0077691
  79.6804047 149.9453278   0.4231099  79.0142365 148.5767822   1.9834951
  78.5724945 149.5856018   2.9090869  78.3610992 150.5781860   2.5396631
  78.3101349 149.2315674   4.2251053  77.7614594 149.9139404   4.8573527
  78.4492416 147.9199982   4.6575990  78.1340027 147.5769958   5.6319594
  78.9305649 146.9060364   3.7455056  78.9045029 145.8745270   4.0643954
  79.2033005 147.2347870   2.4413216  79.5432510 146.5434113   1.6844536
  77.2821274 147.6573792  -0.5204443  77.9334183 146.8459930  -1.2227379
  76.0826111 147.3834686  -0.0281071  75.6546249 147.9797821   0.6656780
  75.2775497 146.2584534  -0.5824313  75.8882980 145.3556824  -0.5917941
  74.0526428 145.9776306   0.2512458  73.4578629 146.8820190   0.3793230
  73.4180756 145.2685394  -0.2803769  74.4457703 145.3652344   1.6305515
  75.1212769 144.1149597   1.7556812  75.1670303 143.9078217   3.0986838
  75.6967316 143.0593262   3.5059743  74.5906448 144.9560547   3.7647412
  74.4544144 144.9976501   4.7646470  73.9783554 145.8079376   2.8465235
  73.2679443 146.5927887   3.0603461  74.7485504 146.5784912  -2.0226142
  74.2757492 147.7183075  -2.2022038  74.6454086 145.6104431  -2.9710605
  75.0531158 144.2232056  -2.8095975  74.7086716 143.7882690  -1.8713620
  76.1416092 144.1918030  -2.8575964  74.5623398 143.4573364  -4.0354705
  73.5335007 143.1052856  -3.9602814  75.2272415 142.6025391  -4.1593232
  74.6516266 144.4977417  -5.0902057  73.9698105 144.4165192  -5.9367442
  75.6725693 144.5068359  -5.4719090  74.4152527 145.8480835  -4.4068222
  75.1629715 146.5045166  -4.8519368  73.0295258 146.4966583  -4.6925716
  72.9307861 147.4900360  -5.4870796  71.9503479 146.0731659  -4.0260735
  71.9321747 145.2547150  -3.4345405  70.6537094 146.6732025  -4.2115455
  70.5724487 146.6636810  -5.2984729  69.5613708 145.7313232  -3.6386836
  68.6164627 146.1332092  -4.0043960  69.6668854 144.7783203  -4.1570964
  69.2814331 145.5429688  -2.1906126  69.0522690 146.5328522  -1.7960334
  68.3424988 145.0040131  -2.0639699  70.2704086 144.8329315  -1.2952169
  71.4306335 144.6229858  -1.6873893  69.9588470 144.5630035  -0.0097827
  70.7169647 144.2680969   0.5888672  69.0482559 144.6995544   0.4052863
  70.7049408 148.1252289  -3.7731543  69.9584198 148.9149170  -4.3133616
  71.4824982 148.5792084  -2.7842579  72.0706863 147.9863281  -2.2162626
  71.4830551 150.0188904  -2.3911867  70.4688416 150.4179077  -2.4069934
  72.0632401 150.1569672  -0.9664492  73.1158829 149.9154663  -0.8190896
  71.9706039 151.2057037  -0.6841581  71.2164307 149.3173828   0.0360143
  70.1622086 149.4826355  -0.1862437  71.5207138 148.2726746  -0.0279600
  71.4308243 149.8239136   1.5123529  72.5865021 149.9865723   2.0109062
  70.3892746 149.9506226   2.1960113  72.2857513 150.9426270  -3.3449512
  71.8552246 152.0457001  -3.6095235  73.3028183 150.4257202  -3.9450195
  73.6414948 149.5397034  -3.5981007  74.1092911 151.0290985  -5.0107756
  74.4426498 152.0190887  -4.6995029  75.3345261 150.1572876  -5.3281860
  75.0301285 149.1409760  -5.5782766  76.2177887 150.8283691  -6.4299297
  76.5854874 151.8082123  -6.1252732  77.0304565 150.1290283  -6.6264338
  75.6436081 151.0003204  -7.3403411  76.1863632 150.0626373  -4.0268645
  75.9725723 149.2109528  -3.3810959  77.2339401 149.9388885  -4.3013983
  76.2201843 150.9840546  -3.4455240  73.2184448 151.1492767  -6.2556734
  73.2371826 152.1749115  -6.9393034  72.3982162 150.1404572  -6.5436954
  72.4686584 149.2898254  -6.0037441  71.4470520 150.1077728  -7.6917839
  72.0941544 150.0903625  -8.5687437  70.6426010 148.7993469  -7.8087921
  71.2953568 147.9325562  -7.7053332  70.0294952 148.7848969  -6.9076881
  69.8205795 148.8128204  -8.9454556  69.2141342 148.0691376  -8.9174757
  70.4739227 151.2567902  -7.6169519  70.2568436 151.9331207  -8.5996103
  69.9627075 151.5701904  -6.4196930  70.3211212 151.1587067  -5.5698013
  68.8350143 152.4830322  -6.3086977  68.0730209 152.3479004  -7.0762939
  68.0780640 152.2791595  -4.9723940  68.0250168 151.2022705  -4.8123560
  68.6760178 152.7703552  -4.2047462  66.5667801 152.7733154  -4.8646522
  66.0441360 152.5414886  -5.7926636  66.1056824 152.1854858  -4.0709534
  66.3703079 154.5548248  -4.5550246  66.9400177 154.7874451  -2.9030986
  68.0277100 154.8164062  -2.8382702  66.6250458 155.7967072  -2.6380265
  66.5107574 154.0006714  -2.2827463  69.2838745 153.9184723  -6.4592915
  68.6619415 154.6623688  -7.2011743  70.2659683 154.3313141  -5.6887879
  70.6811371 153.6791992  -5.0387921  70.6669235 155.7156677  -5.6705155
  69.7518997 156.2922668  -5.5349565  71.6856537 155.9995270  -4.5530977
  71.9120178 157.0657501  -4.5598936  71.2709274 155.4731293  -3.1601954
  71.4288559 154.3996582  -3.0562301  71.7230148 156.0324249  -2.3411100
  70.1909561 155.6027679  -3.0898490  73.0528412 155.3735962  -4.7561164
  73.5752335 155.6493530  -5.6721721  73.6417694 155.6350250  -3.8769586
  72.9022369 154.2971954  -4.8384371  71.1576385 156.1096954  -7.0533414
  70.8801651 157.2249756  -7.4945917  71.7468719 155.1907043  -7.7902131
  71.7823334 154.2735901  -7.3685985  72.1401291 155.3744659  -9.2194757
  72.6635895 156.3129425  -9.4021025  73.0325241 154.2038422  -9.6782112
  73.9468918 154.0962830  -9.0947227  72.4389801 153.3017120  -9.5299692
  73.3619537 154.3302460 -11.1376219  72.4534988 154.4116821 -11.7344227
  74.1033554 155.1125488 -11.3002472  73.8381119 152.9513550 -11.6226988
  73.0267181 152.2516022 -11.4225006  73.9988022 152.9579773 -12.7007751
  75.1649704 152.5649719 -11.0891380  75.7314148 153.3706970 -10.8654194
  75.7175369 151.3718262 -10.9979334  75.2267838 150.3393250 -11.6031923
  74.3890991 150.4111023 -12.1628599  75.7549667 149.4806366 -11.5415802
  76.8396683 151.1851044 -10.3536768  77.3426666 151.9615479  -9.9484386
  77.3295441 150.3071442 -10.4502029  70.8293610 155.5118713 -10.0875607
  70.6523895 156.4748993 -10.7489290  69.9017105 154.5616913 -10.1414862
  70.0459518 153.7974701  -9.4970779  68.6718140 154.6872864 -10.9730625
  68.9187851 154.8313446 -12.0248957  67.9940796 153.2416840 -10.9799376
  67.8385010 152.8692017  -9.9674416  67.0552902 153.3581085 -11.5214348
  68.8223267 152.1833191 -11.7033768  69.2103806 152.3802032 -12.8712530
  69.0430222 151.0250397 -11.1310196  69.6778259 150.4012756 -11.6085672
  68.9363632 150.9113312 -10.1331244  67.7063904 155.7318726 -10.4635572
  66.6695709 155.8828430 -11.1452398  67.9542694 156.3530579  -9.3252201
  68.7486038 155.9830475  -8.8230143  67.2003784 157.5165863  -8.8527813
  66.2052994 157.6400604  -9.2801819  67.0994797 157.3870850  -7.3138742
  66.5144653 156.5003052  -7.0699883  68.1025009 157.3366547  -6.8901997
  66.4316788 158.6115723  -6.6313443  67.0583115 159.4801636  -6.8338251
  65.0619202 158.9057465  -7.2133989  64.5903778 157.9864349  -7.5607195
  64.3796768 159.3979492  -6.5203085  65.1563339 159.6185608  -8.0325937
  66.4427948 158.3771210  -5.1324935  67.4513931 158.4112549  -4.7205834
  65.8400421 159.1185455  -4.6080170  65.9513855 157.4145508  -4.9907765
  67.9397812 158.8200836  -9.2256927  67.3150558 159.8799286  -9.4449463
  69.2912521 158.7991180  -9.4808455  69.8069077 157.9545593  -9.2785549
  70.0441971 160.0008545  -9.9447975  69.6726532 160.8318939  -9.3452597
  71.5733566 159.7885437  -9.5701962  71.6287613 158.8493500  -9.0198040
  72.5245132 159.6473694 -10.7649508  72.5478134 160.6238708 -11.2486839
  73.4771957 159.3836060 -10.3056889  72.2000122 158.8491211 -11.4324827
  72.1310654 160.8915863  -8.7197275  73.2183609 160.9359283  -8.7823238
  71.7349701 161.8376770  -9.0886745  71.7203445 160.6168976  -7.2757192
  72.0961990 159.6452789  -6.9550638  72.1695175 161.3871002  -6.6487174
  70.6393051 160.5373840  -7.1611290  69.7655182 160.4358826 -11.3154449
  69.7595215 161.6409607 -11.6430588  69.3953857 159.4856110 -12.1837244
  69.3989410 158.5347137 -11.8432808  68.7784271 159.8149567 -13.5162058
  69.4432983 160.5402527 -13.9852362  68.7371826 158.5693207 -14.3842449
  68.5954285 157.7509460 -13.6783648  67.8579483 158.6833191 -15.0183296
  69.9655914 158.3842926 -15.2971544  69.9166031 157.4240570 -15.8106375
  69.8104248 159.1088715 -16.0965290  71.3228073 158.6645660 -14.6748705
  71.7690582 159.7853851 -14.4800463  72.0199280 157.5960693 -14.3751116
  72.8954239 157.6431427 -13.8737192  71.7997284 156.6921844 -14.7682905
  67.4546280 160.5980530 -13.3987970  66.9654694 160.9402771 -14.4383841
  66.8008347 160.7068634 -12.2180967  67.2812805 160.5002136 -11.3540611
  65.4932175 161.2874908 -12.0519085  65.4681091 162.1054993 -12.7718525
  64.4315491 160.2880249 -12.3967943  63.4592590 160.7675629 -12.2836552
  64.4768982 159.9499664 -13.4320517  64.4489365 158.9451752 -11.6153269
  65.4759521 158.5879364 -11.6909781  64.3001175 159.1099091 -10.5481730
  63.4432983 157.8717041 -12.0806875  63.2437477 157.0456848 -11.3980646
  62.5289955 158.4616699 -12.1445789  63.7564621 157.1793976 -13.4481878
  63.8213844 157.8594513 -14.2975531  64.7054596 156.6463318 -13.5059776
  62.6934624 156.2119904 -13.8933954  61.8528137 156.6804047 -14.1999855
  63.0585060 155.6484070 -14.6478567  62.4590797 155.4881897 -13.2291174
  65.3536682 162.1173859 -10.7345505  66.1819839 162.9198914 -10.5253010
  64.2796783 162.0386658  -9.9878511  63.6182251 161.3451691 -10.3066645
  63.9661674 162.9486847  -8.8383350  63.8662643 163.9736633  -9.1955023
  62.6629295 162.6236420  -8.0816355  62.4831810 161.5559998  -8.2078676
  62.7898903 162.8557587  -7.0242329  61.3576775 163.1929932  -8.6926394
  61.4290276 163.6153564  -9.8867455  60.2352753 163.2763367  -8.1159010
  65.0038986 163.1064453  -7.6703720  64.8883972 164.1337585  -6.9849253
  65.9757614 162.2429199  -7.4777174  66.0342026 161.5165100  -8.1770077
  66.9404755 162.2494354  -6.3647757  67.5363007 161.3448792  -6.4867549
  67.8738327 163.4668274  -6.5292439  67.3027420 164.3924103  -6.4568086
  68.5242767 163.6597290  -5.6761279  68.6919327 163.2857513  -7.8196316
  69.3095093 162.3930206  -7.7209687  68.0917358 163.0583496  -8.7006321
  69.6669922 164.3860931  -8.0447731  70.3085251 164.3864746  -7.1635604
  70.2764359 164.0888824  -8.8982000  68.9172363 165.6935272  -8.3194218
  68.5465927 165.6893158  -9.2589474  68.7548904 166.6784973  -7.4474711
  69.2317886 166.6324463  -6.2737317  69.7018967 165.8233337  -5.8936653
  69.0031967 167.3946838  -5.6517615  68.1260986 167.7542572  -7.8038373
  67.9467316 167.9402313  -8.7802315  67.9286728 168.4862061  -7.1364722
  66.4263000 162.3465729  -4.9010077  67.2507248 162.2890930  -3.9559755
  65.1264877 162.5379791  -4.6284657  64.5289993 162.6072388  -5.4398293
  64.5133514 162.3419647  -3.3467324  65.2175980 162.7373352  -2.6147377
  63.2926254 163.2191467  -3.0859702  62.8468323 162.7980499  -2.1848359
  63.7581100 164.6195374  -2.7908692  64.1843948 165.0867157  -3.6786289
  62.8713379 165.1506500  -2.4449544  64.4128036 164.5475311  -1.9223704
  62.5412254 163.0643158  -4.2345829  61.9195175 162.3328552  -4.2408142
  64.2834320 160.8755646  -3.0194294  63.5548744 160.0690613  -3.6285613
  64.8142395 160.4420929  -1.8567517  65.3316040 161.0615387  -1.2495122
  64.4303741 159.2290649  -1.1893071  63.7205238 158.6946259  -1.8206495
  65.6840515 158.2854919  -1.3063500  65.3010788 157.2736816  -1.1733960
  66.0929184 158.2494049  -2.3161178  66.8064728 158.5512695  -0.3853738
  67.8342514 159.4179993  -0.8017012  67.7145615 159.8595276  -1.7800273
  68.8822556 159.6900330   0.0077501  69.7383957 160.2488251  -0.3403507
  68.8855667 159.2326660   1.3359129  69.7313004 159.3893127   1.9890524
  67.8370056 158.4199371   1.8046346  67.9041367 157.8581543   2.7245724
  66.8347397 158.0599365   0.9671557  66.0218506 157.4274750   1.2921224
  63.8874207 159.4678345   0.1535647  64.1170959 160.5069122   0.7402287
  63.0691910 158.5567322   0.6449685  62.9136696 157.7245789   0.0941061
  62.3790550 158.6458435   1.8627087  62.3825798 159.6898956   2.1758049
  60.9678154 158.0450592   1.7621260  61.1429291 157.0863342   1.2739732
  60.4020348 157.9297485   2.6866231  60.3954086 158.6702118   1.0768172
  63.2111282 157.9994202   3.0165076  63.6726265 156.8706360   3.0120385
  63.2828255 158.7127686   4.1183338  62.9403534 159.6628876   4.1270514
  63.8264580 158.1901398   5.4151397  64.2361298 157.1850433   5.3149557
  64.8785400 159.1612396   6.0370250  64.3960571 160.1336060   6.1361227
  65.3239136 158.6300201   7.4364696  65.5205612 157.5610046   7.5178385
  66.2006454 159.1524048   7.8192987  64.6064758 158.8179321   8.2352648
  66.0625687 159.3458710   5.0715652  65.7973022 159.7378387   4.0896802
  66.7111816 160.1672211   5.3761678  66.5354385 158.3701172   4.9602056
  62.6538353 158.1133575   6.3530407  61.8950272 159.0881958   6.4868493
  62.4665260 156.9539642   7.0186510  63.1005020 156.1705627   6.9518995
  61.2728195 156.7781067   7.8387861  60.4695168 157.4683685   7.5812249
  60.7842331 155.3147736   7.6995234  61.6872063 154.7074432   7.7619290
  60.1965942 155.1073914   8.5938225  59.9755554 154.9147797   6.4916110
  60.5440063 154.9848785   5.5642209  59.6448288 153.4176941   6.5660315
  58.8204765 153.2142334   7.2495189  59.3161125 153.1202087   5.5702648
  60.5124779 152.8164215   6.8376327  58.6238098 155.6787109   6.4087462
  58.8918228 156.7033539   6.1511517  58.0649872 155.2770844   5.5634484
  58.1704750 155.6500702   7.3995900  61.6103287 157.1180573   9.3452435
  62.7569313 157.0036163   9.7604580  60.6771049 157.6601715  10.0661688
  59.7831078 157.8085480   9.6202412  60.6603546 157.7711029  11.5235624
  61.6659508 157.9934540  11.8805485  59.8100471 158.9960327  11.9226122
  58.8029442 159.0292969  11.5069990  59.7212753 158.9919281  13.0089836
  60.3322945 159.8914642  11.5856066  60.1951408 156.4525909  12.0895805
  58.9956703 156.2020111  12.1652946  61.2046928 155.5728912  12.3953409
  62.1450958 155.7046204  12.0512686  60.7962990 154.2436218  12.9060564
  59.9865494 153.9008026  12.2619486  61.9235001 153.2444000  12.7235851
  62.8057861 153.7433167  13.1245241  61.6226006 152.3541412  13.2758608
  62.3099442 153.0068665  11.2381926  61.5673141 152.0480194  10.4533730
  60.7663765 151.4828339  10.9066525  61.8601532 151.8626709   9.0564537
  61.2595558 151.1953735   8.4561234  62.9251328 152.6271362   8.5436268
  63.1951714 152.5287628   7.2357812  62.8556099 151.7234802   6.8385367
  63.6319695 153.6296539   9.3224611  64.4622803 154.1457367   8.8635035
  63.3326912 153.8032379  10.6974983  63.8767319 154.5172119  11.2980404
  60.2105370 154.2776337  14.3267603  60.9087334 154.4210968  15.3156080
  58.8884048 154.1359406  14.4862709  58.4192390 154.0283508  13.5983458
  58.0559120 154.0513306  15.6767025  58.3981514 154.8316345  16.3564968
  56.6661072 154.4673157  15.2540197  55.9903183 154.6715851  16.0844917
  56.7465210 155.2776184  14.5294266  56.1274834 153.3269196  14.5572786
  55.1883087 153.5243073  14.5329704  58.2386971 152.6948700  16.3299007
  57.9266167 152.5188293  17.5267658  58.9575882 151.7282410  15.6931906
  59.1722794 151.9593048  14.7336960  59.5904045 150.5072632  16.3059120
  60.1036568 150.7929840  17.2240849  58.4690094 149.4982452  16.6526909
  57.7592735 149.9326782  17.3567085  58.0176163 149.2119293  15.7027617
  58.9750900 148.2578278  17.3249302  59.9294968 147.6002045  16.9064713
  58.4320145 147.8488464  18.4225960  58.8085136 147.0160065  18.8523979
  57.6529922 148.3372040  18.8405972  60.6707230 149.9959869  15.3378315
  60.2525253 149.5190887  14.2745819  61.9324913 150.0196686  15.7087746
  62.2025528 150.4538727  16.5797729  63.0757408 149.5910339  14.8208170
  62.8798027 150.0108948  13.8341913  64.3524704 150.4342346  15.0916481
  64.0841217 151.4766541  14.9200058  65.0218277 150.3132782  16.4524021
  65.3259964 149.2753754  16.5878086  65.9575806 150.8566742  16.5835133
  64.3398743 150.6597137  17.2289486  65.4108810 150.1296997  14.0395632
  65.0844040 150.5426636  13.0851154  66.3181534 150.6512909  14.3443689
  65.6141281 149.0647430  13.9270802  63.2183304 148.0702057  14.6888542
  63.3990479 147.6452332  13.5644436  63.0384102 147.2214050  15.7707930
  62.8399811 147.5948486  16.6880016  62.9950409 145.7838135  15.6615410
  63.9761696 145.4258118  15.3495855  62.7997398 145.1768646  17.0685883
  63.4784546 145.6830750  17.7550240  61.7679596 145.3548889  17.3716373
  63.0651550 143.6741791  17.0188599  62.5357208 143.2092590  16.1872063
  64.1315689 143.4960175  16.8805943  62.7227440 142.9710693  18.3462906
  63.4823799 143.2985840  19.0560818  61.6759224 143.1507111  18.5912209
  62.9501305 141.5119324  18.1870556  63.8397331 141.0641785  18.3550911
  62.0193748 140.6346893  17.8829727  60.7597008 140.9718018  17.5714664
  60.4601974 141.9263458  17.4327164  60.0988121 140.2282104  17.3970833
  62.2716064 139.3889923  17.9780102  63.0294189 138.9139252  18.4471970
  61.5017281 138.7958832  17.7030525  61.8926964 145.2726440  14.6632786
  62.1619301 144.5118866  13.7438889  60.6661758 145.7653351  14.8212185
  60.3747520 146.3674316  15.5779610  59.5785522 145.2906342  13.9760036
  59.8297653 144.3040009  13.5867329  58.2585144 145.1480560  14.7390509
  58.0928535 146.1154327  15.2132435  57.4641609 144.9412689  14.0218744
  58.2019157 144.1278687  15.8416491  59.1269264 144.1906738  16.4148121
  57.3530121 144.3866272  16.4745064  57.9928627 142.6340942  15.3783512
  57.3916855 141.8986359  16.1919785  58.4603462 142.2527466  14.3077574
  59.4217834 146.1184540  12.7308073  58.7205353 145.7137451  11.8313904
  60.1138725 147.2938232  12.6346502  60.7181702 147.5951538  13.3857374
  60.0588799 148.1315308  11.4037743  60.7600174 148.9634857  11.4697943
  60.5388985 147.4094391  10.1541500  59.7788391 146.7630920   9.7152500
  60.8038673 148.1442261   9.3938894  61.7598343 146.4796753  10.3297625
  62.1904793 146.6991425  11.3067341  61.6081047 145.4003143  10.3373728
  62.8304596 146.6631165   9.3013039  63.6325264 145.9266052   9.3497934
  62.3482399 146.4031067   8.3589849  63.4386597 148.0367279   9.3606014
  62.9857864 148.6937561   9.9797201  64.4748611 148.4787750   8.6413374
  65.2128372 147.6430664   8.0340528  65.0734100 146.6460876   8.1158800
  65.9708939 148.1234589   7.5707173  64.8571091 149.7185211   8.6178989
  64.3370972 150.4013519   9.1502886  65.6410828 149.9806976   8.0375948
  58.6703949 148.8089905  11.2489910  58.1251488 148.8344574  10.1508198
  58.0701447 149.2692566  12.2860975  58.6182861 149.2756958  13.1343880
  56.9223289 150.1317902  12.1935167  56.3270569 149.8371429  11.3292599
  55.9746971 150.0155487  13.4810467  56.5396156 150.3246460  14.3604956
  55.0946960 150.6405640  13.3291502  55.5942802 148.5380554  13.7452421
  55.3543015 148.1119385  12.7711067  56.4307823 148.0026245  14.1943207
  54.3839836 148.3996735  14.7231894  54.6097031 148.8144836  15.8851852
  53.3273239 147.8386993  14.2468739  57.2875938 151.6290741  12.0208731
  58.2365494 152.1532593  12.6153345  56.4695625 152.2486725  11.1085825
  55.6712532 151.7735901  10.7122231  56.6119080 153.6989441  10.9893084
  56.9387741 154.1123199  11.9434471  57.7904625 153.9774475  10.0137835
  57.5677872 153.6687164   8.9924145  57.8908920 155.0623779  10.0442028
  58.7109489 153.5698395  10.4317055  55.3401260 154.3771210  10.5121336
  54.7336731 153.8864136   9.5833445  54.9691467 155.4737549  11.1569996
  55.4960556 155.7537842  11.9718924  53.7298241 156.1642609  10.7544613
  53.0640717 155.4866943  10.2198792  52.9300499 156.5673523  12.0058556
  53.5726776 157.2047882  12.6131439  51.9872475 157.0622864  11.7729149
  52.4760513 155.4907837  12.8756485  51.8542366 154.3075867  12.5020752
  51.6252441 153.5926666  13.6343088  51.2438431 152.5835266  13.6848745
  52.0975266 154.2665405  14.6511698  52.2879105 153.8300934  15.5418787
  52.6820602 155.3977203  14.1896963  53.2297440 156.1715546  14.7070379
  54.1244240 157.4412842   9.9157419  53.2613182 158.0122223   9.2226143
  55.3978462 157.9031219   9.9666328  56.0259590 157.5608368  10.6796694
  55.8253593 159.2210999   9.3741245  55.1717834 159.4823456   8.5418444
  55.6488800 160.3940735  10.3747845  56.3565063 160.1871490  11.1776247
  55.9764862 161.3317566   9.9258862  54.1871796 160.5742340  10.8860397
  53.2683830 161.3822327  10.1625423  53.6188126 161.8333282   9.2459641
  51.9435921 161.4994659  10.6199245  51.2709808 162.1580658  10.0905304
  51.5024338 160.7934570  11.7822542  50.4994125 160.8941956  12.1698141
  52.4551697 160.0974884  12.5071497  52.1728477 159.8157806  13.5108109
  53.8200912 159.9998016  12.0919447  54.6285286 159.5736847  12.6674957
  57.2852821 159.1893921   8.7962465  57.9346809 158.0832825   8.7692938
  57.8105125 160.3231354   8.3436546  57.1066017 161.0455475   8.2913065
  59.2014198 160.4641113   7.9278030  59.8033829 160.5233917   8.8345718
  59.5651360 159.6704559   7.2751622  59.4827538 161.7930603   7.2402153
  58.7367363 162.7506256   7.3064461  60.6033859 161.8151703   6.5908942
  61.0497589 160.9092712   6.5765390  61.2196236 162.9282990   5.8838868
  60.4643326 163.7031097   5.7523170  62.3321533 163.5811310   6.6373515
  63.0033989 162.7645721   6.9033589  63.0779991 164.6990204   5.8607111
  62.4046021 165.4547119   5.4562488  63.7382660 165.1588593   6.5960379
  63.6238289 164.2084198   5.0548067  61.8006363 164.0338440   7.8951492
  62.3977432 163.7110138   8.5740023  61.7857819 162.5235443   4.4961510
  62.3025017 161.4387817   4.3366127  61.5413132 163.3667603   3.4480319
  60.9482918 164.1800995   3.5311973  62.1413574 163.1318817   2.0870075
  62.2911415 162.0717316   1.8826774  61.2686005 163.6881256   0.9140009
  61.8031883 163.5874329  -0.0305575  59.9149017 163.0024261   0.7632253
  59.2365265 163.3595886   1.5380440  59.5051231 163.1897736  -0.2292866
  59.8839111 161.9182739   0.8717514  60.9465332 165.0308990   1.1836735
  61.7943993 165.4810333   1.1942269  63.5733147 163.7913361   1.9907049
  63.6854134 164.9657745   1.8585223  64.6385956 162.9894714   1.9207699
  64.4759293 161.9960327   1.8389163  66.0465088 163.3436584   1.7031442
  66.2852478 164.2721100   2.2218962  66.9286804 162.2023163   2.2249403
  66.6738663 161.2811432   1.7009288  67.9762039 162.4705811   2.0877211
  66.7314301 162.0928497   3.2913420  66.3056183 163.5488892   0.1971784
  66.2741928 162.6343384  -0.5825399  66.6897507 164.7456818  -0.1240436
  66.6918945 165.4788971   0.5705646  67.2769623 164.9601746  -1.4726582
  66.9146194 164.2356415  -2.2019343  66.9519043 166.3456726  -2.0481617
  65.8772278 166.3394165  -2.2301779  67.1591644 167.1053467  -1.2944771
  67.5624847 166.6354370  -3.4637213  68.6482315 166.5398102  -3.4740050
  67.2030334 165.9444733  -4.2262549  67.2317352 168.0310822  -3.9500608
  66.2023315 168.5880890  -3.5447230  67.9892807 168.4985352  -4.8006978
  68.7688904 164.5595245  -1.4665688  69.5433655 165.0452118  -0.6675431
  69.2319946 163.7041626  -2.3503644  68.5718918 163.2571869  -2.9704988
  70.6638107 163.5652313  -2.6583297  71.2557373 163.5868073  -1.7433118
  71.0098877 162.2810364  -3.5127761  70.4950104 162.2989044  -4.4733415
  72.5625381 162.2183228  -3.6792839  73.0051956 162.2524414  -2.6837938
  72.8737335 161.3569183  -4.2702475  72.8719864 163.1167755  -4.2132483
  70.5881042 161.0537109  -2.7461877  71.1248093 161.0475159  -1.7974973
  69.5087128 161.1144409  -2.6071963  70.9421463 159.6338654  -3.4048820
  72.0273743 159.5355682  -3.4316669  70.4938126 158.8733063  -2.7656138
  70.4833374 159.6347351  -4.3936148  71.1015472 164.8226471  -3.4233322
  70.6899872 165.0625153  -4.5588470  72.0696030 165.5506287  -2.8524785
  72.4409943 165.1979980  -1.9819474  72.6482086 166.7701569  -3.3954995
  72.1167526 166.9585876  -4.3283195  72.4183884 167.9918060  -2.4819639
  72.4759445 168.8650360  -3.1317844  71.3702698 168.0417480  -2.1869144
  73.3051529 168.1031647  -1.2536407  74.4536591 168.9128418  -1.2315474
  74.7307663 169.5578918  -2.0522246  75.2644424 168.9815369  -0.1016654
  76.1164246 169.6424255  -0.0403203  74.8849030 168.2609863   1.1285447
  75.6927338 168.3454437   2.2811501  76.2853546 169.0990295   2.2310061
  73.7228394 167.4867706   1.0913934  73.4176712 166.8872681   1.9363077
  72.9200668 167.4042816  -0.0528327  72.0600052 166.7553864   0.0221737
  74.1337814 166.6605072  -3.8075743  74.5861511 167.4216003  -4.6291847
  74.8950195 165.6839905  -3.3001726  74.4949112 165.2048645  -2.5061648
  76.1614685 165.2583771  -3.7718773  76.2079010 165.7166290  -4.7597733
  77.2798462 165.9409180  -2.9622211  77.4238052 165.3521576  -2.0562708
  78.2554474 165.9521332  -3.4482107  77.0460129 166.9751587  -2.7096994
  76.4178925 163.7416077  -3.8388965  75.9498215 162.9814148  -2.9804511
  77.1530380 163.3348999  -4.8962855  77.5011749 164.0704041  -5.4945631
  77.1888199 161.9293976  -5.3965216  76.9620895 161.2677460  -4.5605102
  76.0218887 161.7386780  -6.4060307  75.0712128 161.9797974  -5.9304438
  76.1582489 162.3733215  -7.2816696  75.9365921 160.3280029  -6.9797835
  74.9408798 159.4424438  -6.4820857  74.3942337 159.6981354  -5.5864305
  74.7638626 158.2048035  -7.1512117  73.9748077 157.5274353  -6.8596840
  75.4654617 157.9066162  -8.3258257  75.2734299 156.7254944  -9.0056686
  74.5895081 156.2067719  -8.5758219  76.4852600 158.8089752  -8.7673006
  76.9641342 158.6529541  -9.7226772  76.6936111 160.0460815  -8.1314449
  77.2880707 160.8026581  -8.6219673  78.5046616 161.4588776  -5.9769034
  79.1374588 162.2153015  -6.6637502  78.9735336 160.2084808  -5.7270203
  78.4446945 159.6672821  -5.0580382  80.2146988 159.6389771  -6.2275791
  80.3786926 160.0509186  -7.2233281  81.4109268 160.0774536  -5.3496227
  81.2446213 161.1036835  -5.0220327  81.4635239 159.5649719  -4.3890533
  82.7879868 159.9708710  -5.9852934  82.9374008 158.9249115  -6.2531266
  82.8704224 160.6564484  -6.8286757  83.8912277 160.2930908  -4.9645925
  83.4207382 160.8990631  -4.1902885  84.2270966 159.4099426  -4.4211478
  84.9760513 160.9457855  -5.6908169  84.8190918 161.7988739  -6.2082191
  86.0184479 160.2475281  -6.1442490  86.3876724 159.0679474  -5.8026643
  85.8322830 158.4781036  -5.1995640  87.2480011 158.6896210  -6.1725407
  86.8714905 160.8397522  -6.9070797  86.6342239 161.7375641  -7.3042660
  87.6586990 160.2999115  -7.2371826  80.2244873 158.1019897  -6.3355289
  79.7575531 157.5002136  -5.4137630  80.5337372 157.4791870  -7.5153131
  80.7374115 158.0779266  -8.3027868  80.6641922 156.0505524  -7.6526694
  80.0687561 155.5549774  -6.8858805  80.0500031 155.5947418  -8.9733324
  80.3943329 156.1868134  -9.8212633  80.3284988 154.5479126  -9.0945921
  78.5255890 155.6737518  -8.8760939  78.1882172 155.3777313  -7.8827891
  78.3497543 156.7407532  -9.0127707  77.8171616 154.8317871 -10.0076513
  77.1355286 153.9240723  -9.4932899  78.0317230 154.9537506 -11.2798424
  82.1170731 155.5659790  -7.6388974  82.9489136 156.1821442  -8.2356272
  82.3103256 154.4595184  -7.0061049  81.5393982 154.0665131  -6.4852233
  83.6131592 153.8539886  -6.9295349  84.1875687 154.2037659  -7.7873344
  84.3766632 154.2857056  -5.7110405  83.6525955 154.7093201  -5.0150776
  84.7494507 153.4311981  -5.1462750  85.4496078 155.3589478  -5.9343853
  86.3477936 154.9078217  -6.3561091  85.1042252 156.1849518  -6.5560966
  85.8003464 156.0237579  -4.5374007  86.6960220 155.5695953  -3.7931783
  85.2533951 157.1007690  -4.1657910  83.5729446 152.2660828  -7.1353631
  82.5768280 151.6303711  -6.9631376  84.7389450 151.6793365  -7.3701010
  85.6343155 152.1219025  -7.5202870  84.8442383 150.2215424  -7.5474372
  84.0993958 149.6824493  -6.9620481  84.5672455 149.8883362  -9.0798454
  83.6068115 150.2012634  -9.4894028  85.3074646 150.5049133  -9.5897493
  84.7984543 148.3645477  -9.3365583  85.6987991 148.0108185  -8.8342047
  83.9423599 147.9219208  -8.8273563  84.9093552 147.9863129 -10.8386850
  85.8385010 147.3341522 -11.3139248  83.9963837 148.3650513 -11.7279444
  84.2005844 148.1724701 -12.6981564  83.2666779 149.0264282 -11.5038748
  86.2902527 149.7790527  -7.0619407  87.3555298 150.0476074  -7.6819129
  86.3036880 149.0203552  -5.9415684  85.4290543 148.6276855  -5.6238766
  87.5112762 148.4954681  -5.2096138  88.3024826 148.2626801  -5.9222851
  88.1485977 149.5543671  -4.2266879  87.2695923 150.0486603  -3.8130338
  88.6543732 149.0859375  -3.3823700  89.0782394 150.5378265  -4.8058858
  89.9565887 150.0355072  -5.2112012  88.5893707 150.9468842  -5.6900749
  89.5821533 151.6782684  -3.9238276  88.8496780 152.2669983  -3.0765729
  90.8106003 152.0088654  -3.9975495  87.2360001 147.2156372  -4.3774295
  86.0845413 147.0720062  -3.9890995  88.2150116 146.3179016  -4.2416253
  89.1149826 146.5759430  -4.6205106  88.0319977 144.9088593  -3.6369669
  89.0522385 144.5270691  -3.6749980  87.6124802 144.9396667  -2.1234713
  86.6288452 145.4081726  -2.0908160  87.4465790 143.9609528  -1.6732315
  88.3761292 145.8227997  -1.1749662  89.3796234 145.2075958  -0.4208809
  89.5377045 144.1542969  -0.5996719  90.1603622 145.8594818   0.5251113
  90.9228287 145.3401947   1.0867102  89.9808578 147.2410583   0.7644839
  90.6897888 147.8645477   1.7468274  91.3920288 147.3471375   2.1477659
  88.9865952 147.9269257  -0.0203370  88.7847595 148.9696655   0.1755350
  88.2137909 147.2053680  -0.9538680  87.4758530 147.7711639  -1.5031606
  87.2862244 143.9284668  -4.4937739  86.9298325 142.8533173  -4.1148057
  86.9125061 144.3613892  -5.7174358  87.1673737 145.3220062  -5.8973269
  85.9835358 143.6200714  -6.5996127  86.1334534 143.8891602  -7.6451845
  86.0814896 142.5624542  -6.3547564  84.4802856 144.0056305  -6.2628961
  83.6488113 143.2254333  -6.7083321  84.2317047 145.0458374  -5.4432917
  84.9992523 145.6008453  -5.0926919  82.8681564 145.5561981  -5.1582112
  82.1742630 144.8305359  -5.5825233  82.4464874 145.5190277  -3.6494458
  81.3954849 145.8055573  -3.6121290  82.6500092 144.0572968  -3.1457841
  83.6750641 143.6867828  -3.1369252  82.3265228 143.9740601  -2.1082242
  81.9943237 143.4111633  -3.7294714  83.2672729 146.4722290  -2.7784774
  84.1789627 146.0105743  -2.3992736  83.5108795 147.3828430  -3.3257651
  82.4145203 146.9786682  -1.6668576  82.2841492 146.1585083  -0.9608408
  83.0051498 147.6817474  -1.0795517  81.4542389 147.3510742  -2.0236297
  82.6101303 146.9502563  -5.8004403  83.4997559 147.7499847  -6.0441260
  81.3267746 147.1538086  -6.2156429  80.6083603 146.4698181  -6.0255008
  80.8098297 148.5459137  -6.4397216  81.6040497 149.0531464  -6.9874673
  79.6410065 148.5420074  -7.4049206  78.7679443 148.0988007  -6.9259362
  79.3917236 149.5918732  -7.5590215  80.0376663 147.9369659  -8.7677460
  81.0692902 148.2231750  -8.9725533  79.9797134 146.8515930  -8.6857738
  79.2100601 148.4824982  -9.9593763  78.0274887 148.7115936  -9.8853607
  79.7676315 148.8877106 -10.9720068  80.4266205 149.2383728  -5.1355548
  80.0341415 148.6035156  -4.1374583  80.6201859 150.5510712  -5.1089735
  81.0272903 151.0124207  -5.9099278  80.2649231 151.3661194  -3.8964121
  79.4090652 150.8785553  -3.4296134  81.4426956 151.4258575  -2.8601730
  81.7882614 150.4192657  -2.6246734  82.5603790 152.3239594  -3.3519218
  82.2137070 153.3565521  -3.3925841  83.3977203 152.3085175  -2.6542704
  82.8736954 152.0355835  -4.3553019  80.9095688 152.0179749  -1.7272123
  81.5710754 152.0197754  -1.0315096  79.8865814 152.7625427  -4.4120650
  80.2097015 153.2273560  -5.4920807  79.3053741 153.5048523  -3.5322986
  78.9411469 153.0846863  -2.6891565  78.7700653 154.8524933  -3.7653160
  79.5538330 155.3624878  -4.3254256  77.4284973 154.7702942  -4.5832934
  77.5847397 154.2154083  -5.5083857  76.2434082 154.1238556  -3.8347192
  75.8945465 154.7440033  -3.0089960  75.4427719 154.1601410  -4.5734825
  76.4995728 153.1020203  -3.5548620  76.9871597 156.1665802  -4.8890619
  77.7167282 156.7441406  -5.4567366  76.1774063 156.0630341  -5.6113343
  76.6445618 156.8038788  -4.0738497  78.6478348 155.6376190  -2.4824324
  78.2517319 155.1203613  -1.4414196  79.0691986 156.9051056  -2.5747979
  79.3660278 157.2452850  -3.4782758  79.1550217 157.8785400  -1.4077901
  78.8341827 157.3948517  -0.4851825  80.6320343 158.3512573  -1.3450149
  80.9600067 158.8424225  -2.2611461  80.6504135 159.1253815  -0.5778807
  81.5443268 157.2055969  -0.9579453  81.3983612 157.0361023   0.1088579
  81.2246246 156.2960968  -1.4665802  83.0725632 157.5004425  -1.1922727
  83.2077637 157.9563141  -2.1730862  83.3905945 158.2861023  -0.5069273
  84.0578308 156.3073120  -0.9433978  83.9004059 155.9352264   0.0689654
  83.9766541 155.4357758  -1.5929667  85.4796524 156.6744843  -1.0396336
  85.8071976 157.5063477  -0.5697110  86.0124741 155.8647308  -0.7558939
  85.7572861 156.6922607  -2.0105639  78.1308899 158.9778290  -1.7103313
  78.2170029 159.5554962  -2.8329573  77.2070770 159.2950592  -0.8325078
  77.3232346 159.0209808   0.1326315  76.1008072 160.2538300  -1.1270225
  76.4004898 160.8214111  -2.0080173  74.7812576 159.5697021  -1.5374790
  74.1348038 160.3529358  -1.9333885  75.0377502 158.5107269  -2.6274903
  75.6400986 157.7050629  -2.2077441  74.0697327 158.0839386  -2.8899808
  75.5462341 158.9155884  -3.5024905  73.9475632 158.8363495  -0.4608167
  73.9696732 159.4644470   0.4297563  72.9438705 158.6735687  -0.8535121
  74.4052658 157.8789062  -0.2120425  75.9102478 161.1728058   0.0523146
  75.8477020 160.7621918   1.2052652  75.6473312 162.4369049  -0.2315671
  75.5873413 162.7457733  -1.1913089  75.3172073 163.4644623   0.7412513
  75.3381424 163.0873108   1.7637117  76.3814774 164.5677643   0.7122102
  76.5649490 164.8038330  -0.3359854  75.9676666 165.4392395   1.2195550
  77.6909027 164.2306366   1.4668844  77.4334488 164.3978271   2.5127614
  77.9155502 163.1780243   1.2946435  78.8417130 165.1286469   1.1522934
  79.6040192 164.9491882   1.9104397  79.2267685 164.8835144   0.1624728
  78.7784500 166.6643066   1.1423354  78.1647720 166.8950958   0.2715716
  78.2226715 166.9374237   2.0393398  80.1347961 167.2644348   0.9384462
  80.6007767 166.7741852   0.1883649  80.0808334 168.2618866   0.7891687
  80.7874985 167.0606689   1.6817969  73.9949417 164.0366974   0.4518438
  73.7934647 164.5336914  -0.6723929  73.0849686 164.0247498   1.4490237
  73.4277039 163.7011414   2.3422847  71.6365051 164.1636658   1.3026980
  71.4382172 164.5632172   0.3081431  71.0372467 162.7077637   1.4002198
  71.0461044 162.3013916   2.4115965  70.0110474 162.6317291   1.0407308
  71.7220078 162.0487061   0.8665049  71.0805054 165.0759583   2.3112774
  71.6442642 165.2802429   3.3676155  69.9520950 165.7302246   2.0884879
  69.5223312 165.7605438   1.1749898  69.4776840 166.7712097   3.0287731
  69.8261642 166.5612183   4.0399976  70.2179184 168.0414276   2.7243629
  71.2678070 167.7910156   2.5723031  69.8275757 168.5621948   1.3531898
  68.7666016 168.8040924   1.4158324  70.2728424 169.5029449   1.0294061
  69.9800339 167.7965393   0.5925136  70.1620636 169.1936340   3.7653773
  69.1796112 169.5858612   3.5025885  70.0808868 168.7768402   4.7692642
  71.2741394 170.2775421   3.8069708  71.1918488 170.9367065   2.9427774
  71.0571594 170.8746643   4.6926737  72.2741089 169.8447418   3.8360395
  67.9530258 166.8222046   3.0384383  67.3852463 166.6507874   1.9596061
  67.3239136 167.0588074   4.1979971  67.9127731 167.1350250   5.0150223
  65.8543701 166.8167114   4.2906170  65.6472015 165.9026947   3.7340655
  65.6018982 166.6165466   5.3319116  64.9545135 167.9979095   3.7911158
  64.9656067 169.1254120   4.3535619  64.0880966 167.7860107   2.7652068
  64.0083160 166.8531952   2.3862789  63.2518120 168.8002472   2.0550871
  63.7620621 169.7452545   2.2413568  63.2378159 168.5216370   0.5838267
  62.7820206 167.5326233   0.5367290  62.5488930 169.1708221   0.0434077
  64.5762405 168.4850311  -0.2299152  65.3182831 167.9629822   0.3741902
  64.4272461 167.8875885  -1.1293433  65.1198120 169.8472900  -0.6536093
  65.9519043 169.7310486  -1.3480204  64.4150009 170.3825378  -1.2898896
  65.5054092 170.7127380   0.4723103  64.7501068 171.1201477   1.0048887
  66.7606430 171.2258301   0.7836109  67.8619232 170.9402924   0.0874885
  67.8247375 170.2108154  -0.6100718  68.7545090 171.3954926   0.2146600
  66.9380417 172.0684509   1.7422911  66.1855011 172.1714630   2.4080098
  67.7718048 172.6185608   1.8916816  61.8862457 169.0525513   2.6642702
  61.3856735 170.1484070   2.5691159  61.2546120 167.9754181   3.0806382
  61.7639160 167.1039124   3.1152010  59.7418137 167.7728577   3.3367929
  59.3082848 168.6797485   3.7583477  58.8979912 167.3534546   2.1299932
  59.0941277 166.3009491   1.9253635  57.8508835 167.4616241   2.4127738
  59.2555237 168.1612091   0.8425553  58.9783058 169.1984100   1.0309013
  60.3249397 168.1432343   0.6324853  58.6920280 167.6344910  -0.4552002
  58.0803566 168.3707886  -1.2166820  58.8492050 166.3361816  -0.7738742
  58.6271515 166.1097870  -1.7328050  59.5535927 165.8700409  -0.2201175
  59.5114288 166.6810455   4.3916035  60.2425728 165.6588287   4.4842687
  58.5224800 166.8657990   5.3493624  57.9967728 167.7273712   5.3118019
  58.0170822 165.8185883   6.2307005  58.8669586 165.1994324   6.5178432
  57.4791985 166.4860077   7.4981685  56.6559601 167.1618805   7.2667251
  57.0868912 165.6918945   8.1334534  58.5668831 167.1644592   8.3189087
  59.2904968 166.3845215   8.5559130  58.9186211 168.0191345   7.7410688
  57.8705177 167.4601440   9.6604767  57.3066139 166.5963135  10.0124750
  58.6879883 167.6743927  10.3489132  56.9981384 168.6865387   9.6149721
  57.3590355 169.5158691   9.1654501  55.7639160 168.8683167  10.1351194
  55.1600571 167.9429779  10.8429613  55.6806450 167.1244354  11.1241684
  54.1815720 168.0252991  11.0793715  55.1026955 169.9669800   9.9159317
  55.4652443 170.6373749   9.2531815  54.1836891 170.1199036  10.3059893
  56.8332062 164.9920044   5.5191612  56.2307549 165.5190735   4.5679607
  56.5077934 163.8019257   5.9889765  57.1147919 163.3523865   6.6594815
  55.3356819 163.0360718   5.5122209  54.6542702 163.7917480   5.1214190
  55.6677971 162.1855316   4.2563581  54.7218628 161.7123718   3.9928548
  55.8630295 162.8544312   3.4181747  56.7898254 161.1695862   4.4180770
  56.5023575 159.9120941   5.0534406  55.5377541 159.7595673   5.5146165
  57.4939461 158.9458618   5.2213697  57.2379837 158.0295868   5.7325830
  58.7405510 159.2153168   4.7028637  59.4418297 158.4011688   4.8114128
  59.0318222 160.4215546   4.0649738  60.0261040 160.5783997   3.6735668
  58.0697594 161.3696594   3.8854041  58.3308182 162.2475433   3.3130631
  54.6948700 162.1422577   6.5635839  55.3543053 161.6351624   7.4818521
  53.3998566 161.8048401   6.2585311  52.9939117 162.3321381   5.4987550
  52.6405296 160.6095734   6.7118964  52.9969635 160.2214966   7.6660714
  51.2025299 161.0999146   6.8809061  51.1098061 162.0048065   7.4814658
  50.6960869 161.3454895   5.9474678  50.4124184 159.9756317   7.6093211
  50.6945419 159.0102997   7.1890321  50.7015991 160.0152893   8.6595163
  48.8780861 160.1097107   7.6927986  48.4751549 160.2369843   6.6880369
  48.4879608 159.1699829   8.0837355  48.3529968 161.1967010   8.7160759
  48.7658348 161.0518036   9.7144108  48.6306305 162.1982269   8.3875170
  46.8553047 161.2364960   8.6920147  46.4076958 160.4980316   9.2158899
  46.6010017 162.0974121   9.1548662  46.4912758 161.2956848   7.7517595
  52.7512703 159.4061584   5.7421579  52.7048149 159.6250916   4.5341306
  52.8563957 158.1967010   6.3510776  52.7713280 158.2378998   7.3566456
  52.6256485 156.8731537   5.7363772  53.1185493 156.9333954   4.7660575
  53.4536591 155.7398529   6.4394741  53.2267494 155.6254578   7.4994388
  53.2419777 154.3024750   5.8530016  53.3505554 154.2814636   4.7686257
  53.9326096 153.6701050   6.4108849  52.2227402 154.0162964   6.1125464
  54.9843140 156.0375214   6.2762589  55.1277351 157.0340271   6.6940284
  55.5469017 155.3097992   6.8610778  55.2143860 156.0241394   5.2109013
  51.2223015 156.4730225   5.4926691  50.4185257 156.3822784   6.4359741
  50.8915787 156.0141907   4.2586422  51.5680466 156.1113892   3.5149729
  49.6610870 155.3210907   3.9096353  48.9463921 155.5025787   4.7123666
  49.1026344 155.9432068   2.6174951  49.7594604 155.6603546   1.7948868
  48.1316986 155.4618073   2.5007017  48.8140373 157.4198456   2.6660094
  49.5286217 157.9360046   3.3071332  48.7456779 158.2024841   1.3685982
  47.9009895 157.8305817   0.7886956  48.6683273 159.2867889   1.4486386
  49.6346550 158.0571289   0.7548443  47.4892082 157.6054840   3.4159541
  47.5640411 157.1289062   4.3933930  47.1897545 158.6504822   3.4959304
  46.7909927 157.0166473   2.8210876  49.8587303 153.7638397   3.8562567
  49.0657463 153.0326843   4.4146876  50.9241104 153.3722992   3.1899619
  51.4916344 154.0520020   2.7041559  51.2872314 151.9775391   2.8792403
  50.9723015 151.3231506   3.6920800  50.5278397 151.5725861   1.5651339
  49.4459801 151.4954834   1.6734481  50.6252022 152.3931274   0.8542603
  50.9690704 150.1921234   0.9067621  52.0564613 150.1167450   0.9071530
  50.5088997 149.4159393   1.5182118  50.3982544 149.9978027  -0.4898255
  49.1619720 150.0601349  -0.6933532  51.2139244 149.6870117  -1.3913532
  52.7735939 151.8748627   2.7087865  53.2914658 152.6916504   1.9887743
  53.3690529 150.7614746   3.2610891  52.8766708 150.0340118   3.7595382
  54.7669640 150.4466705   2.9389150  55.1562767 151.2528687   2.3171577
  55.6817398 150.4028015   4.2519464  55.4467888 149.5396576   4.8747554
  57.1279221 150.2477875   3.8467784  57.4193802 151.0451355   3.1631327
  57.7619476 150.0378418   4.7081928  57.0413284 149.3079987   3.3014467
  55.6001244 151.6674194   5.0951147  56.1101608 152.5110016   4.6299858
  54.5396042 151.8908844   5.2111249  56.1643639 151.5399475   6.5389190
  57.2495346 151.4378204   6.5305452  55.9445000 152.4203796   7.1427455
  55.6686020 150.6740570   6.9777384  54.7558136 149.1204071   2.1692424
  54.1301804 148.1565094   2.6786551  55.4386177 149.0264740   1.0045416
  55.7795906 149.8657837   0.5580003  55.5693817 147.8184357   0.1517411
  55.0583916 146.9469452   0.5609930  54.8801346 148.1528015  -1.2295924
  53.9866600 148.7534180  -1.0591283  55.6030655 148.7208557  -1.8150700
  54.5079079 146.8654022  -2.1446009  54.2287598 146.0964050  -1.4243003
  53.5510216 147.0446472  -2.6348460  55.5464516 146.3974457  -3.1797454
  55.9402351 147.1923981  -3.8130529  56.3625183 145.9506989  -2.6118007
  54.8070831 145.4280853  -4.0560188  54.4587898 144.6158905  -3.5670209
  54.6359024 145.3771973  -5.3594613  55.1006660 146.2826080  -6.1894693
  55.6086731 147.0787048  -5.8313479  54.7870865 146.4496155  -7.1349182
  54.0467796 144.3548279  -5.9234591  53.7756348 143.5687256  -5.3501906
  54.0503082 144.2709351  -6.9299626  57.0683861 147.3900452  -0.0083137
  57.9349861 148.2509918   0.1944524  57.3543968 146.1203918  -0.2435795
  56.6237183 145.4912415  -0.5442167  58.7759552 145.6804657  -0.4390723
  59.4550705 146.5133820  -0.2570063  59.1296730 144.5755920   0.5766556
  58.5026627 143.6932831   0.4482692  60.6328354 144.2148132   0.6998466
  61.1447258 145.1475983   0.9364505  60.7707787 143.5711670   1.5686368
  60.9792862 143.7080688  -0.2008700  58.9134560 145.1250763   1.8761787
  57.9846191 145.0678101   2.1119418  58.9624748 145.1670837  -1.8369083
  58.0996323 144.4437866  -2.3536468  60.0510330 145.4776611  -2.5409014
  60.7341423 146.0994263  -2.1324043  60.3876991 144.9027863  -3.8360023
  59.5057945 144.5143280  -4.3453588  61.0604553 145.9320679  -4.7510900
  61.9568863 146.3611145  -4.3033891  61.3856239 145.4789734  -5.6876159
  60.1013641 146.9597168  -5.3150673  59.1876335 146.4687347  -5.6499329
  59.8825035 147.6004028  -4.4608364  60.6060181 147.8363342  -6.4534454
  60.3692474 149.0203400  -6.4829912  61.2207298 147.2536011  -7.4445925
  61.5439377 147.8744049  -8.1727724  61.5739861 146.3074951  -7.4587021
  61.3045692 143.6917725  -3.6898766  62.1393280 143.7268066  -2.7626221
  61.1899071 142.7584686  -4.6017580  60.7309494 143.0134735  -5.4645615
  61.8989525 141.4697113  -4.5213499  61.5653725 140.9629059  -3.6158259
  61.4708900 140.5454407  -5.6214504  61.7554131 140.9461212  -6.5943894
  62.0103378 139.6057892  -5.5025582  60.0914307 140.2126923  -5.5703177
  60.0003204 139.3879852  -5.0874701  63.4455986 141.5987396  -4.5382271
  64.1482315 140.7348938  -4.0261884  64.0383301 142.6995392  -4.9909358
  63.4667625 143.3596344  -5.4985762  65.5096741 142.9306793  -4.8747249
  66.1050491 142.0468445  -5.1037617  65.8032455 144.0876007  -5.8406215
  66.8848801 144.2143707  -5.8864155  65.5402145 143.7922516  -6.8563437
  65.0251312 145.2907257  -5.4031887  64.0334320 145.5756378  -6.1035795
  65.2702560 145.8406982  -4.3254671  65.9458389 143.1806183  -3.4156680
  67.0841751 142.9164734  -3.0339799  65.0185852 143.6201935  -2.5439260
  64.0829773 143.6996155  -2.9160001  65.1632996 143.9411163  -1.1552325
  64.4744797 143.2073975  -0.7365802  66.1962128 143.8165588  -0.8301490
  64.6903000 145.3462830  -0.7410123  64.4197998 145.5011749   0.4324896
  64.6676788 146.3937073  -1.5746943  64.8012466 146.2718658  -2.5683830
  64.4259033 147.7981110  -1.0798548  64.8269501 147.9631042  -0.0798373
  65.0773621 148.9668121  -1.9455125  64.9831085 149.8614044  -1.3299553
  66.5944748 148.7349701  -2.1587899  66.6912689 147.9581451  -2.9172521
  67.1081467 149.6412659  -2.4795392  67.1236267 148.3499451  -1.2870955
  64.3703079 149.2596588  -3.3356276  65.1175842 149.3888550  -4.1185632
  63.8950539 148.3222961  -3.6247504  63.3738976 150.3774719  -3.4950416
  63.5699577 151.2143097  -2.8246968  63.4160042 150.7869110  -4.5043392
  62.4256020 149.8519287  -3.3825717  62.9055595 148.0861969  -0.8696518
  62.0552101 147.4441681  -1.5040329  62.4916916 148.9650879   0.0554741
  63.1871796 149.6000214   0.4205008  61.1250381 149.2959900   0.3203117
  60.5064888 148.4936066  -0.0817727  60.8158073 149.4629669   1.8152719
  61.3487663 150.2900085   2.2843626  59.7385750 149.5286560   1.9680899
  61.2589340 148.2031403   2.6322677  61.0143852 147.2865906   2.0953717
  62.3356247 148.2386932   2.7983577  60.5125580 148.0245209   4.0057392
  60.8289261 148.7097778   4.9824090  59.6732712 146.9900513   4.1383820
  59.3641205 146.7455139   5.0682902  59.4563332 146.4667664   3.3021927
  60.6905594 150.5146637  -0.4910733  61.5666924 151.3447418  -0.9224095
  59.3957024 150.5753174  -0.7668018  58.8085365 149.7711334  -0.5976315
  58.7578583 151.8142853  -1.2210865  59.3555603 152.7244568  -1.1715482
  58.2351379 151.5974121  -2.6498067  57.5640793 150.7402191  -2.7045798
  57.6859665 152.4986877  -2.9222474  59.3824959 151.3271179  -3.6632230
  60.3697395 151.1567535  -3.2337768  59.1599884 150.3899231  -4.1733832
  59.5481911 152.3663940  -4.7553802  59.3784370 153.5704041  -4.5603557
  59.9789276 151.9529877  -5.9228077  60.2220230 152.6475830  -6.6145821
  60.0162773 150.9562836  -6.0817833  57.5139236 152.1612854  -0.3956510
  56.6711273 151.2994232  -0.0983720  57.2851982 153.4550781  -0.0805981
  58.0531464 154.0719299  -0.3038776  56.1584778 153.8501587   0.8282635
  55.5360298 152.9877930   1.0669634  56.7579269 154.4384460   2.1485953
  57.2906456 155.3696136   1.9556201  55.9177322 154.5786285   2.8286829
  57.3773689 153.6838074   2.6332862  55.2284393 154.8222198   0.0690977
  55.6949463 155.8705902  -0.3166220  53.9714050 154.5057373  -0.0376885
  53.6758728 153.5962830   0.2873833  53.0152092 155.5388489  -0.4073442
  53.3771362 156.1088867  -1.2630081  51.6663322 154.9723511  -0.8220485
  51.3226776 154.3830109   0.0280544  50.9733658 155.8012238  -0.9665329
  51.7768211 154.2066040  -2.1345007  52.1962585 154.8497467  -2.9081604
  52.4591141 153.3574982  -2.0946071  50.4368477 153.7229767  -2.6806056
  50.0457993 153.0085297  -1.9562094  49.7057304 154.5314178  -2.6798775
  50.4861832 153.1392517  -4.1002679  49.6625328 153.5467529  -4.6864848
  51.3889122 153.5623016  -4.5409579  50.6300163 151.6386719  -4.1663780
  49.7480698 151.1881104  -3.9682159  50.8982887 151.3432312  -5.0942006
  51.3077469 151.3383026  -3.4804029  52.8465347 156.5400696   0.7967225
  52.4864883 156.0803528   1.9142365  53.1720047 157.8206635   0.5707867
  53.2520752 158.1517792  -0.3800312  53.1981583 158.8334961   1.6170566
  52.8572006 158.3506012   2.5328453  54.6720390 159.2869415   1.8425094
  54.5311279 160.0693207   2.5882564  55.4468346 158.1096802   2.5275896
  55.3983498 157.1884613   1.9469641  56.5211639 158.2236176   2.6722889
  55.0322266 158.0123901   3.5309525  55.4197006 159.8831635   0.6537985
  54.9141960 160.8044281   0.3642820  56.4682846 160.0927429   0.8650889
  55.4736557 159.1138916  -0.1165426  52.2823906 159.9837646   1.2890754
  51.9035454 160.1251373   0.1202202  52.0111771 160.8702545   2.2483997
  52.2323112 160.7033844   3.2196641  51.4164200 162.2053375   1.9637133
  51.3445396 162.4091949   0.8953558  49.9223442 162.2327881   2.4404223
  49.2918587 161.6130524   1.8028227  49.9950371 162.0104828   3.5050352
  49.3134384 163.6400909   2.4883711  49.8901443 164.3007355   3.1357291
  49.4195786 164.1211090   1.5160209  47.8819695 163.7267456   3.0094280
  47.1316719 162.7787323   2.9901931  47.3467560 164.8340302   3.4733903
  46.4448433 164.7568970   3.9213843  47.9521561 165.6292419   3.6191571
  52.3340492 163.2716827   2.6405272  52.6248398 163.2102661   3.8357196
  52.8816261 164.0855255   1.7679112  52.4987335 164.0489960   0.8340165
  53.7230988 165.2425232   2.1917548  54.5995598 164.7767487   2.6422822
  54.3776894 165.9537811   0.9595520  53.6487312 166.0591278   0.1560477
  54.7474518 167.4031677   1.3448257  55.4329453 167.3241730   2.1886013
  55.2619553 167.9356689   0.5449316  53.8862419 168.0575867   1.4795495
  55.6291504 165.2143250   0.3896104  55.9882774 165.7703247  -0.4764130
  56.4120331 165.3817902   1.1293025  55.5587807 163.7510376   0.0388486
  54.7504501 163.5248108  -0.6565129  56.4956856 163.4185333  -0.4080815
  55.4041443 163.1763458   0.9520367  52.9709816 166.1427765   3.2205656
  51.8105125 166.6083527   2.9564481  53.6482391 166.5111542   4.3572307
  54.5672874 166.1380768   4.5476556  53.0974579 167.4819489   5.3109112
  52.0075607 167.4968567   5.3082523  53.3513031 166.9777832   6.7396069
  54.4249916 166.7936401   6.7767763  53.1905899 167.7121124   7.5289364
  52.8004036 165.6001282   7.0961032  53.0653381 164.8643188   6.3368258
  53.4604073 165.1252289   8.4599142  53.2578888 165.8516235   9.2469616
  52.9299278 164.2129822   8.7328558  54.5203514 164.8752899   8.4135170
  51.2665825 165.5415955   7.1658940  50.7822723 165.6653900   6.1972790
  50.8692284 164.6048737   7.5567493  50.8235397 166.2758789   7.8386726
  53.5546455 168.9647522   5.2017975  54.7590904 169.1692047   4.9393764
  52.6063576 169.9589386   5.2402287  51.2334785 169.8041382   4.9526024
  50.7743797 169.6752472   5.9327645  51.0175209 168.9392395   4.3253660
  50.7707138 171.1844940   4.3437281  49.7292671 171.3277435   4.6317620
  50.8770294 171.1237488   3.2606239  51.7280769 172.2085876   5.0250039
  51.2866936 172.4748230   5.9854193  51.8781929 173.1449890   4.4876690
  53.0219269 171.3808746   5.2510834  53.6142578 171.6288147   4.3703041
  53.6690445 171.8822784   6.5381136  53.4646149 171.3272705   7.6079278
  54.2818794 173.0713959   6.4910440  54.5352898 173.4281921   5.5807824
  54.1605072 174.0000458   7.6135082  54.3285027 173.4661713   8.5488405
  55.2086220 175.1697693   7.3791742  54.9471817 175.7500305   6.4942760
  55.2130432 175.8412476   8.2377768  56.6392517 174.7063293   7.3073235
  56.7244377 173.9845123   6.4950309  57.3231125 175.5350189   7.1236959
  56.9293327 174.0299683   8.6701880  57.2658348 174.8190308   9.5904198
  56.8885498 172.7636414   8.8358355  52.7608223 174.7211456   7.6275096
  52.1959801 175.1195068   6.5954752  52.2035484 174.8607941   8.8248749
  52.5736389 174.5638123   9.7164640  51.0256462 175.7337952   9.0246220
  50.5405998 175.8106689   8.0515242  50.0221367 175.0655365   9.9393044
  50.5413246 174.9543457  10.8912392  49.1268082 175.6750946  10.0615053
  49.7060051 173.6108551   9.5457687  49.4219398 173.5821838   8.4938250
  50.5403290 172.9555664   9.7959785  48.5239105 173.1372986  10.4391880
  48.3703575 172.0785522  10.2304153  48.7341423 173.2864990  11.4982624
  47.2361755 173.7941895  10.0463829  47.1788864 174.1386108   9.0986490
  46.2200050 173.9503479  10.8921652  46.0961571 173.2623138  11.9799185
  46.6592941 172.4518127  12.1945601  45.3909378 173.5371857  12.6486521
  45.3571205 174.8935242  10.6568031  45.5896301 175.4912872   9.8766041
  44.4861107 174.9821167  11.1603861  51.4696732 177.1231079   9.5597878
  51.3853455 177.4740295  10.7375221  51.9625244 177.9485931   8.6907883
  52.1331978 177.5280151   7.7885246  52.6000099 179.2549896   8.9995499
  53.1471214 179.0889282   9.9275599  53.6000862 179.7261047   7.9538379
  53.1479454 179.8064575   6.9652920  54.0964661 181.1525879   8.1754560
  54.5812645 181.2829742   9.1429644  54.7834282 181.5081482   7.4074979
  53.2958336 181.8862915   8.2690382  54.8091164 178.7853546   7.7978301
  54.3510475 177.8442688   7.4934835  55.4437027 179.1729584   7.0008583
  55.3987389 178.7554321   8.7140989  51.4716263 180.2992096   9.2992048
  50.8699112 180.8813324   8.4406166  51.2728424 180.5482483  10.5575037
  51.8498993 180.0560150  11.2244473  50.2567787 181.5105286  11.0273418
  49.3541107 181.4137726  10.4240751  49.8538933 181.2158813  12.4579048
  50.6820030 181.2941742  13.1623201  49.0319405 181.8677216  12.7538815
  49.3306923 179.7830658  12.6656199  50.0822830 179.0161438  12.4783907
  48.7550430 179.7069092  14.1509008  47.8460083 180.3056641  14.2080021
  48.5797539 178.6695709  14.4360218  49.4460602 180.2318115  14.8105001
  48.0719604 179.5395355  11.8729877  48.2886925 179.3226166  10.8270092
  47.7191124 178.5867004  12.2675838  47.5125198 180.4591827  12.0443802
  50.7859306 182.9414978  10.8408699  51.9051323 183.1691132  11.2190599
  49.9637756 183.9260101  10.3241682  48.6381378 183.7725525   9.7243290
  47.9890709 183.0820770  10.2628927  48.8434944 183.4683838   8.6979723
  47.9535103 185.1568909   9.7722397  47.5141449 185.3810577  10.7442493
  47.2484779 185.2335510   8.9445000  49.1772919 185.9799805   9.6088428
  49.0522919 187.0137787   9.9309425  49.5571518 185.9564209   8.5874472
  50.2991562 185.2944336  10.5114908  51.2782249 185.5153351  10.0863695
  50.3453140 185.7042694  11.9851437  49.9324341 184.9408112  12.8444281
  50.6252060 186.9972687  12.2545357  50.8153648 187.6080780  11.4729624
  50.6338692 187.5024567  13.5836830  51.4585228 187.0545197  14.1381197
  50.9307137 189.0414124  13.5068455  51.8631706 189.2737427  12.9924116
  50.0914192 189.5307770  13.0126657  51.0117035 189.4585724  14.8299637
  51.5056114 190.2749176  14.9359779  49.3227844 187.2671967  14.3787441
  48.2180099 187.3058929  13.8249855  49.4391670 187.0075378  15.6814766
  50.3266411 187.0324402  16.1630096  48.2548523 186.8762207  16.5425053
  47.6360397 186.0612488  16.1670132  48.7101135 186.7088776  18.0217648
  47.8751984 186.5216064  18.6970005  49.6203423 185.4695435  18.0248070
  50.5587616 185.7035217  17.5220852  49.8763618 185.2409821  19.0593681
  49.0963478 184.6777039  17.4895420  49.4052658 187.9106903  18.4558468
  49.5920029 187.9828491  19.3947411  47.2887650 188.0890961  16.5809269
  46.1664162 187.9690857  17.0906448  47.8630066 189.2374573  16.3055248
  48.8576698 189.1247101  16.1712437  47.2066612 190.5737305  16.3119392
  46.2972641 190.4920044  16.9072723  48.1028023 191.6525879  16.8564377
  48.9841385 191.8237762  16.2383423  47.6172104 192.6283569  16.8698902
  48.7007065 191.3553925  18.2684288  48.8332596 190.2750854  18.3272266
  49.6400299 191.9028625  18.3462181  47.6902962 191.8529358  19.6945686
  46.7646484 190.2562408  20.0070858  47.3937721 189.3672791  19.9618988
  46.2059364 190.3442535  20.9388542  45.9662628 190.2021332  19.2669773
  46.7273636 190.9034729  14.9164124  45.8596725 191.6902008  14.7176447
  47.2412071 190.2939606  13.7845774  47.9867210 189.6367035  13.9643745
  46.8099632 190.6535187  12.3606787  47.1109619 191.6988068  12.2907801
  47.6225700 189.9324036  11.2602568  47.6516304 190.5457153  10.3596325
  48.6709633 189.8796844  11.5538502  47.0937424 188.6362152  10.9245977
  46.5933342 188.7761536  10.1173725  45.3395920 190.6417999  12.0238724
  44.8867874 191.3587341  11.0915756  44.4941864 189.9710541  12.8018990
  44.9073601 189.3154297  13.4496155  43.0624199 189.7259064  12.6425304
  42.7943954 190.1804047  11.6887522  42.8963394 188.2559662  12.7695684
  43.2041779 188.0137177  13.7867517  41.8589668 188.0017090  12.5520716
  43.5496063 187.7328644  12.0711994  42.2514534 190.6407776  13.6223965
  41.0132027 190.5423126  13.6187525  42.9521561 191.5770416  14.3602285
  43.9267769 191.6751862  14.1140966  42.3860207 192.4802246  15.3676939
  41.3365250 192.5318909  15.0778818  42.4815788 191.9565582  16.8364620
  42.5759926 190.8706665  16.8307934  43.7035789 192.4659576  17.5761509
  43.6542130 193.5475769  17.7016602  43.7724228 191.9579926  18.5380936
  44.5750084 192.1876984  16.9834480  41.1931419 192.2621460  17.6580029
  40.3830643 191.6571503  17.2507401  41.4587288 192.0387573  18.6912823
  40.9641228 193.3257294  17.5913219  42.8099403 193.9606628  15.2166843
  42.0102730 194.9027557  15.3366528  44.0988159 194.1627960  14.9609194
  44.6691589 193.3315125  15.0222979  44.7041931 195.5015411  14.8312464
  44.2227478 196.0247803  15.6574068  46.2097626 195.5700378  15.2179317
  46.4412041 196.6006775  15.4868698  46.3744583 194.9812469  16.1203117
  47.1853218 195.0289459  14.1405678  46.8918991 193.9846191  14.0338116
  46.9898605 195.4988403  13.1766739  48.6792297 195.2508392  14.4003344
  49.0532036 195.8619995  15.3677397  49.5362778 194.6062622  13.6114559
  50.5414505 194.6069641  13.7101002  49.1599274 194.0601959  12.8496962
  44.2624359 196.4040680  13.6739159  45.1088600 197.2490387  13.2310791
  43.0547142 196.2711487  13.1383600  42.4083443 195.6602173  13.6169596
  42.5804863 196.9414520  11.9377661  43.4190178 196.9671631  11.2418489
  41.4097366 196.0621796  11.3926907  40.7211685 195.7987061  12.1955328
  40.9847755 196.6352539  10.5686216  42.0183372 194.7866974  10.7302790
  42.9592094 195.1211243  10.2932367  42.2242661 193.6717682  11.7170973
  41.3949089 193.5958099  12.4202986  42.3884811 192.6888123  11.2755833
  43.1334686 193.8141937  12.3011885  41.1072960 194.2505188   9.6103563
  40.6674957 194.9974365   8.9494696  41.6963692 193.6850586   8.8883181
  40.3076668 193.6490021  10.0426579  42.1232109 198.3856659  12.1828823
  40.9590340 198.7617188  12.1357985  43.0818863 199.2097626  12.5903835
  44.0083389 198.8112946  12.6451740  42.9439850 200.6034851  13.0231457
  42.1122169 201.0438995  12.4733305  42.6105194 200.6420593  14.5238247
  42.2758980 201.6221924  14.8636160  41.6981850 200.0561829  14.6356373
  43.6721115 200.0170135  15.4395885  43.7598801 198.9460297  15.2568483
  44.6589355 200.4372711  15.2455149  43.3614922 200.0171051  16.9320621
  43.8967323 199.3388214  17.7479763  42.5476341 200.9309235  17.4376221
  42.0545578 200.6940918  18.2866707  42.3493118 201.7322693  16.8557072
  44.2512817 201.3637543  12.6671858  45.1937752 200.7805634  12.1308022
  44.3370209 202.6467896  12.9672041  43.6078453 203.0715332  13.5221844
  45.4472923 203.5358429  12.4353571  45.5749283 203.3808899  11.3640041
  45.1126900 205.0018311  12.6871204  46.0298462 205.4927826  12.3616943
  44.2819023 205.3586273  12.0783615  44.8240395 205.2046967  14.0720987
  44.4292107 206.0752258  14.1610336  46.7695122 203.1696930  13.1881733
  47.8475189 203.4186707  12.5943632  46.7285004 202.5688019  14.3770676
  45.8492279 202.5136108  14.8709650  47.9586296 202.0760498  15.0688906
  48.6936684 202.8646240  15.2300167  47.4798851 201.6807098  16.4514446
  46.5619812 201.0947571  16.4044609  48.1973534 201.0137482  16.9294605
  47.2099228 202.8904877  17.3785477  48.0427055 203.5936584  17.3674641
  45.8580055 203.6216583  17.1649094  44.9919930 202.9936066  16.9559116
  45.6344719 204.3759918  17.9193039  46.0250053 204.2482910  16.2888184
  47.1820679 202.3552399  18.8401146  48.1722107 201.9560547  19.0600719
  47.0069275 203.1171265  19.5996723  46.3545952 201.6552887  18.9561691
  48.7653961 200.9522705  14.3892355  49.8710670 200.6666107  14.7818308
  48.3367081 200.4139709  13.2233906  47.4301910 200.6755676  12.8629808
  49.0663452 199.2662811  12.6751709  49.3093605 198.5513611  13.4612589
  48.1386452 198.5175323  11.7911987  48.6356850 197.5873566  11.5158348
  47.3107071 198.2981110  12.4653425  47.8085518 199.3030548  10.6017475
  47.0238800 199.8025513  10.8392334  50.4742165 199.6025391  12.0275202
  51.3591270 198.8208008  11.9108582  50.6678658 200.8970947  11.7299042
  49.8693962 201.4685059  11.9666109  51.9287071 201.5381927  11.1633024
  52.3455467 200.8393707  10.4380407  51.6697044 202.8295135  10.2981501
  52.4370003 202.9815216   9.5390368  50.8246460 202.6010284   9.6487093
  51.3805161 204.0955048  11.0994034  50.6915016 203.8943481  11.9197063
  52.3370018 204.3756714  11.5406990  50.8986015 205.2907867  10.2636776
  51.7033310 205.6738434   9.6361580  50.1680832 204.8564453   9.5811882
  50.1768532 206.2511902  11.0792217  49.4994659 205.9175720  11.7500038
  50.2630424 207.5075378  10.9626789  51.1618080 208.1529236  10.3007088
  51.6947403 207.7153473   9.5627260  51.1189461 209.1619110  10.2861137
  49.4520912 208.2357941  11.5929403  48.7540398 207.7725830  12.1570930
  49.6372948 209.2261810  11.6630449  53.1087608 201.7253723  12.1930857
  54.1641006 202.2855225  11.8526821  52.9112930 201.3656616  13.4726152
  51.9801025 201.0271606  13.6685953  53.9064140 201.3990784  14.5478802
  54.3824654 202.3783264  14.4972610  53.2127304 201.3606720  15.9217272
  52.7343864 200.3832245  15.9841404  53.9733658 201.3840332  16.7021084
  52.2790833 202.5968018  16.0527344  52.8131638 203.5173950  15.8174400
  51.4625359 202.6293182  15.3314152  51.8264847 202.7627563  17.5203400
  50.9263916 203.3759613  17.4767456  51.6372070 201.7745972  17.9396286
  52.7914391 203.4299774  18.4694862  53.5757294 203.7990417  17.9510403
  52.7133064 203.6348114  19.7644024  51.5638161 203.4111023  20.4330959
  50.7745552 203.0908203  19.8903389  51.5204277 203.3785553  21.4416389
  53.6935806 204.1940002  20.4085655  54.5706253 204.4585266  19.9832115
  53.5026817 204.4508209  21.3665333  55.0405083 200.3282318  14.3808823
  55.1180420 199.2940674  15.0601301  55.6959000 200.3677216  13.2048655
  55.6598167 201.2464447  12.7082424  56.5335236 199.3357086  12.4990005
  56.1090126 198.3503418  12.6912584  56.3290825 199.5797119  11.0392284
  55.3641090 199.9522247  10.6954899  57.1113968 200.2798462  10.7461424
  56.5117607 198.3402405  10.1950531  57.5336456 198.1503296   9.2420969
  57.3288116 196.9692078   8.6788597  57.9303856 196.4809113   7.9264855
  56.2393188 196.3854523   9.1843653  55.9175835 195.4778748   8.8795605
  55.6824379 197.2427521  10.1327667  54.8015862 197.0338745  10.7217207
  58.0023575 199.3174896  12.9118614  58.5064583 200.2775726  13.5839958
  58.6604805 198.2081604  12.5759850  58.2548180 197.6614838  11.8298712
  59.8895836 197.6037598  13.1861811  59.7387047 197.6210480  14.2655535
  59.9911232 196.1002502  12.7606564  60.9359703 195.7482758  13.1747580
  58.8480453 195.3091736  13.4001732  57.8811035 195.6630249  13.0425234
  58.9996376 194.2522888  13.1808062  58.8660736 195.4986420  14.4734287
  60.0871620 196.0464630  11.2244682  59.2400017 195.4099579  10.9689722
  60.2008476 196.9869232  10.6852961  61.2904663 195.2703247  10.7537384
  61.3022194 194.2960663  11.2423964  61.1501961 195.1878967   9.6759491
  62.2401390 195.7982941  10.8401070  61.2240829 198.3612823  13.0761490
  61.3594894 199.1554718  12.1494703  62.3009682 198.2171783  13.8741589
  63.0828018 198.7688599  13.5509310  62.7844467 197.0479431  14.6710062
  63.6680565 197.3936615  15.2074976  61.9092903 196.7592010  15.8258123
  61.0330887 196.2732849  15.3965559  62.3989410 195.9918213  16.4253693
  61.4675331 197.9252167  16.7695999  62.4438477 198.8535614  17.3213081
  63.4980659 198.7752838  17.1001701  62.0476646 199.8529510  18.2028446
  62.8176041 200.4749146  18.6349792  60.6666946 199.9306183  18.6243095
  60.4253731 200.5193787  19.4969616  59.7724457 198.9868469  18.0986385
  58.8136864 198.8499908  18.5766106  60.1316071 197.9739685  17.1319599
  59.3563042 197.2923126  16.8147278  63.4812889 195.8524628  13.9307508
  63.8965340 196.0775146  12.7832956  63.5701103 194.6174011  14.5086288
  62.4160042 193.8138123  15.0001907  61.5363693 194.0936279  14.4204922
  62.2552376 193.8749695  16.0765343  62.8690796 192.3052063  14.7001753
  62.8234138 191.9925690  13.6569719  62.3891983 191.5836487  15.3613749
  64.3741837 192.4210510  15.0176086  65.0162964 191.6024323  14.6925726
  64.4864883 192.6008911  16.0867882  64.7250137 193.7460480  14.3521395
  65.5360260 194.2487946  14.8790188  65.2440872 193.6105347  12.8925009
  64.5166702 193.3862915  11.8755636  66.5543594 193.5337219  12.6054764
  66.7408981 193.3868713  11.6237755  67.7221298 193.9068604  13.4758425
  68.6294708 193.9910126  12.8777180  67.9730682 192.7134705  14.4495773
  68.9038086 192.9147186  14.9799719  67.1312103 192.7820892  15.1385403
  67.9781036 191.4616394  13.7653170  67.1277542 191.4558411  13.3198156
  67.6254349 195.2671661  14.2590246  66.8170090 196.1089630  13.7958221
  68.4146118 195.6080933  15.3301191  69.1573029 194.9982605  15.6409197
  68.0438690 196.6865845  16.2670536  67.2134781 197.1146393  15.7055292
  67.3452911 196.0136108  17.5024261  66.8952026 195.0744476  17.1807251
  68.1210785 195.8265076  18.2448864  66.2925491 196.7384338  18.1230736
  66.2245255 196.4362793  19.0317421  68.9865494 197.8752594  16.6341076
  68.7484512 198.5504150  17.6033554  70.0813065 198.3056641  15.9439507
  70.3890457 199.2004242  16.2972260  70.8779449 197.7938080  14.8429737
  71.6868210 198.5157471  14.7306023  69.9673920 198.0615540  13.6014967
  69.1328049 197.3604431  13.6060839  69.4094696 198.9929352  13.6982555
  70.5634460 198.0141449  12.1331291  70.9668350 197.0116730  11.9902306
  69.6683655 198.2252045  11.5479851  71.6212311 199.1905670  11.8861666
  71.1440887 200.1703644  11.9069738  72.3832474 199.2219543  12.6649227
  72.4924164 198.9735565  10.6018171  71.8362961 198.8322144   9.7429657
  73.1206665 199.8252716  10.3410912  73.3748627 197.8178864  10.7904253
  72.9051208 196.9521790  10.5668211  74.2267151 197.8845825  10.2519102
  73.7411957 197.7169800  11.7262239  71.6799698 196.4331512  15.0422697
  71.9706726 195.7467041  14.0309811  72.1128998 196.0504303  16.2999287
  71.5027084 196.3583221  17.5999241  70.4984283 195.9349976  17.5821590
  71.5607147 197.4303741  17.7881718  72.1119461 195.4985199  18.7270145
  71.4277802 194.9479675  19.3726997  72.7798615 196.1266937  19.3164101
  72.8989716 194.4579926  17.9316254  73.8431625 194.1796417  18.3997269
  72.2244949 193.6023254  17.8998718  73.1136246 195.0345612  16.5077000
  73.1063995 194.1773834  15.8344259  74.5361786 195.6965485  16.4043255
  75.5272064 194.9629059  16.4508343  74.6410828 197.0369415  16.3277321
  73.7528687 197.5117798  16.2522812  75.8308716 197.8950500  16.2943478
  76.4798279 197.6084900  15.4667921  75.3840256 199.3992920  16.2290192
  74.3101425 199.4942474  16.0682049  75.6759262 199.9699707  17.1106243
  75.9931259 200.0463409  15.0149269  76.9752274 199.6129913  14.8257818
  75.3305511 199.9174042  14.1590824  76.3314514 201.5376587  15.1921062
  77.1358109 201.6665497  15.9163198  76.8517303 201.8395996  14.2831316
  75.1117783 202.4279480  15.3968306  74.1853867 201.9381714  15.0967894
  74.9653473 202.5064697  16.4740906  75.2934647 203.7968903  14.7785864
  75.3628311 203.7579651  13.7717228  74.4744034 204.3789673  14.8807364
  76.0347519 204.2732697  15.2722073  76.7807159 197.5360107  17.4546223
  77.9738235 197.3876190  17.2421856  76.1773758 197.4087677  18.6742268
  75.1992950 197.6522827  18.6096859  76.8790894 197.1472321  20.0129852
  77.9154053 197.4818573  19.9662781  76.2233887 197.9300079  21.1482410
  76.8961716 197.7841187  21.9933357  76.1839676 199.4028015  20.7291756
  75.4817123 199.6353302  19.9286289  75.8437881 199.8906860  21.6425953
  77.1932755 199.7452545  20.5008583  74.8609009 197.3501129  21.6532154
  75.0441055 196.3383484  22.0149632  74.4311142 197.9610596  22.4470291
  74.0822678 197.2714386  20.8945026  77.0625229 195.6602783  20.3650551
  77.1969299 195.3541260  21.5646496  77.0992737 194.7645874  19.3963184
  76.8532104 195.0935974  18.4736538  77.7364044 193.4675598  19.5730152
  77.8377151 193.0466003  18.5727005  79.2854156 193.6910858  19.9904366
  79.4067459 194.0693665  21.0054665  79.8392563 192.7571259  20.0856457
  80.1640625 194.5547180  19.0567570  81.1316681 195.4134369  19.4257374
  81.3268890 195.6573486  20.4595661  81.8795090 195.7685242  18.2762222
  82.6386108 196.4345245  18.2589684  81.5388031 195.0319977  17.1815128
  82.0267029 195.0949097  15.8667831  82.9211121 195.6403503  15.6042423
  81.3758163 194.4086304  14.8728495  81.8415985 194.3837280  13.8987722
  80.1251450 193.8133850  15.2294903  79.6314697 193.2152557  14.4778814
  79.6447906 193.7668610  16.5489750  78.7002792 193.2948456  16.7758770
  80.3348541 194.4073792  17.5985355  77.0883865 192.3222351  20.4012299
  77.3792572 191.1846313  20.1271038  76.1288300 192.5645447  21.3391094
  75.8250961 193.5199738  21.4615231  76.0066681 191.6638489  22.4950409
  77.0116272 191.2838440  22.6787605  75.0271912 190.4181519  22.2778759
  74.5237579 190.1587982  23.2092152  74.3612366 190.8224335  21.5155354
  75.7170181 189.1238251  21.8916664  74.9244995 188.3755493  21.8817043
  76.1669388 189.1271820  20.8988609  76.8851166 188.5559692  22.7305698
  77.6533890 189.2288208  23.4342556  77.3126450 187.2829590  22.5886879
  78.0760880 186.9642944  23.1680927  76.8476562 186.6582947  21.9455090
  75.5647430 192.3714447  23.8124199  74.6880035 193.2348175  23.8232231
  76.3221207 191.9433136  24.8090858  76.9298019 191.1839294  24.5367680
  76.3374405 192.3418121  26.2321262  75.9086609 191.5351105  26.8266678
  77.7692261 192.5220642  26.7770844  77.7797318 192.9490509  27.7799149
  78.1431351 191.5092926  26.9273167  78.7833328 193.2537537  25.8585567
  78.9222488 194.5150299  26.0048790  79.3861237 192.6303406  24.9209671
  75.5628052 193.6023865  26.4942322  75.8237457 194.6284332  25.8286915
  74.6783524 193.5095367  27.4635830  74.5384598 192.5708008  27.8090057
  73.7391129 194.5036163  28.0271111  72.9176559 193.9659119  28.5005951
  74.3843384 195.2790527  29.2194080  73.6203079 195.8973999  29.6905842
  74.6421204 194.5704346  30.0065079  75.6913757 196.1080475  29.0564594
  76.0309753 196.3641205  30.0600567  76.4385910 195.4967194  28.5504494
  75.4461060 197.5407257  28.4316902  74.4584503 197.9484863  28.6470127
  76.1589813 198.1960144  28.9321918  75.7553558 197.6027832  26.9821014
  74.9427338 197.7970123  26.4146290  76.8590469 197.3167114  26.3151932
  77.9495544 197.0754395  26.9906197  78.1143646 197.5038605  27.8902817
  78.6197739 196.4797211  26.5258255  76.8468933 197.4426880  25.0380268
  77.6909027 197.1498718  24.5668621  76.0973587 197.8199005  24.4758720
  72.9174728 195.3651581  27.0270576  72.5129852 194.8894806  25.9786377
  72.5382080 196.5561829  27.4407082  72.7450714 196.7543488  28.4092312
  71.6878738 197.5436859  26.7699795  71.6920700 198.4073334  27.4349594
  72.4160843 198.0046234  25.5266228  72.6739883 197.2401581  24.7936916
  71.8302612 198.7865448  25.0433903  73.3464203 198.4890594  25.8230610
  70.2261963 197.1351166  26.5754089  69.3193283 197.6147919  27.2799339
  69.8841934 196.3797455  25.5510178  70.5858459 195.9814148  24.9434528
  68.5292587 195.9578857  25.1652145  68.0380630 196.9299622  25.1219330
  68.4961700 195.4898529  23.7072792  67.5282593 195.0436249  23.4789619
  68.5814133 196.3676453  23.0667133  69.5096207 194.4658051  23.2485237
  69.1596298 193.0931854  23.1992054  68.1754456 192.7388306  23.4679298
  70.1276016 192.1636505  22.7371788  69.8463516 191.1217194  22.7780361
  71.4079132 192.5390320  22.3264999  72.1692886 191.8499756  21.9919720
  71.7152252 193.9416962  22.2908993  72.6910706 194.3041382  22.0032196
  70.7202072 194.9055786  22.7574978  70.9334946 195.9640503  22.7810287
  67.8366623 195.0193634  26.1421127  67.3925323 193.9115295  25.8188915
  67.6074600 195.5130005  27.3989258  68.0721512 196.3515778  27.7166805
  66.8156967 194.8311005  28.4372330  66.6598816 193.7741089  28.2213516
  67.4772491 194.8986359  29.8224182  67.4215088 195.9341888  30.1580067
  66.8296204 194.2289276  30.3882523  68.9517899 194.4546814  29.9566956
  69.0960312 193.6489716  30.6764927  69.2870560 194.0907288  28.9854984
  69.8973770 195.5943146  30.4663372  70.8750534 195.1143036  30.5091972
  69.8388901 196.3556824  29.6885166  69.5146637 196.1442719  31.7815456
  69.3298721 195.4172974  32.4578934  69.3748474 197.4064026  32.1713448
  69.6099167 198.3907928  31.4142704  69.9052124 198.3429108  30.4495888
  69.4434052 199.3138885  31.7887955  68.9658279 197.6033173  33.3769646
  68.6219864 196.8471222  33.9514580  68.8715439 198.4839630  33.8624268
  65.3599625 195.4589081  28.3724346  64.3864136 194.7539825  28.0210075
  65.3256302 196.7734222  28.5694046  66.2387161 197.1931458  28.6704159
  64.1804352 197.6893463  28.3970203  63.4479485 197.3722229  29.1393127
  64.5827560 199.0965729  28.8895397  65.3397064 199.5276489  28.2343216
  63.6805229 199.7081757  28.8858604  65.0881042 199.1590424  30.3400002
  64.5092697 198.4561768  30.9392052  66.0897064 198.7350769  30.4117527
  65.1878357 200.5384827  31.0044041  65.0696716 201.5903320  30.3849869
  65.5820084 200.5397949  32.2679939  65.8150177 201.3944702  32.7531090
  65.7845001 199.6639252  32.7283707  63.5727501 197.6331940  26.9897156
  62.3710098 197.6719818  26.8521690  64.3561172 197.4915466  25.9222832
  65.3287430 197.7272491  26.0584278  63.8766136 197.2004700  24.5741196
  63.1127319 197.9196167  24.2784863  64.9469070 197.2407684  23.5326366
  65.4564056 198.2001953  23.6222343  65.7495041 196.5336456  23.7422218
  64.4230042 197.0163269  22.1305428  63.8248405 197.9520569  21.3722115
  63.7901802 198.9789124  21.7050419  63.0925598 197.3205566  20.3326302
  62.4011269 197.8211517  19.7927914  63.3862762 195.9852142  20.3321419
  62.9427986 194.9560089  19.4825077  62.2877655 195.1762543  18.6525497
  63.2497826 193.6329956  19.7214203  62.8490639 192.8241882  19.1283894
  64.0645905 193.3747406  20.8390980  64.2648087 192.3275452  21.0113678
  64.5538406 194.3850555  21.7407742  65.2849503 194.1911621  22.5116749
  64.1594238 195.7395935  21.5204487  62.9508018 195.9213715  24.4666691
  61.8174171 196.0967102  24.0164604  63.2932777 194.7299500  25.0176029
  64.1804886 194.5970612  25.4816036  62.3457489 193.5733643  24.8635349
  62.0484734 193.5347900  23.8155651  63.0386047 192.2456665  25.3052139
  63.9066887 192.4770203  25.9224720  62.3587875 191.6283264  25.8924484
  63.4967804 191.4530487  24.1372414  64.8310394 191.2834778  23.8732414
  65.6915054 191.7063446  24.3704147  64.9823761 190.4779816  22.7468185
  65.8577652 190.1027679  22.4106293  63.7867966 190.1944275  22.1422405
  63.4436493 189.5351868  20.9357510  64.1657028 189.1617584  20.2247009
  62.0789490 189.4970703  20.5707226  61.7413712 188.9543304  19.7001591
  61.1646614 190.1253967  21.3517342  60.1560860 190.1141968  20.9656582
  61.4304085 190.8520966  22.5289555  60.6597443 191.2524719  23.1709633
  62.8100586 190.8341675  22.9806938  61.0250359 193.8119507  25.6261616
  60.0294991 193.2899780  25.1956940  60.9213486 194.7408752  26.5935116
  61.8049507 195.1858368  26.7968731  59.7097816 195.2382660  27.2622929
  59.0106506 194.4075470  27.3583031  59.9942322 195.7032318  28.6905708
  60.7475891 196.4905396  28.6639309  59.0900764 196.0308380  29.2036819
  60.5754585 194.4822388  29.4652462  59.8588829 193.6612244  29.4417877
  61.5023804 194.1698608  28.9842701  60.8155975 194.9273987  30.8964310
  61.6533165 195.7785034  31.1992283  60.0953674 194.3515472  31.8580399
  60.5003967 194.5600433  32.7594719  59.4256668 193.6212311  31.6624565
  58.9965172 196.2224426  26.3676109  57.7761841 196.2041626  26.3427315
  59.7004318 197.1223907  25.7014980  60.6926689 196.9372101  25.7372627
  59.2407112 198.1772003  24.8156223  58.4515686 198.6970367  25.3588676
  60.4026108 199.0879669  24.6235695  60.9528427 199.2586212  25.5488949
  61.1284904 198.6632996  23.9301300  59.9131851 200.4387054  24.0711155
  59.4361458 200.2557373  23.1082802  59.1882210 200.9307861  24.7194881
  61.1362648 201.3985291  23.8088245  61.8095627 201.5315399  24.6556301
  61.7475052 200.8272247  23.1101875  60.7213058 202.8135529  23.2473602
  61.6497993 203.2420349  22.8699951  60.0123177 202.6278381  22.4405479
  60.0581169 203.6716461  24.2416000  60.6701088 203.8872528  25.0156116
  59.9132080 204.5753632  23.8144970  59.1615486 203.3832855  24.6064434
  58.7151871 197.5734253  23.5310593  57.5505714 197.8801117  23.2488689
  59.3994713 196.7182007  22.7697468  60.3320084 196.4922943  23.0850964
  58.8696442 196.0185852  21.5874729  58.7036247 196.6904602  20.7453785
  60.0051689 195.1062317  21.1113968  60.8012581 195.6701202  20.6252079
  60.4586563 194.5257874  21.9148521  59.5972710 194.0879669  20.0450611
  59.6170921 194.5105133  18.7164211  59.9360695 195.4971771  18.4144897
  59.2071648 193.5980072  17.6847954  59.2996635 193.8766479  16.6454639
  58.8416061 192.2767181  17.9902382  58.4472580 191.3646851  17.0279331
  58.7278862 191.6686096  16.1616364  58.7158051 191.8556976  19.3545246
  58.2675247 190.9298553  19.6835709  59.0795860 192.7720337  20.3500252
  59.1138382 192.4190063  21.3701229  57.5671959 195.2362061  21.9813690
  56.6147118 195.4905548  21.2624722  57.5552979 194.4440613  23.0945721
  58.4238701 194.3105011  23.5924072  56.3253136 193.7930145  23.5233917
  56.0910339 193.0921936  22.7221088  56.6766586 192.9664459  24.7656727
  57.4553032 192.2810516  24.4309464  57.2549667 193.5764008  25.4596596
  55.5757065 192.2610931  25.5555916  54.7219734 192.9151917  25.7327499
  55.1410217 191.4971466  24.9109612  56.1263275 191.7091064  26.8777523
  56.6986961 190.6255646  27.0166950  55.6857109 192.3254547  27.9075947
  56.0403481 191.9365692  28.7696266  55.0041313 193.0628967  27.7993336
  55.1332588 194.7690277  23.7510338  54.0827408 194.6479187  23.1019993
  55.3141327 195.7390442  24.6933136  56.0940437 195.7467194  25.3350105
  54.3230972 196.8618774  24.9294987  53.4768715 196.4114838  25.4482956
  54.9323730 197.8574371  25.9415436  55.3004036 197.2637177  26.7782993
  55.7236824 198.3941650  25.4182281  53.8708801 198.8247375  26.6101151
  53.2802467 199.3113098  25.8339081  53.1568336 198.2239838  27.1734428
  54.5097275 199.7006531  27.6738281  54.9701233 199.1203766  28.4734726
  55.3068810 200.3223877  27.2662888  53.3659134 200.6173248  28.0646687
  53.0312424 201.0813293  27.1368809  52.4629860 200.1388092  28.4439373
  53.7341461 201.6550140  29.0999699  54.5825920 202.1441193  28.8529282
  52.9928474 202.3353882  29.1875553  53.9102211 201.2353668  30.0016270
  53.9231071 197.5781555  23.6152992  52.7365074 197.8840179  23.4376335
  54.7914162 197.7926636  22.6151295  55.7687035 197.6375122  22.8174553
  54.4189911 198.4326477  21.3003693  53.7726669 199.2760010  21.5435352
  55.7083321 198.9980316  20.6916904  56.1810379 199.5788879  21.4836922
  56.3813400 198.1786041  20.4393158  55.3880501 199.8650970  19.4458923
  54.9345093 199.2696533  18.6535301  54.6082077 200.5876007  19.6866264
  56.4726982 200.7191010  18.9334602  57.3154907 200.0958405  18.6345711
  56.1464272 201.1563873  17.9898357  56.8780327 201.7665863  19.8580208
  56.2802658 201.7592468  20.6720982  57.5837402 202.8709717  19.6463394
  58.2346649 203.0113068  18.5335178  58.0802612 202.3222961  17.8113518
  58.6095810 203.8679047  18.1517239  57.6285286 203.8763885  20.5143337
  57.0930519 203.8750763  21.3707008  58.1507721 204.7171936  20.3133049
  53.7077980 197.5787659  20.2582283  52.6719398 198.0109863  19.6348839
  54.1336136 196.3208160  20.1106205  55.0486603 196.1220551  20.4891529
  53.5942802 195.4104156  19.1264763  53.3638802 195.9300079  18.1964016
  54.6769295 194.4231110  18.7059193  55.5928764 194.9794464  18.5068474
  54.9417267 193.8110657  19.5681210  54.2945900 193.6181183  17.4563847
  53.4291649 193.0360718  17.7731781  53.9720573 194.2876892  16.6590405
  55.4151077 192.6679993  17.0242691  56.2642174 193.2448273  16.6576958
  55.7919731 192.0929108  17.8700485  55.0335426 191.7059784  15.8660803
  55.8609695 191.0242920  15.6692009  54.2530098 191.0324554  16.2199383
  54.6041298 192.3852081  14.5530977  55.3217049 193.0178528  14.2291431
  54.4621124 191.6479187  13.8775702  53.7713776 192.9289093  14.7292223
  52.2873497 194.7787323  19.5550060  51.2889290 194.7486267  18.8021393
  52.2865448 194.3346863  20.8043900  53.0956917 194.5366516  21.3741188
  50.9934082 193.7869263  21.4599228  50.3097649 193.4742279  20.6706429
  51.2709770 192.4786224  22.2410965  51.7051659 192.7998962  23.1878605
  50.3145790 191.9844666  22.4119720  52.2611275 191.5453949  21.5701790
  51.9601364 190.9962311  20.3063526  51.0273743 191.0936279  19.7707481
  52.8917694 190.0866241  19.7259369  52.6513977 189.5944519  18.7951374
  54.0807915 189.7428589  20.3696232  54.7546043 189.0499725  19.8876591
  54.3770180 190.3455658  21.6163139  55.2481499 190.0592804  22.1869049
  53.5080795 191.2945404  22.1935673  53.7199326 191.6569214  23.1886539
  50.1670723 194.8185730  22.2239285  49.2864265 194.5043182  23.0265083
  50.3643646 196.0938568  22.0042782  51.1428795 196.3978882  21.4371967
  49.4970512 197.1774902  22.5152588  49.7227097 197.3544464  23.5668602
  49.8195801 198.3748932  21.5965157  50.8912392 198.5680237  21.6449413
  49.6191902 198.0260162  20.5834827  49.0861893 199.6096497  21.9001274
  49.3584442 200.3228607  23.0503578  48.2946777 201.1313934  23.1157856
  48.2139168 201.9427490  23.8240108  47.4842072 200.9745178  21.9995747
  46.6508293 201.5403748  21.9262028  47.9585648 200.0012665  21.2348518
  47.4358368 199.5511475  20.4038525  48.0027962 196.8636017  22.3197708
  47.2611542 197.1545105  23.2426453  47.5585327 196.1775055  21.2649460
  48.2903366 195.9798889  20.5974770  46.1998672 195.9078217  20.9471092
  45.6232948 196.7181396  21.3932533  45.8982544 195.9129181  19.4448185
  46.4461746 195.0931244  18.9802399  44.8362541 195.7653351  19.2486610
  46.4637604 197.4246368  18.5763168  45.4324532 198.2732849  18.6095600
  45.7314110 194.5486603  21.5534058  44.5895996 194.1745453  21.4067459
  46.4581757 193.9328156  22.4733086  47.4089394 194.2381897  22.6246319
  46.0404358 192.8036804  23.2340755  45.8146210 191.9903107  22.5444832
  47.3113441 192.3187408  23.9573593  47.5563622 193.0361481  24.7405529
  47.2180901 191.3995209  24.5356789  48.0757256 192.0649414  23.2229042
  44.8517342 193.1013794  24.1594925  44.0826111 192.1614990  24.4670238
  44.6356544 194.3630524  24.5529308  45.2431831 195.1657715  24.4713364
  43.3801155 194.8509521  25.2531166  43.3203316 194.3365784  26.2122517
  43.5764008 196.4084015  25.4185905  42.7132225 196.8161621  25.9446621
  44.4632645 196.5869446  26.0266190  43.8369026 197.0161285  24.1771374
  43.2119217 197.7272186  24.0179176  42.1365395 194.6423340  24.4476337
  41.0344429 194.7397766  25.0647621  42.0924377 194.3063202  23.1647549
  42.9934425 194.1023560  22.7564735  40.8842392 194.2061005  22.3929424
  40.0732384 194.7525787  22.8743305  41.1253242 194.8436584  21.0149059
  41.9152260 194.2351227  20.5746193  40.1930695 194.9378967  20.4580250
  41.6998787 196.2663727  21.0469837  42.6255608 196.1974335  21.6183548
  41.9453659 196.8555908  19.6305218  40.9816933 197.1065979  19.1873093
  42.6051941 197.7230072  19.6486073  42.3212242 196.0222168  19.0369606
  40.7971039 197.2004395  21.7651577  40.6309509 196.8496552  22.7837105
  41.3102913 198.1618500  21.7446404  39.8437462 197.2783203  21.2425213
  40.3773537 192.7567749  22.4046879  39.1711807 192.5178986  22.3623257
  41.3052521 191.7958984  22.4857006  42.2434845 192.1109924  22.6870270
  41.1047363 190.3972168  22.8906403  40.1645660 189.9189911  22.6158791
  42.1888771 189.4635925  22.2830296  42.0240784 188.4676056  22.6940556
  42.1537628 189.4151917  20.8214970  42.3163834 190.3616333  20.3058491
  42.8859596 188.6860657  20.4745693  41.2252083 188.9796906  20.4524097
  43.3981285 189.9083862  22.7416821  44.0005341 189.1709595  22.8638020
  41.1177444 190.3405762  24.4202251  41.0468521 191.2957611  25.1653118
  41.0561142 189.1094666  24.9648457  41.0341644 188.2826080  24.3852425
  40.7219315 188.8283691  26.4070244  40.2809792 189.7160187  26.8606091
  39.5987740 187.8636017  26.5288391  39.5393982 187.4840851  27.5489063
  38.6593285 188.3493042  26.2649498  39.8307114 186.6638184  25.6935673
  39.6730156 185.8237305  26.1305943  41.9291916 188.5431671  27.3749981
  41.7500725 188.4539490  28.6084023  43.0953712 188.4953613  26.7940578
  43.2144089 188.8067780  25.8406677  44.3907242 188.1755981  27.4812641
  44.1953888 187.8315735  28.4969349  45.1106567 187.1153717  26.6222401
  45.3544884 187.4967041  25.6306610  46.0646324 186.8853607  27.0967255
  44.2291832 185.8671417  26.4469090  43.7705498 185.3374481  25.2885990
  43.8253479 185.7998505  24.3141384  43.1941147 184.1162872  25.5461502
  42.8076248 183.4860229  24.8580437  43.1181412 183.8130341  26.8816013
  42.6661072 182.6728516  27.5407104  42.0634499 181.9119720  27.0671520
  43.0808868 182.5188599  28.8574257  42.8173714 181.5676422  29.2957516
  43.5897789 183.6306763  29.5587158  43.7438049 183.5755920  30.6262569
  43.9929695 184.8278046  28.9022484  44.4335480 185.5943298  29.5225143
  43.8291168 184.9431610  27.5067425  45.3610306 189.3625183  27.6457233
  45.3363724 190.3074493  26.8683186  46.2336884 189.3721161  28.6627197
  46.3059044 188.3364258  29.6902599  46.6292686 187.4008179  29.2340050
  45.3749962 188.2252197  30.2462616  47.4194069 188.8284149  30.6580620
  48.3734665 188.3674774  30.4023247  47.1836166 188.6134491  31.7003174
  47.6155281 190.3114471  30.3206806  48.6668549 190.5864258  30.4055462
  47.0043869 190.8805237  31.0212288  47.1988945 190.4193420  28.8325329
  46.7467384 191.3993835  28.6803665  48.4215279 190.2593842  27.8654709
  48.6020584 189.1743622  27.3242741  49.2799606 191.3180695  27.6110840
  49.0654373 192.6689911  28.0831833  49.4516373 192.7427368  29.0998001
  48.0264778 192.9963226  28.0440521  49.7642326 193.6083679  27.1451073
  50.1524658 194.4792023  27.6733284  49.2580566 194.0618591  26.2929134
  50.8278389 192.7241058  26.5660133  51.6629105 192.6914825  27.2657948
  51.1721687 193.0639343  25.5892544  50.2408447 191.3068695  26.5472565
  49.7473183 191.0909424  25.5996723  51.3214607 190.2216492  26.6463718
  51.6674690 189.7679138  25.5989151  51.7334747 189.7628021  27.8179646
  51.3602982 190.0334015  28.7166443  52.8442497 188.8267059  27.9863682
  53.6956940 189.2432861  27.4482193  53.2791481 188.7191010  29.4312019
  54.0172272 187.9183197  29.4768753  53.9527168 189.5563965  29.6137962
  52.2269516 188.5408173  30.4982014  51.7239838 189.5977936  31.2244835
  52.0338974 190.6271362  31.1205769  50.9819717 189.1013031  32.2401772
  50.5638504 189.7086029  32.9304428  50.8764496 187.7258301  32.2265549
  50.2786942 186.8198395  33.0608406  49.6218987 187.1245728  33.8621902
  50.3240242 185.4281464  32.8163414  49.7627678 184.7038879  33.3880348
  51.0569458 184.9707642  31.6952038  51.0186234 183.9296875  31.4104862
  51.7090111 185.8898468  30.8341560  52.1707382 185.4998627  29.9391041
  51.6102028 187.3168945  31.1033649  52.4605370 187.5012665  27.3369274
  53.3526421 186.8724060  26.8447685  51.2120247 187.0827026  27.2552204
  50.4237366 187.5849762  27.6378803  50.9172478 185.7537994  26.7271843
  51.5970535 185.1584473  27.3367138  49.4415512 185.3229370  26.9901466
  49.2217941 185.4134827  28.0539188  48.8563576 186.0112152  26.3803024
  49.0127258 183.8662415  26.5915947  49.3485413 183.7633820  25.5597286
  49.5058327 182.6721039  27.4335213  49.0158768 182.5534210  28.3999367
  49.3823738 181.7120972  26.9322853  50.5544434 182.7086792  27.7287884
  47.5035362 183.7265930  26.3597069  47.3385506 184.0679779  25.3377762
  47.1019058 182.7153778  26.4248238  46.9974098 184.3450165  27.1009884
  51.4249306 185.5510559  25.2942581  51.7982674 184.4867401  24.8951244
  51.2363129 186.5973969  24.4777336  51.0048866 187.4703979  24.9298496
  51.5897141 186.5819855  23.0447941  51.1622238 185.6541595  22.6646843
  50.9731064 187.7631531  22.3124123  51.3666954 188.7447357  22.5764294
  51.3327522 187.7747040  21.2835140  49.4695969 187.7805786  22.3735809
  48.7666893 186.7304230  21.7339630  49.3543549 185.9678497  21.2445526
  47.3624878 186.5687256  21.8286190  46.7939072 185.8118896  21.3086872
  46.6756821 187.5063019  22.5214424  45.3130608 187.5543671  22.4154129
  44.9231529 186.7134857  22.1654491  47.3328896 188.6369934  23.1246376
  46.7610512 189.4457550  23.5551243  48.7430191 188.7581482  23.0123825
  49.1716232 189.6689911  23.4036198  53.0809517 186.4638062  22.8075142
  53.4293671 185.7079926  21.9277439  53.9297523 186.8847656  23.7579384
  53.5923958 187.5811310  24.4070568  55.3521500 186.6230927  23.6909313
  55.7216301 186.9000244  22.7035675  56.0320892 187.4033813  24.7533016
  55.7477531 187.1102753  25.7639141  57.1037331 187.2715759  24.6039410
  55.6743736 188.7745819  24.6888599  56.1891174 189.3206177  25.2875938
  55.7138939 185.1136932  23.8689594  56.7916870 184.7315521  23.5249672
  54.7628746 184.3186188  24.3630066  53.8894196 184.7753296  24.5834274
  54.8581924 182.8276367  24.4703999  55.9177094 182.5802155  24.4047737
  54.1902313 182.3262939  25.7490520  53.1242599 182.4581757  25.5635109
  54.2843666 181.2466431  25.8656178  54.5027580 183.0287628  27.1396046
  53.9933510 183.9904022  27.2016888  53.8920555 182.2630768  28.3648949
  54.4094772 181.3139038  28.5042648  54.1209602 182.8901672  29.2265682
  52.8251534 182.1412354  28.1778793  55.9985847 183.2436676  27.4144802
  56.4223366 183.9132080  26.6659794  56.2614288 183.7019196  28.3679047
  56.4659042 182.2620697  27.3358688  54.2705307 182.1142120  23.2817039
  54.1810913 180.8779449  23.3604221  53.9522667 182.8699951  22.2066193
  54.0876045 183.8705750  22.2320309  53.3348045 182.3085632  20.9877434
  53.6202545 181.2587891  20.9198475  51.7720261 182.3986359  21.0299950
  51.4482002 183.4039459  21.2994556  51.4100990 182.3042145  20.0061817
  51.0236015 181.3532410  21.8566647  50.6808586 181.5666351  23.2036438
  50.9748116 182.4949341  23.6708241  50.0506325 180.5761719  23.9174614
  49.8587303 180.7214508  24.9703026  49.7574883 179.3467865  23.3454742
  49.4145966 178.2794342  24.1800804  49.6556206 178.3340454  25.1077251
  50.0130806 179.0916290  21.9966583  49.7119293 178.1664734  21.5278263
  50.6575394 180.1160736  21.2824516  50.7771950 179.9249878  20.2262459
  53.8565140 183.0117340  19.7188129  53.7993393 182.4642944  18.5802631
  54.4636955 184.1385651  19.8106670  54.4288750 184.6156769  20.7001934
  55.1857986 184.8706055  18.7538567  54.4839973 185.0094910  17.9314880
  55.4028015 186.2857056  19.2616367  54.4505234 186.7712402  19.0482941
  55.5677605 186.3285828  20.3382320  56.5457039 186.9741821  18.5153160
  56.5816460 186.9638062  17.2645302  57.5539932 187.3296204  19.1853771
  56.4757614 184.1813507  18.2569866  57.3780212 183.8975983  19.0367832
  56.5575676 183.8941345  16.9304104  55.7644272 184.1304779  16.3514690
  57.7736549 183.2823486  16.3948326  57.9556847 182.2969513  16.8237305
  57.6467247 183.1859741  14.8531456  57.5309830 184.2011719  14.4735765
  58.4426346 182.5661316  14.4403181  56.7585526 182.5644379  14.7393284
  59.0620918 184.0393677  16.6576900  60.0892029 183.3918457  16.8148384
  59.0887146 185.3508301  16.8468666  58.1855125 185.8027496  16.8564701
  60.3418694 186.0952759  16.9840088  61.1440964 185.6941528  16.3646240
  60.1051445 187.5833130  16.5321007  59.4171906 188.0894470  17.2093315
  61.0513268 188.1244202  16.5385876  59.5032616 187.6761780  15.1224480
  58.5282898 187.1888123  15.1248779  59.2306137 188.7043610  14.8845682
  60.4390068 186.9257660  14.1174936  61.6870766 187.0848236  14.0678949
  59.9185066 186.2433472  13.2348471  60.8522263 186.0379486  18.4285736
  62.0673065 185.9073486  18.7163773  59.9375610 186.0361023  19.4592342
  58.9486694 186.0574493  19.2549381  60.3985977 186.0218353  20.8200951
  61.2639427 186.6726379  20.9455853  59.2795982 186.4585571  21.7765884
  58.4008217 185.8161011  21.8323555  59.8123055 186.4918671  23.2538090
  60.8187714 186.9074402  23.3030663  59.2390480 187.0108032  24.0220470
  59.8333588 185.4824371  23.6645355  58.7387123 187.7442169  21.5644855
  58.4756889 187.8764038  20.6507320  60.7906380 184.6246796  21.2264919
  61.8169174 184.4183807  21.8292675  60.0600395 183.6158752  20.6714802
  59.3181801 183.8716888  20.0356293  60.4932480 182.2023315  20.6452541
  60.4545021 181.8420410  21.6732559  59.3533173 181.4382782  19.8365669
  59.1790810 181.8520813  18.8433380  59.8072090 180.4735870  19.6097240
  58.0128288 181.2405548  20.4662228  57.6986694 182.2475739  20.7406425
  57.0099754 180.6146851  19.4896812  57.4442749 179.7677765  18.9584351
  56.1430168 180.2639923  20.0495853  56.6063271 181.2881622  18.7336426
  58.1746788 180.3258820  21.6952095  58.7313843 180.7787170  22.5156441
  57.2475281 180.1556091  22.2424755  58.5281639 179.3213501  21.4626637
  61.8060532 181.9308777  19.9904137  62.5063667 181.1411285  20.6149578
  62.2039642 182.5501862  18.8608093  61.6332016 183.1821747  18.3177395
  63.5445595 182.3311462  18.3171692  63.6760368 181.2519226  18.2392750
  63.7962570 182.9837341  16.9545307  63.4851799 184.0270691  17.0070763
  64.8650665 182.9605865  16.7419090  63.0830841 182.3749084  15.7792645
  63.4513206 181.3604889  15.6261024  62.0630951 182.2717133  16.1495132
  63.2453461 183.1469116  14.1133375  64.9890518 182.7567596  13.8808727
  65.1052399 181.6875153  14.0578833  65.3021011 183.0182800  12.8700771
  65.5350113 183.3211823  14.6368160  64.5489273 182.8861237  19.3154430
  65.5277481 182.2433472  19.6702557  64.3498154 184.1124115  19.7582130
  63.4917068 184.6016693  19.5475769  65.4197617 184.8033295  20.4875259
  66.3692551 184.7700043  19.9532452  65.0916901 186.3801270  20.6389198
  64.8601227 186.8567810  19.6864090  64.1945572 186.4562988  21.2532825
  66.2074356 187.2028809  21.3003483  65.8832397 188.2346954  21.4358730
  66.3890305 186.7889404  22.2922039  67.5302582 187.1415863  20.5393314
  67.4384766 187.1475677  19.2889347  68.6423721 187.0173492  21.1738491
  65.6477661 184.2655487  21.8881855  66.7964554 184.1975708  22.3423367
  64.6262207 183.7944336  22.6129761  63.7013435 183.7895966  22.2071686
  64.8553696 182.8876038  23.7660503  65.3466873 183.4004974  24.5928764
  63.4907074 182.4455872  24.3489704  62.8815613 181.9739532  23.5778637
  63.5907097 181.7376251  25.1717110  62.6364479 183.5915070  24.9078827
  63.1552200 184.1071777  25.7159996  62.5132141 184.3529663  24.1377563
  61.2919922 183.0141602  25.4164486  60.5505905 183.7691040  25.6781445
  60.9402428 182.4401398  24.5592022  61.5052071 182.2509308  26.6457024
  62.2454224 182.5382080  27.2699261  60.7353287 181.3189545  27.1460133
  59.6253738 180.7803192  26.6098557  59.1571846 181.3558655  25.9245396
  59.1750755 180.0057220  27.0760422  61.1150780 180.6816559  28.1869431
  61.8252335 181.0955811  28.7738457  60.5685844 179.8779297  28.4616623
  65.7103271 181.6538239  23.4613438  66.4961472 181.2468109  24.2878857
  65.5796356 181.0272675  22.2536011  64.8573990 181.2745209  21.5922832
  66.3729935 179.8453522  21.8814316  66.4835815 179.1445312  22.7089100
  65.8239365 179.1179199  20.7070427  65.6039658 179.8558807  19.9356022
  66.7131729 178.0683136  20.1168003  67.0360260 177.4485168  20.9532852
  66.1897736 177.5595856  19.3072662  67.6296234 178.4874115  19.7013588
  64.4695663 178.4198151  21.0825005  63.7479782 179.2027130  21.3158741
  64.1554565 177.8629761  20.1996784  64.6355209 177.7304077  21.9103165
  67.8878403 180.2838440  21.6650143  68.7988815 179.7569122  22.2894669
  68.0568161 181.3597260  20.8321705  67.2799759 181.6537170  20.2575417
  69.3778305 182.0464478  20.5940838  70.0660782 181.3968201  20.0533409
  69.2112503 183.3060608  19.7743797  68.4156189 183.9399414  20.1658688
  70.1133652 183.9000854  19.9207478  69.0520554 183.0649109  18.2602234
  69.8279037 182.4045563  17.8728161  68.0869370 182.5779114  18.1206398
  68.9769440 184.4574432  17.6282043  68.1535950 184.9878845  18.1065617
  69.9287643 184.9586029  17.8041725  68.7858734 184.4005737  16.1245594
  69.4650803 183.7238922  15.6060085  67.7812347 184.0576477  15.8771591
  68.9649963 185.7592163  15.5402088  69.9069290 186.1153717  15.6176338
  68.7034225 185.7088318  14.5659685  68.4087067 186.4884186  15.9631672
  70.0310135 182.3195038  21.9852657  71.1743393 181.9991608  22.2802753
  69.3183899 182.8250122  22.9777527  68.4540558 183.3162842  22.7997417
  69.9022903 183.0084534  24.3620739  70.7314758 183.6863556  24.1595783
  68.8400650 183.7891846  25.1851463  68.3621445 184.5513000  24.5696259
  68.0985184 183.0757904  25.5446968  69.4331131 184.5518036  26.3948231
  69.8124542 183.7824707  27.0673904  70.2591782 185.1470032  26.0056515
  68.3691406 185.4665375  27.1186752  68.8402557 185.8618164  28.0186291
  68.0887527 186.3653717  26.5695133  67.1540833 184.6537933  27.4962387
  67.2784653 183.7417297  27.9119091  65.9849319 185.1461945  27.7462082
  65.5789185 186.3467407  27.4004345  66.2097626 186.9223633  26.8611908
  64.6348648 186.6891022  27.5084133  65.0166321 184.3895264  28.2426758
  65.2752228 183.5277710  28.7016106  64.0869370 184.7580414  28.3839531
  70.4846954 181.7557220  25.0149403  71.4721298 181.8535004  25.7079811
  69.9103622 180.5712433  24.7313747  69.0246811 180.5386353  24.2470112
  70.5358582 179.2818146  25.0093174  70.9624863 179.3483276  26.0101490
  69.4413605 178.1816559  25.0168552  68.5477600 178.5043030  25.5511570
  69.1604691 178.0170441  23.9766159  69.9079285 176.8207245  25.5141068
  69.2027893 176.0418243  25.2239399  70.7746582 176.5283661  24.9212914
  70.2299652 176.7941895  26.9687557  69.3978500 176.5719147  27.7868309
  71.4870911 177.0194244  27.3133183  71.6885452 177.1239166  28.2974911
  72.1679077 177.0338287  26.5674076  71.7176514 178.9413757  23.9850731
  72.7517929 178.3642731  24.3764706  71.5343323 179.1802521  22.6428356
  70.7230988 179.7154236  22.3679047  72.5247040 178.7550354  21.6171227
  72.6944962 177.6864624  21.7491131  72.0316010 178.9074554  20.1502628
  72.0020447 179.9863892  19.9980755  72.7667236 178.3913422  19.5327625
  70.6661835 178.3584290  19.7509747  69.8862534 178.8604279  20.3235188
  70.3367996 178.7374420  18.3186436  71.1560745 178.3726807  17.6991005
  69.3959503 178.3741455  17.9052353  70.3074265 179.8191681  18.1878586
  70.6427689 176.7994385  19.9978447  70.7360382 176.4693298  21.0324669
  69.7183990 176.4624481  19.5287018  71.4583206 176.3506012  19.4308243
  73.9056931 179.5277252  21.6929550  75.0130615 178.9873657  21.4713078
  73.8584442 180.7849274  22.1532593  72.9689636 181.2127686  22.3674393
  75.0770874 181.6078186  22.4160671  75.7217102 181.4384155  21.5535908
  74.8029404 183.1141815  22.5459175  73.9663391 183.1903534  23.2404575
  75.6588135 183.5271301  23.0798321  74.5715332 183.8834686  21.3104267
  75.5398026 184.6203003  20.5679932  74.8800659 185.1424408  19.4798603
  75.2770691 185.8232727  18.7414436  73.5365372 184.9351807  19.6068134
  72.9006195 185.1821289  18.8620186  73.3508911 184.0188904  20.6837978
  72.4511795 183.4922028  20.9657917  76.0296631 181.0288696  23.4924183
  77.2674789 181.1687622  23.3144360  75.4868011 180.4196930  24.5239506
  74.4863815 180.4284058  24.6624794  76.2592087 179.7933044  25.5376740
  77.0763168 180.4152527  25.9032078  75.4283676 179.4019012  26.7601929
  74.5434189 178.8708649  26.4095306  76.0126114 178.7318726  27.3909397
  74.8729324 180.5297852  27.6849194  74.6872101 181.3927612  27.0454788
  73.8881989 180.2716675  28.0745049  75.7037201 180.8218536  28.9458084
  76.4402084 181.8582611  28.8741264  75.6031113 180.0870972  29.9703560
  76.9386673 178.4924469  24.9813862  78.0794449 178.1801758  25.3721008
  76.3245926 177.7165833  24.0786858  75.3843307 177.9263916  23.7753925
  76.9572449 176.4981689  23.5167980  77.5177994 175.9888306  24.3006763
  75.9253082 175.5784302  22.8271637  75.3913269 176.2983398  22.2069130
  76.4800644 174.8599548  22.2237225  74.8643494 174.9051666  23.6872463
  75.0623474 174.5379181  24.9406414  75.9492035 174.7679901  25.5124397
  73.9300461 173.8857117  25.4518108  73.8962479 173.4928589  26.3816586
  72.9861145 173.8075562  24.4448128  71.6792908 173.3273773  24.4320374
  71.2613678 172.9296875  25.3450451  70.8971634 173.2837372  23.2370338
  69.8645020 172.9713440  23.2862625  71.4557266 173.7857056  22.0318413
  70.9166031 173.7445221  21.0969353  72.7450409 174.3531036  22.1083889
  73.1620407 174.7308655  21.1865330  73.5405579 174.4016876  23.3286991
  77.9833984 176.9613647  22.5399494  78.8401260 176.1707764  22.1416149
  77.9140167 178.2042999  22.0070953  77.1694031 178.8012238  22.3377380
  78.7646027 178.7568970  20.9134789  79.7023926 178.2069702  20.9924145
  78.1054382 178.5759430  19.5580692  77.6712112 177.5778961  19.6169167
  77.2762299 179.2707520  19.4248486  79.0390625 178.5971069  18.3816242
  80.1989975 179.0718079  18.5401993  78.6509094 178.2282257  17.2801094
  79.1203461 180.2268066  21.1512222  78.5649490 181.1632538  20.6715832
  80.1501770 180.4197998  21.9667530  80.5974426 179.5843506  22.3161507
  80.6352615 181.7395630  22.5008564  79.8113174 182.3112335  22.9279728
  81.6588287 181.4098358  23.6356964  82.5051575 180.8363037  23.2577057
  82.1656876 182.3455658  23.8715477  81.1327591 180.6769104  24.8288479
  81.6046753 181.0193329  25.7497978  80.0594254 180.8578033  24.8866272
  81.2969818 179.1217804  24.7409019  81.4287262 178.5753021  23.6069317
  81.5103302 178.5363007  25.8335705  81.3529510 182.6463318  21.4111366
  81.7760544 183.7031250  21.7745037  81.4941254 182.1525574  20.1949425
  81.1135330 181.2179108  20.1539021  81.9963226 182.8457642  19.0066833
  82.2522049 183.8318787  19.3942642  83.3323746 182.2694244  18.4541759
  83.2593079 181.1824799  18.4179134  83.4833908 182.5150909  17.4030113
  84.5137711 182.5854950  19.3700275  85.0583115 181.6423187  19.9361305
  84.9040146 183.8569641  19.5848656  85.5128403 184.0399323  20.3696861
  84.4208450 184.6241150  19.1397419  80.9158707 183.1340790  17.8680077
  81.2751007 183.5019531  16.7664604  79.6219788 182.7967377  18.1183701
  79.3696136 182.5291901  19.0590210  78.5876541 182.7880554  17.0897427
  79.0190353 182.3437347  16.1927471  77.5141449 181.8727264  17.4761620
  78.0222549 180.9091187  17.5131207  77.1256409 182.1123810  18.4659767
  76.3677521 181.7730408  16.4728165  76.7086868 181.9835663  15.4591408
  75.7851028 180.3572235  16.3861313  75.1342087 180.1701355  17.2401981
  75.1837769 180.2322540  15.4856358  76.5770111 179.6105042  16.4443760
  75.2076111 182.6541290  16.8602409  75.5285339 183.6876221  16.9906769
  74.3937912 182.5754395  16.1394005  74.7739182 182.4011688  17.8277225
  78.2022858 184.1725311  16.6904907  77.6243591 184.9553833  17.4872189
  78.3710938 184.4954834  15.3990393  79.0012283 183.9364777  14.8417711
  77.5378418 185.5021820  14.6864548  77.2242508 186.2617188  15.4026060
  78.4697723 186.0355835  13.5012217  78.8670044 185.1934357  12.9345579
  77.9589691 186.6753387  12.7815828  79.6296310 186.7644958  14.1888304
  79.2171936 187.6649323  14.6440229  80.0601730 186.1407776  14.9722328
  80.7927780 187.1589203  13.2182693  81.6438599 187.4758148  13.8210459
  81.0355530 186.2750549  12.6284065  80.4337006 188.2511902  12.1669512
  81.1918106 188.4006042  11.3981581  79.6233902 187.9595947  11.4987659
  80.1105957 189.5904846  12.8276510  80.8830109 190.0087891  13.3261585
  79.7064056 190.2767487  12.2065382  79.4476700 189.3327484  13.5447226
  76.3174515 184.9227142  14.0638361  76.3925705 183.8221130  13.5470123
  75.2029266 185.6176453  14.2384644  75.1696396 186.5081940  14.7137690
  73.9182663 185.1414642  13.7264729  73.6993408 184.2079315  14.2448235
  72.8146133 186.0745544  14.2825050  72.9566269 187.0722809  13.8672142
  71.8785782 185.6616211  13.9064369  72.6377945 186.2576447  15.7961884
  73.6681366 186.0935364  16.5120163  71.4864883 186.5207520  16.2143383
  73.7984009 184.8985443  12.1525984  72.8556061 184.2295227  11.7948828
  74.7420578 185.3007507  11.2948151  75.6242371 185.5581665  11.7138596
  74.6330643 185.0954895   9.8327589  73.7518539 185.6206818   9.4643135
  75.7225647 185.8235474   9.0312033  76.5650787 185.1351166   9.0970478
  75.4577942 185.8879852   7.9758148  76.0955582 187.2365875   9.6240282
  76.7384796 187.1342621  10.4982643  76.6040878 187.6831360   8.7695675
  74.8539276 188.0662689   9.9562750  73.9820023 188.1936035   9.0350704
  74.8420105 188.6601257  11.0851984  74.5555420 183.6269379   9.3640032
  73.9427872 183.1844482   8.4237175  75.1196594 182.7222290  10.1900797
  75.4649506 182.9841003  11.1023798  75.1528778 181.2301941   9.9451132
  75.2608337 180.9659882   8.8931417  76.3590240 180.7183990  10.7367258
  76.5714188 179.6653900  10.5518789  77.2209473 181.2972107  10.4048157
  76.0929337 180.9504852  12.0977955  76.8854752 180.7382355  12.5962095
  73.7689056 180.4873810  10.3481560  73.6636963 179.3146210  10.0445175
  72.8953094 181.1563110  11.0929785  73.1478653 182.1276398  11.2062807
  71.5490417 180.7338104  11.5141144  71.4302979 179.6536102  11.4294062
  71.3443146 181.0881348  12.9806986  71.4996262 182.1670074  12.9852314
  70.3953629 180.7943115  13.4293222  72.4481125 180.6368256  13.9575424
  73.3212585 181.2781677  13.8375578  72.0841675 180.7965393  15.4323082
  71.2566528 180.1323395  15.6816454  72.8272400 180.4471436  16.1491508
  71.6436615 181.7685089  15.6544237  72.8172455 179.1214294  13.7609415
  73.2606125 178.9655151  12.7774696  73.5680084 178.8502655  14.5031910
  71.9350662 178.4944611  13.8904390  70.3978500 181.3081512  10.7039900
  70.4024811 182.4899445  10.5568447  69.3966293 180.5393219  10.2364244
  69.3916245 179.0830688  10.1644592  69.2123947 178.6625977  11.1539898
  70.3482285 178.7275848   9.7815256  68.2593079 178.7627869   9.1845675
  67.7489014 177.8374634   9.4517307  68.7005920 178.7572327   8.1879063
  67.3055573 179.9436340   9.3007612  66.6071548 179.7416534  10.1128788
  66.7658310 180.1773987   8.3830719  68.2568512 181.1053925   9.5442610
  68.7279892 181.4819031   8.6363115  67.5209732 182.2449493  10.3392973
  67.0647583 182.0652008  11.4878960  67.3142242 183.3992310   9.7113199
  67.7158966 183.4324493   8.7852249  66.3785400 184.4325714  10.1318960
  66.6168213 184.5780487  11.1855373  66.5599442 185.7151642   9.3263054
  65.7337646 186.3426819   9.6605997  67.8440247 186.4504089   9.7089252
  68.7501984 185.8647919   9.5540094  67.9989319 187.3052521   9.0506201
  67.6979446 186.8330994  10.7190332  66.4930344 185.6549530   7.8685956
  66.0310364 186.4293976   7.5393448  64.9106140 184.0779266  10.0000467
  63.9811935 184.6756134  10.5936832  64.6163635 182.9717865   9.3027515
  65.3192978 182.5247040   8.7316990  63.2370567 182.5560303   9.1214285
  62.6014671 183.4410095   9.1521873  63.2075157 181.9465637   7.6877794
  63.6864967 182.5197601   6.8939757  63.7333488 180.9935303   7.7454214
  61.8181419 181.7798157   7.2390971  61.0262184 182.7439880   7.2444663
  61.3948860 180.6952667   6.6245232  60.5169334 180.7884216   6.1339908
  62.0655479 179.9921265   6.3490300  62.8650780 181.5194855  10.1864548
  63.7059250 180.6463165  10.3844528  61.6905518 181.5142822  10.8818512
  60.5994873 182.4963379  10.8125286  60.2131195 182.7253113   9.8193579
  60.9740562 183.4523315  11.1784277  59.5452652 181.9577942  11.7847967
  58.8456879 181.2182922  11.3951635  58.9222183 182.7614441  12.1773014
  60.4166565 181.2625580  12.8389215  59.7837906 180.6052856  13.4352207
  60.8612709 182.0102386  13.4957304  61.5619431 180.6657257  12.0749683
  62.3742485 180.8047333  12.7883682  61.3875656 179.2210999  11.7695198
  61.8308372 178.3143005  12.4827280  60.8699722 178.9053497  10.5237427
  60.6425934 179.6645050   9.8975821  60.6372414 177.5579224  10.0116282
  59.9812851 176.9387817  10.6235714  59.9731903 177.7368927   8.6598291
  60.5438957 178.4608917   8.0782537  59.8968773 176.5050964   7.8331265
  59.4243011 175.7531891   8.4651289  59.2903404 176.5739899   6.9300928
  60.9206429 176.2072296   7.6066732  58.4621696 178.2197571   8.7610207
  57.8046913 177.7665100   8.0191383  58.0032196 177.8923035   9.6938906
  58.3465881 179.7527161   8.4887590  58.4812889 179.9264526   7.4211593
  57.3502502 180.0828094   8.7827787  59.1651764 180.2737885   8.9852591
  61.9343529 176.8143463   9.8886538  62.1446648 175.7276459  10.4582624
  62.8815575 177.3154907   9.0726042  62.6433983 178.0854492   8.4638910
  64.1974335 176.7378387   8.8995657  64.1104279 175.7208862   8.5170240
  65.0205917 177.5082092   7.7652121  65.3102493 178.4258423   8.2772083
  65.9187546 176.9472961   7.5067692  64.2574539 177.9331055   6.5161424
  63.1925087 178.5278015   6.6144409  64.8936081 177.8861542   5.3912501
  65.0727539 176.7227936  10.1357269  65.8793564 175.7739716  10.3044605
  64.9305420 177.6594238  11.0775957  64.2461472 178.3843994  10.9159651
  65.6151047 177.7337952  12.3320370  66.6903076 177.5715942  12.2563171
  65.4299850 179.1297760  12.9091969  65.7605972 179.9152527  12.2296209
  64.3738403 179.3946533  12.9591389  65.9934616 179.3544617  14.2640600
  65.2448273 179.0872040  15.3876143  64.2767410 178.6142426  15.3133802
  65.7153702 179.4093018  16.6878242  65.1071091 179.2111053  17.5579529
  67.0615768 179.9076843  16.8097401  67.4263687 180.0058899  17.8215122
  67.8482208 180.1122589  15.6485615  68.8822250 180.4099731  15.7412243
  67.3181610 179.8265076  14.4115038  67.9723434 179.9870148  13.5673018
  65.1292496 176.7333832  13.3844557  65.8805847 176.1252289  14.1122398
  63.7864990 176.5794830  13.4788609  63.1065216 177.0410919  12.8917933
  63.2877045 175.5536957  14.3200626  63.7306480 175.6113434  15.3143349
  61.7802620 175.7462006  14.5258865  61.3617096 175.1943512  15.3675442
  61.5866623 176.7880249  14.7812157  61.1287079 175.5004272  13.2960939
  60.9880867 176.3550873  12.8821135  63.6798286 174.1725616  13.7351475
  64.0238037 173.3018036  14.5188637  63.6902122 173.9428864  12.3905058
  63.4018402 174.6908417  11.7761040  64.1758575 172.6553650  11.7799768
  63.5624542 171.9107056  12.2872543  63.8221893 172.6218414  10.3310938
  64.1317825 173.5286865   9.8115988  64.3901596 171.7548676   9.9936495
  62.3736420 172.2512817   9.9270430  61.8396568 171.0425110  10.4466066
  62.4019928 170.4901581  11.1849070  60.5853539 170.5691223  10.1071215
  60.0229416 169.7928467  10.6045942  59.8756447 171.3473206   9.2240086
  58.6091194 170.9867401   8.8291302  58.0662918 171.7332611   8.5652304
  60.3355904 172.5108643   8.5811577  59.7280006 172.9965820   7.8319492
  61.6293869 172.9549561   8.9697409  62.0124741 173.8982239   8.6093378
  65.6312180 172.4402771  12.1525745  65.9575577 171.4090881  12.7308187
  66.5894165 173.3998108  11.9437857  66.2960052 174.1767883  11.3690605
  68.0368271 173.4177094  12.3629074  68.6119385 172.6788940  11.8048029
  68.6421051 174.8750000  12.1705866  68.5580826 175.1041107  11.1082535
  68.1310043 175.6987610  12.6688890  70.0818253 174.9458771  12.6913624
  70.3716125 175.9889374  12.5642977  70.1826782 174.7372589  13.7564497
  71.0995483 174.0704498  11.9491758  72.1051178 174.2014008  12.3489017
  70.8237686 173.0259247  12.0941401  71.0648041 174.3454895  10.5363789
  70.3339005 173.9078522   9.9938402  71.8887024 175.1603241   9.8402157
  72.9039001 175.8411255  10.3722048  73.1234512 175.8624878  11.3578234
  73.4709625 176.4050903   9.7553663  71.7231140 175.3761444   8.5794582
  70.9529343 174.9521332   8.0823240  72.4370728 175.8387604   8.0350828
  68.2174530 173.0141144  13.9231968  69.0846710 172.2028198  14.2252941
  67.2854919 173.3900452  14.7950878  66.7425537 174.1696320  14.4522371
  67.3200378 173.0290985  16.2759609  68.3218155 172.9930115  16.7040329
  66.5028076 174.1375580  17.0025444  65.6229248 174.4338837  16.4314976
  66.2098770 173.7931976  18.4810333  67.0153885 173.2423706  18.9666500
  65.9321823 174.7423706  18.9393387  65.3930359 173.0727081  18.5230999
  67.4902878 175.3748322  17.0657043  67.4949417 175.8148499  16.0684719
  67.1212082 176.1011353  17.7898464  68.5387268 175.1359558  17.2440262
  66.7066650 171.6439667  16.5265770  67.1905441 170.9025879  17.3651810
  65.5722733 171.3029785  15.8364401  65.1663132 171.9328308  15.1592560
  64.9166870 169.9883881  15.9490099  64.8075180 169.8074799  17.0183353
  63.5155296 170.1026001  15.3475094  63.5948601 170.4805298  14.3281984
  63.0092430 169.1373749  15.3579302  62.9566193 170.8718262  15.8804445
  65.8177032 168.8871918  15.3696194  65.6324692 167.7214508  15.7806559
  66.7930603 169.2077026  14.5033302  66.7889938 170.1161499  14.0619583
  67.7864914 168.2909241  14.0219250  67.3524017 167.3582916  13.6615610
  68.4519653 169.0254974  12.8258162  68.6923828 170.0487671  13.1143084
  69.3729095 168.4931183  12.5880651  67.8093338 168.9287415  11.9507370
  68.7914505 167.9649963  15.0909567  68.9294968 166.8163452  15.4907179
  69.4491806 168.9723358  15.6744909  69.1235428 169.9197083  15.5458469
  70.6310730 168.9189301  16.5696869  71.3249512 168.1012115  16.3747959
  71.4474792 170.2046051  16.3453999  72.3130417 170.2263184  17.0075397
  71.8049698 170.2814026  15.3185577  70.6089325 171.7025757  16.7408314
  70.5739365 172.2887573  15.5408058  70.2905807 168.7332764  18.0747833
  71.1446991 168.5869141  18.9669724  69.0178757 168.7488403  18.4878006
  68.2568359 168.9511566  17.8553581  68.5908127 168.5229797  19.8756676
  69.1021347 169.2263031  20.5329304  67.0843887 168.8927155  20.1027908
  66.5032654 168.7545013  19.1910362  66.6852570 168.1724091  20.8169060
  66.7691956 170.3491821  20.5433140  67.3442612 171.0915070  19.9898014
  65.3050385 170.6944580  20.4111729  64.6720352 169.9429474  20.8830166
  65.2500610 171.6886749  20.8545914  65.0670929 170.7577515  19.3493462
  67.0775070 170.5666504  22.0560379  68.1466293 170.4763184  22.2481594
  66.8079758 171.5854492  22.3344612  66.6115036 169.8148041  22.6929569
  68.9432373 167.1292572  20.4581280  68.5381927 166.0815430  19.8822441
  69.5757675 166.9796295  21.6155491  70.4234390 168.0365906  22.1511745
  69.9171371 168.9459686  22.4748859  71.0902481 168.3941040  21.3665276
  71.1729050 167.3844147  23.2623177  70.5561447 167.4579926  24.1580276
  72.1185074 167.9158478  23.3696461  71.2655563 165.9638824  22.9302826
  71.3551559 165.4327850  23.8779125  72.1875763 165.7239227  22.4007626
  69.9754791 165.6941681  22.2026749  70.3114319 165.0252380  21.4103527
  68.8865204 165.0397339  23.0897141  68.8597870 165.1488647  24.3382053
  68.0181656 164.3481293  22.4116955  68.0706100 164.3344727  21.4031506
  66.7925720 163.6656952  22.9810867  66.8736191 163.5430908  24.0611343
  65.5377884 164.4602509  22.6211834  64.6495972 163.8308563  22.6765823
  65.4561386 165.6825714  23.5635643  66.1452713 166.5034332  23.3650837
  64.4688568 166.1429749  23.5261822  65.6733017 165.3620148  24.5824757
  65.6051941 165.1171112  21.2178020  66.3569107 165.9016724  21.1312599
  65.8413696 164.3259430  20.5061874  64.2193909 165.6705475  20.8625450
  64.0122833 166.6027679  21.3880711  64.1677933 165.9253540  19.8040009
  63.5285378 164.8344116  20.9706650  66.7087936 162.2033997  22.4697628
  67.4218750 161.8459778  21.5265999  65.7908859 161.4644623  23.0862007
  65.1958237 161.8279114  23.8168907  65.3646622 160.1659546  22.5242004
  66.2884521 159.6171875  22.3409729  64.6669006 159.3436890  23.6513367
  64.4759445 158.3181610  23.3352146  65.4025726 159.2127380  24.4449043
  63.4112816 160.0047302  24.1286659  63.3225479 160.4582062  25.3106747
  62.4511833 160.0473480  23.2984219  64.5269852 160.2160645  21.2499523
  64.1153793 161.2676392  20.8181496  64.4006653 159.0649261  20.6581955
  64.7752838 158.2286530  21.0829582  63.6393433 158.9364014  19.3842335
  63.8978233 159.7887115  18.7558613  63.9100838 157.5978088  18.6275864
  63.6918335 156.7947845  19.3315964  63.3134499 157.4521332  17.7270832
  65.3443222 157.4837799  18.1204586  65.9163818 158.5324402  17.7632847
  65.8689041 156.3802338  17.9562645  62.1104965 159.1677856  19.5444260
  61.4543381 159.7389374  18.6650028  61.5009232 158.7869263  20.6717720
  62.0182037 158.4069977  21.4516277  60.0094528 158.8390198  20.8144379
  59.6072159 158.4977722  19.8605709  59.5460091 157.7977295  21.8427734
  59.9329338 158.0815887  22.8214569  58.4591980 157.8684998  21.8867722
  59.8378143 156.7726898  21.6142426  59.5466385 160.3565521  21.0397606
  58.5294189 160.7459564  20.4345913  60.3993263 161.2168274  21.6531658
  61.1577492 160.8017578  22.1752949  60.4056511 162.6486359  21.6470070
  59.4123116 163.0462494  21.8550358  61.3919106 163.1273041  22.7172184
  61.1813660 162.5203857  23.5977917  62.4107590 162.9866638  22.3562908
  61.1452103 164.5562439  23.2425842  61.4566994 165.3162994  22.5260715
  59.7156563 164.8481598  23.6869869  59.4491501 164.0605164  24.3917351
  59.6645508 165.8402252  24.1356602  59.0018272 164.7431641  22.8699665
  62.0558205 164.6633606  24.4922581  63.0873337 164.4004517  24.2578201
  61.9342003 165.6878052  24.8441544  61.6068420 164.0578003  25.2795448
  60.7270966 163.1566162  20.2715511  60.0155907 164.1250000  19.9615574
  61.7019081 162.6702881  19.5139027  62.2524261 161.8765106  19.8087482
  62.0103760 163.2254486  18.1614151  61.9923019 164.3123169  18.2418900
  63.3573151 162.7937012  17.5811577  63.3559418 161.7040405  17.5538597
  63.4340515 163.1107025  16.5410976  64.5355301 163.3880157  18.3731308
  64.6426544 164.4597473  18.2056885  64.3591385 163.2875977  19.4440651
  65.8716507 162.8153687  18.0538216  66.6296616 163.1042480  18.7818813
  65.7526016 161.7322388  18.0811901  66.3677673 163.1040802  16.6456547
  66.2449265 162.3137970  16.0288353  67.1394272 164.0185394  16.2660313
  67.6072083 164.9645844  17.0271072  67.2381363 165.2243805  17.9306545
  68.1316757 165.6804810  16.5448818  67.4856567 164.0465851  14.9948244
  67.1442032 163.3768311  14.3203344  68.2290573 164.6748352  14.7250900
  60.8423920 162.8594513  17.1600151  60.6429138 163.6625824  16.2198009
  59.9663391 161.8343964  17.3691292  60.1674080 161.0781097  18.0076370
  58.7162819 161.6102905  16.7171593  58.9420815 161.6068268  15.6508064
  58.1208992 160.1999359  17.0231037  58.0599556 160.1577911  18.1105824
  56.6602478 160.0793762  16.5230656  56.5608673 160.1086426  15.4380016
  56.2123413 159.1533051  16.8834763  56.0317307 160.8936005  16.8837700
  58.9343834 159.0323792  16.3610744  58.9668694 159.0741272  15.2723579
  59.9743271 159.1490326  16.6660595  58.4891472 157.6510315  16.8265285
  57.5769539 157.3761597  16.2969551  59.1960411 156.8643951  16.5627136
  58.2898216 157.6659088  17.8980446  57.7049675 162.7215729  17.0821533
  57.0767250 163.2242279  16.1877117  57.5314217 163.0224915  18.3952675
  58.0520439 162.5491791  19.1198521  56.6809425 164.1623230  18.7968750
  55.7132072 163.8622742  18.3949356  56.6123314 164.4313965  20.3344593
  57.5056496 164.8201752  20.8232613  55.8669167 165.1781464  20.6079597
  56.3175125 163.2717285  21.1993027  57.2402954 162.6944122  21.2566509
  55.9874191 163.5761871  22.1924992  55.3321037 162.2758484  20.5858784
  54.2949524 162.6738129  20.0751839  55.6083832 160.9770813  20.5368462
  54.8165169 160.4327850  20.2257309  56.4824295 160.6071625  20.8822575
  57.1936874 165.4353943  18.0736237  56.5079155 166.0077820  17.3110027
  58.4356194 165.9488831  18.3743191  58.8925934 165.5241547  19.1685944
  59.0190659 167.1216888  17.7377796  58.4402466 167.9852753  18.0653496
  60.4049072 167.2680817  18.2671394  60.3642159 167.0032654  19.3236980
  60.9329491 166.5032501  17.6976719  61.0852928 168.6565552  18.1574097
  61.1474266 168.9362030  17.1057281  60.2830162 169.7662354  18.8147049
  60.1682053 169.5548401  19.8778248  60.7961655 170.7271271  18.7765007
  59.3391457 169.9213257  18.2920666  62.4473610 168.6500244  18.7279663
  63.1384621 167.9434357  18.2683811  62.9505043 169.6095428  18.6085262
  62.5209236 168.3503723  19.7733860  58.9998627 167.0737152  16.1935730
  58.6686172 168.0279541  15.5228062  59.2794189 165.9491577  15.4919243
  59.5630684 165.1685028  16.0665836  59.0301208 165.7942047  14.0464449
  59.5077057 166.6004791  13.4897156  59.4621506 164.3863678  13.5734682
  60.5242043 164.2299500  13.7623396  58.9263802 163.6627197  14.1877956
  59.1371307 163.8795776  12.1567631  58.0610390 163.7985992  12.0032473
  59.7126045 164.8438110  11.1675119  60.7791252 164.7238922  10.9771252
  59.1686974 164.6445312  10.2441740  59.5944290 165.8979492  11.4184122
  59.7925606 162.5264587  12.0254030  59.4045181 161.8390350  12.7770548
  59.5246468 162.1088104  11.0548944  60.8696976 162.6257477  12.1596451
  57.5438194 165.9368286  13.6262169  57.2229538 166.3788910  12.5142689
  56.5757561 165.5651093  14.5033455  56.7393875 165.2239685  15.4398041
  55.0917740 165.6696930  14.1285439  54.9553986 165.2456207  13.1337271
  54.2457809 164.8885193  15.0856247  54.6522408 164.9920502  16.0916939
  53.2357178 165.2966003  15.0489769  54.1098404 163.3894196  14.7454338
  53.3980293 163.3163605  13.9231873  55.0590858 162.9695892  14.4125986
  53.4581261 162.7205505  16.0133781  54.2999077 162.2905426  16.5561581
  53.0067520 163.4350891  16.7017059  52.4229126 161.6297760  15.5989761
  51.5275459 162.1532898  15.2637930  52.8170204 161.0520172  14.7629223
  51.9911346 160.7931824  16.7425022  51.3782425 161.1906586  17.4399872
  51.5409050 159.9815826  16.3441200  52.7999535 160.4629669  17.2493229
  54.5646706 167.0497437  13.9685135  53.5048561 167.1408234  13.3218613
  55.2004623 168.0698700  14.5710077  56.1127319 167.8478851  14.9432955
  54.4852180 169.2419739  15.0384235  53.5675201 168.8825989  15.5040321
  55.2906342 169.9568634  16.1536388  56.2229767 170.2897949  15.6975727
  54.5430336 171.2117310  16.5593185  53.5323639 170.9035339  16.8270206
  54.9652901 171.6248169  17.4753742  54.4882698 171.9837799  15.7918253
  55.6900139 169.0872803  17.3550606  56.2110481 168.2439117  16.9019089
  56.4671097 169.6131744  17.9097347  54.5673180 168.5821991  18.2898350
  53.7077942 168.1928253  17.7442036  55.0434647 167.8083496  18.8919563
  54.2065048 169.3918610  18.9241467  54.2079048 170.1902466  13.8228111
  55.0502701 170.4704285  12.9551210  52.9806862 170.7085876  13.8065023
  52.4023056 170.4938354  14.6061621  52.3556290 171.4192047  12.7002630
  52.1904297 170.8103485  11.8113794  51.3442116 171.5570221  13.0825520
  52.9880180 172.7599945  12.2880716  53.3826027 172.8407440  11.1036530
  53.0449028 173.7084351  13.2093611  52.6676140 173.5030365  14.1234550
  53.7402573 174.9575348  12.9269686  53.9999504 175.0038300  11.8693695
  52.8004951 176.1090851  13.4449835  51.8406944 176.0450439  12.9323673
  52.4867783 175.9651031  14.4788837  53.2844696 177.3614502  13.0219965
  53.0517349 177.4695435  12.0969286  55.1106567 175.1381226  13.6952295
  55.2349167 174.7960510  14.8853617  55.9976845 175.9614105  13.1117487
  55.8424339 176.0930634  12.1224737  57.2527885 176.3485565  13.8119011
  57.8344460 175.4510345  14.0222139  58.0794220 177.1813202  12.8384113
  57.5486641 178.1059418  12.6115637  58.9986725 177.5033264  13.3276844
  58.3041878 176.7529907  11.8616209  56.9395981 177.0524902  15.1706114
  57.7330093 176.9513702  16.0523643  55.8222237 177.7679291  15.3015175
  55.1634712 177.8656158  14.5421724  55.4491272 178.4062347  16.5563354
  56.2948456 179.0164337  16.8733768  54.2173309 179.3732758  16.2595081
  53.6153603 179.0037384  15.4293461  53.3600464 179.4877319  17.5531597
  53.9352112 179.7848816  18.4300785  52.5175705 180.1782074  17.5135193
  52.8986168 178.5231934  17.7649765  54.7984772 180.7202759  15.8056059
  55.4262199 181.1930542  16.5609360  55.4392090 180.4979858  14.9522905
  53.7831268 181.6782532  15.2576895  52.9730759 181.8248138  15.9721403
  54.2205086 182.6651001  15.1062355  53.4692574 181.3902130  14.2543850
  55.2315903 177.3320923  17.6756535  55.8228912 177.3580933  18.7024269
  54.4981346 176.2637329  17.3959694  54.0065880 176.2671204  16.5136585
  54.3496933 175.0541992  18.2665901  54.0335808 175.3785400  19.2580414
  53.3357658 174.1605835  17.6238422  53.7492180 173.8383484  16.6681614
  53.2833405 173.2954407  18.2848225  51.8805771 174.5329590  17.4258957
  51.4736328 174.6360931  18.4318085  51.8788567 175.5186920  16.9606915
  51.0164299 173.6123047  16.5255814  51.4548416 173.0733643  15.5793085
  49.7384682 173.5269470  16.8390751  49.1117744 173.0384827  16.2155647
  49.3103027 173.9909668  17.6274109  55.6852570 174.3040314  18.4831581
  56.0931740 173.9794922  19.5725403  56.4269562 174.0294342  17.3730488
  56.0682487 174.2541046  16.4560146  57.7342072 173.3714600  17.4524517
  57.5581131 172.3442078  17.7715969  58.2109909 173.2656860  15.9711628
  57.2786751 173.0412903  15.4529581  58.7305450 174.1723480  15.6610918
  59.2819710 172.1257019  15.6921091  60.2597809 172.3974762  16.0897522
  59.0068398 171.2429504  16.2693081  59.2422600 171.5938110  14.2718897
  59.9087753 170.7337952  14.2066746  58.3210373 171.0509186  14.0603971
  59.5484047 172.6039276  13.2832518  60.3638649 173.1646576  13.4850550
  58.8604546 172.8915558  12.2123480  57.7574730 172.3117981  11.7756815
  57.3605080 171.4859467  12.2005434  57.4475098 172.6460266  10.8744011
  59.2530136 173.9252930  11.5069065  60.1500626 174.3190613  11.7525663
  58.6815109 174.2456055  10.7382154  58.6617355 174.1503906  18.4133739
  59.1984329 173.5236511  19.3580551  58.7959213 175.4290924  18.1928272
  58.2817650 175.9046478  17.4651012  59.5319939 176.3378143  19.1047001
  60.5655060 175.9915466  19.1113167  59.5185623 177.7591553  18.5064449
  58.4940605 177.8583069  18.1477413  59.7123680 178.4727631  19.3072529
  60.4492798 177.9148712  17.2665520  60.2861404 177.0479431  16.6262951
  60.0416451 179.2428894  16.5694618  60.4162941 180.1032715  17.1239815
  60.4967995 179.1364136  15.5847807  58.9708633 179.3861694  16.4245491
  61.9170113 178.1471710  17.5883522  62.1405754 177.3764343  18.3259773
  62.5299644 178.0509338  16.6921787  62.0824966 179.1693420  17.9287395
  59.0031357 176.3815613  20.5824757  59.7753677 176.4495392  21.5616436
  57.7143059 176.1546783  20.8764610  57.1042290 175.9795990  20.0908089
  57.1533890 175.9903107  22.2577343  57.4871254 176.8359222  22.8591061
  55.5830421 175.9268188  22.2561436  55.1525154 175.2302399  21.5367470
  55.3340225 175.6183929  23.2715073  55.0625954 177.3204193  21.9511471
  55.2871246 178.0585175  22.7211514  55.5295448 177.6870270  21.0370026
  53.5246925 177.3008575  21.6511269  53.1159782 178.2784882  21.3956070
  53.2963562 176.7026672  20.7690105  52.7801170 176.7775726  22.8525772
  52.3607521 175.8713074  22.7012177  52.6501160 177.2533569  24.0454330
  53.0931892 178.4243774  24.4999104  53.4835396 179.0300446  23.7921829
  52.8396339 178.7553101  25.4198532  52.1709366 176.4309540  24.9512215
  51.9038811 175.5095215  24.6354065  52.2325630 176.5783081  25.9485130
  57.7254562 174.7182617  22.8640556  58.4086456 174.7488556  23.9492760
  57.6333885 173.6368103  22.1382217  57.0912132 173.7437897  21.2928219
  58.1923141 172.3258514  22.5937138  57.6401367 171.9704285  23.4636955
  57.8511314 171.3527527  21.4423065  56.9012909 171.5257721  20.9363708
  58.6360474 171.5962067  20.7262535  58.0905342 169.6185150  21.8893509
  57.0054665 169.4911194  22.6583061  59.7443352 172.3051910  22.8500347
  60.1594658 171.7357941  23.8697033  60.4699478 172.9613953  21.9452305
  60.0684204 173.1567993  21.0393105  61.8754005 173.2271423  22.1626797
  62.3970528 172.2700806  22.1658955  62.4462509 174.0490112  20.9893761
  61.8372002 174.9407196  20.8409328  63.4512825 174.3200226  21.3127422
  62.5262032 173.2967377  19.7475262  63.3729324 172.6142120  19.8204975
  61.7224998 172.5656433  19.6599274  62.6517487 174.1386719  18.4799385
  63.2712784 175.2265015  18.4496269  61.9719849 173.7331696  17.4797192
  62.1235733 173.9128723  23.5006313  62.8347206 173.3015594  24.3393021
  61.5774689 175.0756226  23.8162327  60.8125076 175.3989716  23.2414417
  61.7577858 175.7242584  25.1078663  62.8274918 175.8502350  25.2750740
  61.1003113 177.1614227  25.0787449  60.0771980 177.0710602  24.7138157
  61.0464973 177.5828705  26.0825291  61.9541855 178.0627594  24.1578369
  62.3273888 177.5133820  23.2935429  61.1739922 179.2295837  23.6159477
  60.7010345 179.8326721  24.3909969  61.8130569 179.8853912  23.0246544
  60.3964577 178.9895172  22.8907547  63.2067070 178.5059052  24.8622684
  63.6959572 177.6301880  25.2887115  63.8426971 178.9785614  24.1137905
  62.9471397 179.2794189  25.5850430  61.2559814 174.8663025  26.2658043
  61.7653885 175.0146637  27.4174271  60.2995605 173.9104156  25.9872341
  59.9219437 173.9960785  25.0544071  59.7623711 173.0074310  27.0517960
  59.6249619 173.5429840  27.9911633  58.3359222 172.5513763  26.5983028
  57.8291779 173.3703766  26.0878487  58.4312477 171.7971344  25.8171959
  57.3818932 171.9849396  27.6554470  57.6804543 171.9361725  28.8702755
  56.2529068 171.6449432  27.1557693  60.7477036 171.9260712  27.4397736
  61.0586739 171.7119598  28.5966969  61.4424095 171.3592682  26.4307156
  61.1940269 171.6245728  25.4883671  62.5812950 170.4455109  26.5056934
  62.3642616 169.6000671  27.1585579  62.8707848 169.8373566  25.0588341
  63.1103325 170.6191254  24.3380203  64.0958786 168.9524078  25.2601166
  64.0283279 168.2984467  26.1295185  64.2472153 168.2851105  24.4116402
  64.9779129 169.5805054  25.3851128  61.6542892 168.9919128  24.4341335
  61.5479164 168.0795288  25.0209370  60.7583961 169.6064758  24.5224552
  61.6900444 168.6083832  22.8996334  62.6229744 168.1290741  22.6029606
  60.8134003 167.9854584  22.7220116  61.6416359 169.5229645  22.3086281
  63.7759285 171.1436768  27.0926743  64.3560410 170.6216736  28.0077152
  64.2391663 172.2759247  26.6093082  63.6506310 172.6540527  25.8807850
  65.4816742 172.9904633  27.0231457  66.2790222 172.2603302  26.8844090
  65.6940231 174.2420502  26.0950317  64.7991104 174.8636322  26.1242237
  66.5345230 174.8331604  26.4586945  66.0255356 173.8644867  24.6480961
  66.8627243 173.1712494  24.5666008  65.1889801 173.2905884  24.2494488
  66.3569489 175.3736725  23.5680866  66.5936966 174.5675201  21.9810982
  65.6536560 174.2232361  21.5499344  67.0638885 175.3069611  21.3328342
  67.2894287 173.7344055  22.0810966  65.4637146 173.4774780  28.4847488
  66.5099106 173.6472321  29.0589390  64.2563705 173.6396179  29.0851326
  63.4066505 173.6022339  28.5404568  64.2552032 173.8272705  30.5534058
  65.1261520 174.3907928  30.8880482  62.9235497 174.4975281  30.9751377
  62.1822662 174.1252289  30.2680378  62.7851868 174.1955719  32.0133018
  62.9313698 176.0034485  31.0628624  63.7284317 176.7949677  30.5392609
  62.0893326 176.5708771  31.8662033  62.2259293 177.5651245  31.9797783
  61.4410667 175.9931335  32.3820190  64.3311386 172.4317169  31.2589912
  65.0312729 172.2642365  32.2634697  63.5651970 171.4476776  30.7886467
  62.8962898 171.6344757  30.0553207  63.4890099 170.1728973  31.5084457
  63.4173126 170.4140472  32.5690193  62.1980934 169.4488831  31.1502838
  62.0408363 169.5089264  30.0733604  62.2495270 168.4009857  31.4459133
  61.0529671 170.1110687  31.9129982  61.1645775 169.7070160  32.9191704
  61.1588364 171.1952820  31.8757286  59.7197647 169.8343506  31.2623825
  59.6578598 170.3443604  30.3010483  59.4834595 168.7885590  31.0659504
  58.6029968 170.5013733  32.1513176  58.6642990 169.9664612  33.0990639
  58.8981133 171.5413513  32.2907562  57.2845879 170.3368378  31.5657520
  56.8862457 169.4087219  31.5711632  56.5908318 170.9675751  31.9412117
  57.3300018 170.6165924  30.5963345  64.7090607 169.2262726  31.3043098
  64.9378128 168.3543396  32.1602631  65.4594650 169.3947144  30.2144852
  65.1578522 170.1190338  29.5784855  66.6706696 168.6587372  29.9647999
  66.5433197 167.6272888  30.2934551  67.0638809 168.8385468  28.4711971
  66.2033920 168.5590363  27.8633003  67.3566742 169.8560638  28.2123013
  68.4360046 167.7070160  28.2328606  67.9321518 166.8115234  27.3789883
  67.7920837 169.2942047  30.9110680  67.9463425 170.4923096  30.9979076
  68.4703293 168.3795471  31.6297436  68.2586746 167.4118805  31.4324570
  69.4529419 168.6698303  32.6829605  69.9242706 169.5986786  32.3616943
  68.8809967 168.9258728  34.1298370  69.7429962 168.9754791  34.7951202
  67.9937668 170.2152557  34.1708107  67.2212448 170.1350403  33.4060326
  67.4405746 170.2403107  35.1096649  68.6809158 171.0555115  34.0714417
  68.0487900 167.8118744  34.4858742  67.2395782 168.2327576  34.7852783
  70.5320663 167.5748749  32.7227287  71.5971603 167.8587952  32.2115250
  70.3189468 166.4178009  33.3196373  69.4648209 166.3673401  33.8563194
  71.2347031 165.2830048  33.3459969  72.2369156 165.6960602  33.4602547
  71.2627029 164.5818329  34.6993637  71.4914474 165.2355499  35.5410461
  70.2496948 164.2323303  34.8988152  72.0852890 163.4215088  34.5783615
  72.0067825 162.9798126  35.4270935  71.2564316 164.4044037  32.0017052
  70.1650085 164.1390533  31.4258308  72.3822937 163.7537079  31.7239285
  73.2138290 163.9166412  32.2735748  72.5311966 162.8169861  30.5759220
  71.5358200 162.5577240  30.2152119  73.3294220 163.6076813  29.4614944
  74.1233215 164.1234894  30.0016479  73.8499298 162.9040222  28.8118477
  72.5596542 164.6646271  28.7174091  72.0166321 165.3414307  29.3770885
  73.4896469 165.5546570  27.9047394  74.1948395 164.9417725  27.3433266
  72.7567062 165.9943237  27.2282867  74.0123520 166.2640991  28.5462761
  71.5264893 164.0021515  27.7255802  70.7715530 163.4085236  28.2411251
  71.0768433 164.7565765  27.0800095  72.0773468 163.3994293  27.0035133
  73.1847992 161.5288086  31.0101357  74.3986664 161.4076691  31.2530022
  72.3125305 160.5167694  31.1905403  71.3419037 160.6791992  30.9633598
  72.7394257 159.1927795  31.6770878  73.6581955 159.4230042  32.2164917
  71.6335373 158.7658844  32.6828003  70.6842117 158.7878723  32.1476402
  71.7556992 157.7052307  32.9023476  71.5892105 159.8899078  34.1022453
  70.7126389 159.2961578  34.9170914  72.9878006 158.2326813  30.5062714
  72.7499695 158.6029510  29.3195934  73.5140305 157.0236511  30.7971687
  73.6094589 156.7766571  31.7718430  73.4853439 155.9010468  29.8640194
  73.5353775 156.3562164  28.8748703  74.6404877 154.9175568  30.0749092
  75.5174026 155.4307251  29.6802139  74.7870178 154.7030945  31.1335106
  74.4806900 153.3792572  29.1340103  75.7999268 153.3602295  28.9239025
  72.0938263 155.2516785  29.8848057  71.4815903 155.1103363  30.9373131
  71.5542221 154.7900238  28.7469158  72.1532211 154.9510956  27.9498253
  70.1611099 154.2979431  28.6814861  69.5241089 154.9125671  29.3175278
  69.6985626 154.4181976  27.1986694  69.8630066 155.4241028  26.8124065
  70.3029404 153.7320404  26.6053467  68.2195053 154.1215973  26.8744793
  67.9493408 153.1335297  27.2470856  67.5560455 154.8818512  27.2867107
  67.9781952 153.8772736  25.3434029  68.7508240 153.1569824  25.0744667
  66.9905090 153.4264069  25.2469044  68.1023865 155.1838074  24.5108089
  67.4958267 155.9358673  25.0153732  69.1601028 155.4290924  24.4149666
  67.5937119 154.9430847  23.1380920  66.6513596 154.5796967  23.1333313
  67.5698776 155.7719574  22.5614510  68.0613327 154.1987000  22.6407738
  70.0507202 152.8625946  29.2408485  69.0834351 152.5278473  29.9308777
  71.0815353 152.0163727  28.9780540  71.8093491 152.4468842  28.4257431
  71.0241928 150.6192627  29.4822903  70.2072144 150.0442352  29.0464020
  72.2756271 149.9086304  28.9684181  72.2848663 150.0266724  27.8848667
  73.2098007 150.3022614  29.3690224  72.1707916 148.3692932  29.2017174
  72.1633606 148.1393585  30.2671642  71.2891846 147.9570618  28.7108669
  73.3306122 147.5021210  28.6432362  73.9785614 147.8546143  27.6469460
  73.5079193 146.2947693  29.1398640  74.1587830 145.6301422  28.7464790
  72.9112320 146.0061035  29.9019260  70.9159851 150.5375824  31.0071869
  70.2026215 149.6870880  31.6010380  71.6521378 151.4248505  31.7271690
  72.2949600 151.9815674  31.1822433  71.5447235 151.6864929  33.1901703
  71.5232315 150.7690430  33.7783356  72.7573700 152.5332642  33.5833473
  72.5662079 153.5704956  33.3082390  72.9048996 152.5256500  34.6632881
  74.2317581 151.8612061  32.7234497  75.2631454 152.3253784  33.4345665
  70.2933350 152.5081940  33.6165352  69.7377930 152.3850555  34.7429619
  69.8423080 153.4024963  32.7218781  70.4466476 153.4855652  31.9169083
  68.9397278 154.6053772  32.9167824  68.8836441 155.0730133  31.9337902
  67.5135956 154.1496735  33.3184013  67.5211182 153.7574768  34.3353691
  66.8575897 155.0195923  33.3501167  66.9492416 153.0735016  32.4342117
  66.7687302 153.5355377  31.4636250  67.6521683 152.2503204  32.3062859
  65.5595322 152.5407104  32.8148842  64.6169357 153.2772217  32.9293861
  65.4103470 151.2206726  32.8295784  64.4921265 150.8063965  32.9026871
  66.1948776 150.5913544  32.7369461  69.4892426 155.6128693  33.8876991
  69.2239304 156.7888489  33.5855598  70.1450272 155.1653290  34.9509277
  70.2078400 154.1715088  35.1196938  70.4567719 156.0218353  36.1189651
  69.7916183 156.8853607  36.1192017  70.2530441 155.2695465  37.4336967
  70.3412094 155.9900818  38.2468071  69.2029800 154.9779205  37.4543381
  71.1096191 154.0549011  37.7662354  71.6633453 153.5459290  36.7542305
  71.2062607 153.7508087  38.9371529  71.8444748 156.6552429  36.1606941
  72.1132889 157.6511993  36.8282928  72.7788544 156.0368195  35.5529404
  72.4764786 155.1843719  35.1034966  74.1820297 156.3304138  35.6035042
  74.4038162 156.5949249  36.6374054  74.9934616 155.1087036  35.2333946
  74.7191391 154.7836456  34.2298012  76.5467834 155.2291107  35.2349815
  76.8713150 155.4058838  36.2604294  76.8737946 154.2948303  34.7786102
  77.0266495 156.0408020  34.6881714  74.7010193 154.0548248  36.0770569
  73.7566605 153.9662933  36.2252121  74.5904083 157.5190582  34.7120056
  74.3577499 157.5445099  33.5147781  75.2311020 158.5146790  35.3260155
  75.3522797 158.3946533  36.3215141  75.5205917 159.8439484  34.7321129
  74.6691284 160.1460266  34.1223106  75.7035217 160.8726959  35.9080505
  74.7815552 160.9137115  36.4880486  76.4963760 160.4401703  36.5182991
  76.0452957 162.3360443  35.4167976  76.8855591 162.2453613  34.7284431
  75.2302017 162.6932068  34.7873955  76.3816071 163.3240662  36.5483093
  76.8667374 162.9077759  37.6114197  76.0966721 164.5699463  36.3757095
  76.7695389 159.8376007  33.8416939  77.8485641 159.4727173  34.3613739
  76.6825790 160.3624573  32.6188583  75.8451385 160.8869324  32.4097404
  77.8658218 160.4630280  31.7814865  78.6909103 159.8755493  32.1842194
  77.4674606 159.7675171  30.4548798  76.4085083 159.8634796  30.2150459
  78.2667618 160.3105469  29.2604179  79.3364868 160.1701813  29.4156284
  78.1263733 159.7880707  28.3141556  78.1036987 161.3881683  29.2442818
  77.8690948 158.2457428  30.5163212  77.6038361 157.6928253  29.6152039
  78.9558945 158.1930542  30.5811081  77.2546463 157.4361267  31.6652164
  76.1663132 157.4957886  31.6565971  77.6861801 156.4364471  31.6149921
  77.5726776 157.8950500  32.6013451  78.2702484 161.8894806  31.6604691
  79.4106827 162.1842346  31.8870449  77.3246841 162.8004608  31.3748055
  76.3326569 162.6306305  31.2903137  77.5103302 164.2711334  31.2732582
  78.2501144 164.5965729  32.0046234  77.9320831 164.6216125  29.8364220
  78.7596436 163.9756165  29.5432758  76.8661041 164.4812927  28.7666016
  76.1892700 165.3350220  28.8004513  77.3300781 164.5682373  27.7841187
  76.2809219 163.5678558  28.8728104  78.4361572 165.9412384  29.8233852
  79.3685532 165.8876953  29.6011658  76.2259216 165.0812836  31.7292080
  75.2431488 164.4405823  32.1678772  76.3600006 166.3985901  31.7187424
  77.1729507 166.7360840  31.2234516  75.3159103 167.4119568  32.0331116
  74.3817749 166.8519745  32.0768814  75.5815430 168.0921936  33.3689728
  75.5973282 167.3666992  34.1823235  76.8110733 168.9619293  33.4701767
  76.7532730 169.7221985  32.6912498  76.7998734 169.5165100  34.4084778
  77.7185669 168.3586121  33.4464760  74.4758377 168.8734131  33.6709976
  73.9995270 168.4131012  34.3658714  75.1716080 168.4484711  30.8757343
  76.1030197 168.6539612  30.0631886  74.0701675 169.1446075  30.8270283
  73.3193130 168.8535767  31.4366379  73.6846313 170.3164673  29.9869614
  73.4853821 170.0024414  28.9623718  72.4022293 170.9316559  30.6525917
  71.5197601 170.2928162  30.6176453  72.5951462 171.0482941  31.7190266
  71.9755783 172.2945557  30.0379353  72.5626373 173.0388031  30.5760384
  72.2143478 172.2626648  28.9748859  70.4979095 172.7337494  30.2094975
  69.8941574 171.9486542  29.7543030  70.3734283 172.7198486  31.2922783
  70.3182449 174.1252899  29.5966129  71.1530457 174.7642975  29.8844929
  70.2901993 174.0234070  28.5117474  69.1051483 174.8081360  30.0820141
  68.9062424 174.8672333  31.0704708  69.0047989 175.7164612  29.6519337
  68.2649841 174.3314667  29.7870369  74.8752289 171.3255920  29.9318562
  75.1545792 171.8026581  28.7997475  75.5421295 171.5922546  31.0107422
  75.3150482 171.1413116  31.8854885  76.5539017 172.6841278  31.0195351
  76.1005554 173.5333862  30.5083351  76.8658447 173.0229034  32.5041695
  77.1340561 172.1335907  33.0745049  77.7240448 173.6885834  32.5961647
  75.6992874 173.8041687  33.1444435  75.2385330 174.7832947  32.5394516
  75.1436005 173.3737793  34.2372589  74.3857422 173.8871155  34.6641579
  75.4953079 172.5151672  34.6362495  77.8669205 172.3100739  30.2920113
  78.6560211 173.2000885  29.9218540  78.1094360 171.0827789  29.9442959
  77.5038376 170.3486328  30.2824955  79.2802277 170.6282349  29.1530323
  80.1444931 171.2530365  29.3783703  79.7129211 169.1889954  29.5673962
  79.0039520 168.4022827  29.3094330  80.5693359 169.0080261  28.9178505
  80.0826721 169.0166779  31.0254078  79.1720200 168.7922821  31.5808010
  80.7133179 168.1439667  31.1950207  80.8745651 170.1938019  31.6980991
  81.8118820 170.7496033  31.0366154  80.7297440 170.4440765  32.9587135
  79.0725555 170.5665436  27.6105404  79.9575348 170.3833618  26.8000851
  77.8761826 170.7296600  27.1655445  77.1407623 170.7946625  27.8547802
  77.5046997 170.8112030  25.7061005  77.9532623 169.9144592  25.2786026
  75.9414215 170.8297272  25.5278969  75.4988251 171.7068176  26.0000420
  75.7115402 171.0536499  24.0132275  76.2311630 170.2884979  23.4364872
  74.6670151 171.0478210  23.7017345  76.0298157 172.0797119  23.8287754
  75.2410965 169.5056458  25.9832401  75.7813873 168.6915588  25.5000725
  75.5432129 169.3596344  27.0203075  73.7853546 169.4250641  25.6877174
  73.7246170 169.4683075  24.6002731  73.3232574 168.4994354  26.0309010
  73.3052368 170.3149719  26.0947189  78.1564484 172.0372314  25.0318432
  78.0978165 173.1846313  25.5219612  78.8225861 171.8278656  23.8695908
  78.8691559 170.8581848  23.5909367  79.3134460 172.8971558  23.0027161
  78.6639786 173.7687378  23.0842037  80.7136002 173.3293610  23.3490086
  80.8458405 174.3881073  23.1261539  80.7590103 173.2963104  24.4375629
  81.8660583 172.5192566  22.7407875  81.9088898 171.1581879  23.0234737
  81.1241455 170.6708221  23.5829887  82.8798904 170.3656311  22.4313107
  83.0204773 169.3174438  22.6502609  83.8270874 170.9563141  21.6096096
  84.6352081 170.3478699  21.2312603  83.8500595 172.2925720  21.2436352
  84.6289749 172.6883698  20.6087818  82.7711105 173.0356445  21.8301392
  82.6777649 174.0843811  21.5896969  79.1515808 172.5564117  21.5058079
  79.0978012 171.4073486  21.1178761  78.9122238 173.5620575  20.6902294
  78.8096237 174.4858704  21.0853539  78.7655106 173.4429474  19.2348595
  78.3772278 172.4956818  18.8606625  77.8861084 174.6031647  18.8801403
  78.2736740 175.5550842  19.2431278  77.7993164 174.6764679  17.7960777
  76.6454544 174.4920349  19.4645443  76.1690140 175.2878113  19.2168770
  80.1035919 173.4852600  18.5142193  80.6044922 174.5334625  18.1289291
  80.7525635 172.3526001  18.3812504  80.4585114 171.5256805  18.8810921
  81.9528503 172.1776276  17.5446110  82.6415863 172.9849243  17.7936668
  82.6584167 170.8411102  17.9212112  82.7333984 170.8159943  19.0083408
  81.8503876 170.1503906  17.6801662  84.0245819 170.4424438  17.2767582
  83.8883514 170.2526245  16.2120914  85.0934296 171.4659576  17.5397396
  85.3095779 171.7192535  18.5776310  86.0250778 171.0928802  17.1143703
  84.8995514 172.4056854  17.0226250  84.3887634 169.0426941  17.7762451
  83.5757141 168.3512115  17.5551090  85.2761002 168.6385803  17.2889824
  84.4630432 168.9566193  18.8603020  81.6427765 172.2572937  15.9934225
  82.6028900 172.4007416  15.2352819  80.3721313 172.3680573  15.5441666
  79.7262497 172.4422150  16.3171062  79.9336624 172.4566956  14.1648607
  80.7270584 172.5700378  13.4260960  79.1592255 171.1095734  13.9698963
  79.6867828 170.1576843  14.0304337  78.3827591 171.0661621  14.7336531
  78.5792999 171.1689606  12.7266769  78.1382446 170.3493805  12.4914074
  78.9600067 173.5792084  13.9907141  78.3324890 174.0498047  14.9696083
  78.8529053 174.1220093  12.7438288  79.5521164 173.8326721  12.0748892
  77.8304596 175.0400696  12.3735790  77.8087769 175.8754578  13.0733957
  78.1034546 175.7047882  10.9833975  77.9510651 174.9552307  10.2068377
  77.2363205 176.3253174  10.7572775  79.3899155 176.5356445  10.9312668
  80.1888504 175.8490448  11.2112589  79.6375275 176.7598572   9.4237347
  78.7585068 177.1744843   8.9302731  80.4712524 177.4608612   9.3836994
  79.9131622 175.8498993   8.8907070  79.2211151 177.9122162  11.7037230
  79.2325287 177.6678467  12.7659130  80.1932907 178.3703461  11.5218029
  78.3721008 178.4891510  11.3370590  76.4194412 174.4561462  12.3202734
  75.4294281 175.2425995  12.2595673  76.2695999 173.1320038  12.4582167
  77.1235657 172.5931702  12.4808617  74.9711838 172.4868317  12.7105169
  74.1723938 172.9922028  12.1677227  75.0055618 171.0320740  12.2129526
  75.8565445 170.5689087  12.7123537  74.1741028 170.4225769  12.5669136
  75.2908936 170.9710999  10.4298973  75.2488861 169.6407166  10.3150091
  74.5029297 172.5813599  14.1871681  73.3171844 172.3329468  14.4958887
  75.4158096 172.9187622  15.0715675  76.3650284 173.0397491  14.7483835
  75.2075500 173.0942688  16.4662781  75.6381531 174.0267639  16.8311501
  74.1355362 173.1938019  16.6365147  75.8078232 171.9897461  17.2370090
  76.8664169 171.4741821  16.8777351  75.2663803 171.6279907  18.4181709
  74.0593185 172.1558228  18.9810638  73.2078323 172.1133728  18.3019009
  74.2678375 173.1490326  19.3787365  73.6728973 171.2975006  20.2140713
  73.2257080 170.3832397  19.8238907  73.0389175 171.8341370  20.9199009
  75.0789948 170.9533844  20.7360172  75.0547943 170.0455017  21.3387241
  75.5626221 171.7610626  21.2854347  75.9224014 170.7400970  19.4365501
  76.9571991 171.0007019  19.6587925  75.9783401 169.2569580  19.0235157
  76.4037247 168.4481354  19.7562962  75.5819092 168.8878021  17.8309021
  75.3925858 169.6300507  17.1726341  75.3337860 167.5455627  17.2850933
  76.1829071 166.8961792  17.4981594  74.1185837 167.0544281  17.9837341
  74.0072021 167.2557068  19.0491829  73.2633820 167.6326752  17.6339149
  73.8254929 165.5394440  17.7729721  73.5885239 165.3069916  16.7347469
  74.7639771 165.0900421  18.0975761  72.5421753 164.8777313  18.7852936
  71.2143021 165.1537170  17.5852680  71.4411011 164.6282349  16.6576233
  70.3086166 164.7752380  18.0591717  70.9703979 166.1923981  17.3622284
  75.0345154 167.6294098  15.7493658  74.4673309 168.5899048  15.2177315
  75.4818420 166.6467896  15.0007076  76.0221024 165.9390717  15.4775391
  75.1236572 166.3995972  13.5988655  74.0807724 166.6692657  13.4322147
  76.0764542 167.2193756  12.7565498  77.1013184 166.8732910  12.8906145
  75.8629990 167.1603851  11.6892824  76.1060867 168.2461395  13.1212091
  75.2374802 164.8931732  13.4234238  75.3636017 164.1599274  14.3794212
  75.1786041 164.3505859  12.2269049  75.2202148 165.0436401  11.4933929
  75.1627350 162.9437561  11.8701639  75.2318344 162.3506165  12.7820396
  73.7980957 162.5972900  11.1544342  73.6727829 163.2812805  10.3150625
  73.6548233 161.5699921  10.8194370  72.9761276 162.8350677  11.8296585
  76.2703171 162.5183105  10.8657684  76.5180664 163.2521057   9.9321213
  76.7559509 161.3081360  10.9669094  76.3744125 160.7556763  11.7214355
  77.9727783 160.7562714  10.3870888  78.0869827 161.1334991   9.3708410
  79.1938324 161.2190399  11.2487164  79.1769562 160.5478363  12.1073713
  80.1007843 161.1351624  10.6499596  79.2561188 162.6156158  11.8312044
  80.0087967 163.6041412  11.1347427  80.3760605 163.3311615  10.1564779
  80.1366196 164.9177246  11.5944214  80.6915359 165.6582031  11.0374947
  79.5405273 165.2759399  12.8020735  79.7013855 166.5187531  13.2061787
  80.5796280 166.8674316  13.0367384  78.7826767 164.2895660  13.5212040
  78.2502518 164.5466614  14.4249926  78.6492157 163.0024414  12.9933434
  78.1278305 162.2571259  13.5756369  77.8886414 159.2308960  10.2654543
  76.9266968 158.6185150  10.6588383  78.9804306 158.6112671   9.7157211
  79.7987061 159.1941986   9.6122656  78.9906464 157.1951599   9.3800783
  78.4728470 156.5830841  10.1185503  78.3878555 156.8972168   7.9705911
  78.6566620 155.8955536   7.6351800  76.8758926 156.9927979   7.9283214
  76.4421082 157.9642944   8.1652775  76.5170975 156.4889984   7.0307941
  76.6035538 156.3069305   8.7305155  78.9360428 157.7619934   6.7818298
  80.0164948 157.6208038   6.7535305  78.4262238 157.3736725   5.9001331
  78.7062759 158.8041382   7.0037093  80.4072037 156.5725555   9.3288403
  81.3548813 157.2063599   8.8769722  80.4694824 155.2615662   9.7248373
  79.6784744 154.8363953  10.1870441  81.6324844 154.3690948   9.4997931
  82.4860306 155.0429688   9.5737610  81.7317200 153.3641510  10.6619692
  82.7669601 153.0969086  10.8740177  81.3206253 153.8224335  11.5614557
  80.9249496 152.0916443  10.3844290  79.8667450 152.1271973   9.7289085
  81.4797058 151.0133514  10.7270441  81.0884781 150.1209259  10.4613342
  82.4041595 151.0795441  11.1284189  81.7825775 153.7337646   8.0827932
  80.7155075 153.8275452   7.3595009  82.9412766 153.0574646   7.7494950
  84.3025208 153.1874390   8.4165459  84.3584290 152.5403595   9.2919159
  84.5671310 154.2161713   8.6610336  85.2836533 152.6815948   7.3526955
  86.1646805 152.2737274   7.8482099  85.5982285 153.4341125   6.6295929
  84.5008850 151.6704407   6.6010399  84.4833221 150.7293091   7.1506448
  84.8812790 151.5231781   5.5902414  83.1420746 152.2863159   6.4925203
  83.1752167 153.0642090   5.7296987  81.9465714 151.3796234   6.1421409
  81.3853836 151.4201508   5.0841789  81.4872818 150.6446533   7.1326537
  82.0308762 150.6363068   7.9838519  80.3213806 149.7319946   7.0884504
  80.4003143 149.2050171   6.1375723  80.3863297 148.6758118   8.1978951
  79.9873047 149.1935425   9.0701494  79.7246170 147.8342743   7.9928079
  81.8215408 148.1630554   8.4624662  82.8279190 148.8621826   9.1099215
  83.8852539 148.0089111   9.0984468  84.8157501 148.2007599   9.6120443
  83.5833511 146.8257904   8.5278692  84.2667847 146.0931854   8.4002476
  82.2717514 146.8979645   8.1700430  81.6806946 146.1831055   7.6168423
  78.9545975 150.4242096   7.1472278  77.9118576 149.7713776   7.3840995
  78.9154968 151.6991119   6.9067764  79.8170013 152.1542969   6.8927269
  77.7738190 152.5410156   6.6311126  78.1507339 153.5547180   6.4953127
  77.2553482 152.2404175   5.7206540  76.7951889 152.6813049   7.8170452
  75.7097321 153.1633606   7.5810094  77.1043243 152.2909241   9.0682449
  78.0230865 151.8912354   9.1956377  76.2706223 152.5046234  10.2274961
  75.2600708 152.1872711   9.9702349  76.7597961 151.6879578  11.4542103
  77.0772552 150.6966400  11.1307983  77.6649094 152.1744843  11.8177729
  75.8028870 151.6855621  12.6573420  74.8975754 150.6471252  12.7262278
  75.0595779 149.7619324  12.1290693  73.8732681 150.5919495  13.7324886
  73.1992493 149.7644348  13.8977633  73.8333359 151.6843262  14.6038818
  72.8556671 151.6293488  15.4926577  72.2742996 150.9600983  15.1242704
  74.7197723 152.7594604  14.4616394  74.5530319 153.6116486  15.1038170
  75.6959610 152.8253784  13.4674997  76.3348312 153.6929779  13.3932524
  76.2205200 153.9680328  10.5827322  77.2535477 154.7173615  10.5696993
  75.0021286 154.4531403  10.8787022  74.1731796 153.8764648  10.8588934
  74.7062531 155.8875732  10.9084549  75.4257660 156.3881226  10.2604952
  73.3305359 156.0463104  10.2344494  72.5554962 155.6548462  10.8933582
  73.1487274 157.5943604  10.1054096  73.9926529 157.9369812   9.5066490
  72.2849426 157.9121094   9.5214529  73.0489197 158.0683136  11.0818825
  73.2662659 155.4177246   8.8289137  74.0265961 155.7826538   8.1383944
  73.3879623 154.3385162   8.9217415  71.8790512 155.5055237   8.1834621
  71.6301727 156.5419464   7.9554677  71.8668518 155.0273438   7.2040319
  71.0892181 155.0701752   8.7956104  74.7878571 156.3959045  12.3770494
  74.0538559 155.9664001  13.2407703  75.7557526 157.3137970  12.6934347
  76.4161835 157.5653229  11.9718609  76.0781937 157.7728729  14.0056725
  75.4702454 157.1455994  14.6576014  77.5323105 157.4938049  14.3316374
  78.2539749 157.8249054  13.5848551  77.8120422 158.0064240  15.2520046
  77.7132721 156.0569763  14.7068682  77.2827530 155.4491119  15.9182959
  77.6741714 154.1927643  15.8753195  77.4243698 153.3807220  16.5420933
  78.4575806 154.0027313  14.7405901  78.8592377 153.1322327  14.4227657
  78.4507904 155.1664276  13.9950123  78.9416428 155.3447876  13.0496798
  75.8460693 159.2776489  14.2144508  76.4656754 160.0893097  13.5384140
  75.0266495 159.5803833  15.2518749  74.5507660 158.8547058  15.7686348
  74.6914444 160.9295959  15.7543888  75.2238541 161.6505737  15.1340427
  73.2069702 161.2825623  15.7683849  72.6627960 160.4274445  16.1693249
  73.0920029 162.1237183  16.4520016  72.5101166 161.6301422  14.4610062
  73.0335083 162.4694366  14.0030184  72.5101471 160.7691803  13.7925386
  71.0198212 161.9465027  14.7989330  70.3095474 161.0758209  15.3786879
  70.6175232 163.1026459  14.5806789  75.2884140 161.1395721  17.1569118
  74.9919128 160.4001160  18.0882683  76.0582581 162.2098999  17.2792683
  75.9850616 162.8874817  16.5338612  77.0919113 162.3924866  18.3675385
  76.8813095 161.6836090  19.1683102  78.5763626 162.0926971  17.8329887
  79.2486115 162.2157745  18.6821232  78.7034607 160.6502075  17.3263130
  78.0270844 160.4438934  16.4968224  79.6563187 160.4567413  16.8336353
  78.6246796 160.0122223  18.2065792  78.9259567 162.9260406  16.8288689
  78.7641373 163.8422089  17.0656509  76.9361877 163.7807465  18.9301109
  77.2731323 164.7963104  18.3141041  76.4412155 163.7557220  20.1866150
  76.2608719 162.8835907  20.6630268  76.4238434 165.0212708  20.9805355
  75.8978271 165.7904968  20.4151134  75.6389084 164.8034668  22.2531567
  74.6292572 164.6680908  21.8653698  76.0121613 163.9273529  22.7834396
  75.4595566 166.0039062  23.2179985  76.4504776 166.2725983  23.5840263
  74.9234314 167.2732391  22.5787697  73.9248047 167.1064301  22.1750126
  74.7817535 168.0308990  23.3494682  75.6395645 167.6536407  21.8503857
  74.6541672 165.5926056  24.4896717  75.3671722 165.1813354  25.2042332
  74.1689606 166.4954987  24.8604202  73.9812088 164.7434998  24.3702736
  77.8801041 165.3957977  21.3845539  78.6496048 164.5148163  21.8392506
  78.2390900 166.6225586  21.0908070  77.6981506 167.2322388  20.4943428
  79.5862656 167.0264282  21.4095154  80.1475220 166.0942688  21.4739170
  80.4732895 167.7104340  20.2788448  81.5046692 167.8477936  20.6036358
  80.5083847 166.8299255  19.0413475  79.4801636 166.5848846  18.7752113
  80.9236755 167.4423523  18.2409992  81.1849747 165.9965973  19.2308064
  79.8923950 168.9339294  19.7778034  80.6156616 169.5648041  19.7560616
  79.6023102 167.8093262  22.7503166  78.9139175 168.8240814  22.9844551
  80.5057297 167.4152069  23.6514397  81.1483307 166.6552734  23.4792137
  80.6456985 168.0100403  24.9882545  80.2788467 169.0353851  24.9416409
  79.7916946 167.1817017  26.0194340  79.8237686 167.6802979  26.9881840
  78.2687302 167.1452637  25.6776123  78.1728287 166.4746704  24.8236809
  77.6588821 166.8534546  26.5326195  77.9317627 168.0702057  25.2096138
  80.2405167 165.7463074  26.1915035  81.1019516 165.7507629  26.8593407
  79.4711304 165.2341156  26.7692566  80.3863144 165.2746735  25.2196999
  82.1384125 168.0753784  25.4424744  82.9541168 167.2566986  24.9985275
  82.5265045 169.1289520  26.1745300  81.8659363 169.8227234  26.4945679
  83.8939590 169.3128510  26.6335831  84.6127243 169.3596802  25.8154812
  84.0650024 170.5824280  27.4274654  83.3994446 170.6251831  28.2896156
  85.0318680 170.6026459  27.9303169  83.9470673 171.8405304  26.5158882
  84.9140167 172.0396729  25.5446091  85.6568832 171.2646179  25.4270420
  84.8614044 173.2483368  24.7870369  85.5963745 173.4970093  24.0357800
  83.9267273 174.2215424  25.1041756  83.8822861 175.4555359  24.4582977
  84.4345932 175.5649414  23.6807423  82.9389725 174.0098877  26.1230736
  82.2915726 174.8462067  26.3418312  82.9825821 172.8260345  26.8075314
  82.3322983 172.5979919  27.6391144  84.2738571 168.1415100  27.5975533
  85.3637238 167.6216736  27.3879890  83.4004211 167.8079376  28.5463619
  82.6001968 168.4155731  28.6490440  83.6501999 166.8281708  29.5977173
  84.5955887 166.3045807  29.4556255  83.8915100 167.5955200  30.9375381
  84.5530777 168.4313354  30.7099018  82.9330444 167.9680786  31.2989902
  84.5870132 166.7797699  32.0221596  84.2224655 165.7661743  32.1889572
  85.6126328 166.6833191  31.6659355  84.5742416 167.5077209  33.3873558
  85.1324768 168.4437408  33.3691216  83.5451050 167.8133392  33.5759697
  84.9461823 166.5886841  34.5769806  84.9500351 167.1424103  35.5158463
  84.1746902 165.8297272  34.7069244  86.3364029 166.0345306  34.5873604
  87.0550919 166.6723022  34.2761574  86.6176071 165.8072968  35.5304337
  86.3667221 165.2430878  33.9606094  82.6424484 165.6137695  29.7291012
  81.4112549 165.7866974  29.6782341  83.1302719 164.4213562  30.0417194
  84.1298447 164.2891388  29.9828033  82.3209686 163.3980255  30.7484894
  81.3961029 163.8907318  31.0484486  81.9391098 162.2806244  29.7039623
  82.8521118 162.0692596  29.1473141  81.4700394 161.4399109  30.2151165
  81.2303009 162.7612762  29.0296688  82.9407654 162.7848358  32.0492859
  84.1402817 162.9441986  32.3233299  82.0916824 162.2001038  32.9740410
  81.1412506 162.0006104  32.6965828  82.6299515 161.7215881  34.2605743
  83.6076965 162.1921234  34.3640480  81.6228714 162.1671753  35.3335686
  80.6677170 161.6827698  35.1307640  81.9813309 161.9228668  36.3335266
  81.3144302 163.9933472  35.2816505  82.1507187 164.2737122  36.2851028
  82.7576141 160.2083588  34.3593826  83.9005890 159.7602997  34.6427002
  81.6737442 159.4101105  34.2192154  80.7963104 159.8529053  33.9865379
  81.7215881 157.9705200  34.3357391  82.4892349 157.7383881  35.0739365
  80.5113220 157.4582825  35.1270180  79.5882187 157.7890015  34.6509895
  80.5330429 156.3734894  35.2310944  80.4900284 158.0496979  36.5254669
  81.2295074 157.6288300  37.3971939  79.7080002 159.0457001  36.6748924
  79.7232056 159.4341888  37.6070671  79.0684891 159.3594818  35.9588852
  81.8947983 157.1703033  32.9819717  81.1329498 156.1799316  32.7016640
  82.9487305 157.4507294  32.2346992  83.5191650 158.2576904  32.4433212
  83.2966919 156.6798401  31.0739079  82.5253830 155.9360352  30.8740292
  83.3752060 157.5315704  29.8016777  84.1678543 158.2792358  29.8297157
  83.7478943 156.9019012  28.9937592  82.1005630 158.1260681  29.3166142
  81.6677551 158.7026672  30.1341209  82.2758484 159.0227966  28.1377354
  82.5821152 158.4769440  27.2453518  81.3415146 159.5181732  27.8736916
  82.9699249 159.8330231  28.3610668  81.0872574 157.0601044  28.8003979
  80.6948547 156.4413757  29.6074257  80.2086334 157.6117706  28.4660740
  81.5268097 156.3385925  28.1116867  84.6147919 155.9314117  31.2180920
  85.5221252 156.4387360  31.8426418  84.7502441 154.7751465  30.5759563
  83.9488144 154.4038544  30.0861053  86.0582962 154.0990906  30.3993816
  86.8163681 154.5932312  31.0070267  86.0442047 152.6002655  30.8663044
  85.1820908 152.1201782  30.4032822  86.9593353 152.0806274  30.5823822
  85.9025345 152.3760529  32.3770981  85.9779510 153.2292480  33.2606544
  85.6308823 151.1125488  32.6702003  85.4573517 150.7921753  33.6121864
  85.4832306 150.5328827  31.8563938  86.5837173 154.2422180  28.9174747
  85.7955933 154.5729523  28.0057583  87.9096985 154.0783844  28.7229633
  88.4421616 153.7097626  29.4980145  88.5672760 154.1346283  27.4351482
  87.8945770 154.6219788  26.7294025  89.7179947 155.1259003  27.4793301
  90.4590683 154.6318665  28.1076851  90.2635727 155.2806396  26.5484734
  89.4181290 156.5489502  27.9264526  89.0166092 156.4556274  28.9354973
  90.6560669 157.3917694  28.0522079  91.2453232 157.4337921  27.1361809
  90.5401001 158.4059448  28.4344559  91.2820435 156.9311829  28.8164749
  88.4762344 157.2994385  27.0041542  87.5655212 156.7095795  26.9003716
  88.2342224 158.2940826  27.3785858  88.9361420 157.4496155  26.0274048
  89.0819321 152.7958832  26.8983593  89.8198090 152.0159607  27.5246620
  88.6500015 152.4264374  25.6447353  87.8277054 152.9169922  25.3233624
  89.0753098 151.1682587  24.9473610  89.7639847 150.6084747  25.5801792
  87.8591385 150.2763519  24.8205128  88.1420898 149.3773651  24.2728996
  87.5278549 149.8879395  25.7835808  86.8402252 150.9797516  24.2222538
  86.0855942 150.3865509  24.2066231  89.8174515 151.3270264  23.5876427
  89.4931488 152.2355499  22.7978821  90.7492065 150.4311523  23.2230682
  90.9220428 149.6298065  23.8130512  91.6233673 150.4930878  22.0686302
  92.1493225 149.5492096  21.9252071  91.1160126 150.6569824  21.1179295
  92.6507568 151.5556793  22.1700745  93.0835190 151.9138641  23.2479286
  93.2604599 151.8846436  21.0694313  92.8999786 151.3935547  20.2638378
  94.2538147 153.0114594  21.0073528  94.3132553 153.4575043  22.0001335
  95.6741104 152.4496918  20.7179718  95.7228775 151.9773560  19.7368355
  96.3973465 153.2640991  20.6759720  96.1365967 151.3420868  21.7532692
  95.3629227 150.5816193  21.8591728  96.9561844 150.8133850  21.2665863
  96.6647949 151.8218994  23.0914841  97.3557968 152.6553192  22.9648056
  95.8263550 152.2044067  23.6735630  97.2756500 150.7005920  23.8295746
  98.1979294 150.3835297  23.5669670  96.7953339 150.1208954  24.9049702
  95.6788330 150.4667969  25.4597855  95.1319351 151.2120209  25.0528030
  95.3182602 149.8590851  26.1814289  97.3388901 149.0659180  25.4145679
  98.1101913 148.6085205  24.9498425  97.0526657 148.6287537  26.2789040
  93.9206238 154.1198273  19.9455452  93.3539352 153.7150269  18.9228344
  94.1171417 155.4069672  20.2217178  94.9488602 156.0393982  21.3171291
  96.0063858 156.0685730  21.0546436  94.8688431 155.4210358  22.2111778
  94.3934402 157.4487152  21.4938068  95.1192932 158.1303406  21.9372349
  93.4970245 157.4055176  22.1124096  94.0600052 157.7631378  20.0060825
  94.9545212 158.0428467  19.4495735  93.3354568 158.5754700  19.9490395
  93.6517868 156.4364166  19.3373489  92.5641479 156.4644775  19.4033775
  94.0037842 156.3341980  17.8470955  95.0796356 155.8344116  17.4210911
  93.0477295 156.7454376  16.9831505  92.1030731 156.9461975  17.2788200
  93.1907196 156.7261810  15.4629660  94.2562485 156.8610535  15.2770529
  92.8967438 155.3287048  14.9688778  93.5394897 154.6339874  15.5095720
  91.8145752 155.2233124  15.0456944  93.1047516 155.2160950  13.5737829
  93.0384140 154.2871552  13.3408422  92.4846344 157.8344879  14.7581005
  91.5800400 158.4548492  15.3381605  93.0515594 158.1631012  13.6051292
  93.9638443 157.7617035  13.4416504  92.5650253 159.2144775  12.7305813
  91.7999344 159.7516174  13.2911301  93.7336655 160.1814423  12.3169432
  93.3039780 161.0709381  11.8562288  94.4131775 160.6895142  13.6353531
  95.1262283 159.9597931  14.0189657  94.9389572 161.6267242  13.4529028
  93.6440353 160.9799500  14.3510208  94.6968155 159.5627289  11.5033197
  94.3358307 159.4041901  10.6280174  91.8833160 158.6157532  11.4687300
  91.3700867 159.4003143  10.6780825  91.8429337 157.2669678  11.3058815
  92.1043777 156.6484680  12.0603323  91.1703415 156.7299805  10.0846682
  91.7108688 157.1852417   9.2548141  91.3675461 155.2109222   9.9762554
  90.8941345 154.7188110  10.8258495  90.8506622 154.7741089   9.1217813
  92.8373795 154.7647552  10.0100298  93.3613129 154.8864594  10.9580688
  92.8088150 153.6868896   9.8504581  93.6026688 155.2902832   8.7931461
  94.3745651 156.2651978   8.9760981  93.4408417 154.7987976   7.6516409
  89.6568069 157.1151886  10.0283260  88.9449310 156.9049835  11.0205870
  89.2900085 157.7094269   8.8753090  89.9849014 157.7754059   8.1453352
  87.9095154 158.1606293   8.5195646  87.9866791 158.7665710   7.6168032
  87.0785446 156.8928680   8.0999517  87.8149643 156.2287140   7.6475191
  86.8355179 156.2921143   8.9763861  85.8889618 156.8986359   7.1820207
  84.5736084 156.7837372   7.7260776  83.7752304 156.6898651   6.6201010
  82.7021637 156.5773926   6.6677675  84.5692749 156.6422729   5.4865904
  84.2373734 156.3827820   4.5686560  85.9006271 156.8605652   5.8348455
  86.7843018 156.8444214   5.2141490  87.2919159 159.0726166   9.5465021
  86.0333328 159.1417847   9.5806665  88.1333542 159.8950195  10.2153597
  89.1095734 159.6952972  10.0504456  87.6573792 160.6730347  11.3592339
  87.0661392 160.0572662  12.0370064  88.8717041 161.2331696  12.1747236
  89.3782043 160.3343964  12.5265293  89.6458435 161.7664642  11.6229973
  88.3500671 161.9872589  13.2936544  89.0834427 162.3233490  13.8140364
  86.7137299 161.8798065  10.9796009  87.1177521 162.8567657  10.3653097
  85.4496536 161.7792053  11.4176645  85.2467499 161.0294495  12.0632648
  84.3221512 162.7819672  11.2791309  83.9889145 162.7056580  10.2441282
  83.1590042 162.3294983  12.2024288  83.5092239 162.3545685  13.2343302
  82.3177719 163.0110474  12.0763235  82.6041946 160.9528809  11.9841490
  82.6268539 160.2848816  10.8275433  82.9523697 160.6917267   9.8815346
  82.1473923 158.9993439  10.9890394  82.0845795 158.3644562  10.2060461
  81.8549423 158.6896515  12.2590256  81.4432449 157.5313416  12.9114380
  81.2613373 156.6225281  12.3570166  81.1949081 157.5917816  14.2645750
  81.0182114 156.7072449  14.8585148  81.3687210 158.8146973  15.0028925
  81.2231750 158.8739319  16.0713997  81.8221436 159.9506683  14.3072481
  81.9963989 160.8314056  14.9075270  82.0670013 159.9284973  12.9301586
  84.6566772 164.2548218  11.6017694  84.0015945 165.1820984  11.0610352
  85.7246170 164.4556274  12.3848200  86.2533875 163.6075287  12.5304852
  86.3814697 165.7048340  12.9891148  85.8640671 166.5518341  12.5385962
  86.0512772 165.8788300  14.5095406  86.4463806 164.9994354  15.0181398
  86.6318283 166.6332397  15.0404978  84.6337662 166.1091919  14.8288584
  84.0739059 167.4627686  14.7749710  84.6419830 168.3319550  14.4779644
  82.6927185 167.5873413  15.0228872  82.2249985 168.5591736  14.9662733
  81.9029007 166.5069275  15.3777552  80.8694611 166.7374268  15.5905676
  82.4206161 165.2165070  15.4509535  81.8959885 164.3122253  15.7219334
  83.7657776 165.0411224  15.1810026  84.1354828 164.0292053  15.2567930
  87.8749924 165.7212219  12.6870737  88.6934586 165.3040924  13.5577917
  88.3197784 166.2807770  11.5429897  87.4700699 166.5842896  10.4482317
  87.0382614 167.5842590  10.4895544  86.7193298 165.8330994  10.2028589
  88.3848648 166.6701813   9.2047462  88.0036163 167.4626923   8.5607805
  88.3527222 165.7179565   8.6752815  89.7920837 166.9160919   9.8075352
  90.0078201 167.9676514   9.9966688  90.5607986 166.4504852   9.1907768
  89.7248383 166.2260742  11.1615553  89.8629150 165.1760406  10.9037914
  90.7823486 166.6883698  12.1243143  90.6954803 167.7129059  12.7959118
  91.8743668 165.8863678  12.2069416  91.7548065 164.9748993  11.7885609
  93.1269684 166.2001343  12.9202499  93.9078522 165.4776917  12.6827593
  93.3775787 167.2497406  12.7665424  92.9307404 166.0159149  14.4008989
  93.9495621 166.0571899  15.1042995  91.7156067 165.7643280  14.9226933
  90.8570251 165.8008118  14.3920183  91.4450912 165.0447998  16.1077614
  92.0695038 165.3288727  16.9548244  90.0739975 165.5166321  16.6633282
  89.3520737 165.2070312  15.9076366  89.7822800 164.8695984  17.4905872
  89.9846954 166.9679565  17.1197376  90.2341461 167.2124329  18.4642677
  90.3882675 166.3204193  19.0533142  90.0122757 168.4992981  19.0052547
  90.0930862 168.6739655  20.0679684  89.5559464 169.5766296  18.2422829
  89.4365463 170.8373718  18.7207947  89.8170853 170.8899841  19.6005783
  89.2806396 169.3170624  16.9101429  88.7666092 170.0601044  16.3184834
  89.5215530 168.0133820  16.3366489  89.1485291 167.8568420  15.3352757
  91.4787292 163.5269775  15.8716259  91.0027008 163.0551300  14.8477297
  92.0201263 162.7788544  16.8623219  92.4305267 163.1803131  17.6932850
  92.0098038 161.3358765  16.9267521  91.9425430 160.9601593  15.9057617
  93.3013992 160.7538757  17.5521145  93.7052460 161.3822937  18.3459015
  93.0350342 159.7475128  17.8752327  94.1237030 160.7352753  16.8368740
  90.8336105 160.8419037  17.7324772  90.6965637 161.2759399  18.9084206
  89.9470749 159.9530182  17.2103825  90.0841064 159.6970825  16.2430058
  88.9377975 159.2495575  17.9394932  88.4614487 159.9727478  18.6014519
  87.8359528 158.6900177  16.9698544  87.0129395 158.2845154  17.5583477
  87.3713760 159.5351410  16.4618835  88.2516785 157.7436371  15.9294777
  88.5199738 158.0983887  14.6847258  88.4321976 159.0726776  14.2270546
  88.7915421 156.9677277  14.0119352  88.9673615 156.9080811  13.0191460
  88.8863297 155.8780212  14.7727432  89.1495667 154.5325012  14.4922333
  89.3377533 154.2251892  13.4741230  89.0944290 153.5551300  15.5124474
  89.4324493 152.5722656  15.2189503  88.7035904 153.9214935  16.8151588
  88.7550583 153.2266235  17.6403351  88.3715591 155.3016357  17.0310154
  88.1484299 155.6412201  18.0316620  88.4956360 156.2969971  16.0479393
  89.5230484 158.1058197  18.7530727  90.5304337 157.5478058  18.4279308
  88.8103027 157.7309265  19.8321056  88.0840836 158.3721924  20.1175900
  89.1886444 156.5293732  20.6539459  89.3341217 155.7215881  19.9367161
  90.4907837 156.6597748  21.4880486  91.2479019 157.2154541  20.9348011
  90.3737030 157.3947906  22.8295307  89.9353867 156.7898865  23.6232986
  91.4074020 157.5706329  23.1272678  89.8107834 158.3239288  22.7404938
  90.9298477 155.3929596  21.7805195  91.7273636 155.3261261  22.3107033
  87.9403992 156.1376495  21.4345226  87.1859818 157.0511475  21.8965492
  87.5780106 154.8365479  21.5629158  88.2985153 154.1435547  21.4189148
  86.3088379 154.3441315  21.8475819  85.6319580 154.9103241  21.2077751
  86.2603226 152.8402252  21.5526695  86.9561615 152.2425842  22.1415119
  84.7713318 152.3693085  21.7819481  84.1089554 153.0583954  21.2579861
  84.5845184 151.3748322  21.3767071  84.5344849 152.3465424  22.8456612
  86.6032486 152.5365601  20.0259018  85.6367264 152.4770355  19.5255127
  87.1278229 153.3688049  19.5565567  87.4157028 151.2798767  19.7230873
  86.7928085 150.3979187  19.8722591  87.6149902 151.1910858  18.6551437
  88.2901535 151.2289581  20.3718071  85.9927368 154.6459351  23.3330917
  86.8078156 154.4097290  24.2764454  84.7616272 155.1231842  23.6069794
  84.1450195 155.1718750  22.8085232  84.1029739 155.4125519  24.8968563
  84.8556747 155.4104767  25.6852341  83.3779144 156.7063904  24.8242321
  82.8007126 156.6510925  23.9012547  82.7684174 156.9171448  25.7029762
  84.0629730 157.5251007  24.6040096  83.1490784 154.2548370  25.2293720
  82.2286377 153.9181519  24.4568100  83.2240601 153.7151337  26.4428177
  83.9107666 154.1269836  27.0583687  82.1981888 152.8539581  27.1043625
  81.3320618 152.9019318  26.4443474  82.8298721 151.3618622  27.0701962
  83.8813095 151.4489136  27.3440647  82.3958282 150.6999664  27.8195896
  82.7333221 150.7849731  25.6480618  81.6677628 150.5760956  25.5528965
  83.0794144 151.5216980  24.9231033  83.5685043 149.5280457  25.5447445
  84.5961151 149.4429321  24.9678535  83.1273804 148.5104828  26.2293510
  83.7308197 147.7020264  26.1805477  82.2016602 148.4491577  26.6285744
  81.7396088 153.3735657  28.4317989  82.4555817 154.0769958  29.1368523
  80.4985275 152.9548645  28.8066540  79.9816895 152.3864288  28.1510296
  79.8600769 153.3782196  30.0801678  79.9926147 154.3950043  30.4498730
  78.2959290 153.2377167  29.8907967  77.9732666 153.9290771  29.1123257
  78.1384964 152.2086639  29.5677471  77.4877701 153.5529327  31.5034142
  76.3549500 152.8810730  31.2793064  80.3769913 152.4645691  31.1690216
  80.4593124 151.2499084  30.9912567  80.6824188 153.0025024  32.3622398
  80.5585556 154.0042572  32.3267937  81.5569534 152.4517365  33.4625931
  82.3361893 151.8220367  33.0331955  82.2309036 153.5988312  34.1614952
  82.8624802 154.1229095  33.4441757  81.3720016 154.2210541  34.4129410
  83.0072021 153.2572327  35.4337769  82.3528976 152.7771149  36.1614189
  83.7559586 152.4703979  35.3423500  83.6533737 154.5190430  35.9823685
  82.8739166 155.2559052  36.1762352  84.0751343 154.3260956  36.9687691
  84.6732864 155.0898590  35.1446953  84.7238464 154.7602844  34.1913147
  85.6521759 156.0330963  35.4029922  86.0154266 156.4061279  36.6041832
  85.5065155 156.0565948  37.4035187  86.8156204 157.0066833  36.7424812
  86.4016113 156.5699005  34.4717255  86.1927719 156.4321136  33.4932060
  87.2000809 157.1620483  34.6504097  80.8424988 151.4175568  34.3045731
  81.5414963 150.5913696  35.0042267  79.4908371 151.3792114  34.3828087
  78.9857559 152.0637207  33.8383217  78.6749802 150.4333649  35.1853142
  79.2666931 150.1026459  36.0388985  77.3474274 151.1284485  35.7625885
  76.8036041 151.7212219  35.0270767  76.3869934 150.1764069  36.3907661
  76.8667297 149.4567261  37.0541039  75.5964661 150.7398834  36.8864174
  75.9383545 149.5690918  35.6046448  77.7607574 152.2564240  36.8624573
  78.3357010 153.0431366  36.3739548  76.8016434 152.6441040  37.2058487
  78.4388046 151.6801147  38.1091194  79.4448318 151.4353027  37.7684250
  78.4971695 152.4179688  38.9092751  77.9567490 150.7860870  38.5046501
  78.3394775 149.1501617  34.3963852  78.2861252 148.0454254  34.9752159
  78.1095505 149.3077698  33.1169052  78.2349014 150.1958313  32.6524200
  77.5191879 148.2032166  32.2839050  77.2571259 147.2784882  32.7980156
  76.1187820 148.7468414  31.8648720  75.7239685 147.9200745  31.2743778
  75.5483704 149.0146027  32.7542686  76.3602371 150.1876678  30.7290249
  75.0826492 150.2597809  30.3450279  78.4497681 147.6863556  31.1581898
  78.2302704 146.5617676  30.6783028  79.4537430 148.4935913  30.7776222
  79.6320953 149.3412933  31.2969265  80.3158035 148.2456665  29.5918541
  81.2865906 148.7413025  29.5950794  80.4727859 147.1710358  29.4988670
  79.6944122 148.6047211  28.2341003  80.2416458 148.2361298  27.2382622
  78.5563889 149.3307953  28.2107410  78.1266479 149.5868225  29.0881672
  77.7939072 149.7241669  26.9839954  77.6215134 148.8527527  26.3523083
  76.4419785 150.3797455  27.3036900  75.9728088 149.7535858  28.0625706
  76.5941620 151.3915863  27.6793461  75.6082382 150.5369415  26.0449543
  75.5375290 149.6619568  25.2436142  75.0827713 151.7247314  25.8479252
  74.8682480 151.9722595  24.8925133  75.2139664 152.4764099  26.5096550
  78.6886444 150.6791229  26.2205544  79.1584625 151.6345673  26.8000145
  78.7427826 150.5948029  24.9121933  78.3478470 149.7415314  24.5433388
  79.4037399 151.4975739  23.9492912  80.4581528 151.6056213  24.2035198
  79.3583527 150.8156586  22.5446072  79.9423218 149.8959198  22.5105629
  78.3295441 150.6853790  22.2089348  79.9064636 151.7822113  21.4417324
  79.3765945 151.9301758  20.1067944  80.2045212 152.7607727  19.4804497
  79.9262924 153.1842804  18.5267048  81.2662201 153.0810547  20.3057823
  82.0211563 153.6965637  20.0387421  81.1303558 152.3905487  21.4969406
  81.8688126 152.4040070  22.2849102  78.7120590 152.8968658  23.8842735
  77.5100632 153.0386353  23.7215328  79.5048981 153.9712219  24.0657558
  80.5010757 153.8378906  23.9660130  79.1163177 155.3881378  24.2197399
  78.0382156 155.4031830  24.0598469  79.3233871 155.9926758  25.6231441
  80.3611755 155.9589844  25.9547520  78.8957367 156.9888916  25.7361622
  78.5994263 155.1332397  26.6458702  78.8755417 154.0788422  26.6354771
  78.8908844 155.5422974  27.6132450  76.7394028 155.0040283  26.5559330
  76.2490768 156.7154694  26.6304855  76.3711014 157.2401581  25.6829014
  75.1905212 156.7700348  26.8846149  76.8444748 157.1631165  27.4262390
  79.7483368 156.2596588  23.1621056  79.8193817 157.4680634  23.3624516
  80.2104721 155.7536163  22.0045948  80.2236710 154.7554474  21.8509827
  80.7946548 156.6410828  20.9777222  80.6814499 156.1718445  20.0004330
  80.2928162 157.6077728  20.9357491  82.3236084 156.8041992  21.2269669
  82.9956512 155.7773895  21.2876244  82.8224640 158.0501251  21.1093044
  82.1472092 158.7763519  20.9176311  84.2774353 158.3356171  21.0625248
  84.8535080 157.5135193  21.4872417  84.8327484 158.3128204  19.6582890
  84.4523621 159.2114563  19.1726418  85.9041901 158.5041046  19.7175407
  84.6215668 157.1426849  18.8174725  85.4548416 156.1498718  18.6522617
  86.4344025 156.0850677  19.1024399  84.9880371 155.1012726  17.9336815
  85.5208282 154.2515259  17.8146858  83.6194382 155.3181458  17.7836914
  82.5357742 154.5165100  17.4225578  82.8184967 153.5044250  17.1732941
  81.2404327 155.0856171  17.2166748  80.3759613 154.5095978  16.9212456
  81.1197357 156.4968872  17.5223923  80.0993881 156.8417358  17.4425526
  82.1733780 157.3154602  18.0267887  82.0870056 158.3505707  18.3225555
  83.4899597 156.7246704  18.0788364  84.6221695 159.4985199  21.8190536
  83.8790894 160.5112915  21.7443237  85.7996140 159.4270630  22.4242344
  86.3498154 158.5808716  22.4607849  86.6335144 160.5593567  22.9288483
  85.9910812 161.3992462  23.1933517  87.5160675 160.1382141  24.0972595
  86.8523865 159.8576660  24.9151421  88.1166077 159.2737274  23.8141842
  88.3818359 161.2825012  24.6332073  89.0339737 161.7740479  23.9112682
  87.7416687 162.0819855  25.0061760  89.2556992 160.8967133  25.8586922
  88.6405411 160.3381042  26.5641174  90.0539703 160.2933197  25.4265156
  89.8097076 162.1722565  26.5029144  90.4773941 162.6253510  25.7701130
  88.9151535 162.7948608  26.5189915  90.5194092 162.0120239  27.8416061
  91.4389954 161.6179962  27.7030525  90.7478180 162.9059753  28.2524605
  89.9991684 161.4954681  28.5363102  87.4535751 160.9751434  21.7304020
  88.0953140 160.1137848  21.1032486  87.5609894 162.3059692  21.5730705
  87.1788025 162.9729614  22.2281723  88.4204254 162.9739838  20.6694794
  88.8851395 162.1500702  20.1279049  87.6229630 163.8039093  19.7172222
  87.1058807 164.5160522  20.3603134  88.2826157 164.3598022  19.0509338
  86.7360001 163.0558319  18.8029671  87.0999908 162.8197174  17.4648705
  88.0634918 163.0981445  17.0641861  86.1975479 162.2585297  16.5608025
  86.5209351 162.1079865  15.5414085  84.9728165 161.7098694  16.9666595
  84.3694077 161.1924286  16.2355289  84.5337830 161.9318390  18.2875061
  83.6064835 161.5015717  18.6358910  85.3982086 162.6668701  19.1501808
  85.0672760 162.7908325  20.1707306  89.5539703 163.7489929  21.3856506
  89.3075638 164.6816101  22.1751785  90.7841568 163.5075684  20.9600048
  90.8769455 162.7318268  20.3199310  91.9914551 164.2015991  21.4582043
  91.6455917 164.9977722  22.1174374  92.9479828 163.3341370  22.3017311
  93.8553467 163.8399353  22.6318016  92.2676239 163.0736237  23.6076393
  91.3644028 162.5006409  23.3979015  92.9605179 162.4379730  24.1589527
  92.0346069 163.9973602  24.1372871  93.2741547 162.1051941  21.7409821
  93.6310043 162.3550873  20.8855247  92.6561966 164.8171082  20.2853241
  92.8283234 164.1816254  19.2415390  93.0474777 166.0482635  20.3887024
  93.1123276 166.4469147  21.3144321  93.7196960 166.7618408  19.3400574
  93.1272812 166.7607727  18.4251022  93.7771683 168.2127991  19.7140942
  94.3179474 168.3610992  20.6487961  94.1360626 168.7801056  18.8553429
  92.7612915 168.6060638  19.7521839  95.1248856 166.1533508  19.2113380
  95.7755814 165.8619843  20.2476578  95.6488724 165.9979095  17.9576073
  95.1602631 166.1415100  17.0854034  97.0278473 165.5399323  17.7380772
  97.2901993 164.8824921  18.5669556  97.0985794 164.5923615  16.4904079
  98.1228027 164.2240295  16.5487862  96.1497498 163.4277496  16.6939030
  95.1160049 163.7733612  16.6974373  96.2565765 162.6411285  15.9469547
  96.3004074 163.0237732  17.6950073  96.7999344 165.2536926  15.2740307
  95.8643951 165.4690399  15.2733040  98.1096725 166.5578766  17.5992451
  99.2814713 166.1890869  17.5803509  97.7910919 167.8929749  17.5665150
  96.8276291 168.1602478  17.7093391  98.7083206 169.0475159  17.3214378
  99.7413101 168.7459717  17.4949722  98.5483246 169.5973358  15.8890991
  97.5280151 169.8388214  15.5911827  99.1163559 170.5231018  15.7975035
  99.1575699 168.7237854  14.7933807 100.1987076 168.7041473  15.1154852
  98.8239517 167.6900024  14.8831968  98.9364395 169.1339264  13.3683023
  99.1311188 170.2064056  13.3670788  99.7016296 168.6977539  12.7261639
  97.4745789 168.7505341  12.8854342  97.3296280 167.6703339  12.9019537
  96.8073349 169.2746277  13.5696964  97.2584457 169.1827087  11.4825869
  97.7558136 168.6368561  10.7935333  96.3064651 169.0003510  11.1987162
  97.4664536 170.1560364  11.3109875  98.4705048 170.1096344  18.3569908
  97.3501663 170.3666077  18.8303967  99.5645752 170.8180084  18.6857681
 100.4198380 170.5424042  18.2246170  99.7076797 171.6328430  19.9219036
  99.2351456 171.0568237  20.7175312 101.1607056 171.6898804  20.3299065
 101.2343597 171.9635162  21.3824291 101.6941605 170.7514801  20.1784611
 101.9394531 172.6790466  19.4537449 102.0462875 172.2821198  18.4442215
 101.4760437 173.6654663  19.4719391 103.3446808 172.8873596  19.9972858
 103.2069931 173.1071320  21.0559864 103.8176270 171.9121704  19.8813190
 104.1016083 174.0490723  19.4139175 103.3978958 174.8806610  19.3769054
 104.8997192 174.3143616  20.1072769 104.5929871 173.8016968  18.0037975
 103.8375015 173.3514862  17.5071507 104.8196182 174.6436005  17.4939690
 105.3984070 173.1984406  17.9173622  99.0730286 173.0586853  19.9288979
  99.1401749 173.6799622  20.9725685  98.6294250 173.6024475  18.7371750
  98.6552353 173.0388794  17.8994255  98.1191406 175.0442047  18.6736851
  98.2138977 175.4877014  19.6648636  99.0014038 175.9339752  17.7868671
  98.7691040 176.9906311  17.9194927 100.0114670 175.7151489  18.1332626
  98.8794785 175.7186737  16.3414154  98.3590393 174.6479034  15.8735571
  99.2368317 176.6577454  15.5831308  96.6045914 175.1044312  18.4446812
  96.0398178 176.2201843  18.4712429  95.9275970 173.9739990  18.2636223
  96.4180679 173.0957031  18.3538094  94.4702988 173.8412781  18.1921062
  94.2562714 174.6704407  17.5177383  94.0421219 172.4985046  17.5808659
  94.2895508 171.6720428  18.2470703  92.9748611 172.5938568  17.3809566
  94.6391220 172.2136536  16.1977425  94.2505417 172.9089813  15.4536905
  95.7105942 172.4097137  16.2378960  94.4669800 170.5453796  15.4148397
  92.6519775 170.4771881  15.1728926  92.3123169 171.3209839  14.5722933
  92.3541183 169.5568848  14.6704712  92.1984482 170.5625153  16.1603794
  93.7196732 173.9786530  19.5276394  94.3151703 173.6063080  20.5345383
  92.4602585 174.4378662  19.5721607  92.0671692 174.8045197  18.7170868
  91.5676346 174.6031799  20.7127304  91.9859848 174.0286255  21.5391464
  91.5783157 176.0646515  21.2686329  92.6092682 176.2751923  21.5530758
  91.2626801 176.7829590  20.5119896  90.6370850 176.2187653  22.3695564
  91.0587769 176.0635681  23.2179070  90.1517792 174.2049561  20.3905754
  89.6900177 174.7679291  19.3792057  89.4550095 173.3879547  21.1787090
  88.0509415 173.0664978  20.8971539  87.7834396 172.8089142  19.8723660
  87.4490128 173.9505768  21.1073895  87.7670822 171.8800354  21.8100166
  88.0456238 170.9703827  21.2779694  86.7065125 171.9248657  22.0575676
  88.6448288 172.1905212  23.0472107  88.9859009 171.2834473  23.5461903
  88.1380310 172.8796692  23.7227364  89.9128265 172.8231354  22.4360447
  90.2257462 173.6548157  23.0673103  91.0678635 171.7700348  22.2832031
  91.3232422 171.3152466  21.1416435  91.6737213 171.3471375  23.4134636
  91.3522339 171.6724396  24.3139725  92.6897888 170.2582855  23.3606758
  93.3002701 170.4870453  22.4871311  93.5802536 170.3655396  24.6789436
  94.1575317 171.2789612  24.5357723  92.9426193 170.4545288  25.5584927
  94.6070328 169.2792511  24.9700737  94.8967056 169.6477661  25.9541435
  94.1639633 168.2834473  24.9831333  95.7917633 169.2682800  24.0187092
  95.8317184 169.9590759  22.9702969  96.8147507 168.4692688  24.3110600
  97.5751343 168.3646851  23.6545658  96.8149490 167.8872528  25.1365070
  92.0024796 168.9088898  23.2718048  92.4177856 167.9728851  22.5730934
  90.9989166 168.8040619  24.1563950  90.8262863 169.6235352  24.7209854
  90.1223907 167.5398407  24.2348862  90.3840332 166.8799133  23.4077606
  90.3959122 166.8722687  25.6650105  89.7958984 165.9631042  25.7038345
  91.4656067 166.7138672  25.8019485  89.9228439 167.7774048  26.7849827
  90.1041794 168.8166046  26.5106087  88.8382874 167.6964722  26.8576260
  90.5919418 167.4288483  28.1478634  89.8562927 167.7325897  28.8926182
  90.7659454 166.3531342  28.1735401  91.9021835 168.2013397  28.2922535
  92.5987396 167.8143768  27.5484982  91.6341095 169.2480927  28.1489277
  92.6075974 167.9698486  29.5942039  92.9591599 167.0295868  29.7056599
  93.4106293 168.5645905  29.7408962  91.9759979 168.1470795  30.3621693
  88.7030640 167.8972778  24.0056744  88.2162781 168.9553223  24.2948589
  87.9170456 166.9162750  23.4669151  88.3028870 166.0573273  23.1016159
  86.4593430 166.8482056  23.6276798  86.1700974 167.1788940  24.6252155
  85.8543625 167.7629395  22.5860920  84.9453506 168.2560120  22.9305897
  86.4798889 168.6531067  22.5195808  85.6899414 167.2105255  21.1497669
  86.7449188 167.3548126  20.2293472  87.5653763 168.0245361  20.4408321
  86.6605453 166.8133698  18.9241104  87.4030228 166.9783630  18.1573563
  85.5427170 166.1127167  18.5797997  85.4988556 165.7346497  17.5690842
  84.4860001 165.9541168  19.4522800  83.5923538 165.4331055  19.1418724
  84.4841766 166.5385437  20.7516289  83.5670319 166.5215302  21.3216820
  85.9663773 165.4193726  23.5377350  86.6375351 164.4465637  23.2626896
  84.6697235 165.2930603  23.7547455  84.2134323 166.1595459  24.0019188
  83.8708267 164.1225433  23.7434673  84.4519501 163.2888031  23.3494167
  83.4240341 163.7206879  25.1207924  82.8280182 164.5414581  25.5197792
  82.7828522 162.8511810  24.9760590  84.4341202 163.3915558  26.1628895
  85.0858383 164.3880463  26.8284073  84.9521637 165.4535675  26.7134724
  85.9372635 163.8523254  27.7383175  86.5009842 164.3752136  28.3932285
  85.9226685 162.4517822  27.6462536  86.4645538 161.5046082  28.4844952
  86.9734116 161.8233490  29.3821945  86.1932831 160.0997162  28.1839523
  86.5897522 159.3061066  28.7999058  85.4201126 159.7792969  27.0490761
  85.2693558 158.7483673  26.7647057  84.7951584 160.7805786  26.2559319
  84.3237839 160.4738770  25.3339024  85.0291748 162.1347046  26.5877647
  82.7516785 164.1865845  22.6527843  81.9328461 165.1331177  22.6155071
  82.7308884 163.1851654  21.8212376  83.3855820 162.4218903  21.9154034
  81.7492676 162.9725342  20.7115059  81.0959625 163.8361664  20.5873795
  82.2403107 162.7707825  19.7595215  80.8341141 161.7687836  20.9680595
  80.9458084 160.7123260  20.3638382  79.9378510 161.9217682  21.9489594
  79.7921600 162.8760223  22.2460384  79.0552216 160.8217926  22.5648193
  79.7327652 159.9685669  22.5970097  78.5586243 161.1987457  23.9753819
  77.7677994 161.9436493  23.8870659  78.1470184 160.2718811  24.3748817
  79.6605301 161.7082520  24.9242516  80.2133636 162.5249329  24.4600048
  78.9586182 162.2739105  26.1370659  78.4222870 161.4665833  26.6357327
  79.6502991 162.7052307  26.8606930  78.2691803 163.0688782  25.8528252
  80.7106857 160.6767578  25.3184338  81.1318207 160.3003082  24.3862133
  81.4961243 161.1191254  25.9312172  80.2461395 159.7783966  25.7249241
  77.8059464 160.3330536  21.7694244  76.9699860 161.2310028  21.4371872
  77.5605698 159.0728455  21.6181450  78.1004333 158.2889099  21.9559402
  76.4441757 158.6576080  20.7068901  76.4941101 159.2807159  19.8139439
  76.5682983 157.1599121  20.2558727  75.5876007 156.8029327  19.9413929
  77.5751572 157.0547028  19.1553783  78.4197540 157.6604309  19.4837589
  77.7866821 155.9947052  19.0147552  77.1100464 157.5888824  18.3268719
  77.0935593 156.3550873  21.2890491  76.6508408 155.5038757  21.2570858
  75.1299438 158.8483734  21.3689137  74.9024200 158.4588318  22.5011463
  74.1642075 159.6121368  20.7715683  74.4781799 160.0134735  19.8995266
  72.9104233 159.9985962  21.4524803  73.2083206 160.2152252  22.4783592
  72.3583832 161.3830566  20.9179173  71.5076981 161.6410217  21.5487137
  73.1698761 162.1058502  21.0024414  71.8712692 161.3858490  19.4250374
  72.6084213 161.9673309  18.8713303  71.9118881 160.3693848  19.0335732
  70.5179214 162.0798798  19.1291294  70.4545288 162.9894867  19.7263794
  70.4364243 162.2722473  18.0593376  69.4075546 161.2518158  19.6130009
  69.1911545 161.3014374  20.5982971  68.6652756 160.4859009  18.8620796
  68.8392792 160.1481476  17.5942726  69.5221100 160.5969543  17.0006275
  68.1116867 159.5943756  17.1652699  67.5678940 160.0599213  19.4009781
  67.2005005 160.4816284  20.2419796  66.9171829 159.5877838  18.7896099
  71.8290405 158.9193268  21.4694748  70.8779907 158.9765930  22.2724133
  71.9621506 157.8801270  20.6396027  72.7295227 157.9298401  19.9848003
  71.2079391 156.5845947  20.7341290  70.1591492 156.8274384  20.5633488
  71.6507568 155.7585907  19.5918503  71.3342896 154.7170410  19.6476154
  71.2616043 156.1283722  18.6432056  73.1235275 155.6729889  19.5433521
  73.3732986 155.4678955  18.6393909  71.4451904 155.9096069  22.0994415
  70.5369644 155.2731934  22.6385155  72.6206512 156.0204315  22.7426949
  73.3854675 156.4644318  22.2548256  72.9828949 155.3042145  23.9605541
  72.4156952 154.3790741  24.0630798  74.3903198 154.7740326  23.8661404
  75.1192474 155.5804901  23.7861042  74.5833054 154.1663971  24.7502346
  74.5142059 154.1697083  22.9675121  72.8950119 156.1965485  25.2437153
  72.8365097 155.6631317  26.3211842  72.6720886 157.4725189  25.1023655
  72.7572784 157.8629456  24.1747761  72.4020844 158.3542480  26.2241268
  72.8611374 157.8524017  27.0759029  73.0054703 159.8089142  25.9472275
  72.5482559 160.2272949  25.0505581  72.5398178 160.4326324  26.7102814
  74.5375671 160.0125885  25.9817581  75.0274429 159.2101898  25.4301319
  74.8230515 161.2848511  25.1617794  74.2748032 162.1434174  25.5495510
  75.8807907 161.4909363  25.3255386  74.6121140 161.1199951  24.1051674
  75.1329269 160.2347107  27.3500443  74.8584518 159.3984070  27.9929790
  76.2163696 160.2761230  27.2380486  74.8851929 161.1927795  27.8070183
  70.8803101 158.3805695  26.5474968  70.0970993 157.8166046  25.7965698
  70.5480499 158.8471985  27.7800560  71.2331390 159.1703491  28.4481335
  69.1309586 159.0279236  28.2260036  68.4548645 159.1036987  27.3743801
  68.6524582 157.7972412  29.0319080  68.7575836 156.8901062  28.4368076
  69.3947525 157.7501678  29.8287067  67.2325821 157.9015961  29.4324360
  66.9881058 158.8345490  29.9402866  66.2173080 157.6743774  28.3275337
  66.3925629 156.7122650  27.8461437  65.2096252 157.6339417  28.7411156
  66.3621597 158.3988800  27.5261497  67.0115891 156.8768158  30.5410366
  67.6364288 157.1261444  31.3986626  65.9841614 156.8730927  30.9050236
  67.1776810 155.8541260  30.2024670  68.9971466 160.2847900  29.0436268
  69.5594330 160.3598328  30.1713314  68.2107849 161.2930298  28.6216545
  67.8017120 161.5309143  27.2554626  66.8005066 161.1441956  27.0653744
  68.3999634 161.0052490  26.5112362  67.8049927 163.0060577  27.0439434
  67.0715408 163.2208099  26.2667561  68.8216476 163.3578949  26.8686504
  67.4739304 163.5647736  28.4219666  66.3844986 163.5902252  28.3976421
  67.8850784 164.5567169  28.6093235  67.9717636 162.5234680  29.4389229
  68.9703522 162.8338013  29.7465191  66.9726639 162.3337250  30.6831951
  66.0886765 163.1745758  30.8229008  67.2801361 161.4314117  31.6191730
  67.9911041 160.7493896  31.3967648  66.5541611 161.1987762  32.8720627
  65.4914703 161.0721130  32.6653366  67.1312256 159.9631500  33.5479012
  67.0776215 159.0786591  32.9131546  68.1989594 160.0764313  33.7355614
  66.4875641 159.6251068  34.9610481  66.7314758 160.5395355  35.5018082
  65.4080505 159.6853485  34.8227081  66.9691849 158.3621063  35.6397095
  67.9965897 158.1078949  35.3791122  67.0159607 158.5385590  36.7143173
  66.0314407 157.2433472  35.2924995  65.5058212 157.2577057  34.4301643
  65.8698654 156.1467590  35.9789238  66.4756622 155.8949432  37.0977135
  67.1782684 156.5299835  37.4486885  66.3397141 155.0680847  37.6615486
  65.1195221 155.2084808  35.5373993  64.5254898 155.4664307  34.7623596
  64.9022522 154.3718719  36.0598831  66.5872269 162.4029999  33.9290390
  65.4571075 162.8854980  34.1814079  67.6902542 162.7639618  34.4460449
